<event>
 7    1  0.1019486E-010  0.4778727E+02  0.7816164E-02  0.1312668E+00
        -11   -1    0    0    0    0  0.00000000000E+00  0.00000000000E+00  0.45593999997E+02  0.45594000000E+02  0.51100000000E-03 0. -1.
         11   -1    0    0    0    0 -0.00000000000E+00 -0.00000000000E+00 -0.45593999997E+02  0.45594000000E+02  0.51100000000E-03 0.  1.
    9900012    2    1    2    0    0  0.12925502674E+02 -0.19458913803E+02  0.36577384793E+02  0.47787273923E+02  0.20000013123E+02 0.  0.
        -12    1    1    2    0    0 -0.12925502674E+02  0.19458913803E+02 -0.36577384793E+02  0.43400726077E+02  0.00000000000E+00 0.  1.
         11    1    3    3    0    0  0.13095295806E+02 -0.64174088693E+01  0.20581493732E+02  0.25224349216E+02  0.51100000000E-03 0. -1.
        -11    1    3    3    0    0 -0.19588442120E+01 -0.13551271211E+02  0.12213599286E+02  0.18347916227E+02  0.51100000000E-03 0.  1.
        -12    1    3    3    0    0  0.17890510799E+01  0.50976627700E+00  0.37822917744E+01  0.42150084805E+01  0.00000000000E+00 0.  1.
</event>
<event>
 7    1  0.1019486E-010  0.4778727E+02  0.7816164E-02  0.1312668E+00
        -11   -1    0    0    0    0  0.00000000000E+00  0.00000000000E+00  0.45593999997E+02  0.45594000000E+02  0.51100000000E-03 0. -1.
         11   -1    0    0    0    0 -0.00000000000E+00 -0.00000000000E+00 -0.45593999997E+02  0.45594000000E+02  0.51100000000E-03 0.  1.
    9900012    2    1    2    0    0 -0.34647321252E+02 -0.55639955860E+01 -0.25538763516E+02  0.47787270066E+02  0.19999995540E+02 0.  0.
         12    1    1    2    0    0  0.34647321252E+02  0.55639955860E+01  0.25538763516E+02  0.43400729934E+02  0.00000000000E+00 0. -1.
         11    1    3    3    0    0 -0.32043103801E+01 -0.70809708792E+01 -0.56290155751E+01  0.95965394914E+01  0.51100000000E-03 0. -1.
        -11    1    3    3    0    0 -0.17862086464E+02  0.49922091838E+01 -0.12081637699E+02  0.22134639259E+02  0.51100000000E-03 0.  1.
        -12    1    3    3    0    0 -0.13580924409E+02 -0.34752338905E+01 -0.78281102426E+01  0.16056091316E+02  0.00000000000E+00 0.  1.
</event>
<event>
 7    1  0.1019486E-010  0.4778726E+02  0.7816164E-02  0.1312668E+00
        -11   -1    0    0    0    0  0.00000000000E+00  0.00000000000E+00  0.45593999997E+02  0.45594000000E+02  0.51100000000E-03 0. -1.
         11   -1    0    0    0    0 -0.00000000000E+00 -0.00000000000E+00 -0.45593999997E+02  0.45594000000E+02  0.51100000000E-03 0.  1.
    9900012    2    1    2    0    0 -0.11843256958E+02  0.39224671283E+02  0.14310361260E+02  0.47787262541E+02  0.19999961227E+02 0.  0.
        -12    1    1    2    0    0  0.11843256958E+02 -0.39224671283E+02 -0.14310361260E+02  0.43400737459E+02  0.00000000000E+00 0.  1.
         11    1    3    3    0    0 -0.61611931373E+00  0.45500841870E+01  0.77611391294E+01  0.90176576762E+01  0.51100000000E-03 0. -1.
        -11    1    3    3    0    0 -0.60670022564E+01  0.27033630420E+02  0.44076260078E+00  0.27709564450E+02  0.51100000000E-03 0.  1.
        -12    1    3    3    0    0 -0.51601353878E+01  0.76409566758E+01  0.61084595293E+01  0.11060040414E+02  0.00000000000E+00 0.  1.
</event>
<event>
 7    1  0.1019486E-010  0.4778727E+02  0.7816164E-02  0.1312668E+00
        -11   -1    0    0    0    0  0.00000000000E+00  0.00000000000E+00  0.45593999997E+02  0.45594000000E+02  0.51100000000E-03 0. -1.
         11   -1    0    0    0    0 -0.00000000000E+00 -0.00000000000E+00 -0.45593999997E+02  0.45594000000E+02  0.51100000000E-03 0.  1.
    9900012    2    1    2    0    0  0.65452163821E+01 -0.17881450739E+01 -0.42867074614E+02  0.47787269519E+02  0.19999993044E+02 0.  0.
         12    1    1    2    0    0 -0.65452163821E+01  0.17881450739E+01  0.42867074614E+02  0.43400730481E+02  0.00000000000E+00 0. -1.
         11    1    3    3    0    0  0.25726083106E+01 -0.91099132840E+00  0.10314105166E+01  0.29175377693E+01  0.51100000000E-03 0. -1.
        -11    1    3    3    0    0  0.37921421453E+01  0.15128297483E+01 -0.40532511581E+02  0.40737617643E+02  0.51100000000E-03 0.  1.
         12    1    3    3    0    0  0.18046592622E+00 -0.23899834938E+01 -0.33659735503E+01  0.41321141069E+01  0.00000000000E+00 0. -1.
</event>
<event>
 7    1  0.1019486E-010  0.4778727E+02  0.7816164E-02  0.1312668E+00
        -11   -1    0    0    0    0  0.00000000000E+00  0.00000000000E+00  0.45593999997E+02  0.45594000000E+02  0.51100000000E-03 0. -1.
         11   -1    0    0    0    0 -0.00000000000E+00 -0.00000000000E+00 -0.45593999997E+02  0.45594000000E+02  0.51100000000E-03 0.  1.
    9900012    2    1    2    0    0  0.17136904417E+00 -0.26893938490E+02  0.34063321883E+02  0.47787271982E+02  0.20000004273E+02 0.  0.
        -12    1    1    2    0    0 -0.17136904417E+00  0.26893938490E+02 -0.34063321883E+02  0.43400728018E+02  0.00000000000E+00 0.  1.
         11    1    3    3    0    0 -0.40100766387E+01 -0.27775954557E+01  0.13150489744E+02  0.14026087549E+02  0.51100000000E-03 0. -1.
        -11    1    3    3    0    0  0.30802244180E+01 -0.18493123388E+02  0.95608660045E+01  0.21045036329E+02  0.51100000000E-03 0.  1.
        -12    1    3    3    0    0  0.11012212649E+01 -0.56232196464E+01  0.11351966134E+02  0.12716148103E+02  0.00000000000E+00 0.  1.
</event>
<event>
 7    1  0.1019486E-010  0.4778727E+02  0.7816164E-02  0.1312668E+00
        -11   -1    0    0    0    0  0.00000000000E+00  0.00000000000E+00  0.45593999997E+02  0.45594000000E+02  0.51100000000E-03 0. -1.
         11   -1    0    0    0    0 -0.00000000000E+00 -0.00000000000E+00 -0.45593999997E+02  0.45594000000E+02  0.51100000000E-03 0.  1.
    9900012    2    1    2    0    0  0.23865148411E+01 -0.95204580710E+01 -0.42276336953E+02  0.47787271421E+02  0.20000001719E+02 0.  0.
         12    1    1    2    0    0 -0.23865148411E+01  0.95204580710E+01  0.42276336953E+02  0.43400728579E+02  0.00000000000E+00 0. -1.
         11    1    3    3    0    0 -0.70570830093E+01 -0.98913892517E+01 -0.28572725609E+02  0.31049036232E+02  0.51100000000E-03 0. -1.
        -11    1    3    3    0    0  0.59416287392E+01 -0.23844601726E+00 -0.73121175220E+01  0.94248008729E+01  0.51100000000E-03 0.  1.
         12    1    3    3    0    0  0.35019691112E+01  0.60937719800E+00 -0.63914938219E+01  0.73134343165E+01  0.00000000000E+00 0. -1.
</event>
<event>
 7    1  0.1019486E-010  0.4778728E+02  0.7816164E-02  0.1312668E+00
        -11   -1    0    0    0    0  0.00000000000E+00  0.00000000000E+00  0.45593999997E+02  0.45594000000E+02  0.51100000000E-03 0. -1.
         11   -1    0    0    0    0 -0.00000000000E+00 -0.00000000000E+00 -0.45593999997E+02  0.45594000000E+02  0.51100000000E-03 0.  1.
    9900012    2    1    2    0    0 -0.32313673867E+02  0.17616883138E+02  0.23002057279E+02  0.47787277317E+02  0.20000028601E+02 0.  0.
        -12    1    1    2    0    0  0.32313673867E+02 -0.17616883138E+02 -0.23002057279E+02  0.43400722683E+02  0.00000000000E+00 0.  1.
         11    1    3    3    0    0 -0.29554726030E+02  0.13923066110E+02  0.12825425425E+02  0.35097366543E+02  0.51100000000E-03 0. -1.
        -11    1    3    3    0    0 -0.38445397338E+01  0.35682604957E+01  0.10330927813E+02  0.11586243501E+02  0.51100000000E-03 0.  1.
         12    1    3    3    0    0  0.10855918967E+01  0.12555653182E+00 -0.15429595828E+00  0.11036672739E+01  0.00000000000E+00 0. -1.
</event>
<event>
 7    1  0.1019486E-010  0.4778727E+02  0.7816164E-02  0.1312668E+00
        -11   -1    0    0    0    0  0.00000000000E+00  0.00000000000E+00  0.45593999997E+02  0.45594000000E+02  0.51100000000E-03 0. -1.
         11   -1    0    0    0    0 -0.00000000000E+00 -0.00000000000E+00 -0.45593999997E+02  0.45594000000E+02  0.51100000000E-03 0.  1.
    9900012    2    1    2    0    0 -0.79366846428E+01 -0.77551843330E+01 -0.41958183041E+02  0.47787274531E+02  0.20000015897E+02 0.  0.
         12    1    1    2    0    0  0.79366846428E+01  0.77551843330E+01  0.41958183041E+02  0.43400725469E+02  0.00000000000E+00 0. -1.
         11    1    3    3    0    0  0.14101833498E+01 -0.17018018962E+01 -0.24170663876E-01  0.22102785472E+01  0.51100000000E-03 0. -1.
        -11    1    3    3    0    0 -0.11992686968E+02 -0.87152964966E+00 -0.27451936699E+02  0.29969867091E+02  0.51100000000E-03 0.  1.
        -12    1    3    3    0    0  0.26458189752E+01 -0.51818527871E+01 -0.14482075678E+02  0.15607128893E+02  0.00000000000E+00 0.  1.
</event>
<event>
 7    1  0.1019486E-010  0.4778727E+02  0.7816164E-02  0.1312668E+00
        -11   -1    0    0    0    0  0.00000000000E+00  0.00000000000E+00  0.45593999997E+02  0.45594000000E+02  0.51100000000E-03 0. -1.
         11   -1    0    0    0    0 -0.00000000000E+00 -0.00000000000E+00 -0.45593999997E+02  0.45594000000E+02  0.51100000000E-03 0.  1.
    9900012    2    1    2    0    0 -0.41202913293E+02 -0.72763236437E+00  0.13616671127E+02  0.47787271374E+02  0.20000001503E+02 0.  0.
         12    1    1    2    0    0  0.41202913293E+02  0.72763236437E+00 -0.13616671127E+02  0.43400728626E+02  0.00000000000E+00 0. -1.
         11    1    3    3    0    0  0.51361182963E+00  0.22539822743E+01  0.30104465113E+01  0.37956582647E+01  0.51100000000E-03 0. -1.
        -11    1    3    3    0    0 -0.97606462416E+01 -0.25032725904E+01 -0.67603664104E+00  0.10099188805E+02  0.51100000000E-03 0.  1.
         12    1    3    3    0    0 -0.31955878881E+02 -0.47834204825E+00  0.11282261257E+02  0.33892424304E+02  0.00000000000E+00 0. -1.
</event>
<event>
 7    1  0.1019486E-010  0.4778727E+02  0.7816164E-02  0.1312668E+00
        -11   -1    0    0    0    0  0.00000000000E+00  0.00000000000E+00  0.45593999997E+02  0.45594000000E+02  0.51100000000E-03 0. -1.
         11   -1    0    0    0    0 -0.00000000000E+00 -0.00000000000E+00 -0.45593999997E+02  0.45594000000E+02  0.51100000000E-03 0.  1.
    9900012    2    1    2    0    0  0.27819319309E+02 -0.21137865221E+02 -0.25746827326E+02  0.47787274312E+02  0.20000014896E+02 0.  0.
         12    1    1    2    0    0 -0.27819319309E+02  0.21137865221E+02  0.25746827326E+02  0.43400725688E+02  0.00000000000E+00 0. -1.
         11    1    3    3    0    0  0.57127753835E+01 -0.42114570591E+01  0.12270526876E+01  0.72026267224E+01  0.51100000000E-03 0. -1.
        -11    1    3    3    0    0  0.21159532158E+02 -0.10952658905E+02 -0.24095661129E+02  0.33886389949E+02  0.51100000000E-03 0.  1.
        -12    1    3    3    0    0  0.94701176745E+00 -0.59737492569E+01 -0.28782188841E+01  0.66982576404E+01  0.00000000000E+00 0.  1.
</event>
<event>
 7    1  0.1019486E-010  0.4778727E+02  0.7816164E-02  0.1312668E+00
        -11   -1    0    0    0    0  0.00000000000E+00  0.00000000000E+00  0.45593999997E+02  0.45594000000E+02  0.51100000000E-03 0. -1.
         11   -1    0    0    0    0 -0.00000000000E+00 -0.00000000000E+00 -0.45593999997E+02  0.45594000000E+02  0.51100000000E-03 0.  1.
    9900012    2    1    2    0    0 -0.10783269889E+02  0.69196496603E+01 -0.41466404705E+02  0.47787272125E+02  0.20000004928E+02 0.  0.
         12    1    1    2    0    0  0.10783269889E+02 -0.69196496603E+01  0.41466404705E+02  0.43400727875E+02  0.00000000000E+00 0. -1.
         11    1    3    3    0    0  0.29872452187E+01  0.38320582400E+01 -0.19169036910E+02  0.19775244137E+02  0.51100000000E-03 0. -1.
        -11    1    3    3    0    0 -0.83097947978E+01 -0.21012745552E+01 -0.74223619393E+01  0.11338408237E+02  0.51100000000E-03 0.  1.
         12    1    3    3    0    0 -0.54607203095E+01  0.51888659754E+01 -0.14875005856E+02  0.16673619751E+02  0.00000000000E+00 0. -1.
</event>
<event>
 7    1  0.1019486E-010  0.4778727E+02  0.7816164E-02  0.1312668E+00
        -11   -1    0    0    0    0  0.00000000000E+00  0.00000000000E+00  0.45593999997E+02  0.45594000000E+02  0.51100000000E-03 0. -1.
         11   -1    0    0    0    0 -0.00000000000E+00 -0.00000000000E+00 -0.45593999997E+02  0.45594000000E+02  0.51100000000E-03 0.  1.
    9900012    2    1    2    0    0  0.10081974718E+02  0.54950618385E+01 -0.41854286159E+02  0.47787272025E+02  0.20000004472E+02 0.  0.
         12    1    1    2    0    0 -0.10081974718E+02 -0.54950618385E+01  0.41854286159E+02  0.43400727975E+02  0.00000000000E+00 0. -1.
         11    1    3    3    0    0 -0.17974973564E+00 -0.62204502265E+01 -0.92473619713E+01  0.11146300493E+02  0.51100000000E-03 0. -1.
        -11    1    3    3    0    0  0.77577186969E+01  0.10909794168E+02 -0.30364364223E+02  0.33184340028E+02  0.51100000000E-03 0.  1.
        -12    1    3    3    0    0  0.25040057570E+01  0.80571789700E+00 -0.22425599654E+01  0.34566315047E+01  0.00000000000E+00 0.  1.
</event>
<event>
 7    1  0.1019486E-010  0.4778727E+02  0.7816164E-02  0.1312668E+00
        -11   -1    0    0    0    0  0.00000000000E+00  0.00000000000E+00  0.45593999997E+02  0.45594000000E+02  0.51100000000E-03 0.  1.
         11   -1    0    0    0    0 -0.00000000000E+00 -0.00000000000E+00 -0.45593999997E+02  0.45594000000E+02  0.51100000000E-03 0. -1.
    9900012    2    1    2    0    0 -0.42985401957E+02  0.59633014927E+01 -0.56384045310E+00  0.47787266572E+02  0.19999979606E+02 0.  0.
         12    1    1    2    0    0  0.42985401957E+02 -0.59633014927E+01  0.56384045310E+00  0.43400733428E+02  0.00000000000E+00 0. -1.
         11    1    3    3    0    0 -0.78295580604E+01 -0.44212142511E+01  0.37120645974E+01  0.97277201189E+01  0.51100000000E-03 0. -1.
        -11    1    3    3    0    0 -0.21351194448E+02  0.48219432377E+01 -0.68916762526E+01  0.22948199118E+02  0.51100000000E-03 0.  1.
         12    1    3    3    0    0 -0.13804649448E+02  0.55625725061E+01  0.26157712021E+01  0.15111347334E+02  0.00000000000E+00 0. -1.
</event>
<event>
 7    1  0.1019486E-010  0.4778727E+02  0.7816164E-02  0.1312668E+00
        -11   -1    0    0    0    0  0.00000000000E+00  0.00000000000E+00  0.45593999997E+02  0.45594000000E+02  0.51100000000E-03 0. -1.
         11   -1    0    0    0    0 -0.00000000000E+00 -0.00000000000E+00 -0.45593999997E+02  0.45594000000E+02  0.51100000000E-03 0.  1.
    9900012    2    1    2    0    0 -0.14362758410E+02  0.84833409839E-01  0.40955185412E+02  0.47787271457E+02  0.20000001883E+02 0.  0.
        -12    1    1    2    0    0  0.14362758410E+02 -0.84833409839E-01 -0.40955185412E+02  0.43400728543E+02  0.00000000000E+00 0.  1.
         11    1    3    3    0    0 -0.89120491370E+01  0.14570226347E+01  0.42485200427E+01  0.99798525837E+01  0.51100000000E-03 0.  1.
        -11    1    3    3    0    0 -0.41669039601E+01 -0.40318084959E+01  0.28543876888E+02  0.29126817135E+02  0.51100000000E-03 0. -1.
        -12    1    3    3    0    0 -0.12838053128E+01  0.26596192711E+01  0.81627884820E+01  0.86806017389E+01  0.00000000000E+00 0.  1.
</event>
<event>
 7    1  0.1019486E-010  0.4778727E+02  0.7816164E-02  0.1312668E+00
        -11   -1    0    0    0    0  0.00000000000E+00  0.00000000000E+00  0.45593999997E+02  0.45594000000E+02  0.51100000000E-03 0. -1.
         11   -1    0    0    0    0 -0.00000000000E+00 -0.00000000000E+00 -0.45593999997E+02  0.45594000000E+02  0.51100000000E-03 0.  1.
    9900012    2    1    2    0    0 -0.21850976301E+02  0.37248704590E+02  0.43234077914E+01  0.47787274040E+02  0.20000013656E+02 0.  0.
         12    1    1    2    0    0  0.21850976301E+02 -0.37248704590E+02 -0.43234077914E+01  0.43400725960E+02  0.00000000000E+00 0. -1.
         11    1    3    3    0    0 -0.32823174394E+01  0.16564158248E+02  0.13596775401E+01  0.16940887506E+02  0.51100000000E-03 0.  1.
        -11    1    3    3    0    0 -0.65196305694E+01  0.15495163501E+01  0.46724345886E+01  0.81693469094E+01  0.51100000000E-03 0. -1.
        -12    1    3    3    0    0 -0.12049028292E+02  0.19135029992E+02 -0.17087043373E+01  0.22677039624E+02  0.00000000000E+00 0.  1.
</event>
<event>
 7    1  0.1019486E-010  0.4778727E+02  0.7816164E-02  0.1312668E+00
        -11   -1    0    0    0    0  0.00000000000E+00  0.00000000000E+00  0.45593999997E+02  0.45594000000E+02  0.51100000000E-03 0. -1.
         11   -1    0    0    0    0 -0.00000000000E+00 -0.00000000000E+00 -0.45593999997E+02  0.45594000000E+02  0.51100000000E-03 0.  1.
    9900012    2    1    2    0    0  0.32699016562E+02  0.77666188657E+01 -0.27460464791E+02  0.47787272135E+02  0.20000004971E+02 0.  0.
         12    1    1    2    0    0 -0.32699016562E+02 -0.77666188657E+01  0.27460464791E+02  0.43400727865E+02  0.00000000000E+00 0. -1.
         11    1    3    3    0    0  0.24797984229E+01 -0.22553110486E+01 -0.19986225290E+01  0.39026043123E+01  0.51100000000E-03 0. -1.
        -11    1    3    3    0    0  0.68622597053E+01 -0.43205970774E+01 -0.79678566772E+01  0.11368593038E+02  0.51100000000E-03 0.  1.
        -12    1    3    3    0    0  0.23356958434E+02  0.14342526992E+02 -0.17493985584E+02  0.32516074785E+02  0.00000000000E+00 0.  1.
</event>
<event>
 7    1  0.1019486E-010  0.4778727E+02  0.7816164E-02  0.1312668E+00
        -11   -1    0    0    0    0  0.00000000000E+00  0.00000000000E+00  0.45593999997E+02  0.45594000000E+02  0.51100000000E-03 0. -1.
         11   -1    0    0    0    0 -0.00000000000E+00 -0.00000000000E+00 -0.45593999997E+02  0.45594000000E+02  0.51100000000E-03 0.  1.
    9900012    2    1    2    0    0  0.18525134814E+02 -0.38532038840E+02  0.74649065900E+01  0.47787268814E+02  0.19999989832E+02 0.  0.
        -12    1    1    2    0    0 -0.18525134814E+02  0.38532038840E+02 -0.74649065900E+01  0.43400731186E+02  0.00000000000E+00 0.  1.
         11    1    3    3    0    0  0.41302022772E+01 -0.18543073963E+02  0.34906790053E+01  0.19315511980E+02  0.51100000000E-03 0. -1.
        -11    1    3    3    0    0  0.97653810208E+01 -0.29627522664E+01  0.36067079515E+01  0.10823535004E+02  0.51100000000E-03 0.  1.
        -12    1    3    3    0    0  0.46295515160E+01 -0.17026212611E+02  0.36751963316E+00  0.17648221831E+02  0.00000000000E+00 0.  1.
</event>
<event>
 7    1  0.1019486E-010  0.4778728E+02  0.7816164E-02  0.1312668E+00
        -11   -1    0    0    0    0  0.00000000000E+00  0.00000000000E+00  0.45593999997E+02  0.45594000000E+02  0.51100000000E-03 0. -1.
         11   -1    0    0    0    0 -0.00000000000E+00 -0.00000000000E+00 -0.45593999997E+02  0.45594000000E+02  0.51100000000E-03 0.  1.
    9900012    2    1    2    0    0  0.29711774938E+02 -0.49067018506E+01  0.31253116034E+02  0.47787279328E+02  0.20000037767E+02 0.  0.
        -12    1    1    2    0    0 -0.29711774938E+02  0.49067018506E+01 -0.31253116034E+02  0.43400720672E+02  0.00000000000E+00 0.  1.
         11    1    3    3    0    0  0.19467453146E+02 -0.24139489868E+01  0.11859445835E+02  0.22922812600E+02  0.51100000000E-03 0. -1.
        -11    1    3    3    0    0  0.76949255387E+01 -0.96181214659E+00  0.20320251384E+02  0.21749702945E+02  0.51100000000E-03 0.  1.
        -12    1    3    3    0    0  0.25493962527E+01 -0.15309407172E+01 -0.92658118385E+00  0.31147637829E+01  0.00000000000E+00 0.  1.
</event>
<event>
 7    1  0.1019486E-010  0.4778727E+02  0.7816164E-02  0.1312668E+00
        -11   -1    0    0    0    0  0.00000000000E+00  0.00000000000E+00  0.45593999997E+02  0.45594000000E+02  0.51100000000E-03 0. -1.
         11   -1    0    0    0    0 -0.00000000000E+00 -0.00000000000E+00 -0.45593999997E+02  0.45594000000E+02  0.51100000000E-03 0.  1.
    9900012    2    1    2    0    0  0.66619312742E+00  0.12411104715E+02  0.41582974832E+02  0.47787272709E+02  0.20000007590E+02 0.  0.
        -12    1    1    2    0    0 -0.66619312742E+00 -0.12411104715E+02 -0.41582974832E+02  0.43400727291E+02  0.00000000000E+00 0.  1.
         11    1    3    3    0    0  0.66360844341E+01  0.11987042097E+02  0.29876777058E+02  0.32868656840E+02  0.51100000000E-03 0. -1.
        -11    1    3    3    0    0 -0.33398261583E+01  0.22801804018E+01  0.16637313519E+01  0.43728324579E+01  0.51100000000E-03 0.  1.
         12    1    3    3    0    0 -0.26300651484E+01 -0.18561177847E+01  0.10042466422E+02  0.10545783411E+02  0.00000000000E+00 0. -1.
</event>
<event>
 7    1  0.1019486E-010  0.4778727E+02  0.7816164E-02  0.1312668E+00
        -11   -1    0    0    0    0  0.00000000000E+00  0.00000000000E+00  0.45593999997E+02  0.45594000000E+02  0.51100000000E-03 0. -1.
         11   -1    0    0    0    0 -0.00000000000E+00 -0.00000000000E+00 -0.45593999997E+02  0.45594000000E+02  0.51100000000E-03 0.  1.
    9900012    2    1    2    0    0  0.14076203486E+01 -0.42958674075E+02  0.60161848438E+01  0.47787267824E+02  0.19999985315E+02 0.  0.
        -12    1    1    2    0    0 -0.14076203486E+01  0.42958674075E+02 -0.60161848438E+01  0.43400732176E+02  0.00000000000E+00 0.  1.
         11    1    3    3    0    0  0.17295374338E+01 -0.23462835974E+02 -0.52571337099E+01  0.24106709166E+02  0.51100000000E-03 0. -1.
        -11    1    3    3    0    0 -0.16726201355E+01 -0.15990305081E+02  0.11722079202E+02  0.19897101693E+02  0.51100000000E-03 0.  1.
        -12    1    3    3    0    0  0.13507030504E+01 -0.35055330199E+01 -0.44876064861E+00  0.37834569647E+01  0.00000000000E+00 0.  1.
</event>
<event>
 7    1  0.1019486E-010  0.4778727E+02  0.7816164E-02  0.1312668E+00
        -11   -1    0    0    0    0  0.00000000000E+00  0.00000000000E+00  0.45593999997E+02  0.45594000000E+02  0.51100000000E-03 0. -1.
         11   -1    0    0    0    0 -0.00000000000E+00 -0.00000000000E+00 -0.45593999997E+02  0.45594000000E+02  0.51100000000E-03 0.  1.
    9900012    2    1    2    0    0 -0.51522112831E+00 -0.13856754822E+02  0.41126008710E+02  0.47787266141E+02  0.19999977645E+02 0.  0.
        -12    1    1    2    0    0  0.51522112831E+00  0.13856754822E+02 -0.41126008710E+02  0.43400733859E+02  0.00000000000E+00 0.  1.
         11    1    3    3    0    0  0.51080304214E+01 -0.10192162954E+01  0.18665644198E+02  0.19378778347E+02  0.51100000000E-03 0. -1.
        -11    1    3    3    0    0 -0.27997563379E+01 -0.13297546119E+02  0.21415137297E+02  0.25362797047E+02  0.51100000000E-03 0.  1.
        -12    1    3    3    0    0 -0.28234952118E+01  0.46000759210E+00  0.10452272153E+01  0.30456907472E+01  0.00000000000E+00 0.  1.
</event>
<event>
 7    1  0.1019486E-010  0.4778727E+02  0.7816164E-02  0.1312668E+00
        -11   -1    0    0    0    0  0.00000000000E+00  0.00000000000E+00  0.45593999997E+02  0.45594000000E+02  0.51100000000E-03 0. -1.
         11   -1    0    0    0    0 -0.00000000000E+00 -0.00000000000E+00 -0.45593999997E+02  0.45594000000E+02  0.51100000000E-03 0.  1.
    9900012    2    1    2    0    0  0.32525032306E+01 -0.30773968433E+02  0.30430373923E+02  0.47787267662E+02  0.19999984578E+02 0.  0.
        -12    1    1    2    0    0 -0.32525032306E+01  0.30773968433E+02 -0.30430373923E+02  0.43400732338E+02  0.00000000000E+00 0.  1.
         11    1    3    3    0    0  0.94616468493E+01 -0.71699933546E+01  0.10981116119E+02  0.16171471092E+02  0.51100000000E-03 0. -1.
        -11    1    3    3    0    0 -0.45820936070E+01 -0.78631218788E+01  0.70615662654E+01  0.11519113937E+02  0.51100000000E-03 0.  1.
         12    1    3    3    0    0 -0.16270500117E+01 -0.15740853200E+02  0.12387691538E+02  0.20096682633E+02  0.00000000000E+00 0. -1.
</event>
<event>
 7    1  0.1019486E-010  0.4778727E+02  0.7816164E-02  0.1312668E+00
        -11   -1    0    0    0    0  0.00000000000E+00  0.00000000000E+00  0.45593999997E+02  0.45594000000E+02  0.51100000000E-03 0.  1.
         11   -1    0    0    0    0 -0.00000000000E+00 -0.00000000000E+00 -0.45593999997E+02  0.45594000000E+02  0.51100000000E-03 0. -1.
    9900012    2    1    2    0    0 -0.42454798521E+02 -0.68475100596E+01  0.58587661845E+01  0.47787268985E+02  0.19999990610E+02 0.  0.
        -12    1    1    2    0    0  0.42454798521E+02  0.68475100596E+01 -0.58587661845E+01  0.43400731015E+02  0.00000000000E+00 0.  1.
         11    1    3    3    0    0 -0.27191065214E+02 -0.68694934632E+01  0.39056289239E+01  0.28316036190E+02  0.51100000000E-03 0. -1.
        -11    1    3    3    0    0 -0.95723480754E+00 -0.58030206096E+00 -0.38585275774E+01  0.40176217201E+01  0.51100000000E-03 0.  1.
        -12    1    3    3    0    0 -0.14306498499E+02  0.60228546454E+00  0.58116648381E+01  0.15453611075E+02  0.00000000000E+00 0.  1.
</event>
<event>
 7    1  0.1019486E-010  0.4778726E+02  0.7816164E-02  0.1312668E+00
        -11   -1    0    0    0    0  0.00000000000E+00  0.00000000000E+00  0.45593999997E+02  0.45594000000E+02  0.51100000000E-03 0. -1.
         11   -1    0    0    0    0 -0.00000000000E+00 -0.00000000000E+00 -0.45593999997E+02  0.45594000000E+02  0.51100000000E-03 0.  1.
    9900012    2    1    2    0    0  0.11515803119E+02  0.28242745441E+02  0.30876486599E+02  0.47787264797E+02  0.19999971514E+02 0.  0.
        -12    1    1    2    0    0 -0.11515803119E+02 -0.28242745441E+02 -0.30876486599E+02  0.43400735203E+02  0.00000000000E+00 0.  1.
         11    1    3    3    0    0  0.57201550839E+01  0.11374959587E+02  0.10523080936E+02  0.16518023865E+02  0.51100000000E-03 0. -1.
        -11    1    3    3    0    0  0.58935138004E+01  0.92059031021E+01  0.16468315615E+01  0.11054149053E+02  0.51100000000E-03 0.  1.
        -12    1    3    3    0    0 -0.97865765332E-01  0.76618827520E+01  0.18706574102E+02  0.20215091878E+02  0.00000000000E+00 0.  1.
</event>
<event>
 7    1  0.1139971E-010  0.4778727E+02  0.7816164E-02  0.1312668E+00
        -11   -1    0    0    0    0  0.00000000000E+00  0.00000000000E+00  0.45593999997E+02  0.45594000000E+02  0.51100000000E-03 0. -1.
         11   -1    0    0    0    0 -0.00000000000E+00 -0.00000000000E+00 -0.45593999997E+02  0.45594000000E+02  0.51100000000E-03 0.  1.
    9900012    2    1    2    0    0 -0.68488779294E+01 -0.18159026527E+02 -0.38819661458E+02  0.47787268566E+02  0.19999988699E+02 0.  0.
         12    1    1    2    0    0  0.68488779294E+01  0.18159026527E+02  0.38819661458E+02  0.43400731434E+02  0.00000000000E+00 0. -1.
         11    1    3    3    0    0  0.54386361699E+01 -0.41005931902E+01 -0.44790335499E+01  0.81520162968E+01  0.51100000000E-03 0. -1.
        -11    1    3    3    0    0 -0.83913361327E+01 -0.79132995800E+01 -0.26697615983E+02  0.29082598436E+02  0.51100000000E-03 0.  1.
         12    1    3    3    0    0 -0.38961779666E+01 -0.61451337567E+01 -0.76430119250E+01  0.10552653833E+02  0.00000000000E+00 0. -1.
</event>
<event>
 7    1  0.1019486E-010  0.4778727E+02  0.7816164E-02  0.1312668E+00
        -11   -1    0    0    0    0  0.00000000000E+00  0.00000000000E+00  0.45593999997E+02  0.45594000000E+02  0.51100000000E-03 0. -1.
         11   -1    0    0    0    0 -0.00000000000E+00 -0.00000000000E+00 -0.45593999997E+02  0.45594000000E+02  0.51100000000E-03 0.  1.
    9900012    2    1    2    0    0 -0.30393566054E+02 -0.83167860921E+01  0.29844359758E+02  0.47787267313E+02  0.19999982988E+02 0.  0.
        -12    1    1    2    0    0  0.30393566054E+02  0.83167860921E+01 -0.29844359758E+02  0.43400732687E+02  0.00000000000E+00 0.  1.
         11    1    3    3    0    0 -0.19465266535E+02 -0.12994221884E+02  0.21183698362E+02  0.31567316646E+02  0.51100000000E-03 0. -1.
        -11    1    3    3    0    0 -0.26446137117E+01  0.43325245943E+01  0.15774888039E+01  0.53153760198E+01  0.51100000000E-03 0.  1.
         12    1    3    3    0    0 -0.82836858068E+01  0.34491119729E+00  0.70831725922E+01  0.10904574648E+02  0.00000000000E+00 0. -1.
</event>
<event>
 7    1  0.1019486E-010  0.4778728E+02  0.7816164E-02  0.1312668E+00
        -11   -1    0    0    0    0  0.00000000000E+00  0.00000000000E+00  0.45593999997E+02  0.45594000000E+02  0.51100000000E-03 0. -1.
         11   -1    0    0    0    0 -0.00000000000E+00 -0.00000000000E+00 -0.45593999997E+02  0.45594000000E+02  0.51100000000E-03 0.  1.
    9900012    2    1    2    0    0 -0.24150175025E+02  0.37249028900E+01 -0.35868044121E+02  0.47787280601E+02  0.20000043570E+02 0.  0.
         12    1    1    2    0    0  0.24150175025E+02 -0.37249028900E+01  0.35868044121E+02  0.43400719399E+02  0.00000000000E+00 0. -1.
         11    1    3    3    0    0 -0.27424284720E+01 -0.20239568731E+01 -0.11372868275E+01  0.35931513936E+01  0.51100000000E-03 0. -1.
        -11    1    3    3    0    0 -0.67924994906E+01  0.63389813748E+01 -0.39130484192E+01  0.10081303606E+02  0.51100000000E-03 0.  1.
        -12    1    3    3    0    0 -0.14615247063E+02 -0.59012161164E+00 -0.30817708875E+02  0.34112825601E+02  0.00000000000E+00 0.  1.
</event>
<event>
 7    1  0.1019486E-010  0.4778727E+02  0.7816164E-02  0.1312668E+00
        -11   -1    0    0    0    0  0.00000000000E+00  0.00000000000E+00  0.45593999997E+02  0.45594000000E+02  0.51100000000E-03 0. -1.
         11   -1    0    0    0    0 -0.00000000000E+00 -0.00000000000E+00 -0.45593999997E+02  0.45594000000E+02  0.51100000000E-03 0.  1.
    9900012    2    1    2    0    0 -0.36744042367E+02 -0.67404806118E+01  0.22092181280E+02  0.47787271872E+02  0.20000003773E+02 0.  0.
        -12    1    1    2    0    0  0.36744042367E+02  0.67404806118E+01 -0.22092181280E+02  0.43400728128E+02  0.00000000000E+00 0.  1.
         11    1    3    3    0    0 -0.29218538903E+02 -0.18488465743E+01  0.12427383904E+02  0.31805363074E+02  0.51100000000E-03 0. -1.
        -11    1    3    3    0    0 -0.41219793681E+01  0.22457979122E+01  0.47140165190E+01  0.66525389270E+01  0.51100000000E-03 0.  1.
         12    1    3    3    0    0 -0.34035240956E+01 -0.71374319497E+01  0.49507808568E+01  0.93293698714E+01  0.00000000000E+00 0. -1.
</event>
<event>
 7    1  0.1019486E-010  0.4778728E+02  0.7816164E-02  0.1312668E+00
        -11   -1    0    0    0    0  0.00000000000E+00  0.00000000000E+00  0.45593999997E+02  0.45594000000E+02  0.51100000000E-03 0. -1.
         11   -1    0    0    0    0 -0.00000000000E+00 -0.00000000000E+00 -0.45593999997E+02  0.45594000000E+02  0.51100000000E-03 0.  1.
    9900012    2    1    2    0    0 -0.34002537768E+02 -0.44900839036E+01 -0.26594908082E+02  0.47787279222E+02  0.20000037286E+02 0.  0.
         12    1    1    2    0    0  0.34002537768E+02  0.44900839036E+01  0.26594908082E+02  0.43400720778E+02  0.00000000000E+00 0. -1.
         11    1    3    3    0    0  0.38327600805E+00  0.18803223722E+01 -0.68219806578E+01  0.70867434748E+01  0.51100000000E-03 0. -1.
        -11    1    3    3    0    0 -0.19886613056E+02 -0.52563710440E+01 -0.83135471988E+01  0.22186074071E+02  0.51100000000E-03 0.  1.
         12    1    3    3    0    0 -0.14499200720E+02 -0.11140352317E+01 -0.11459380226E+02  0.18514461677E+02  0.00000000000E+00 0. -1.
</event>
<event>
 7    1  0.1019486E-010  0.4778727E+02  0.7816164E-02  0.1312668E+00
        -11   -1    0    0    0    0  0.00000000000E+00  0.00000000000E+00  0.45593999997E+02  0.45594000000E+02  0.51100000000E-03 0. -1.
         11   -1    0    0    0    0 -0.00000000000E+00 -0.00000000000E+00 -0.45593999997E+02  0.45594000000E+02  0.51100000000E-03 0.  1.
    9900012    2    1    2    0    0 -0.25734527477E+02 -0.26816334549E+02 -0.22410746752E+02  0.47787271054E+02  0.20000000042E+02 0.  0.
         12    1    1    2    0    0  0.25734527477E+02  0.26816334549E+02  0.22410746752E+02  0.43400728946E+02  0.00000000000E+00 0. -1.
         11    1    3    3    0    0 -0.72514846778E+01 -0.21132480584E+02 -0.14748770042E+02  0.26771103520E+02  0.51100000000E-03 0. -1.
        -11    1    3    3    0    0 -0.16708190059E+02 -0.55803419380E+01 -0.60765322103E+01  0.18634056863E+02  0.51100000000E-03 0.  1.
         12    1    3    3    0    0 -0.17748527396E+01 -0.10351202694E+00 -0.15854445003E+01  0.23821106713E+01  0.00000000000E+00 0. -1.
</event>
<event>
 7    1  0.1019486E-010  0.4778727E+02  0.7816164E-02  0.1312668E+00
        -11   -1    0    0    0    0  0.00000000000E+00  0.00000000000E+00  0.45593999997E+02  0.45594000000E+02  0.51100000000E-03 0. -1.
         11   -1    0    0    0    0 -0.00000000000E+00 -0.00000000000E+00 -0.45593999997E+02  0.45594000000E+02  0.51100000000E-03 0.  1.
    9900012    2    1    2    0    0  0.10931733865E+02  0.39948080469E+02  0.12971945985E+02  0.47787270500E+02  0.19999997518E+02 0.  0.
        -12    1    1    2    0    0 -0.10931733865E+02 -0.39948080469E+02 -0.12971945985E+02  0.43400729500E+02  0.00000000000E+00 0.  1.
         11    1    3    3    0    0  0.89324477562E+01  0.11634079994E+02  0.10335297285E+01  0.14704034283E+02  0.51100000000E-03 0. -1.
        -11    1    3    3    0    0 -0.41144729431E+01  0.16312359046E+02  0.34829389374E+01  0.17180011908E+02  0.51100000000E-03 0.  1.
         12    1    3    3    0    0  0.61137590518E+01  0.12001641429E+02  0.84554773194E+01  0.15903224309E+02  0.00000000000E+00 0. -1.
</event>
<event>
 7    1  0.1019486E-010  0.4778727E+02  0.7816164E-02  0.1312668E+00
        -11   -1    0    0    0    0  0.00000000000E+00  0.00000000000E+00  0.45593999997E+02  0.45594000000E+02  0.51100000000E-03 0. -1.
         11   -1    0    0    0    0 -0.00000000000E+00 -0.00000000000E+00 -0.45593999997E+02  0.45594000000E+02  0.51100000000E-03 0.  1.
    9900012    2    1    2    0    0  0.27045133346E+02  0.23334801848E+01  0.33863538520E+02  0.47787267189E+02  0.19999982421E+02 0.  0.
        -12    1    1    2    0    0 -0.27045133346E+02 -0.23334801848E+01 -0.33863538520E+02  0.43400732811E+02  0.00000000000E+00 0.  1.
         11    1    3    3    0    0  0.22324644743E+02  0.42561553550E+01  0.20152204109E+02  0.30374593858E+02  0.51100000000E-03 0. -1.
        -11    1    3    3    0    0  0.44427570263E+01 -0.79923512000E+00  0.96774224652E+00  0.46166429458E+01  0.51100000000E-03 0.  1.
         12    1    3    3    0    0  0.27773157622E+00 -0.11234400502E+01  0.12743592164E+02  0.12796030385E+02  0.00000000000E+00 0. -1.
</event>
<event>
 7    1  0.1019486E-010  0.4778727E+02  0.7816164E-02  0.1312668E+00
        -11   -1    0    0    0    0  0.00000000000E+00  0.00000000000E+00  0.45593999997E+02  0.45594000000E+02  0.51100000000E-03 0. -1.
         11   -1    0    0    0    0 -0.00000000000E+00 -0.00000000000E+00 -0.45593999997E+02  0.45594000000E+02  0.51100000000E-03 0.  1.
    9900012    2    1    2    0    0 -0.13471143704E+02 -0.30143837348E+02  0.28169141418E+02  0.47787272229E+02  0.20000005403E+02 0.  0.
        -12    1    1    2    0    0  0.13471143704E+02  0.30143837348E+02 -0.28169141418E+02  0.43400727771E+02  0.00000000000E+00 0.  1.
         11    1    3    3    0    0 -0.60579295985E+01 -0.72724679796E+01 -0.82526940248E+00  0.95009668657E+01  0.51100000000E-03 0. -1.
        -11    1    3    3    0    0 -0.86799239155E+00 -0.11837514980E+02  0.10969200570E+02  0.16161792385E+02  0.51100000000E-03 0.  1.
         12    1    3    3    0    0 -0.65452217141E+01 -0.11033854388E+02  0.18025210251E+02  0.22124512979E+02  0.00000000000E+00 0. -1.
</event>
<event>
 7    1  0.1019486E-010  0.4778730E+02  0.7816164E-02  0.1312668E+00
        -11   -1    0    0    0    0  0.00000000000E+00  0.00000000000E+00  0.45593999997E+02  0.45594000000E+02  0.51100000000E-03 0. -1.
         11   -1    0    0    0    0 -0.00000000000E+00 -0.00000000000E+00 -0.45593999997E+02  0.45594000000E+02  0.51100000000E-03 0.  1.
    9900012    2    1    2    0    0  0.96555214299E+01 -0.29232666288E+02 -0.30591550262E+02  0.47787299316E+02  0.20000128902E+02 0.  0.
         12    1    1    2    0    0 -0.96555214299E+01  0.29232666288E+02  0.30591550262E+02  0.43400700684E+02  0.00000000000E+00 0. -1.
         11    1    3    3    0    0  0.33792277035E+01  0.33643171897E+00  0.66896660227E+00  0.34611967222E+01  0.51100000000E-03 0. -1.
        -11    1    3    3    0    0  0.44948961539E+01 -0.18490593697E+02 -0.25186286556E+02  0.31566678278E+02  0.51100000000E-03 0.  1.
        -12    1    3    3    0    0  0.17813975725E+01 -0.11078504310E+02 -0.60742303078E+01  0.12759424316E+02  0.00000000000E+00 0.  1.
</event>
<event>
 7    1  0.1019486E-010  0.4778727E+02  0.7816164E-02  0.1312668E+00
        -11   -1    0    0    0    0  0.00000000000E+00  0.00000000000E+00  0.45593999997E+02  0.45594000000E+02  0.51100000000E-03 0. -1.
         11   -1    0    0    0    0 -0.00000000000E+00 -0.00000000000E+00 -0.45593999997E+02  0.45594000000E+02  0.51100000000E-03 0.  1.
    9900012    2    1    2    0    0 -0.10839560926E+02  0.29043411118E+02  0.30374459200E+02  0.47787267493E+02  0.19999983808E+02 0.  0.
        -12    1    1    2    0    0  0.10839560926E+02 -0.29043411118E+02 -0.30374459200E+02  0.43400732507E+02  0.00000000000E+00 0.  1.
         11    1    3    3    0    0 -0.31805013918E+01  0.22321507582E+02  0.16059486732E+02  0.27681625750E+02  0.51100000000E-03 0. -1.
        -11    1    3    3    0    0 -0.49704199278E+01  0.28150092126E+01  0.14261248636E+02  0.15362700415E+02  0.51100000000E-03 0.  1.
         12    1    3    3    0    0 -0.26886396062E+01  0.39068943242E+01  0.53723832490E-01  0.47429413282E+01  0.00000000000E+00 0. -1.
</event>
<event>
 7    1  0.1786475E-010  0.4778727E+02  0.7816164E-02  0.1312668E+00
        -11   -1    0    0    0    0  0.00000000000E+00  0.00000000000E+00  0.45593999997E+02  0.45594000000E+02  0.51100000000E-03 0. -1.
         11   -1    0    0    0    0 -0.00000000000E+00 -0.00000000000E+00 -0.45593999997E+02  0.45594000000E+02  0.51100000000E-03 0.  1.
    9900012    2    1    2    0    0  0.23381493901E+01  0.25145304215E+02 -0.35296887095E+02  0.47787268379E+02  0.19999987847E+02 0.  0.
         12    1    1    2    0    0 -0.23381493901E+01 -0.25145304215E+02  0.35296887095E+02  0.43400731621E+02  0.00000000000E+00 0. -1.
         11    1    3    3    0    0 -0.57911828037E+01  0.94973828420E+01 -0.11502479524E+02  0.16001409768E+02  0.51100000000E-03 0. -1.
        -11    1    3    3    0    0  0.85000035139E+01  0.16980906347E+02 -0.19268565301E+02  0.27053259492E+02  0.51100000000E-03 0.  1.
         12    1    3    3    0    0 -0.37067132005E+00 -0.13329849737E+01 -0.45258422703E+01  0.47325991192E+01  0.00000000000E+00 0. -1.
</event>
<event>
 7    1  0.1019486E-010  0.4778727E+02  0.7816164E-02  0.1312668E+00
        -11   -1    0    0    0    0  0.00000000000E+00  0.00000000000E+00  0.45593999997E+02  0.45594000000E+02  0.51100000000E-03 0. -1.
         11   -1    0    0    0    0 -0.00000000000E+00 -0.00000000000E+00 -0.45593999997E+02  0.45594000000E+02  0.51100000000E-03 0.  1.
    9900012    2    1    2    0    0  0.31469854112E+02 -0.15548548346E+02 -0.25524777636E+02  0.47787270203E+02  0.19999996166E+02 0.  0.
         12    1    1    2    0    0 -0.31469854112E+02  0.15548548346E+02  0.25524777636E+02  0.43400729797E+02  0.00000000000E+00 0. -1.
         11    1    3    3    0    0  0.20354171449E+02 -0.74857267083E+01 -0.21510237471E+02  0.30545355065E+02  0.51100000000E-03 0.  1.
        -11    1    3    3    0    0  0.38802810027E+01 -0.62584665895E+01  0.20348468978E+01  0.76397373561E+01  0.51100000000E-03 0. -1.
         12    1    3    3    0    0  0.72354016599E+01 -0.18043550482E+01 -0.60493870638E+01  0.96021777826E+01  0.00000000000E+00 0. -1.
</event>
<event>
 7    1  0.1019486E-010  0.4778725E+02  0.7816164E-02  0.1312668E+00
        -11   -1    0    0    0    0  0.00000000000E+00  0.00000000000E+00  0.45593999997E+02  0.45594000000E+02  0.51100000000E-03 0. -1.
         11   -1    0    0    0    0 -0.00000000000E+00 -0.00000000000E+00 -0.45593999997E+02  0.45594000000E+02  0.51100000000E-03 0.  1.
    9900012    2    1    2    0    0 -0.20918484394E+02  0.23516884954E+02  0.29883069307E+02  0.47787254632E+02  0.19999925169E+02 0.  0.
        -12    1    1    2    0    0  0.20918484394E+02 -0.23516884954E+02 -0.29883069307E+02  0.43400745368E+02  0.00000000000E+00 0.  1.
         11    1    3    3    0    0 -0.16462840987E+02  0.17390429204E+02  0.24384600113E+02  0.34176905714E+02  0.51100000000E-03 0. -1.
        -11    1    3    3    0    0  0.59615054742E+00 -0.10645252212E+01  0.46200628616E+01  0.47784506410E+01  0.51100000000E-03 0.  1.
         12    1    3    3    0    0 -0.50517939544E+01  0.71909809713E+01  0.87840633220E+00  0.88318982768E+01  0.00000000000E+00 0. -1.
</event>
<event>
 7    1  0.1019486E-010  0.4778727E+02  0.7816164E-02  0.1312668E+00
        -11   -1    0    0    0    0  0.00000000000E+00  0.00000000000E+00  0.45593999997E+02  0.45594000000E+02  0.51100000000E-03 0. -1.
         11   -1    0    0    0    0 -0.00000000000E+00 -0.00000000000E+00 -0.45593999997E+02  0.45594000000E+02  0.51100000000E-03 0.  1.
    9900012    2    1    2    0    0 -0.12774144344E+02  0.16192092633E+02  0.38187176491E+02  0.47787273325E+02  0.20000010397E+02 0.  0.
        -12    1    1    2    0    0  0.12774144344E+02 -0.16192092633E+02 -0.38187176491E+02  0.43400726675E+02  0.00000000000E+00 0.  1.
         11    1    3    3    0    0 -0.12163716776E+02  0.10702518216E+02  0.14659460581E+02  0.21849477952E+02  0.51100000000E-03 0. -1.
        -11    1    3    3    0    0 -0.53077918824E+00  0.63419863888E+01  0.24088059680E+02  0.24914596872E+02  0.51100000000E-03 0.  1.
        -12    1    3    3    0    0 -0.79648379269E-01 -0.85241197096E+00 -0.56034376965E+00  0.10231985011E+01  0.00000000000E+00 0.  1.
</event>
<event>
 7    1  0.1019486E-010  0.4778727E+02  0.7816164E-02  0.1312668E+00
        -11   -1    0    0    0    0  0.00000000000E+00  0.00000000000E+00  0.45593999997E+02  0.45594000000E+02  0.51100000000E-03 0. -1.
         11   -1    0    0    0    0 -0.00000000000E+00 -0.00000000000E+00 -0.45593999997E+02  0.45594000000E+02  0.51100000000E-03 0.  1.
    9900012    2    1    2    0    0 -0.12695816895E+02  0.23844056664E+02 -0.33969115505E+02  0.47787267137E+02  0.19999982185E+02 0.  0.
         12    1    1    2    0    0  0.12695816895E+02 -0.23844056664E+02  0.33969115505E+02  0.43400732863E+02  0.00000000000E+00 0. -1.
         11    1    3    3    0    0 -0.31824620777E+01  0.34376001237E+01 -0.17803817707E+01  0.50114787236E+01  0.51100000000E-03 0. -1.
        -11    1    3    3    0    0 -0.11831269489E+02  0.67644783133E+01 -0.11220546148E+02  0.17653264873E+02  0.51100000000E-03 0.  1.
        -12    1    3    3    0    0  0.23179146712E+01  0.13641978227E+02 -0.20968187587E+02  0.25122523540E+02  0.00000000000E+00 0.  1.
</event>
<event>
 7    1  0.1019486E-010  0.4778727E+02  0.7816164E-02  0.1312668E+00
        -11   -1    0    0    0    0  0.00000000000E+00  0.00000000000E+00  0.45593999997E+02  0.45594000000E+02  0.51100000000E-03 0. -1.
         11   -1    0    0    0    0 -0.00000000000E+00 -0.00000000000E+00 -0.45593999997E+02  0.45594000000E+02  0.51100000000E-03 0.  1.
    9900012    2    1    2    0    0 -0.73442798432E+01  0.13883089234E+02  0.40459172166E+02  0.47787271602E+02  0.20000002544E+02 0.  0.
        -12    1    1    2    0    0  0.73442798432E+01 -0.13883089234E+02 -0.40459172166E+02  0.43400728398E+02  0.00000000000E+00 0.  1.
         11    1    3    3    0    0 -0.54935456536E+00  0.21333249456E+01  0.11333107528E+02  0.11545223786E+02  0.51100000000E-03 0. -1.
        -11    1    3    3    0    0  0.11386189649E+01  0.12637715215E+02  0.22651658512E+02  0.25963550077E+02  0.51100000000E-03 0.  1.
        -12    1    3    3    0    0 -0.79335442427E+01 -0.88795092614E+00  0.64744061255E+01  0.10278497739E+02  0.00000000000E+00 0.  1.
</event>
<event>
 7    1  0.1019486E-010  0.4778727E+02  0.7816164E-02  0.1312668E+00
        -11   -1    0    0    0    0  0.00000000000E+00  0.00000000000E+00  0.45593999997E+02  0.45594000000E+02  0.51100000000E-03 0. -1.
         11   -1    0    0    0    0 -0.00000000000E+00 -0.00000000000E+00 -0.45593999997E+02  0.45594000000E+02  0.51100000000E-03 0.  1.
    9900012    2    1    2    0    0  0.37911021881E+02  0.17430673378E+02  0.11939392160E+02  0.47787273743E+02  0.20000012306E+02 0.  0.
        -12    1    1    2    0    0 -0.37911021881E+02 -0.17430673378E+02 -0.11939392160E+02  0.43400726257E+02  0.00000000000E+00 0.  1.
         11    1    3    3    0    0  0.21311464795E+02  0.12792483820E+02  0.11477512338E+01  0.24882594462E+02  0.51100000000E-03 0. -1.
        -11    1    3    3    0    0  0.14165799717E+02  0.97484072445E+00  0.11717975871E+02  0.18410082966E+02  0.51100000000E-03 0.  1.
        -12    1    3    3    0    0  0.24337573692E+01  0.36633488332E+01 -0.92633494528E+00  0.44945963152E+01  0.00000000000E+00 0.  1.
</event>
<event>
 7    1  0.1019486E-010  0.4778725E+02  0.7816164E-02  0.1312668E+00
        -11   -1    0    0    0    0  0.00000000000E+00  0.00000000000E+00  0.45593999997E+02  0.45594000000E+02  0.51100000000E-03 0. -1.
         11   -1    0    0    0    0 -0.00000000000E+00 -0.00000000000E+00 -0.45593999997E+02  0.45594000000E+02  0.51100000000E-03 0.  1.
    9900012    2    1    2    0    0 -0.23508469427E+02 -0.28653238407E+02  0.22582488441E+02  0.47787251271E+02  0.19999909846E+02 0.  0.
        -12    1    1    2    0    0  0.23508469427E+02  0.28653238407E+02 -0.22582488441E+02  0.43400748729E+02  0.00000000000E+00 0.  1.
         11    1    3    3    0    0 -0.27896595495E+01 -0.15805921813E+02  0.50330540034E+01  0.16820850086E+02  0.51100000000E-03 0. -1.
        -11    1    3    3    0    0 -0.98444068377E+01 -0.21091205928E+01  0.87026534942E+01  0.13307776439E+02  0.51100000000E-03 0.  1.
        -12    1    3    3    0    0 -0.10874403040E+02 -0.10738196001E+02  0.88467809432E+01  0.17658624745E+02  0.00000000000E+00 0.  1.
</event>
<event>
 7    1  0.1019486E-010  0.4778726E+02  0.7816164E-02  0.1312668E+00
        -11   -1    0    0    0    0  0.00000000000E+00  0.00000000000E+00  0.45593999997E+02  0.45594000000E+02  0.51100000000E-03 0. -1.
         11   -1    0    0    0    0 -0.00000000000E+00 -0.00000000000E+00 -0.45593999997E+02  0.45594000000E+02  0.51100000000E-03 0.  1.
    9900012    2    1    2    0    0  0.19329192808E+02 -0.84664313877E+01  0.37925264702E+02  0.47787264318E+02  0.19999969331E+02 0.  0.
        -12    1    1    2    0    0 -0.19329192808E+02  0.84664313877E+01 -0.37925264702E+02  0.43400735682E+02  0.00000000000E+00 0.  1.
         11    1    3    3    0    0  0.13446669374E+02 -0.19638603093E+01  0.16966713110E+02  0.21737962613E+02  0.51100000000E-03 0. -1.
        -11    1    3    3    0    0 -0.88493485401E+00 -0.20934910301E+01 -0.11242663399E+01  0.25357029505E+01  0.51100000000E-03 0.  1.
         12    1    3    3    0    0  0.67674582882E+01 -0.44090800483E+01  0.22082817932E+02  0.23513598754E+02  0.00000000000E+00 0. -1.
</event>
<event>
 7    1  0.1019486E-010  0.4778727E+02  0.7816164E-02  0.1312668E+00
        -11   -1    0    0    0    0  0.00000000000E+00  0.00000000000E+00  0.45593999997E+02  0.45594000000E+02  0.51100000000E-03 0. -1.
         11   -1    0    0    0    0 -0.00000000000E+00 -0.00000000000E+00 -0.45593999997E+02  0.45594000000E+02  0.51100000000E-03 0.  1.
    9900012    2    1    2    0    0 -0.61252132546E+01  0.75859405608E+01  0.42291353816E+02  0.47787270292E+02  0.19999996568E+02 0.  0.
        -12    1    1    2    0    0  0.61252132546E+01 -0.75859405608E+01 -0.42291353816E+02  0.43400729708E+02  0.00000000000E+00 0.  1.
         11    1    3    3    0    0  0.30838728507E+01  0.72092816831E+01  0.99327813448E+01  0.12654807768E+02  0.51100000000E-03 0. -1.
        -11    1    3    3    0    0 -0.58933332211E+01 -0.14934525314E+01  0.30096283652E+02  0.30704202755E+02  0.51100000000E-03 0.  1.
         12    1    3    3    0    0 -0.33157528842E+01  0.18701114091E+01  0.22622888193E+01  0.44282597681E+01  0.00000000000E+00 0. -1.
</event>
<event>
 7    1  0.1019486E-010  0.4778728E+02  0.7816164E-02  0.1312668E+00
        -11   -1    0    0    0    0  0.00000000000E+00  0.00000000000E+00  0.45593999997E+02  0.45594000000E+02  0.51100000000E-03 0. -1.
         11   -1    0    0    0    0 -0.00000000000E+00 -0.00000000000E+00 -0.45593999997E+02  0.45594000000E+02  0.51100000000E-03 0.  1.
    9900012    2    1    2    0    0 -0.83167452028E+01  0.15995008115E+02 -0.39479290535E+02  0.47787275161E+02  0.20000018770E+02 0.  0.
         12    1    1    2    0    0  0.83167452028E+01 -0.15995008115E+02  0.39479290535E+02  0.43400724839E+02  0.00000000000E+00 0. -1.
         11    1    3    3    0    0 -0.52268155529E+01  0.15148925277E+02 -0.21423837656E+02  0.26754258690E+02  0.51100000000E-03 0. -1.
        -11    1    3    3    0    0 -0.56848163960E+01 -0.13685712044E+01 -0.55183156387E+01  0.80400206683E+01  0.51100000000E-03 0.  1.
         12    1    3    3    0    0  0.25948867462E+01  0.22146540426E+01 -0.12537137241E+02  0.12992995803E+02  0.00000000000E+00 0. -1.
</event>
<event>
 7    1  0.1019486E-010  0.4778727E+02  0.7816164E-02  0.1312668E+00
        -11   -1    0    0    0    0  0.00000000000E+00  0.00000000000E+00  0.45593999997E+02  0.45594000000E+02  0.51100000000E-03 0. -1.
         11   -1    0    0    0    0 -0.00000000000E+00 -0.00000000000E+00 -0.45593999997E+02  0.45594000000E+02  0.51100000000E-03 0.  1.
    9900012    2    1    2    0    0 -0.20750375649E+02  0.12486018597E+02  0.36015893532E+02  0.47787270318E+02  0.19999996689E+02 0.  0.
        -12    1    1    2    0    0  0.20750375649E+02 -0.12486018597E+02 -0.36015893532E+02  0.43400729682E+02  0.00000000000E+00 0.  1.
         11    1    3    3    0    0 -0.16625513680E+01  0.45288225932E+01  0.75860454402E+01  0.89901277418E+01  0.51100000000E-03 0. -1.
        -11    1    3    3    0    0 -0.77242658561E+01  0.57671124032E+01  0.18615313175E+01  0.98177985105E+01  0.51100000000E-03 0.  1.
        -12    1    3    3    0    0 -0.11363558425E+02  0.21900836001E+01  0.26568316775E+02  0.28979344066E+02  0.00000000000E+00 0.  1.
</event>
<event>
 7    1  0.1019486E-010  0.4778727E+02  0.7816164E-02  0.1312668E+00
        -11   -1    0    0    0    0  0.00000000000E+00  0.00000000000E+00  0.45593999997E+02  0.45594000000E+02  0.51100000000E-03 0. -1.
         11   -1    0    0    0    0 -0.00000000000E+00 -0.00000000000E+00 -0.45593999997E+02  0.45594000000E+02  0.51100000000E-03 0.  1.
    9900012    2    1    2    0    0 -0.39880951098E+02 -0.12658056863E+02  0.11528515581E+02  0.47787270334E+02  0.19999996761E+02 0.  0.
        -12    1    1    2    0    0  0.39880951098E+02  0.12658056863E+02 -0.11528515581E+02  0.43400729666E+02  0.00000000000E+00 0.  1.
         11    1    3    3    0    0 -0.34056346596E+02 -0.60912300248E+01  0.39603547545E+01  0.34822725865E+02  0.51100000000E-03 0. -1.
        -11    1    3    3    0    0 -0.50274103393E+01 -0.54239799511E+01  0.85162070951E+01  0.11279193091E+02  0.51100000000E-03 0.  1.
        -12    1    3    3    0    0 -0.79719416316E+00 -0.11428468868E+01 -0.94804626825E+00  0.16853513779E+01  0.00000000000E+00 0.  1.
</event>
<event>
 7    1  0.1019486E-010  0.4778727E+02  0.7816164E-02  0.1312668E+00
        -11   -1    0    0    0    0  0.00000000000E+00  0.00000000000E+00  0.45593999997E+02  0.45594000000E+02  0.51100000000E-03 0. -1.
         11   -1    0    0    0    0 -0.00000000000E+00 -0.00000000000E+00 -0.45593999997E+02  0.45594000000E+02  0.51100000000E-03 0.  1.
    9900012    2    1    2    0    0  0.16037088427E+02 -0.22596525081E+01 -0.40265727541E+02  0.47787273634E+02  0.20000011805E+02 0.  0.
         12    1    1    2    0    0 -0.16037088427E+02  0.22596525081E+01  0.40265727541E+02  0.43400726366E+02  0.00000000000E+00 0. -1.
         11    1    3    3    0    0  0.62394135612E+01 -0.17979965073E+00 -0.12598560465E+01  0.63678761783E+01  0.51100000000E-03 0. -1.
        -11    1    3    3    0    0  0.10409746047E+02 -0.24753359239E+01 -0.39225177360E+02  0.40658389539E+02  0.51100000000E-03 0.  1.
         12    1    3    3    0    0 -0.61207118144E+00  0.39548306650E+00  0.21930586485E+00  0.76100791678E+00  0.00000000000E+00 0. -1.
</event>
<event>
 7    1  0.1019486E-010  0.4778726E+02  0.7816164E-02  0.1312668E+00
        -11   -1    0    0    0    0  0.00000000000E+00  0.00000000000E+00  0.45593999997E+02  0.45594000000E+02  0.51100000000E-03 0. -1.
         11   -1    0    0    0    0 -0.00000000000E+00 -0.00000000000E+00 -0.45593999997E+02  0.45594000000E+02  0.51100000000E-03 0.  1.
    9900012    2    1    2    0    0 -0.19373084746E+02  0.70155858528E+01  0.38198027136E+02  0.47787261129E+02  0.19999954792E+02 0.  0.
        -12    1    1    2    0    0  0.19373084746E+02 -0.70155858528E+01 -0.38198027136E+02  0.43400738871E+02  0.00000000000E+00 0.  1.
         11    1    3    3    0    0 -0.14616130373E+02  0.43756618080E+01  0.21703872979E+02  0.26529903617E+02  0.51100000000E-03 0. -1.
        -11    1    3    3    0    0  0.27341665503E+01  0.36300643175E+01  0.21127103387E+01  0.50116443319E+01  0.51100000000E-03 0.  1.
        -12    1    3    3    0    0 -0.74911209232E+01 -0.99014027266E+00  0.14381443818E+02  0.16245713181E+02  0.00000000000E+00 0.  1.
</event>
<event>
 7    1  0.1019486E-010  0.4778727E+02  0.7816164E-02  0.1312668E+00
        -11   -1    0    0    0    0  0.00000000000E+00  0.00000000000E+00  0.45593999997E+02  0.45594000000E+02  0.51100000000E-03 0. -1.
         11   -1    0    0    0    0 -0.00000000000E+00 -0.00000000000E+00 -0.45593999997E+02  0.45594000000E+02  0.51100000000E-03 0.  1.
    9900012    2    1    2    0    0 -0.15857645378E+02  0.23073386888E+01 -0.40334037080E+02  0.47787271020E+02  0.19999999890E+02 0.  0.
         12    1    1    2    0    0  0.15857645378E+02 -0.23073386888E+01  0.40334037080E+02  0.43400728980E+02  0.00000000000E+00 0. -1.
         11    1    3    3    0    0  0.55881140588E+00  0.42053475806E+01 -0.31165630429E+01  0.52640463450E+01  0.51100000000E-03 0. -1.
        -11    1    3    3    0    0 -0.94794426186E+01 -0.71197186425E+01 -0.22627197385E+02  0.25544868128E+02  0.51100000000E-03 0.  1.
        -12    1    3    3    0    0 -0.69370141656E+01  0.52217097506E+01 -0.14590276653E+02  0.16978356548E+02  0.00000000000E+00 0.  1.
</event>
<event>
 7    1  0.1019486E-010  0.4778727E+02  0.7816164E-02  0.1312668E+00
        -11   -1    0    0    0    0  0.00000000000E+00  0.00000000000E+00  0.45593999997E+02  0.45594000000E+02  0.51100000000E-03 0. -1.
         11   -1    0    0    0    0 -0.00000000000E+00 -0.00000000000E+00 -0.45593999997E+02  0.45594000000E+02  0.51100000000E-03 0.  1.
    9900012    2    1    2    0    0 -0.11449701464E+02 -0.86879844286E+01  0.40951759494E+02  0.47787270252E+02  0.19999996385E+02 0.  0.
        -12    1    1    2    0    0  0.11449701464E+02  0.86879844286E+01 -0.40951759494E+02  0.43400729748E+02  0.00000000000E+00 0.  1.
         11    1    3    3    0    0 -0.11911060088E+02 -0.12741623229E+02  0.34691306125E+02  0.38829229143E+02  0.51100000000E-03 0. -1.
        -11    1    3    3    0    0  0.10944160475E+01  0.40008845002E+01  0.69037330483E+01  0.80539650813E+01  0.51100000000E-03 0.  1.
         12    1    3    3    0    0 -0.63305742260E+00  0.52754300716E-01 -0.64327967928E+00  0.90407602685E+00  0.00000000000E+00 0. -1.
</event>
<event>
 7    1  0.1019486E-010  0.4778727E+02  0.7816164E-02  0.1312668E+00
        -11   -1    0    0    0    0  0.00000000000E+00  0.00000000000E+00  0.45593999997E+02  0.45594000000E+02  0.51100000000E-03 0. -1.
         11   -1    0    0    0    0 -0.00000000000E+00 -0.00000000000E+00 -0.45593999997E+02  0.45594000000E+02  0.51100000000E-03 0.  1.
    9900012    2    1    2    0    0  0.47247975663E+01 -0.15215281724E+01 -0.43115940954E+02  0.47787272767E+02  0.20000007854E+02 0.  0.
         12    1    1    2    0    0 -0.47247975663E+01  0.15215281724E+01  0.43115940954E+02  0.43400727233E+02  0.00000000000E+00 0. -1.
         11    1    3    3    0    0  0.64493170887E+01  0.43829825606E+01 -0.11536014506E+02  0.13924218398E+02  0.51100000000E-03 0. -1.
        -11    1    3    3    0    0 -0.45970401285E+01 -0.62693362134E+01 -0.13716025499E+02  0.15765998549E+02  0.51100000000E-03 0.  1.
        -12    1    3    3    0    0  0.28725206062E+01  0.36482548038E+00 -0.17863900949E+02  0.18097055820E+02  0.00000000000E+00 0.  1.
</event>
<event>
 7    1  0.1019486E-010  0.4778727E+02  0.7816164E-02  0.1312668E+00
        -11   -1    0    0    0    0  0.00000000000E+00  0.00000000000E+00  0.45593999997E+02  0.45594000000E+02  0.51100000000E-03 0. -1.
         11   -1    0    0    0    0 -0.00000000000E+00 -0.00000000000E+00 -0.45593999997E+02  0.45594000000E+02  0.51100000000E-03 0.  1.
    9900012    2    1    2    0    0 -0.43697200797E+01  0.24378264733E+02  0.35640275205E+02  0.47787268881E+02  0.19999990137E+02 0.  0.
        -12    1    1    2    0    0  0.43697200797E+01 -0.24378264733E+02 -0.35640275205E+02  0.43400731119E+02  0.00000000000E+00 0.  1.
         11    1    3    3    0    0 -0.72950037161E+01  0.17363497082E+02  0.11573417718E+02  0.22105476879E+02  0.51100000000E-03 0. -1.
        -11    1    3    3    0    0 -0.10370875167E+00  0.28609284263E+01  0.14893123120E+02  0.15165776719E+02  0.51100000000E-03 0.  1.
         12    1    3    3    0    0  0.30289923881E+01  0.41538392253E+01  0.91737343674E+01  0.10516015283E+02  0.00000000000E+00 0. -1.
</event>
<event>
 7    1  0.1019486E-010  0.4778727E+02  0.7816164E-02  0.1312668E+00
        -11   -1    0    0    0    0  0.00000000000E+00  0.00000000000E+00  0.45593999997E+02  0.45594000000E+02  0.51100000000E-03 0.  1.
         11   -1    0    0    0    0 -0.00000000000E+00 -0.00000000000E+00 -0.45593999997E+02  0.45594000000E+02  0.51100000000E-03 0. -1.
    9900012    2    1    2    0    0 -0.17253514862E+02  0.37748763914E+02  0.12687403804E+02  0.47787272271E+02  0.20000005593E+02 0.  0.
         12    1    1    2    0    0  0.17253514862E+02 -0.37748763914E+02 -0.12687403804E+02  0.43400727729E+02  0.00000000000E+00 0. -1.
         11    1    3    3    0    0 -0.55878704649E+01  0.18783337119E+02 -0.33182989686E+01  0.19875843579E+02  0.51100000000E-03 0. -1.
        -11    1    3    3    0    0 -0.12045887999E+02  0.18416678632E+02  0.14759158175E+02  0.26497362507E+02  0.51100000000E-03 0.  1.
         12    1    3    3    0    0  0.38024360138E+00  0.54874816186E+00  0.12465445979E+01  0.14140661852E+01  0.00000000000E+00 0. -1.
</event>
<event>
 7    1  0.1019486E-010  0.4778727E+02  0.7816164E-02  0.1312668E+00
        -11   -1    0    0    0    0  0.00000000000E+00  0.00000000000E+00  0.45593999997E+02  0.45594000000E+02  0.51100000000E-03 0. -1.
         11   -1    0    0    0    0 -0.00000000000E+00 -0.00000000000E+00 -0.45593999997E+02  0.45594000000E+02  0.51100000000E-03 0.  1.
    9900012    2    1    2    0    0 -0.12160226153E+02 -0.40359734345E+02 -0.10336540278E+02  0.47787270497E+02  0.19999997503E+02 0.  0.
         12    1    1    2    0    0  0.12160226153E+02  0.40359734345E+02  0.10336540278E+02  0.43400729503E+02  0.00000000000E+00 0. -1.
         11    1    3    3    0    0  0.31806911546E+01 -0.11967832781E+02 -0.63937300736E+01  0.13936484572E+02  0.51100000000E-03 0. -1.
        -11    1    3    3    0    0 -0.10231213648E+02 -0.95955307144E+01 -0.27242107156E+00  0.14029474541E+02  0.51100000000E-03 0.  1.
        -12    1    3    3    0    0 -0.51097036602E+01 -0.18796370849E+02 -0.36703891324E+01  0.19821311384E+02  0.00000000000E+00 0.  1.
</event>
<event>
 7    1  0.1019486E-010  0.4778727E+02  0.7816164E-02  0.1312668E+00
        -11   -1    0    0    0    0  0.00000000000E+00  0.00000000000E+00  0.45593999997E+02  0.45594000000E+02  0.51100000000E-03 0. -1.
         11   -1    0    0    0    0 -0.00000000000E+00 -0.00000000000E+00 -0.45593999997E+02  0.45594000000E+02  0.51100000000E-03 0.  1.
    9900012    2    1    2    0    0 -0.59345724158E+01 -0.13706850975E+01  0.42971215723E+02  0.47787270650E+02  0.19999998200E+02 0.  0.
        -12    1    1    2    0    0  0.59345724158E+01  0.13706850975E+01 -0.42971215723E+02  0.43400729350E+02  0.00000000000E+00 0.  1.
         11    1    3    3    0    0 -0.64937127148E+01 -0.79736786014E+01  0.17975708405E+02  0.20709272034E+02  0.51100000000E-03 0. -1.
        -11    1    3    3    0    0  0.27410400091E+01  0.53900664454E+01  0.87162392116E+01  0.10608437344E+02  0.51100000000E-03 0.  1.
        -12    1    3    3    0    0 -0.21818997101E+01  0.12129270586E+01  0.16279268107E+02  0.16469561272E+02  0.00000000000E+00 0.  1.
</event>
<event>
 7    1  0.1019486E-010  0.4778727E+02  0.7816164E-02  0.1312668E+00
        -11   -1    0    0    0    0  0.00000000000E+00  0.00000000000E+00  0.45593999997E+02  0.45594000000E+02  0.51100000000E-03 0. -1.
         11   -1    0    0    0    0 -0.00000000000E+00 -0.00000000000E+00 -0.45593999997E+02  0.45594000000E+02  0.51100000000E-03 0.  1.
    9900012    2    1    2    0    0  0.12883781745E+02 -0.18291008312E+02  0.37189655400E+02  0.47787270906E+02  0.19999999370E+02 0.  0.
        -12    1    1    2    0    0 -0.12883781745E+02  0.18291008312E+02 -0.37189655400E+02  0.43400729094E+02  0.00000000000E+00 0.  1.
         11    1    3    3    0    0  0.64891508888E+00 -0.15327026693E+02  0.16205475924E+02  0.22314934197E+02  0.51100000000E-03 0. -1.
        -11    1    3    3    0    0  0.38494994334E+00  0.16690421704E+01  0.26721219997E+01  0.31739761291E+01  0.51100000000E-03 0.  1.
         12    1    3    3    0    0  0.11849916713E+02 -0.46330237889E+01  0.18312057476E+02  0.22298360580E+02  0.00000000000E+00 0. -1.
</event>
<event>
 7    1  0.1304709E-010  0.4778727E+02  0.7816164E-02  0.1312668E+00
        -11   -1    0    0    0    0  0.00000000000E+00  0.00000000000E+00  0.45593999997E+02  0.45594000000E+02  0.51100000000E-03 0. -1.
         11   -1    0    0    0    0 -0.00000000000E+00 -0.00000000000E+00 -0.45593999997E+02  0.45594000000E+02  0.51100000000E-03 0.  1.
    9900012    2    1    2    0    0 -0.51644247174E+01 -0.82178279382E+01 -0.42301527088E+02  0.47787272210E+02  0.20000005315E+02 0.  0.
         12    1    1    2    0    0  0.51644247174E+01  0.82178279382E+01  0.42301527088E+02  0.43400727790E+02  0.00000000000E+00 0. -1.
         11    1    3    3    0    0  0.21988709090E+01 -0.50568789472E-01  0.72733253826E+00  0.23165930500E+01  0.51100000000E-03 0. -1.
        -11    1    3    3    0    0 -0.75109540966E+01 -0.18743116388E+01 -0.30260749996E+02  0.31235243974E+02  0.51100000000E-03 0.  1.
         12    1    3    3    0    0  0.14765847019E+00 -0.62929475100E+01 -0.12768109631E+02  0.14235435186E+02  0.00000000000E+00 0. -1.
</event>
<event>
 7    1  0.1019486E-010  0.4778727E+02  0.7816164E-02  0.1312668E+00
        -11   -1    0    0    0    0  0.00000000000E+00  0.00000000000E+00  0.45593999997E+02  0.45594000000E+02  0.51100000000E-03 0. -1.
         11   -1    0    0    0    0 -0.00000000000E+00 -0.00000000000E+00 -0.45593999997E+02  0.45594000000E+02  0.51100000000E-03 0.  1.
    9900012    2    1    2    0    0  0.29521411586E+02  0.30815095962E+01  0.31664074431E+02  0.47787273589E+02  0.20000011601E+02 0.  0.
        -12    1    1    2    0    0 -0.29521411586E+02 -0.30815095962E+01 -0.31664074431E+02  0.43400726411E+02  0.00000000000E+00 0.  1.
         11    1    3    3    0    0  0.26132033600E+02  0.90277349141E+00  0.20765847234E+02  0.33390396698E+02  0.51100000000E-03 0. -1.
        -11    1    3    3    0    0  0.45340004103E+00  0.71759565233E+00  0.11079914838E+02  0.11112381752E+02  0.51100000000E-03 0.  1.
         12    1    3    3    0    0  0.29359779453E+01  0.14611404524E+01 -0.18168764132E+00  0.32844951387E+01  0.00000000000E+00 0. -1.
</event>
<event>
 7    1  0.1019486E-010  0.4778727E+02  0.7816164E-02  0.1312668E+00
        -11   -1    0    0    0    0  0.00000000000E+00  0.00000000000E+00  0.45593999997E+02  0.45594000000E+02  0.51100000000E-03 0. -1.
         11   -1    0    0    0    0 -0.00000000000E+00 -0.00000000000E+00 -0.45593999997E+02  0.45594000000E+02  0.51100000000E-03 0.  1.
    9900012    2    1    2    0    0  0.14861710229E+02 -0.23795711963E+00  0.40776171513E+02  0.47787271690E+02  0.20000002945E+02 0.  0.
        -12    1    1    2    0    0 -0.14861710229E+02  0.23795711963E+00 -0.40776171513E+02  0.43400728310E+02  0.00000000000E+00 0.  1.
         11    1    3    3    0    0  0.10970432855E+02  0.12095902889E+00  0.37599004369E+02  0.39166952370E+02  0.51100000000E-03 0. -1.
        -11    1    3    3    0    0 -0.10962624906E+01 -0.20605676561E+01 -0.22942511214E+00  0.23452860501E+01  0.51100000000E-03 0.  1.
         12    1    3    3    0    0  0.49875398639E+01  0.17016515076E+01  0.34065922565E+01  0.62750332708E+01  0.00000000000E+00 0. -1.
</event>
<event>
 7    1  0.1019486E-010  0.4778727E+02  0.7816164E-02  0.1312668E+00
        -11   -1    0    0    0    0  0.00000000000E+00  0.00000000000E+00  0.45593999997E+02  0.45594000000E+02  0.51100000000E-03 0. -1.
         11   -1    0    0    0    0 -0.00000000000E+00 -0.00000000000E+00 -0.45593999997E+02  0.45594000000E+02  0.51100000000E-03 0.  1.
    9900012    2    1    2    0    0 -0.26278398352E+02  0.25231860650E+02 -0.23588600089E+02  0.47787273440E+02  0.20000010921E+02 0.  0.
         12    1    1    2    0    0  0.26278398352E+02 -0.25231860650E+02  0.23588600089E+02  0.43400726560E+02  0.00000000000E+00 0. -1.
         11    1    3    3    0    0 -0.16084790970E+02  0.71833526392E+01 -0.35932428187E+01  0.17978666522E+02  0.51100000000E-03 0. -1.
        -11    1    3    3    0    0 -0.38246841689E+01  0.15080986983E+01 -0.20809250546E+01  0.46079084213E+01  0.51100000000E-03 0.  1.
         12    1    3    3    0    0 -0.63689232132E+01  0.16540409313E+02 -0.17914432215E+02  0.25200698497E+02  0.00000000000E+00 0. -1.
</event>
<event>
 7    1  0.1019486E-010  0.4778727E+02  0.7816164E-02  0.1312668E+00
        -11   -1    0    0    0    0  0.00000000000E+00  0.00000000000E+00  0.45593999997E+02  0.45594000000E+02  0.51100000000E-03 0. -1.
         11   -1    0    0    0    0 -0.00000000000E+00 -0.00000000000E+00 -0.45593999997E+02  0.45594000000E+02  0.51100000000E-03 0.  1.
    9900012    2    1    2    0    0  0.35607051433E+02 -0.51264465089E+01  0.24279222375E+02  0.47787271842E+02  0.20000003635E+02 0.  0.
        -12    1    1    2    0    0 -0.35607051433E+02  0.51264465089E+01 -0.24279222375E+02  0.43400728158E+02  0.00000000000E+00 0.  1.
         11    1    3    3    0    0  0.13409665746E+02 -0.80780630363E+01  0.15606202334E+02  0.22104926813E+02  0.51100000000E-03 0. -1.
        -11    1    3    3    0    0  0.85009759931E+01  0.21233960066E+00 -0.11856599189E+01  0.85858878775E+01  0.51100000000E-03 0.  1.
         12    1    3    3    0    0  0.13696409694E+02  0.27392769268E+01  0.98586799592E+01  0.17096457151E+02  0.00000000000E+00 0. -1.
</event>
<event>
 7    1  0.1019486E-010  0.4778727E+02  0.7816164E-02  0.1312668E+00
        -11   -1    0    0    0    0  0.00000000000E+00  0.00000000000E+00  0.45593999997E+02  0.45594000000E+02  0.51100000000E-03 0. -1.
         11   -1    0    0    0    0 -0.00000000000E+00 -0.00000000000E+00 -0.45593999997E+02  0.45594000000E+02  0.51100000000E-03 0.  1.
    9900012    2    1    2    0    0 -0.76590255976E+01 -0.21293184049E+02  0.37034618877E+02  0.47787270105E+02  0.19999995716E+02 0.  0.
        -12    1    1    2    0    0  0.76590255976E+01  0.21293184049E+02 -0.37034618877E+02  0.43400729895E+02  0.00000000000E+00 0.  1.
         11    1    3    3    0    0  0.53307576308E+01 -0.59125366687E+01  0.97833073087E+01  0.12613015854E+02  0.51100000000E-03 0. -1.
        -11    1    3    3    0    0 -0.86410651709E+00  0.95162929752E+00  0.43854859051E+01  0.45699852601E+01  0.51100000000E-03 0.  1.
         12    1    3    3    0    0 -0.12125676711E+02 -0.16332276678E+02  0.22865825663E+02  0.30604268991E+02  0.00000000000E+00 0. -1.
</event>
<event>
 7    1  0.1019486E-010  0.4778727E+02  0.7816164E-02  0.1312668E+00
        -11   -1    0    0    0    0  0.00000000000E+00  0.00000000000E+00  0.45593999997E+02  0.45594000000E+02  0.51100000000E-03 0. -1.
         11   -1    0    0    0    0 -0.00000000000E+00 -0.00000000000E+00 -0.45593999997E+02  0.45594000000E+02  0.51100000000E-03 0.  1.
    9900012    2    1    2    0    0  0.17281683865E+02  0.10093913879E+02 -0.38510770577E+02  0.47787272529E+02  0.20000006768E+02 0.  0.
         12    1    1    2    0    0 -0.17281683865E+02 -0.10093913879E+02  0.38510770577E+02  0.43400727471E+02  0.00000000000E+00 0. -1.
         11    1    3    3    0    0  0.11569566936E+02  0.28761180172E+01 -0.68281826397E+01  0.13738668508E+02  0.51100000000E-03 0. -1.
        -11    1    3    3    0    0  0.67341081351E+01  0.29697354555E+01 -0.25028965207E+02  0.26088630487E+02  0.51100000000E-03 0.  1.
        -12    1    3    3    0    0 -0.10219912066E+01  0.42480604061E+01 -0.66536227299E+01  0.79599735346E+01  0.00000000000E+00 0.  1.
</event>
<event>
 7    1  0.1019486E-010  0.4778727E+02  0.7816164E-02  0.1312668E+00
        -11   -1    0    0    0    0  0.00000000000E+00  0.00000000000E+00  0.45593999997E+02  0.45594000000E+02  0.51100000000E-03 0.  1.
         11   -1    0    0    0    0 -0.00000000000E+00 -0.00000000000E+00 -0.45593999997E+02  0.45594000000E+02  0.51100000000E-03 0. -1.
    9900012    2    1    2    0    0 -0.42753339394E+02  0.13656506835E+00  0.74670195864E+01  0.47787273499E+02  0.20000011191E+02 0.  0.
        -12    1    1    2    0    0  0.42753339394E+02 -0.13656506835E+00 -0.74670195864E+01  0.43400726501E+02  0.00000000000E+00 0.  1.
         11    1    3    3    0    0 -0.16079128187E+02 -0.46285947768E+01  0.89099396831E+01  0.18956510182E+02  0.51100000000E-03 0. -1.
        -11    1    3    3    0    0 -0.95579120630E+01  0.84819921716E+00 -0.51423035342E+01  0.10886524276E+02  0.51100000000E-03 0.  1.
         12    1    3    3    0    0 -0.17116299143E+02  0.39169606280E+01  0.36993834375E+01  0.17944239041E+02  0.00000000000E+00 0. -1.
</event>
<event>
 7    1  0.1019486E-010  0.4778727E+02  0.7816164E-02  0.1312668E+00
        -11   -1    0    0    0    0  0.00000000000E+00  0.00000000000E+00  0.45593999997E+02  0.45594000000E+02  0.51100000000E-03 0. -1.
         11   -1    0    0    0    0 -0.00000000000E+00 -0.00000000000E+00 -0.45593999997E+02  0.45594000000E+02  0.51100000000E-03 0.  1.
    9900012    2    1    2    0    0 -0.88617938527E+01 -0.82925849536E+01  0.41669231541E+02  0.47787271749E+02  0.20000003213E+02 0.  0.
        -12    1    1    2    0    0  0.88617938527E+01  0.82925849536E+01 -0.41669231541E+02  0.43400728251E+02  0.00000000000E+00 0.  1.
         11    1    3    3    0    0 -0.67191574720E+01 -0.34068414547E+01  0.37252176591E+02  0.38006292991E+02  0.51100000000E-03 0. -1.
        -11    1    3    3    0    0  0.33755877708E+00 -0.57604995707E+01  0.42099557921E+01  0.71429006198E+01  0.51100000000E-03 0.  1.
        -12    1    3    3    0    0 -0.24801951578E+01  0.87475607180E+00  0.20709915734E+00  0.26380781389E+01  0.00000000000E+00 0.  1.
</event>
<event>
 7    1  0.1019486E-010  0.4778727E+02  0.7816164E-02  0.1312668E+00
        -11   -1    0    0    0    0  0.00000000000E+00  0.00000000000E+00  0.45593999997E+02  0.45594000000E+02  0.51100000000E-03 0. -1.
         11   -1    0    0    0    0 -0.00000000000E+00 -0.00000000000E+00 -0.45593999997E+02  0.45594000000E+02  0.51100000000E-03 0.  1.
    9900012    2    1    2    0    0 -0.52602880591E+01  0.20847185208E+02 -0.37700765199E+02  0.47787268921E+02  0.19999990319E+02 0.  0.
         12    1    1    2    0    0  0.52602880591E+01 -0.20847185208E+02  0.37700765199E+02  0.43400731079E+02  0.00000000000E+00 0. -1.
         11    1    3    3    0    0 -0.21325510511E+01  0.46276755379E+01  0.11487356644E+01  0.52232890747E+01  0.51100000000E-03 0. -1.
        -11    1    3    3    0    0 -0.80853044582E+00  0.13367403049E+02 -0.33457538232E+02  0.36038147158E+02  0.51100000000E-03 0.  1.
         12    1    3    3    0    0 -0.23192065622E+01  0.28521066216E+01 -0.53919626317E+01  0.65258326887E+01  0.00000000000E+00 0. -1.
</event>
<event>
 7    1  0.1019486E-010  0.4778725E+02  0.7816164E-02  0.1312668E+00
        -11   -1    0    0    0    0  0.00000000000E+00  0.00000000000E+00  0.45593999997E+02  0.45594000000E+02  0.51100000000E-03 0. -1.
         11   -1    0    0    0    0 -0.00000000000E+00 -0.00000000000E+00 -0.45593999997E+02  0.45594000000E+02  0.51100000000E-03 0.  1.
    9900012    2    1    2    0    0 -0.17168580864E+02  0.24659791435E+02 -0.31317078974E+02  0.47787252104E+02  0.19999913641E+02 0.  0.
         12    1    1    2    0    0  0.17168580864E+02 -0.24659791435E+02  0.31317078974E+02  0.43400747896E+02  0.00000000000E+00 0. -1.
         11    1    3    3    0    0 -0.31135338624E+01 -0.21651451961E+01 -0.15165636935E+01  0.40843497071E+01  0.51100000000E-03 0. -1.
        -11    1    3    3    0    0 -0.10787387993E+02  0.21006687049E+02 -0.28308863970E+02  0.36865165401E+02  0.51100000000E-03 0.  1.
         12    1    3    3    0    0 -0.32676590087E+01  0.58182495812E+01 -0.14916513108E+01  0.68377369955E+01  0.00000000000E+00 0. -1.
</event>
<event>
 7    1  0.1019486E-010  0.4778727E+02  0.7816164E-02  0.1312668E+00
        -11   -1    0    0    0    0  0.00000000000E+00  0.00000000000E+00  0.45593999997E+02  0.45594000000E+02  0.51100000000E-03 0. -1.
         11   -1    0    0    0    0 -0.00000000000E+00 -0.00000000000E+00 -0.45593999997E+02  0.45594000000E+02  0.51100000000E-03 0.  1.
    9900012    2    1    2    0    0 -0.11036691345E+02 -0.29329531087E+02  0.30026543761E+02  0.47787270976E+02  0.19999999686E+02 0.  0.
        -12    1    1    2    0    0  0.11036691345E+02  0.29329531087E+02 -0.30026543761E+02  0.43400729024E+02  0.00000000000E+00 0.  1.
         11    1    3    3    0    0 -0.80456872153E+01 -0.13536593913E+02  0.64783074565E+01  0.17027651785E+02  0.51100000000E-03 0. -1.
        -11    1    3    3    0    0 -0.80781797023E+00 -0.72913461633E+01  0.19980761878E+02  0.21284904140E+02  0.51100000000E-03 0.  1.
        -12    1    3    3    0    0 -0.21831861590E+01 -0.85015910104E+01  0.35674744263E+01  0.94747150508E+01  0.00000000000E+00 0.  1.
</event>
<event>
 7    1  0.1019486E-010  0.4778730E+02  0.7816164E-02  0.1312668E+00
        -11   -1    0    0    0    0  0.00000000000E+00  0.00000000000E+00  0.45593999997E+02  0.45594000000E+02  0.51100000000E-03 0. -1.
         11   -1    0    0    0    0 -0.00000000000E+00 -0.00000000000E+00 -0.45593999997E+02  0.45594000000E+02  0.51100000000E-03 0.  1.
    9900012    2    1    2    0    0  0.27978274213E+01  0.12734153183E+02  0.41396062017E+02  0.47787303622E+02  0.20000148536E+02 0.  0.
        -12    1    1    2    0    0 -0.27978274213E+01 -0.12734153183E+02 -0.41396062017E+02  0.43400696378E+02  0.00000000000E+00 0.  1.
         11    1    3    3    0    0 -0.15442379337E+01  0.98680639796E+00  0.85842009057E+01  0.87776399512E+01  0.51100000000E-03 0. -1.
        -11    1    3    3    0    0 -0.50398244259E+01  0.54081978341E+01  0.22542149440E+02  0.23723341580E+02  0.51100000000E-03 0.  1.
        -12    1    3    3    0    0  0.93818897809E+01  0.63391489513E+01  0.10269711671E+02  0.15286322091E+02  0.00000000000E+00 0.  1.
</event>
<event>
 7    1  0.1019486E-010  0.4778727E+02  0.7816164E-02  0.1312668E+00
        -11   -1    0    0    0    0  0.00000000000E+00  0.00000000000E+00  0.45593999997E+02  0.45594000000E+02  0.51100000000E-03 0. -1.
         11   -1    0    0    0    0 -0.00000000000E+00 -0.00000000000E+00 -0.45593999997E+02  0.45594000000E+02  0.51100000000E-03 0.  1.
    9900012    2    1    2    0    0 -0.10231759557E+02 -0.33426978533E+01  0.42044745687E+02  0.47787272213E+02  0.20000005328E+02 0.  0.
        -12    1    1    2    0    0  0.10231759557E+02  0.33426978533E+01 -0.42044745687E+02  0.43400727787E+02  0.00000000000E+00 0.  1.
         11    1    3    3    0    0  0.47158883431E+01 -0.24017892418E+01  0.60420447050E+01  0.80320918138E+01  0.51100000000E-03 0.  1.
        -11    1    3    3    0    0  0.83385554563E+00 -0.64158206313E+00  0.28120987681E+01  0.30024727071E+01  0.51100000000E-03 0. -1.
         12    1    3    3    0    0 -0.15781503445E+02 -0.29932654841E+00  0.33190602214E+02  0.36752707692E+02  0.00000000000E+00 0. -1.
</event>
<event>
 7    1  0.1019486E-010  0.4778730E+02  0.7816164E-02  0.1312668E+00
        -11   -1    0    0    0    0  0.00000000000E+00  0.00000000000E+00  0.45593999997E+02  0.45594000000E+02  0.51100000000E-03 0.  1.
         11   -1    0    0    0    0 -0.00000000000E+00 -0.00000000000E+00 -0.45593999997E+02  0.45594000000E+02  0.51100000000E-03 0. -1.
    9900012    2    1    2    0    0  0.23897684033E+01  0.36109420774E+02 -0.23958699607E+02  0.47787302442E+02  0.20000143153E+02 0.  0.
         12    1    1    2    0    0 -0.23897684033E+01 -0.36109420774E+02  0.23958699607E+02  0.43400697558E+02  0.00000000000E+00 0. -1.
         11    1    3    3    0    0 -0.47082987529E+01  0.41469341679E+01 -0.59208472064E+01  0.86267938448E+01  0.51100000000E-03 0. -1.
        -11    1    3    3    0    0  0.85330276488E+01  0.32169191113E+02 -0.17584418757E+02  0.37641482449E+02  0.51100000000E-03 0.  1.
        -12    1    3    3    0    0 -0.14349604927E+01 -0.20670450642E+00 -0.45343364432E+00  0.15190261480E+01  0.00000000000E+00 0.  1.
</event>
<event>
 7    1  0.1019486E-010  0.4778727E+02  0.7816164E-02  0.1312668E+00
        -11   -1    0    0    0    0  0.00000000000E+00  0.00000000000E+00  0.45593999997E+02  0.45594000000E+02  0.51100000000E-03 0. -1.
         11   -1    0    0    0    0 -0.00000000000E+00 -0.00000000000E+00 -0.45593999997E+02  0.45594000000E+02  0.51100000000E-03 0.  1.
    9900012    2    1    2    0    0 -0.69397731149E+01  0.38343101499E+02 -0.19112020928E+02  0.47787271580E+02  0.20000002441E+02 0.  0.
         12    1    1    2    0    0  0.69397731149E+01 -0.38343101499E+02  0.19112020928E+02  0.43400728420E+02  0.00000000000E+00 0. -1.
         11    1    3    3    0    0 -0.79098158477E+01  0.62544319863E+01 -0.14803964590E+01  0.10191892864E+02  0.51100000000E-03 0. -1.
        -11    1    3    3    0    0 -0.35280670420E+01  0.17572964653E+02 -0.10871301659E+02  0.20962861058E+02  0.51100000000E-03 0.  1.
         12    1    3    3    0    0  0.44981097748E+01  0.14515704860E+02 -0.67603228102E+01  0.16632517657E+02  0.00000000000E+00 0. -1.
</event>
<event>
 7    1  0.1019486E-010  0.4778728E+02  0.7816164E-02  0.1312668E+00
        -11   -1    0    0    0    0  0.00000000000E+00  0.00000000000E+00  0.45593999997E+02  0.45594000000E+02  0.51100000000E-03 0. -1.
         11   -1    0    0    0    0 -0.00000000000E+00 -0.00000000000E+00 -0.45593999997E+02  0.45594000000E+02  0.51100000000E-03 0.  1.
    9900012    2    1    2    0    0  0.70137755339E+01 -0.53720736774E+01 -0.42492005897E+02  0.47787276642E+02  0.20000025521E+02 0.  0.
         12    1    1    2    0    0 -0.70137755339E+01  0.53720736774E+01  0.42492005897E+02  0.43400723358E+02  0.00000000000E+00 0. -1.
         11    1    3    3    0    0  0.32181966075E+01 -0.11443949277E+02 -0.18987086362E+02  0.22401567205E+02  0.51100000000E-03 0. -1.
        -11    1    3    3    0    0  0.95983305712E+00  0.53299021830E+01 -0.20437851429E+02  0.21143200044E+02  0.51100000000E-03 0.  1.
        -12    1    3    3    0    0  0.28357458694E+01  0.74197341617E+00 -0.30670681058E+01  0.42425093932E+01  0.00000000000E+00 0.  1.
</event>
<event>
 7    1  0.1019486E-010  0.4778730E+02  0.7816164E-02  0.1312668E+00
        -11   -1    0    0    0    0  0.00000000000E+00  0.00000000000E+00  0.45593999997E+02  0.45594000000E+02  0.51100000000E-03 0. -1.
         11   -1    0    0    0    0 -0.00000000000E+00 -0.00000000000E+00 -0.45593999997E+02  0.45594000000E+02  0.51100000000E-03 0.  1.
    9900012    2    1    2    0    0  0.85085228561E+01  0.30973212309E+02 -0.29187079490E+02  0.47787303564E+02  0.20000148271E+02 0.  0.
         12    1    1    2    0    0 -0.85085228561E+01 -0.30973212309E+02  0.29187079490E+02  0.43400696436E+02  0.00000000000E+00 0. -1.
         11    1    3    3    0    0  0.45095429460E+01  0.17173594133E+02 -0.25105270333E+02  0.30749681491E+02  0.51100000000E-03 0. -1.
        -11    1    3    3    0    0  0.38071566815E+01  0.14403479561E+02 -0.51773013922E+01  0.15772099272E+02  0.51100000000E-03 0.  1.
         12    1    3    3    0    0  0.19182322864E+00 -0.60386138525E+00  0.10954922354E+01  0.12655228016E+01  0.00000000000E+00 0. -1.
</event>
<event>
 7    1  0.1019486E-010  0.4778728E+02  0.7816164E-02  0.1312668E+00
        -11   -1    0    0    0    0  0.00000000000E+00  0.00000000000E+00  0.45593999997E+02  0.45594000000E+02  0.51100000000E-03 0.  1.
         11   -1    0    0    0    0 -0.00000000000E+00 -0.00000000000E+00 -0.45593999997E+02  0.45594000000E+02  0.51100000000E-03 0. -1.
    9900012    2    1    2    0    0  0.29281702480E+02  0.25684013260E+02 -0.19145128279E+02  0.47787279107E+02  0.20000036760E+02 0.  0.
        -12    1    1    2    0    0 -0.29281702480E+02 -0.25684013260E+02  0.19145128279E+02  0.43400720893E+02  0.00000000000E+00 0.  1.
         11    1    3    3    0    0  0.17701198154E+02  0.94873694747E+01 -0.96622919448E+01  0.22286823047E+02  0.51100000000E-03 0. -1.
        -11    1    3    3    0    0  0.25584883359E+00  0.71603340139E+01  0.14998308230E+01  0.73202004464E+01  0.51100000000E-03 0.  1.
        -12    1    3    3    0    0  0.11324655492E+02  0.90363097709E+01 -0.10982667157E+02  0.18180255613E+02  0.00000000000E+00 0.  1.
</event>
<event>
 7    1  0.1019486E-010  0.4778727E+02  0.7816164E-02  0.1312668E+00
        -11   -1    0    0    0    0  0.00000000000E+00  0.00000000000E+00  0.45593999997E+02  0.45594000000E+02  0.51100000000E-03 0. -1.
         11   -1    0    0    0    0 -0.00000000000E+00 -0.00000000000E+00 -0.45593999997E+02  0.45594000000E+02  0.51100000000E-03 0.  1.
    9900012    2    1    2    0    0 -0.16493074133E+02 -0.20414313755E+02  0.34566715169E+02  0.47787268462E+02  0.19999988225E+02 0.  0.
        -12    1    1    2    0    0  0.16493074133E+02  0.20414313755E+02 -0.34566715169E+02  0.43400731538E+02  0.00000000000E+00 0.  1.
         11    1    3    3    0    0 -0.48228067966E+01 -0.68584232120E+01  0.19663813622E+02  0.21376692933E+02  0.51100000000E-03 0. -1.
        -11    1    3    3    0    0 -0.91427368190E+01 -0.82298268388E+01  0.23241522508E+01  0.12518840613E+02  0.51100000000E-03 0.  1.
        -12    1    3    3    0    0 -0.25275305179E+01 -0.53260637039E+01  0.12578749297E+02  0.13891734916E+02  0.00000000000E+00 0.  1.
</event>
<event>
 7    1  0.1135211E-010  0.4778727E+02  0.7816164E-02  0.1312668E+00
        -11   -1    0    0    0    0  0.00000000000E+00  0.00000000000E+00  0.45593999997E+02  0.45594000000E+02  0.51100000000E-03 0. -1.
         11   -1    0    0    0    0 -0.00000000000E+00 -0.00000000000E+00 -0.45593999997E+02  0.45594000000E+02  0.51100000000E-03 0.  1.
    9900012    2    1    2    0    0  0.16350792752E+02 -0.40157170862E+01 -0.40001860943E+02  0.47787270902E+02  0.19999999349E+02 0.  0.
         12    1    1    2    0    0 -0.16350792752E+02  0.40157170862E+01  0.40001860943E+02  0.43400729098E+02  0.00000000000E+00 0. -1.
         11    1    3    3    0    0  0.31395541462E+01  0.20716276239E+01  0.12091260233E+01  0.39510033220E+01  0.51100000000E-03 0. -1.
        -11    1    3    3    0    0  0.93617717282E+01 -0.44744679290E+01 -0.24393479471E+02  0.26508592458E+02  0.51100000000E-03 0.  1.
         12    1    3    3    0    0  0.38494668779E+01 -0.16128767812E+01 -0.16817507496E+02  0.17327675122E+02  0.00000000000E+00 0. -1.
</event>
<event>
 7    1  0.1019486E-010  0.4778728E+02  0.7816164E-02  0.1312668E+00
        -11   -1    0    0    0    0  0.00000000000E+00  0.00000000000E+00  0.45593999997E+02  0.45594000000E+02  0.51100000000E-03 0. -1.
         11   -1    0    0    0    0 -0.00000000000E+00 -0.00000000000E+00 -0.45593999997E+02  0.45594000000E+02  0.51100000000E-03 0.  1.
    9900012    2    1    2    0    0  0.92363442987E+01 -0.18218679262E+02  0.38293500291E+02  0.47787280022E+02  0.20000040934E+02 0.  0.
        -12    1    1    2    0    0 -0.92363442987E+01  0.18218679262E+02 -0.38293500291E+02  0.43400719978E+02  0.00000000000E+00 0.  1.
         11    1    3    3    0    0  0.77295640860E+01  0.26505847916E+00  0.17101632700E+02  0.18769183739E+02  0.51100000000E-03 0. -1.
        -11    1    3    3    0    0  0.17689415941E+01 -0.19080390478E+02  0.20327857868E+02  0.27935859766E+02  0.51100000000E-03 0.  1.
        -12    1    3    3    0    0 -0.26216138139E+00  0.59665273623E+00  0.86400972270E+00  0.10822365169E+01  0.00000000000E+00 0.  1.
</event>
<event>
 7    1  0.1019486E-010  0.4778727E+02  0.7816164E-02  0.1312668E+00
        -11   -1    0    0    0    0  0.00000000000E+00  0.00000000000E+00  0.45593999997E+02  0.45594000000E+02  0.51100000000E-03 0. -1.
         11   -1    0    0    0    0 -0.00000000000E+00 -0.00000000000E+00 -0.45593999997E+02  0.45594000000E+02  0.51100000000E-03 0.  1.
    9900012    2    1    2    0    0  0.29294758546E+02  0.19733519298E+02  0.25219614019E+02  0.47787267364E+02  0.19999983218E+02 0.  0.
        -12    1    1    2    0    0 -0.29294758546E+02 -0.19733519298E+02 -0.25219614019E+02  0.43400732636E+02  0.00000000000E+00 0.  1.
         11    1    3    3    0    0  0.44780862139E+01  0.62087012899E+01  0.10546488948E+02  0.13031870826E+02  0.51100000000E-03 0. -1.
        -11    1    3    3    0    0  0.22420804657E+02  0.16348059297E+02  0.12260777091E+02  0.30336087081E+02  0.51100000000E-03 0.  1.
        -12    1    3    3    0    0  0.23958676750E+01 -0.28232412895E+01  0.24123479805E+01  0.44193094566E+01  0.00000000000E+00 0.  1.
</event>
<event>
 7    1  0.1019486E-010  0.4778727E+02  0.7816164E-02  0.1312668E+00
        -11   -1    0    0    0    0  0.00000000000E+00  0.00000000000E+00  0.45593999997E+02  0.45594000000E+02  0.51100000000E-03 0. -1.
         11   -1    0    0    0    0 -0.00000000000E+00 -0.00000000000E+00 -0.45593999997E+02  0.45594000000E+02  0.51100000000E-03 0.  1.
    9900012    2    1    2    0    0 -0.14622646933E+02  0.26022931962E+02 -0.31505691921E+02  0.47787269423E+02  0.19999992608E+02 0.  0.
         12    1    1    2    0    0  0.14622646933E+02 -0.26022931962E+02  0.31505691921E+02  0.43400730577E+02  0.00000000000E+00 0. -1.
         11    1    3    3    0    0 -0.13714071925E+02  0.21587211774E+02 -0.19608422256E+02  0.32226909634E+02  0.51100000000E-03 0. -1.
        -11    1    3    3    0    0 -0.83857711121E+00  0.34359587374E+01  0.83450640719E-01  0.35377942686E+01  0.51100000000E-03 0.  1.
         12    1    3    3    0    0 -0.69997896160E-01  0.99976145074E+00 -0.11980720305E+02  0.12022565520E+02  0.00000000000E+00 0. -1.
</event>
<event>
 7    1  0.1019486E-010  0.4778729E+02  0.7816164E-02  0.1312668E+00
        -11   -1    0    0    0    0  0.00000000000E+00  0.00000000000E+00  0.45593999997E+02  0.45594000000E+02  0.51100000000E-03 0. -1.
         11   -1    0    0    0    0 -0.00000000000E+00 -0.00000000000E+00 -0.45593999997E+02  0.45594000000E+02  0.51100000000E-03 0.  1.
    9900012    2    1    2    0    0 -0.21067821476E+02  0.20739965767E+02  0.31774553229E+02  0.47787291312E+02  0.20000092407E+02 0.  0.
        -12    1    1    2    0    0  0.21067821476E+02 -0.20739965767E+02 -0.31774553229E+02  0.43400708688E+02  0.00000000000E+00 0.  1.
         11    1    3    3    0    0 -0.11872571639E+02 -0.24741132462E+00  0.90342793839E+01  0.14921037964E+02  0.51100000000E-03 0. -1.
        -11    1    3    3    0    0 -0.41827139785E+01  0.13371292936E+02  0.17252082031E+02  0.22224331388E+02  0.51100000000E-03 0.  1.
        -12    1    3    3    0    0 -0.50125358586E+01  0.76160841561E+01  0.54881918139E+01  0.10641921959E+02  0.00000000000E+00 0.  1.
</event>
<event>
 7    1  0.1019486E-010  0.4778727E+02  0.7816164E-02  0.1312668E+00
        -11   -1    0    0    0    0  0.00000000000E+00  0.00000000000E+00  0.45593999997E+02  0.45594000000E+02  0.51100000000E-03 0. -1.
         11   -1    0    0    0    0 -0.00000000000E+00 -0.00000000000E+00 -0.45593999997E+02  0.45594000000E+02  0.51100000000E-03 0.  1.
    9900012    2    1    2    0    0 -0.20823621734E+02 -0.19586204621E+02 -0.32655483309E+02  0.47787271622E+02  0.20000002634E+02 0.  0.
         12    1    1    2    0    0  0.20823621734E+02  0.19586204621E+02  0.32655483309E+02  0.43400728378E+02  0.00000000000E+00 0. -1.
         11    1    3    3    0    0 -0.96783429449E+01  0.24016588479E+01 -0.10241637499E+02  0.14294384432E+02  0.51100000000E-03 0. -1.
        -11    1    3    3    0    0 -0.99900263595E+01 -0.16655357904E+02 -0.17880499384E+02  0.26399125593E+02  0.51100000000E-03 0.  1.
         12    1    3    3    0    0 -0.11552524298E+01 -0.53325055651E+01 -0.45333464262E+01  0.70937615973E+01  0.00000000000E+00 0. -1.
</event>
<event>
 7    1  0.1019486E-010  0.4778727E+02  0.7816164E-02  0.1312668E+00
        -11   -1    0    0    0    0  0.00000000000E+00  0.00000000000E+00  0.45593999997E+02  0.45594000000E+02  0.51100000000E-03 0. -1.
         11   -1    0    0    0    0 -0.00000000000E+00 -0.00000000000E+00 -0.45593999997E+02  0.45594000000E+02  0.51100000000E-03 0.  1.
    9900012    2    1    2    0    0  0.29350508653E+02  0.86788722486E+00 -0.31959629430E+02  0.47787268442E+02  0.19999988136E+02 0.  0.
         12    1    1    2    0    0 -0.29350508653E+02 -0.86788722486E+00  0.31959629430E+02  0.43400731558E+02  0.00000000000E+00 0. -1.
         11    1    3    3    0    0 -0.10593313812E+01 -0.20347245836E+01 -0.27305755946E+01  0.35662768323E+01  0.51100000000E-03 0. -1.
        -11    1    3    3    0    0  0.31214617668E+02  0.43091406755E+01 -0.28298024146E+02  0.42352086375E+02  0.51100000000E-03 0.  1.
        -12    1    3    3    0    0 -0.80477763343E+00 -0.14065288671E+01 -0.93102968934E+00  0.18689052345E+01  0.00000000000E+00 0.  1.
</event>
<event>
 7    1  0.1248502E-010  0.4778726E+02  0.7816164E-02  0.1312668E+00
        -11   -1    0    0    0    0  0.00000000000E+00  0.00000000000E+00  0.45593999997E+02  0.45594000000E+02  0.51100000000E-03 0.  1.
         11   -1    0    0    0    0 -0.00000000000E+00 -0.00000000000E+00 -0.45593999997E+02  0.45594000000E+02  0.51100000000E-03 0. -1.
    9900012    2    1    2    0    0  0.29071793816E+02  0.69497318089E+00 -0.32217570837E+02  0.47787262056E+02  0.19999959020E+02 0.  0.
         12    1    1    2    0    0 -0.29071793816E+02 -0.69497318089E+00  0.32217570837E+02  0.43400737944E+02  0.00000000000E+00 0. -1.
         11    1    3    3    0    0  0.58946421612E+00 -0.41970341260E+01 -0.17598233703E+01  0.45890676692E+01  0.51100000000E-03 0. -1.
        -11    1    3    3    0    0  0.22565959690E+02  0.68475610166E+01 -0.19531895079E+02  0.30620361759E+02  0.51100000000E-03 0.  1.
         12    1    3    3    0    0  0.59163699096E+01 -0.19555537097E+01 -0.10925852388E+02  0.12577832628E+02  0.00000000000E+00 0. -1.
</event>
<event>
 7    1  0.1019486E-010  0.4778728E+02  0.7816164E-02  0.1312668E+00
        -11   -1    0    0    0    0  0.00000000000E+00  0.00000000000E+00  0.45593999997E+02  0.45594000000E+02  0.51100000000E-03 0.  1.
         11   -1    0    0    0    0 -0.00000000000E+00 -0.00000000000E+00 -0.45593999997E+02  0.45594000000E+02  0.51100000000E-03 0. -1.
    9900012    2    1    2    0    0 -0.35350966550E+02 -0.22027525184E+02 -0.12195088547E+02  0.47787275508E+02  0.20000020351E+02 0.  0.
        -12    1    1    2    0    0  0.35350966550E+02  0.22027525184E+02  0.12195088547E+02  0.43400724492E+02  0.00000000000E+00 0.  1.
         11    1    3    3    0    0 -0.21460764860E+01 -0.39286740276E+00  0.24748791142E+01  0.32992447577E+01  0.51100000000E-03 0.  1.
        -11    1    3    3    0    0 -0.27483951667E+02 -0.15533990946E+02 -0.16931991027E+02  0.35824081207E+02  0.51100000000E-03 0. -1.
        -12    1    3    3    0    0 -0.57209383974E+01 -0.61006668355E+01  0.22620233655E+01  0.86639495434E+01  0.00000000000E+00 0.  1.
</event>
<event>
 7    1  0.1019486E-010  0.4778727E+02  0.7816164E-02  0.1312668E+00
        -11   -1    0    0    0    0  0.00000000000E+00  0.00000000000E+00  0.45593999997E+02  0.45594000000E+02  0.51100000000E-03 0. -1.
         11   -1    0    0    0    0 -0.00000000000E+00 -0.00000000000E+00 -0.45593999997E+02  0.45594000000E+02  0.51100000000E-03 0.  1.
    9900012    2    1    2    0    0  0.18540958672E+02 -0.31509085860E+02 -0.23388743893E+02  0.47787274417E+02  0.20000015377E+02 0.  0.
         12    1    1    2    0    0 -0.18540958672E+02  0.31509085860E+02  0.23388743893E+02  0.43400725583E+02  0.00000000000E+00 0. -1.
         11    1    3    3    0    0  0.31068468435E+00 -0.38742819513E+01  0.18503415680E+01  0.43046892792E+01  0.51100000000E-03 0. -1.
        -11    1    3    3    0    0  0.13799967012E+02 -0.27319548229E+02 -0.23931917914E+02  0.38852715481E+02  0.51100000000E-03 0.  1.
        -12    1    3    3    0    0  0.44303069758E+01 -0.31525568036E+00 -0.13071675475E+01  0.46298696570E+01  0.00000000000E+00 0.  1.
</event>
<event>
 7    1  0.1019486E-010  0.4778727E+02  0.7816164E-02  0.1312668E+00
        -11   -1    0    0    0    0  0.00000000000E+00  0.00000000000E+00  0.45593999997E+02  0.45594000000E+02  0.51100000000E-03 0. -1.
         11   -1    0    0    0    0 -0.00000000000E+00 -0.00000000000E+00 -0.45593999997E+02  0.45594000000E+02  0.51100000000E-03 0.  1.
    9900012    2    1    2    0    0  0.11088833624E+02  0.22310422306E+02 -0.35537388955E+02  0.47787272029E+02  0.20000004491E+02 0.  0.
         12    1    1    2    0    0 -0.11088833624E+02 -0.22310422306E+02  0.35537388955E+02  0.43400727971E+02  0.00000000000E+00 0. -1.
         11    1    3    3    0    0  0.33821159158E+01  0.20142251177E+02 -0.24268724672E+02  0.31719394509E+02  0.51100000000E-03 0. -1.
        -11    1    3    3    0    0  0.14296937378E+01 -0.26523117190E+01 -0.55102644203E+01  0.62802703669E+01  0.51100000000E-03 0.  1.
         12    1    3    3    0    0  0.62770239705E+01  0.48204828475E+01 -0.57583998631E+01  0.97876071535E+01  0.00000000000E+00 0. -1.
</event>
<event>
 7    1  0.1019486E-010  0.4778727E+02  0.7816164E-02  0.1312668E+00
        -11   -1    0    0    0    0  0.00000000000E+00  0.00000000000E+00  0.45593999997E+02  0.45594000000E+02  0.51100000000E-03 0.  1.
         11   -1    0    0    0    0 -0.00000000000E+00 -0.00000000000E+00 -0.45593999997E+02  0.45594000000E+02  0.51100000000E-03 0. -1.
    9900012    2    1    2    0    0 -0.33066697920E+01  0.24362619570E+02  0.35765233131E+02  0.47787271915E+02  0.20000003968E+02 0.  0.
        -12    1    1    2    0    0  0.33066697920E+01 -0.24362619570E+02 -0.35765233131E+02  0.43400728085E+02  0.00000000000E+00 0.  1.
         11    1    3    3    0    0 -0.39246983204E+01  0.39349471072E+01  0.85878180666E+01  0.10229256329E+02  0.51100000000E-03 0. -1.
        -11    1    3    3    0    0 -0.52792464326E+00 -0.16735997112E+01 -0.76393876454E+00  0.19139600621E+01  0.51100000000E-03 0.  1.
        -12    1    3    3    0    0  0.11459531716E+01  0.22101272174E+02  0.27941353829E+02  0.35644055524E+02  0.00000000000E+00 0.  1.
</event>
<event>
 7    1  0.1019486E-010  0.4778728E+02  0.7816164E-02  0.1312668E+00
        -11   -1    0    0    0    0  0.00000000000E+00  0.00000000000E+00  0.45593999997E+02  0.45594000000E+02  0.51100000000E-03 0. -1.
         11   -1    0    0    0    0 -0.00000000000E+00 -0.00000000000E+00 -0.45593999997E+02  0.45594000000E+02  0.51100000000E-03 0.  1.
    9900012    2    1    2    0    0 -0.66265461057E+01 -0.19223965256E+02  0.38342544248E+02  0.47787278198E+02  0.20000032617E+02 0.  0.
        -12    1    1    2    0    0  0.66265461057E+01  0.19223965256E+02 -0.38342544248E+02  0.43400721802E+02  0.00000000000E+00 0.  1.
         11    1    3    3    0    0  0.46528512890E+01 -0.80908952877E+01  0.11964908346E+02  0.15174671122E+02  0.51100000000E-03 0.  1.
        -11    1    3    3    0    0 -0.13034577648E+02 -0.11082891209E+02  0.21817221284E+02  0.27725833384E+02  0.51100000000E-03 0. -1.
         12    1    3    3    0    0  0.17551802530E+01 -0.50178759167E-01  0.45604146185E+01  0.48867736924E+01  0.00000000000E+00 0. -1.
</event>
<event>
 7    1  0.1019486E-010  0.4778728E+02  0.7816164E-02  0.1312668E+00
        -11   -1    0    0    0    0  0.00000000000E+00  0.00000000000E+00  0.45593999997E+02  0.45594000000E+02  0.51100000000E-03 0. -1.
         11   -1    0    0    0    0 -0.00000000000E+00 -0.00000000000E+00 -0.45593999997E+02  0.45594000000E+02  0.51100000000E-03 0.  1.
    9900012    2    1    2    0    0 -0.19505290379E+02 -0.60529513370E+01  0.38295271361E+02  0.47787281328E+02  0.20000046885E+02 0.  0.
        -12    1    1    2    0    0  0.19505290379E+02  0.60529513370E+01 -0.38295271361E+02  0.43400718672E+02  0.00000000000E+00 0.  1.
         11    1    3    3    0    0 -0.42046920957E+01 -0.12325002859E+01  0.25554576432E+02  0.25927492541E+02  0.51100000000E-03 0. -1.
        -11    1    3    3    0    0 -0.58490743916E+01 -0.10133117166E+01  0.53544448906E+00  0.59602997354E+01  0.51100000000E-03 0.  1.
         12    1    3    3    0    0 -0.94515238921E+01 -0.38071393345E+01  0.12205250440E+02  0.15899489051E+02  0.00000000000E+00 0. -1.
</event>
<event>
 7    1  0.1019486E-010  0.4778730E+02  0.7816164E-02  0.1312668E+00
        -11   -1    0    0    0    0  0.00000000000E+00  0.00000000000E+00  0.45593999997E+02  0.45594000000E+02  0.51100000000E-03 0. -1.
         11   -1    0    0    0    0 -0.00000000000E+00 -0.00000000000E+00 -0.45593999997E+02  0.45594000000E+02  0.51100000000E-03 0.  1.
    9900012    2    1    2    0    0  0.35027897416E+02 -0.26906648593E+01  0.25483869589E+02  0.47787298578E+02  0.20000125534E+02 0.  0.
        -12    1    1    2    0    0 -0.35027897416E+02  0.26906648593E+01 -0.25483869589E+02  0.43400701422E+02  0.00000000000E+00 0.  1.
         11    1    3    3    0    0  0.10955427648E+02  0.20876804903E+01  0.13863559365E+01  0.11238406819E+02  0.51100000000E-03 0. -1.
        -11    1    3    3    0    0  0.30392381601E+01  0.26958060471E+01  0.54452537358E+00  0.40988836262E+01  0.51100000000E-03 0.  1.
         12    1    3    3    0    0  0.21033231608E+02 -0.74741513967E+01  0.23552988279E+02  0.32450008133E+02  0.00000000000E+00 0. -1.
</event>
<event>
 7    1  0.1475352E-010  0.4778728E+02  0.7816164E-02  0.1312668E+00
        -11   -1    0    0    0    0  0.00000000000E+00  0.00000000000E+00  0.45593999997E+02  0.45594000000E+02  0.51100000000E-03 0. -1.
         11   -1    0    0    0    0 -0.00000000000E+00 -0.00000000000E+00 -0.45593999997E+02  0.45594000000E+02  0.51100000000E-03 0.  1.
    9900012    2    1    2    0    0  0.16039830339E+02 -0.29842663681E+02 -0.27124929526E+02  0.47787279561E+02  0.20000038829E+02 0.  0.
         12    1    1    2    0    0 -0.16039830339E+02  0.29842663681E+02  0.27124929526E+02  0.43400720439E+02  0.00000000000E+00 0. -1.
         11    1    3    3    0    0 -0.65640003885E+00  0.13138114766E+01  0.67077399087E+00  0.16145896119E+01  0.51100000000E-03 0. -1.
        -11    1    3    3    0    0  0.93799906884E+01 -0.17682581548E+02 -0.22098947250E+02  0.29816461650E+02  0.51100000000E-03 0.  1.
         12    1    3    3    0    0  0.73162396891E+01 -0.13473893610E+02 -0.56967562669E+01  0.16356228299E+02  0.00000000000E+00 0. -1.
</event>
<event>
 7    1  0.1019486E-010  0.4778727E+02  0.7816164E-02  0.1312668E+00
        -11   -1    0    0    0    0  0.00000000000E+00  0.00000000000E+00  0.45593999997E+02  0.45594000000E+02  0.51100000000E-03 0. -1.
         11   -1    0    0    0    0 -0.00000000000E+00 -0.00000000000E+00 -0.45593999997E+02  0.45594000000E+02  0.51100000000E-03 0.  1.
    9900012    2    1    2    0    0  0.58257588657E+01  0.11850234741E+02  0.41343145214E+02  0.47787272058E+02  0.20000004619E+02 0.  0.
        -12    1    1    2    0    0 -0.58257588657E+01 -0.11850234741E+02 -0.41343145214E+02  0.43400727942E+02  0.00000000000E+00 0.  1.
         11    1    3    3    0    0  0.52585999582E+01  0.77730236531E+01  0.70691128688E+01  0.11749260711E+02  0.51100000000E-03 0. -1.
        -11    1    3    3    0    0 -0.23364657575E+01 -0.28147216605E+01  0.11331157851E+02  0.11907009229E+02  0.51100000000E-03 0.  1.
         12    1    3    3    0    0  0.29036246650E+01  0.68919327482E+01  0.22942874493E+02  0.24131002118E+02  0.00000000000E+00 0. -1.
</event>
<event>
 7    1  0.1019486E-010  0.4778727E+02  0.7816164E-02  0.1312668E+00
        -11   -1    0    0    0    0  0.00000000000E+00  0.00000000000E+00  0.45593999997E+02  0.45594000000E+02  0.51100000000E-03 0. -1.
         11   -1    0    0    0    0 -0.00000000000E+00 -0.00000000000E+00 -0.45593999997E+02  0.45594000000E+02  0.51100000000E-03 0.  1.
    9900012    2    1    2    0    0 -0.61937326652E+01 -0.18257391558E+01  0.42917685447E+02  0.47787269915E+02  0.19999994852E+02 0.  0.
        -12    1    1    2    0    0  0.61937326652E+01  0.18257391558E+01 -0.42917685447E+02  0.43400730085E+02  0.00000000000E+00 0.  1.
         11    1    3    3    0    0 -0.90438187986E+00 -0.28637246466E+01 -0.66767018850E+00  0.30764604951E+01  0.51100000000E-03 0.  1.
        -11    1    3    3    0    0 -0.54362764655E+01  0.40814604448E+01  0.33143628611E+02  0.33833585960E+02  0.51100000000E-03 0. -1.
         12    1    3    3    0    0  0.14692568017E+00 -0.30434749540E+01  0.10441727024E+02  0.10877223460E+02  0.00000000000E+00 0. -1.
</event>
<event>
 7    1  0.1019486E-010  0.4778732E+02  0.7816164E-02  0.1312668E+00
        -11   -1    0    0    0    0  0.00000000000E+00  0.00000000000E+00  0.45593999997E+02  0.45594000000E+02  0.51100000000E-03 0.  1.
         11   -1    0    0    0    0 -0.00000000000E+00 -0.00000000000E+00 -0.45593999997E+02  0.45594000000E+02  0.51100000000E-03 0. -1.
    9900012    2    1    2    0    0 -0.22156557074E+02  0.36893658296E+02 -0.56182074024E+01  0.47787316845E+02  0.20000208824E+02 0.  0.
         12    1    1    2    0    0  0.22156557074E+02 -0.36893658296E+02  0.56182074024E+01  0.43400683155E+02  0.00000000000E+00 0. -1.
         11    1    3    3    0    0  0.26454771550E+00 -0.15644697281E+01 -0.90580371331E+00  0.18270280928E+01  0.51100000000E-03 0. -1.
        -11    1    3    3    0    0 -0.11887628053E+02  0.29592840178E+02 -0.22158413660E+01  0.31968137946E+02  0.51100000000E-03 0.  1.
        -12    1    3    3    0    0 -0.10533476736E+02  0.88652878464E+01 -0.24965623231E+01  0.13992150806E+02  0.00000000000E+00 0.  1.
</event>
<event>
 7    1  0.1019486E-010  0.4778727E+02  0.7816164E-02  0.1312668E+00
        -11   -1    0    0    0    0  0.00000000000E+00  0.00000000000E+00  0.45593999997E+02  0.45594000000E+02  0.51100000000E-03 0. -1.
         11   -1    0    0    0    0 -0.00000000000E+00 -0.00000000000E+00 -0.45593999997E+02  0.45594000000E+02  0.51100000000E-03 0.  1.
    9900012    2    1    2    0    0 -0.22219183679E+02  0.21487284606E+02 -0.30466828553E+02  0.47787272297E+02  0.20000005709E+02 0.  0.
         12    1    1    2    0    0  0.22219183679E+02 -0.21487284606E+02  0.30466828553E+02  0.43400727703E+02  0.00000000000E+00 0. -1.
         11    1    3    3    0    0 -0.40539032649E+01  0.23165299590E+01  0.23764126006E+01  0.52390628782E+01  0.51100000000E-03 0. -1.
        -11    1    3    3    0    0 -0.15812920131E+02  0.18882583441E+02 -0.30646330435E+02  0.39316637316E+02  0.51100000000E-03 0.  1.
        -12    1    3    3    0    0 -0.23523602832E+01  0.28817120661E+00 -0.21969107187E+01  0.32315721023E+01  0.00000000000E+00 0.  1.
</event>
<event>
 7    1  0.1019486E-010  0.4778727E+02  0.7816164E-02  0.1312668E+00
        -11   -1    0    0    0    0  0.00000000000E+00  0.00000000000E+00  0.45593999997E+02  0.45594000000E+02  0.51100000000E-03 0. -1.
         11   -1    0    0    0    0 -0.00000000000E+00 -0.00000000000E+00 -0.45593999997E+02  0.45594000000E+02  0.51100000000E-03 0.  1.
    9900012    2    1    2    0    0  0.19370219542E+02 -0.24763268098E+02  0.29919870146E+02  0.47787268652E+02  0.19999989092E+02 0.  0.
        -12    1    1    2    0    0 -0.19370219542E+02  0.24763268098E+02 -0.29919870146E+02  0.43400731348E+02  0.00000000000E+00 0.  1.
         11    1    3    3    0    0  0.91979280796E+01 -0.13076974920E+02  0.23565545893E+02  0.28477080390E+02  0.51100000000E-03 0. -1.
        -11    1    3    3    0    0  0.11225134870E+02 -0.12475384908E+02  0.64772933076E+01  0.17988724533E+02  0.51100000000E-03 0.  1.
        -12    1    3    3    0    0 -0.10528434082E+01  0.78909173037E+00 -0.12296905414E+00  0.13214637299E+01  0.00000000000E+00 0.  1.
</event>
<event>
 7    1  0.1019486E-010  0.4778727E+02  0.7816164E-02  0.1312668E+00
        -11   -1    0    0    0    0  0.00000000000E+00  0.00000000000E+00  0.45593999997E+02  0.45594000000E+02  0.51100000000E-03 0. -1.
         11   -1    0    0    0    0 -0.00000000000E+00 -0.00000000000E+00 -0.45593999997E+02  0.45594000000E+02  0.51100000000E-03 0.  1.
    9900012    2    1    2    0    0 -0.28585093736E+02 -0.11913426265E+02 -0.30407008210E+02  0.47787268928E+02  0.19999990352E+02 0.  0.
         12    1    1    2    0    0  0.28585093736E+02  0.11913426265E+02  0.30407008210E+02  0.43400731072E+02  0.00000000000E+00 0. -1.
         11    1    3    3    0    0 -0.77047553786E+01  0.50686673656E+01 -0.92384883524E+01  0.13053900245E+02  0.51100000000E-03 0. -1.
        -11    1    3    3    0    0 -0.21124039855E+02 -0.17079940614E+02 -0.21213638616E+02  0.34466910142E+02  0.51100000000E-03 0.  1.
        -12    1    3    3    0    0  0.24370149745E+00  0.97846983424E-01  0.45118757469E-01  0.26645854142E+00  0.00000000000E+00 0.  1.
</event>
<event>
 7    1  0.1019486E-010  0.4778727E+02  0.7816164E-02  0.1312668E+00
        -11   -1    0    0    0    0  0.00000000000E+00  0.00000000000E+00  0.45593999997E+02  0.45594000000E+02  0.51100000000E-03 0. -1.
         11   -1    0    0    0    0 -0.00000000000E+00 -0.00000000000E+00 -0.45593999997E+02  0.45594000000E+02  0.51100000000E-03 0.  1.
    9900012    2    1    2    0    0  0.45565182419E+01 -0.11295557929E+02  0.41656596515E+02  0.47787268202E+02  0.19999987039E+02 0.  0.
        -12    1    1    2    0    0 -0.45565182419E+01  0.11295557929E+02 -0.41656596515E+02  0.43400731798E+02  0.00000000000E+00 0.  1.
         11    1    3    3    0    0  0.10045798791E+01 -0.10143388395E+02  0.35358553312E+02  0.36798434769E+02  0.51100000000E-03 0. -1.
        -11    1    3    3    0    0  0.19315825927E+01  0.30309942056E+01  0.52825473281E+01  0.63893069829E+01  0.51100000000E-03 0.  1.
         12    1    3    3    0    0  0.16203557701E+01 -0.41831637390E+01  0.10154958745E+01  0.45995264496E+01  0.00000000000E+00 0. -1.
</event>
<event>
 7    1  0.1019486E-010  0.4778726E+02  0.7816164E-02  0.1312668E+00
        -11   -1    0    0    0    0  0.00000000000E+00  0.00000000000E+00  0.45593999997E+02  0.45594000000E+02  0.51100000000E-03 0. -1.
         11   -1    0    0    0    0 -0.00000000000E+00 -0.00000000000E+00 -0.45593999997E+02  0.45594000000E+02  0.51100000000E-03 0.  1.
    9900012    2    1    2    0    0  0.32834100710E+02  0.91869144042E+01 -0.26854166312E+02  0.47787264822E+02  0.19999971630E+02 0.  0.
         12    1    1    2    0    0 -0.32834100710E+02 -0.91869144042E+01  0.26854166312E+02  0.43400735178E+02  0.00000000000E+00 0. -1.
         11    1    3    3    0    0  0.18842040210E+02  0.43564191205E+01 -0.51984757647E+01  0.20025609039E+02  0.51100000000E-03 0. -1.
        -11    1    3    3    0    0  0.79418532164E+01  0.72290407132E+01 -0.15046421926E+02  0.18485856084E+02  0.51100000000E-03 0.  1.
         12    1    3    3    0    0  0.60502072831E+01 -0.23985454295E+01 -0.66092686214E+01  0.92757996991E+01  0.00000000000E+00 0. -1.
</event>
<event>
 7    1  0.1019486E-010  0.4778727E+02  0.7816164E-02  0.1312668E+00
        -11   -1    0    0    0    0  0.00000000000E+00  0.00000000000E+00  0.45593999997E+02  0.45594000000E+02  0.51100000000E-03 0. -1.
         11   -1    0    0    0    0 -0.00000000000E+00 -0.00000000000E+00 -0.45593999997E+02  0.45594000000E+02  0.51100000000E-03 0.  1.
    9900012    2    1    2    0    0 -0.96779607572E+01  0.34599218633E+02  0.24348610987E+02  0.47787266004E+02  0.19999977018E+02 0.  0.
        -12    1    1    2    0    0  0.96779607572E+01 -0.34599218633E+02 -0.24348610987E+02  0.43400733996E+02  0.00000000000E+00 0.  1.
         11    1    3    3    0    0 -0.10608238893E+02  0.17581762976E+02  0.17101444642E+02  0.26722884029E+02  0.51100000000E-03 0. -1.
        -11    1    3    3    0    0 -0.11578034835E+01  0.15786532983E+02  0.29076084302E+01  0.16093766482E+02  0.51100000000E-03 0.  1.
         12    1    3    3    0    0  0.20880816192E+01  0.12309226738E+01  0.43395579147E+01  0.49706154923E+01  0.00000000000E+00 0. -1.
</event>
<event>
 7    1  0.1019486E-010  0.4778728E+02  0.7816164E-02  0.1312668E+00
        -11   -1    0    0    0    0  0.00000000000E+00  0.00000000000E+00  0.45593999997E+02  0.45594000000E+02  0.51100000000E-03 0. -1.
         11   -1    0    0    0    0 -0.00000000000E+00 -0.00000000000E+00 -0.45593999997E+02  0.45594000000E+02  0.51100000000E-03 0.  1.
    9900012    2    1    2    0    0 -0.10014911201E+02 -0.37465805439E+02  0.19484285056E+02  0.47787281254E+02  0.20000046549E+02 0.  0.
        -12    1    1    2    0    0  0.10014911201E+02  0.37465805439E+02 -0.19484285056E+02  0.43400718746E+02  0.00000000000E+00 0.  1.
         11    1    3    3    0    0 -0.99019152335E+01 -0.20755866945E+02  0.15503457679E+02  0.27734655905E+02  0.51100000000E-03 0. -1.
        -11    1    3    3    0    0  0.75724747965E+00 -0.71674703957E+00 -0.25504212665E+01  0.27553219343E+01  0.51100000000E-03 0.  1.
         12    1    3    3    0    0 -0.87024344665E+00 -0.15993191455E+02  0.65312486431E+01  0.17297303414E+02  0.00000000000E+00 0. -1.
</event>
<event>
 7    1  0.1019486E-010  0.4778727E+02  0.7816164E-02  0.1312668E+00
        -11   -1    0    0    0    0  0.00000000000E+00  0.00000000000E+00  0.45593999997E+02  0.45594000000E+02  0.51100000000E-03 0. -1.
         11   -1    0    0    0    0 -0.00000000000E+00 -0.00000000000E+00 -0.45593999997E+02  0.45594000000E+02  0.51100000000E-03 0.  1.
    9900012    2    1    2    0    0  0.36999043942E+02 -0.85197085905E+01  0.21026378815E+02  0.47787270823E+02  0.19999998989E+02 0.  0.
        -12    1    1    2    0    0 -0.36999043942E+02  0.85197085905E+01 -0.21026378815E+02  0.43400729177E+02  0.00000000000E+00 0.  1.
         11    1    3    3    0    0  0.21566727773E+02 -0.51367611258E+01  0.20853489736E+02  0.30436459980E+02  0.51100000000E-03 0. -1.
        -11    1    3    3    0    0  0.46812580634E+01  0.17654973220E+01  0.18062928868E+01  0.53191965657E+01  0.51100000000E-03 0.  1.
         12    1    3    3    0    0  0.10751058105E+02 -0.51484447866E+01 -0.16334038081E+01  0.12031614277E+02  0.00000000000E+00 0. -1.
</event>
<event>
 7    1  0.1019486E-010  0.4778726E+02  0.7816164E-02  0.1312668E+00
        -11   -1    0    0    0    0  0.00000000000E+00  0.00000000000E+00  0.45593999997E+02  0.45594000000E+02  0.51100000000E-03 0. -1.
         11   -1    0    0    0    0 -0.00000000000E+00 -0.00000000000E+00 -0.45593999997E+02  0.45594000000E+02  0.51100000000E-03 0.  1.
    9900012    2    1    2    0    0  0.10886040732E+02  0.21157352923E+02 -0.36297167986E+02  0.47787264184E+02  0.19999968722E+02 0.  0.
         12    1    1    2    0    0 -0.10886040732E+02 -0.21157352923E+02  0.36297167986E+02  0.43400735816E+02  0.00000000000E+00 0. -1.
         11    1    3    3    0    0 -0.30821026730E+01  0.93739842393E+01 -0.76114471464E+01  0.12462145294E+02  0.51100000000E-03 0. -1.
        -11    1    3    3    0    0  0.13840184611E+02  0.13230576406E+02 -0.26997925869E+02  0.33098139881E+02  0.51100000000E-03 0.  1.
        -12    1    3    3    0    0  0.12795879403E+00 -0.14472077221E+01 -0.16877949702E+01  0.22269790087E+01  0.00000000000E+00 0.  1.
</event>
<event>
 7    1  0.1019486E-010  0.4778727E+02  0.7816164E-02  0.1312668E+00
        -11   -1    0    0    0    0  0.00000000000E+00  0.00000000000E+00  0.45593999997E+02  0.45594000000E+02  0.51100000000E-03 0. -1.
         11   -1    0    0    0    0 -0.00000000000E+00 -0.00000000000E+00 -0.45593999997E+02  0.45594000000E+02  0.51100000000E-03 0.  1.
    9900012    2    1    2    0    0 -0.70614461105E+01  0.36573931210E+02 -0.22273452331E+02  0.47787272540E+02  0.20000006819E+02 0.  0.
         12    1    1    2    0    0  0.70614461105E+01 -0.36573931210E+02  0.22273452331E+02  0.43400727460E+02  0.00000000000E+00 0. -1.
         11    1    3    3    0    0  0.34002755436E+01  0.18735542694E+02 -0.12745533430E+02  0.22913556173E+02  0.51100000000E-03 0. -1.
        -11    1    3    3    0    0 -0.50297876741E+01  0.13113080760E+02 -0.10598578237E+02  0.17594928586E+02  0.51100000000E-03 0.  1.
         12    1    3    3    0    0 -0.54319339800E+01  0.47253077557E+01  0.10706593349E+01  0.72787877810E+01  0.00000000000E+00 0. -1.
</event>
<event>
 7    1  0.1019486E-010  0.4778726E+02  0.7816164E-02  0.1312668E+00
        -11   -1    0    0    0    0  0.00000000000E+00  0.00000000000E+00  0.45593999997E+02  0.45594000000E+02  0.51100000000E-03 0. -1.
         11   -1    0    0    0    0 -0.00000000000E+00 -0.00000000000E+00 -0.45593999997E+02  0.45594000000E+02  0.51100000000E-03 0.  1.
    9900012    2    1    2    0    0  0.62587833826E+01  0.21455421046E+02 -0.37203715060E+02  0.47787264108E+02  0.19999968375E+02 0.  0.
         12    1    1    2    0    0 -0.62587833826E+01 -0.21455421046E+02  0.37203715060E+02  0.43400735892E+02  0.00000000000E+00 0. -1.
         11    1    3    3    0    0  0.23620366280E+01 -0.59716907286E+00 -0.30466273994E+01  0.39009956044E+01  0.51100000000E-03 0. -1.
        -11    1    3    3    0    0  0.28213001330E+01  0.96698043036E+01 -0.28504391947E+02  0.30231857538E+02  0.51100000000E-03 0.  1.
        -12    1    3    3    0    0  0.10754466215E+01  0.12382785815E+02 -0.56526957141E+01  0.13654410965E+02  0.00000000000E+00 0.  1.
</event>
<event>
 7    1  0.1019486E-010  0.4778727E+02  0.7816164E-02  0.1312668E+00
        -11   -1    0    0    0    0  0.00000000000E+00  0.00000000000E+00  0.45593999997E+02  0.45594000000E+02  0.51100000000E-03 0.  1.
         11   -1    0    0    0    0 -0.00000000000E+00 -0.00000000000E+00 -0.45593999997E+02  0.45594000000E+02  0.51100000000E-03 0. -1.
    9900012    2    1    2    0    0  0.43195943271E+01 -0.61722545216E+01 -0.42741875893E+02  0.47787267565E+02  0.19999984135E+02 0.  0.
         12    1    1    2    0    0 -0.43195943271E+01  0.61722545216E+01  0.42741875893E+02  0.43400732435E+02  0.00000000000E+00 0. -1.
         11    1    3    3    0    0 -0.27935107629E+01 -0.21148857365E+00 -0.24646903385E+02  0.24805609780E+02  0.51100000000E-03 0. -1.
        -11    1    3    3    0    0  0.63833163770E+01 -0.70840813045E+01 -0.19072405318E+02  0.21323404531E+02  0.51100000000E-03 0.  1.
        -12    1    3    3    0    0  0.72978871291E+00  0.11233153565E+01  0.97743281032E+00  0.16582532540E+01  0.00000000000E+00 0.  1.
</event>
<event>
 7    1  0.1019486E-010  0.4778727E+02  0.7816164E-02  0.1312668E+00
        -11   -1    0    0    0    0  0.00000000000E+00  0.00000000000E+00  0.45593999997E+02  0.45594000000E+02  0.51100000000E-03 0. -1.
         11   -1    0    0    0    0 -0.00000000000E+00 -0.00000000000E+00 -0.45593999997E+02  0.45594000000E+02  0.51100000000E-03 0.  1.
    9900012    2    1    2    0    0  0.90983896740E+01  0.20887692983E+02  0.36939775190E+02  0.47787269547E+02  0.19999993171E+02 0.  0.
        -12    1    1    2    0    0 -0.90983896740E+01 -0.20887692983E+02 -0.36939775190E+02  0.43400730453E+02  0.00000000000E+00 0.  1.
         11    1    3    3    0    0  0.25188402420E+01  0.58113081072E-01 -0.11977009081E+01  0.27896990915E+01  0.51100000000E-03 0.  1.
        -11    1    3    3    0    0  0.35670901954E+01  0.20354225068E+02  0.34829334255E+02  0.40498162125E+02  0.51100000000E-03 0. -1.
         12    1    3    3    0    0  0.30124592366E+01  0.47535483353E+00  0.33081418430E+01  0.44994083304E+01  0.00000000000E+00 0. -1.
</event>
<event>
 7    1  0.1019486E-010  0.4778727E+02  0.7816164E-02  0.1312668E+00
        -11   -1    0    0    0    0  0.00000000000E+00  0.00000000000E+00  0.45593999997E+02  0.45594000000E+02  0.51100000000E-03 0. -1.
         11   -1    0    0    0    0 -0.00000000000E+00 -0.00000000000E+00 -0.45593999997E+02  0.45594000000E+02  0.51100000000E-03 0.  1.
    9900012    2    1    2    0    0 -0.87458969440E+01 -0.19674566933E+02  0.37683471046E+02  0.47787270888E+02  0.19999999289E+02 0.  0.
        -12    1    1    2    0    0  0.87458969440E+01  0.19674566933E+02 -0.37683471046E+02  0.43400729112E+02  0.00000000000E+00 0.  1.
         11    1    3    3    0    0  0.19052642963E+01 -0.13829610377E+02  0.12359425290E+02  0.18645201768E+02  0.51100000000E-03 0. -1.
        -11    1    3    3    0    0 -0.33481927970E+01  0.13337542816E+01  0.34479204954E+01  0.49877300943E+01  0.51100000000E-03 0.  1.
         12    1    3    3    0    0 -0.73029684433E+01 -0.71787108379E+01  0.21876125260E+02  0.24154339026E+02  0.00000000000E+00 0. -1.
</event>
<event>
 7    1  0.1019486E-010  0.4778727E+02  0.7816164E-02  0.1312668E+00
        -11   -1    0    0    0    0  0.00000000000E+00  0.00000000000E+00  0.45593999997E+02  0.45594000000E+02  0.51100000000E-03 0. -1.
         11   -1    0    0    0    0 -0.00000000000E+00 -0.00000000000E+00 -0.45593999997E+02  0.45594000000E+02  0.51100000000E-03 0.  1.
    9900012    2    1    2    0    0 -0.32606866181E+02  0.11996876787E+02 -0.26009427087E+02  0.47787273369E+02  0.20000010597E+02 0.  0.
         12    1    1    2    0    0  0.32606866181E+02 -0.11996876787E+02  0.26009427087E+02  0.43400726631E+02  0.00000000000E+00 0. -1.
         11    1    3    3    0    0 -0.11096527660E+02 -0.25648660784E+00 -0.22091542327E+01  0.11317202577E+02  0.51100000000E-03 0. -1.
        -11    1    3    3    0    0 -0.22069837897E+02  0.13432294825E+02 -0.20698156428E+02  0.33104651770E+02  0.51100000000E-03 0.  1.
        -12    1    3    3    0    0  0.55949937600E+00 -0.11789314301E+01 -0.31021164261E+01  0.33654190214E+01  0.00000000000E+00 0.  1.
</event>
<event>
 7    1  0.1019486E-010  0.4778727E+02  0.7816164E-02  0.1312668E+00
        -11   -1    0    0    0    0  0.00000000000E+00  0.00000000000E+00  0.45593999997E+02  0.45594000000E+02  0.51100000000E-03 0. -1.
         11   -1    0    0    0    0 -0.00000000000E+00 -0.00000000000E+00 -0.45593999997E+02  0.45594000000E+02  0.51100000000E-03 0.  1.
    9900012    2    1    2    0    0  0.31108164976E+02 -0.99865511236E+01  0.28568762299E+02  0.47787270619E+02  0.19999998060E+02 0.  0.
        -12    1    1    2    0    0 -0.31108164976E+02  0.99865511236E+01 -0.28568762299E+02  0.43400729381E+02  0.00000000000E+00 0.  1.
         11    1    3    3    0    0  0.16692048310E+01  0.27820082496E+00  0.51152329622E+01  0.53878798228E+01  0.51100000000E-03 0. -1.
        -11    1    3    3    0    0  0.24713237333E+02 -0.69833133241E+01  0.25597716429E+02  0.36259534623E+02  0.51100000000E-03 0.  1.
        -12    1    3    3    0    0  0.47257228117E+01 -0.32814386244E+01 -0.21441870919E+01  0.61398561729E+01  0.00000000000E+00 0.  1.
</event>
<event>
 7    1  0.1019486E-010  0.4778727E+02  0.7816164E-02  0.1312668E+00
        -11   -1    0    0    0    0  0.00000000000E+00  0.00000000000E+00  0.45593999997E+02  0.45594000000E+02  0.51100000000E-03 0. -1.
         11   -1    0    0    0    0 -0.00000000000E+00 -0.00000000000E+00 -0.45593999997E+02  0.45594000000E+02  0.51100000000E-03 0.  1.
    9900012    2    1    2    0    0  0.20124254031E+02  0.95287386498E+01 -0.37253740345E+02  0.47787266939E+02  0.19999981280E+02 0.  0.
         12    1    1    2    0    0 -0.20124254031E+02 -0.95287386498E+01  0.37253740345E+02  0.43400733061E+02  0.00000000000E+00 0. -1.
         11    1    3    3    0    0  0.18292447635E+02 -0.83451340649E+00 -0.27243229874E+02  0.32825350377E+02  0.51100000000E-03 0. -1.
        -11    1    3    3    0    0  0.19523584024E+01  0.85274541541E+01 -0.97574420090E+01  0.13104840804E+02  0.51100000000E-03 0.  1.
         12    1    3    3    0    0 -0.12055200593E+00  0.18357979021E+01 -0.25306846141E+00  0.18570757577E+01  0.00000000000E+00 0. -1.
</event>
<event>
 7    1  0.1019486E-010  0.4778726E+02  0.7816164E-02  0.1312668E+00
        -11   -1    0    0    0    0  0.00000000000E+00  0.00000000000E+00  0.45593999997E+02  0.45594000000E+02  0.51100000000E-03 0. -1.
         11   -1    0    0    0    0 -0.00000000000E+00 -0.00000000000E+00 -0.45593999997E+02  0.45594000000E+02  0.51100000000E-03 0.  1.
    9900012    2    1    2    0    0 -0.10769662628E+02 -0.50094059411E+00  0.42040309223E+02  0.47787260672E+02  0.19999952710E+02 0.  0.
        -12    1    1    2    0    0  0.10769662628E+02  0.50094059411E+00 -0.42040309223E+02  0.43400739328E+02  0.00000000000E+00 0.  1.
         11    1    3    3    0    0 -0.49638665803E+01 -0.68082033142E+01  0.28563964925E+02  0.29780726927E+02  0.51100000000E-03 0. -1.
        -11    1    3    3    0    0 -0.29247921347E+01  0.66026644114E+01  0.13264278789E+02  0.15102671234E+02  0.51100000000E-03 0.  1.
        -12    1    3    3    0    0 -0.28810039125E+01 -0.29540169125E+00  0.21206550924E+00  0.29038625111E+01  0.00000000000E+00 0.  1.
</event>
<event>
 7    1  0.1019486E-010  0.4778728E+02  0.7816164E-02  0.1312668E+00
        -11   -1    0    0    0    0  0.00000000000E+00  0.00000000000E+00  0.45593999997E+02  0.45594000000E+02  0.51100000000E-03 0. -1.
         11   -1    0    0    0    0 -0.00000000000E+00 -0.00000000000E+00 -0.45593999997E+02  0.45594000000E+02  0.51100000000E-03 0.  1.
    9900012    2    1    2    0    0  0.10617802765E+02  0.36939783344E+02  0.20157804314E+02  0.47787281068E+02  0.20000045702E+02 0.  0.
        -12    1    1    2    0    0 -0.10617802765E+02 -0.36939783344E+02 -0.20157804314E+02  0.43400718932E+02  0.00000000000E+00 0.  1.
         11    1    3    3    0    0 -0.20340757143E+01  0.16457861147E+02  0.97833636720E+01  0.19253905125E+02  0.51100000000E-03 0. -1.
        -11    1    3    3    0    0  0.10909005519E+02  0.12958372421E+02  0.11848009080E+02  0.20671263547E+02  0.51100000000E-03 0.  1.
        -12    1    3    3    0    0  0.17428729599E+01  0.75235497760E+01 -0.14735684384E+01  0.78621123961E+01  0.00000000000E+00 0.  1.
</event>
<event>
 7    1  0.1019486E-010  0.4778728E+02  0.7816164E-02  0.1312668E+00
        -11   -1    0    0    0    0  0.00000000000E+00  0.00000000000E+00  0.45593999997E+02  0.45594000000E+02  0.51100000000E-03 0. -1.
         11   -1    0    0    0    0 -0.00000000000E+00 -0.00000000000E+00 -0.45593999997E+02  0.45594000000E+02  0.51100000000E-03 0.  1.
    9900012    2    1    2    0    0 -0.29956964921E+02 -0.23214329626E+02  0.21149417284E+02  0.47787277671E+02  0.20000030212E+02 0.  0.
        -12    1    1    2    0    0  0.29956964921E+02  0.23214329626E+02 -0.21149417284E+02  0.43400722329E+02  0.00000000000E+00 0.  1.
         11    1    3    3    0    0 -0.12795378627E+02 -0.60524199758E+01  0.16433738706E+02  0.21689197078E+02  0.51100000000E-03 0. -1.
        -11    1    3    3    0    0 -0.14531857293E+02 -0.90521835911E+01  0.26330211523E+01  0.17321942870E+02  0.51100000000E-03 0.  1.
         12    1    3    3    0    0 -0.26297290020E+01 -0.81097260589E+01  0.20826574247E+01  0.87761377224E+01  0.00000000000E+00 0. -1.
</event>
<event>
 7    1  0.1019486E-010  0.4778727E+02  0.7816164E-02  0.1312668E+00
        -11   -1    0    0    0    0  0.00000000000E+00  0.00000000000E+00  0.45593999997E+02  0.45594000000E+02  0.51100000000E-03 0. -1.
         11   -1    0    0    0    0 -0.00000000000E+00 -0.00000000000E+00 -0.45593999997E+02  0.45594000000E+02  0.51100000000E-03 0.  1.
    9900012    2    1    2    0    0 -0.10362865102E+01  0.17909890228E+02  0.39519433731E+02  0.47787266134E+02  0.19999977609E+02 0.  0.
        -12    1    1    2    0    0  0.10362865102E+01 -0.17909890228E+02 -0.39519433731E+02  0.43400733866E+02  0.00000000000E+00 0.  1.
         11    1    3    3    0    0 -0.87202841698E+00  0.13456461331E+02  0.18221823822E+02  0.22668737255E+02  0.51100000000E-03 0. -1.
        -11    1    3    3    0    0  0.57475412279E+01  0.14933706282E+01  0.14338378725E+02  0.15519455233E+02  0.51100000000E-03 0.  1.
        -12    1    3    3    0    0 -0.59117993211E+01  0.29600582695E+01  0.69592311843E+01  0.95990736453E+01  0.00000000000E+00 0.  1.
</event>
<event>
 7    1  0.1019486E-010  0.4778727E+02  0.7816164E-02  0.1312668E+00
        -11   -1    0    0    0    0  0.00000000000E+00  0.00000000000E+00  0.45593999997E+02  0.45594000000E+02  0.51100000000E-03 0. -1.
         11   -1    0    0    0    0 -0.00000000000E+00 -0.00000000000E+00 -0.45593999997E+02  0.45594000000E+02  0.51100000000E-03 0.  1.
    9900012    2    1    2    0    0  0.25701141382E+02  0.56831188939E+01  0.34507635266E+02  0.47787269587E+02  0.19999993356E+02 0.  0.
        -12    1    1    2    0    0 -0.25701141382E+02 -0.56831188939E+01 -0.34507635266E+02  0.43400730413E+02  0.00000000000E+00 0.  1.
         11    1    3    3    0    0  0.46188588680E+01  0.42634712307E+01  0.80021807792E+01  0.10175752634E+02  0.51100000000E-03 0. -1.
        -11    1    3    3    0    0  0.20881702171E+02 -0.27748869752E+00  0.28275263606E+02  0.35151287570E+02  0.51100000000E-03 0.  1.
        -12    1    3    3    0    0  0.20058034229E+00  0.16971363606E+01 -0.17698091193E+01  0.24602293835E+01  0.00000000000E+00 0.  1.
</event>
<event>
 7    1  0.1019486E-010  0.4778727E+02  0.7816164E-02  0.1312668E+00
        -11   -1    0    0    0    0  0.00000000000E+00  0.00000000000E+00  0.45593999997E+02  0.45594000000E+02  0.51100000000E-03 0. -1.
         11   -1    0    0    0    0 -0.00000000000E+00 -0.00000000000E+00 -0.45593999997E+02  0.45594000000E+02  0.51100000000E-03 0.  1.
    9900012    2    1    2    0    0  0.27309753646E+02  0.13233282957E+02  0.31027098986E+02  0.47787270819E+02  0.19999998970E+02 0.  0.
        -12    1    1    2    0    0 -0.27309753646E+02 -0.13233282957E+02 -0.31027098986E+02  0.43400729181E+02  0.00000000000E+00 0.  1.
         11    1    3    3    0    0  0.89493821813E+01  0.35791619393E+01  0.12682646926E+02  0.15929575478E+02  0.51100000000E-03 0. -1.
        -11    1    3    3    0    0  0.25931368150E+01  0.58570944918E+01  0.13482279374E+02  0.14926545877E+02  0.51100000000E-03 0.  1.
        -12    1    3    3    0    0  0.15767234649E+02  0.37970265255E+01  0.48621726861E+01  0.16931149463E+02  0.00000000000E+00 0.  1.
</event>
<event>
 7    1  0.1019486E-010  0.4778726E+02  0.7816164E-02  0.1312668E+00
        -11   -1    0    0    0    0  0.00000000000E+00  0.00000000000E+00  0.45593999997E+02  0.45594000000E+02  0.51100000000E-03 0.  1.
         11   -1    0    0    0    0 -0.00000000000E+00 -0.00000000000E+00 -0.45593999997E+02  0.45594000000E+02  0.51100000000E-03 0. -1.
    9900012    2    1    2    0    0 -0.61226571467E+01 -0.40228325506E+02 -0.15093676940E+02  0.47787260523E+02  0.19999952028E+02 0.  0.
        -12    1    1    2    0    0  0.61226571467E+01  0.40228325506E+02  0.15093676940E+02  0.43400739477E+02  0.00000000000E+00 0.  1.
         11    1    3    3    0    0 -0.65047842201E+01 -0.34646366675E+02 -0.17058532474E+02  0.39162181655E+02  0.51100000000E-03 0. -1.
        -11    1    3    3    0    0 -0.60299688444E-01  0.50778791537E+00 -0.15138178170E+01  0.15978514523E+01  0.51100000000E-03 0.  1.
         12    1    3    3    0    0  0.44242676177E+00 -0.60897467462E+01  0.34786733505E+01  0.70272274157E+01  0.00000000000E+00 0. -1.
</event>
<event>
 7    1  0.1019486E-010  0.4778723E+02  0.7816164E-02  0.1312668E+00
        -11   -1    0    0    0    0  0.00000000000E+00  0.00000000000E+00  0.45593999997E+02  0.45594000000E+02  0.51100000000E-03 0. -1.
         11   -1    0    0    0    0 -0.00000000000E+00 -0.00000000000E+00 -0.45593999997E+02  0.45594000000E+02  0.51100000000E-03 0.  1.
    9900012    2    1    2    0    0 -0.14178340175E+02  0.23133606296E+02  0.33873853375E+02  0.47787227969E+02  0.19999803603E+02 0.  0.
        -12    1    1    2    0    0  0.14178340175E+02 -0.23133606296E+02 -0.33873853375E+02  0.43400772031E+02  0.00000000000E+00 0.  1.
         11    1    3    3    0    0 -0.71367373268E+01  0.12974139150E+02  0.52197409300E+01  0.15700541455E+02  0.51100000000E-03 0.  1.
        -11    1    3    3    0    0 -0.84668345387E+01  0.71507261478E+01  0.21166058355E+02  0.23891885612E+02  0.51100000000E-03 0. -1.
        -12    1    3    3    0    0  0.14252316910E+01  0.30087409987E+01  0.74880540905E+01  0.81948009025E+01  0.00000000000E+00 0.  1.
</event>
<event>
 7    1  0.1019486E-010  0.4778726E+02  0.7816164E-02  0.1312668E+00
        -11   -1    0    0    0    0  0.00000000000E+00  0.00000000000E+00  0.45593999997E+02  0.45594000000E+02  0.51100000000E-03 0. -1.
         11   -1    0    0    0    0 -0.00000000000E+00 -0.00000000000E+00 -0.45593999997E+02  0.45594000000E+02  0.51100000000E-03 0.  1.
    9900012    2    1    2    0    0  0.80340626937E+01  0.21712329280E+02 -0.36710390336E+02  0.47787260781E+02  0.19999953204E+02 0.  0.
         12    1    1    2    0    0 -0.80340626937E+01 -0.21712329280E+02  0.36710390336E+02  0.43400739219E+02  0.00000000000E+00 0. -1.
         11    1    3    3    0    0  0.57505826776E+01  0.21021678301E+01 -0.11633801645E+02  0.13146621303E+02  0.51100000000E-03 0. -1.
        -11    1    3    3    0    0  0.55225491842E+01  0.17362706318E+02 -0.14287196387E+02  0.23153533230E+02  0.51100000000E-03 0.  1.
        -12    1    3    3    0    0 -0.32390691681E+01  0.22474551318E+01 -0.10789392304E+02  0.11487106248E+02  0.00000000000E+00 0.  1.
</event>
<event>
 7    1  0.1019486E-010  0.4778728E+02  0.7816164E-02  0.1312668E+00
        -11   -1    0    0    0    0  0.00000000000E+00  0.00000000000E+00  0.45593999997E+02  0.45594000000E+02  0.51100000000E-03 0. -1.
         11   -1    0    0    0    0 -0.00000000000E+00 -0.00000000000E+00 -0.45593999997E+02  0.45594000000E+02  0.51100000000E-03 0.  1.
    9900012    2    1    2    0    0  0.41742347815E+01 -0.28436801180E+02  0.32519944820E+02  0.47787277558E+02  0.20000029698E+02 0.  0.
        -12    1    1    2    0    0 -0.41742347815E+01  0.28436801180E+02 -0.32519944820E+02  0.43400722442E+02  0.00000000000E+00 0.  1.
         11    1    3    3    0    0 -0.10955631250E+01 -0.15583211689E+02  0.12153277803E+02  0.19792395174E+02  0.51100000000E-03 0. -1.
        -11    1    3    3    0    0  0.16727320679E+01 -0.14316378529E+01  0.14488780240E+02  0.14655114214E+02  0.51100000000E-03 0.  1.
        -12    1    3    3    0    0  0.35970658387E+01 -0.11421951638E+02  0.58778867769E+01  0.13339768170E+02  0.00000000000E+00 0.  1.
</event>
<event>
 7    1  0.1019486E-010  0.4778728E+02  0.7816164E-02  0.1312668E+00
        -11   -1    0    0    0    0  0.00000000000E+00  0.00000000000E+00  0.45593999997E+02  0.45594000000E+02  0.51100000000E-03 0.  1.
         11   -1    0    0    0    0 -0.00000000000E+00 -0.00000000000E+00 -0.45593999997E+02  0.45594000000E+02  0.51100000000E-03 0. -1.
    9900012    2    1    2    0    0  0.33009781609E+02  0.26176299363E+02  0.10429659634E+02  0.47787284219E+02  0.20000060067E+02 0.  0.
         12    1    1    2    0    0 -0.33009781609E+02 -0.26176299363E+02 -0.10429659634E+02  0.43400715781E+02  0.00000000000E+00 0. -1.
         11    1    3    3    0    0  0.11747820686E+02  0.18171763856E+00  0.47950279474E+01  0.12690019915E+02  0.51100000000E-03 0. -1.
        -11    1    3    3    0    0  0.16541468037E+02  0.20254235414E+02  0.66925982759E+00  0.26159169062E+02  0.51100000000E-03 0.  1.
         12    1    3    3    0    0  0.47204928859E+01  0.57403463106E+01  0.49653718589E+01  0.89380952417E+01  0.00000000000E+00 0. -1.
</event>
<event>
 7    1  0.1019486E-010  0.4778727E+02  0.7816164E-02  0.1312668E+00
        -11   -1    0    0    0    0  0.00000000000E+00  0.00000000000E+00  0.45593999997E+02  0.45594000000E+02  0.51100000000E-03 0. -1.
         11   -1    0    0    0    0 -0.00000000000E+00 -0.00000000000E+00 -0.45593999997E+02  0.45594000000E+02  0.51100000000E-03 0.  1.
    9900012    2    1    2    0    0  0.32539354457E+02  0.25246075824E+02 -0.13691211146E+02  0.47787271946E+02  0.20000004111E+02 0.  0.
         12    1    1    2    0    0 -0.32539354457E+02 -0.25246075824E+02  0.13691211146E+02  0.43400728054E+02  0.00000000000E+00 0. -1.
         11    1    3    3    0    0  0.90044246247E+00  0.55156015355E+00  0.15422886683E+01  0.18691361183E+01  0.51100000000E-03 0. -1.
        -11    1    3    3    0    0  0.86121192053E+01  0.13892927339E+02 -0.14768562219E+00  0.16346370807E+02  0.51100000000E-03 0.  1.
         12    1    3    3    0    0  0.23026792789E+02  0.10801588332E+02 -0.15085814192E+02  0.29571765021E+02  0.00000000000E+00 0. -1.
</event>
<event>
 7    1  0.1019486E-010  0.4778729E+02  0.7816164E-02  0.1312668E+00
        -11   -1    0    0    0    0  0.00000000000E+00  0.00000000000E+00  0.45593999997E+02  0.45594000000E+02  0.51100000000E-03 0. -1.
         11   -1    0    0    0    0 -0.00000000000E+00 -0.00000000000E+00 -0.45593999997E+02  0.45594000000E+02  0.51100000000E-03 0.  1.
    9900012    2    1    2    0    0  0.19341765064E+02  0.27535476678E+02  0.27410129093E+02  0.47787291151E+02  0.20000091674E+02 0.  0.
        -12    1    1    2    0    0 -0.19341765064E+02 -0.27535476678E+02 -0.27410129093E+02  0.43400708849E+02  0.00000000000E+00 0.  1.
         11    1    3    3    0    0 -0.18151277758E+01 -0.15514091043E+01  0.19119716330E+01  0.30589532258E+01  0.51100000000E-03 0. -1.
        -11    1    3    3    0    0  0.10983074787E+02  0.18610026879E+02  0.11409362937E+02  0.24436337596E+02  0.51100000000E-03 0.  1.
         12    1    3    3    0    0  0.10173818053E+02  0.10476858903E+02  0.14088794523E+02  0.20292000329E+02  0.00000000000E+00 0. -1.
</event>
<event>
 7    1  0.1019486E-010  0.4778728E+02  0.7816164E-02  0.1312668E+00
        -11   -1    0    0    0    0  0.00000000000E+00  0.00000000000E+00  0.45593999997E+02  0.45594000000E+02  0.51100000000E-03 0. -1.
         11   -1    0    0    0    0 -0.00000000000E+00 -0.00000000000E+00 -0.45593999997E+02  0.45594000000E+02  0.51100000000E-03 0.  1.
    9900012    2    1    2    0    0  0.29022413529E+02  0.95706880618E+01  0.30817594750E+02  0.47787277619E+02  0.20000029976E+02 0.  0.
        -12    1    1    2    0    0 -0.29022413529E+02 -0.95706880618E+01 -0.30817594750E+02  0.43400722381E+02  0.00000000000E+00 0.  1.
         11    1    3    3    0    0  0.11999563422E+02  0.49028525550E+01  0.18971765980E+02  0.22977279869E+02  0.51100000000E-03 0. -1.
        -11    1    3    3    0    0  0.17544356910E+02  0.14548147542E+01  0.69413330542E+01  0.18923610919E+02  0.51100000000E-03 0.  1.
        -12    1    3    3    0    0 -0.52150680405E+00  0.32130207526E+01  0.49044957159E+01  0.58863868316E+01  0.00000000000E+00 0.  1.
</event>
<event>
 7    1  0.1019486E-010  0.4778727E+02  0.7816164E-02  0.1312668E+00
        -11   -1    0    0    0    0  0.00000000000E+00  0.00000000000E+00  0.45593999997E+02  0.45594000000E+02  0.51100000000E-03 0. -1.
         11   -1    0    0    0    0 -0.00000000000E+00 -0.00000000000E+00 -0.45593999997E+02  0.45594000000E+02  0.51100000000E-03 0.  1.
    9900012    2    1    2    0    0  0.84038115404E+01  0.17691980534E+02 -0.38729746995E+02  0.47787268141E+02  0.19999986760E+02 0.  0.
         12    1    1    2    0    0 -0.84038115404E+01 -0.17691980534E+02  0.38729746995E+02  0.43400731859E+02  0.00000000000E+00 0. -1.
         11    1    3    3    0    0  0.83526131214E+01  0.39881862063E+01 -0.11746434745E+02  0.14954949169E+02  0.51100000000E-03 0. -1.
        -11    1    3    3    0    0  0.47636874114E+01  0.35730513733E+01 -0.16379742146E+02  0.17428579027E+02  0.51100000000E-03 0.  1.
         12    1    3    3    0    0 -0.47124889924E+01  0.10130742955E+02 -0.10603570104E+02  0.15403739944E+02  0.00000000000E+00 0. -1.
</event>
<event>
 7    1  0.1019486E-010  0.4778727E+02  0.7816164E-02  0.1312668E+00
        -11   -1    0    0    0    0  0.00000000000E+00  0.00000000000E+00  0.45593999997E+02  0.45594000000E+02  0.51100000000E-03 0.  1.
         11   -1    0    0    0    0 -0.00000000000E+00 -0.00000000000E+00 -0.45593999997E+02  0.45594000000E+02  0.51100000000E-03 0. -1.
    9900012    2    1    2    0    0  0.10846795121E+02 -0.19916336557E+02 -0.37004191821E+02  0.47787266843E+02  0.19999980845E+02 0.  0.
         12    1    1    2    0    0 -0.10846795121E+02  0.19916336557E+02  0.37004191821E+02  0.43400733157E+02  0.00000000000E+00 0. -1.
         11    1    3    3    0    0  0.17708483369E+01 -0.15532524361E+01 -0.16839576778E+02  0.17003524437E+02  0.51100000000E-03 0. -1.
        -11    1    3    3    0    0  0.22971203858E+01 -0.14913985418E+02 -0.10057027060E+02  0.18134153320E+02  0.51100000000E-03 0.  1.
        -12    1    3    3    0    0  0.67788263985E+01 -0.34490987031E+01 -0.10107587983E+02  0.12649589086E+02  0.00000000000E+00 0.  1.
</event>
<event>
 7    1  0.1019486E-010  0.4778727E+02  0.7816164E-02  0.1312668E+00
        -11   -1    0    0    0    0  0.00000000000E+00  0.00000000000E+00  0.45593999997E+02  0.45594000000E+02  0.51100000000E-03 0. -1.
         11   -1    0    0    0    0 -0.00000000000E+00 -0.00000000000E+00 -0.45593999997E+02  0.45594000000E+02  0.51100000000E-03 0.  1.
    9900012    2    1    2    0    0  0.21486036872E+02  0.18745102214E+02  0.32719941546E+02  0.47787271754E+02  0.20000003236E+02 0.  0.
        -12    1    1    2    0    0 -0.21486036872E+02 -0.18745102214E+02 -0.32719941546E+02  0.43400728246E+02  0.00000000000E+00 0.  1.
         11    1    3    3    0    0 -0.58641734459E+00  0.41517869234E+01  0.35007585019E+00  0.42075852126E+01  0.51100000000E-03 0.  1.
        -11    1    3    3    0    0  0.21245483251E+02  0.85908413117E+01  0.23378399123E+02  0.32737175486E+02  0.51100000000E-03 0. -1.
         12    1    3    3    0    0  0.82697096558E+00  0.60024739790E+01  0.89914665735E+01  0.10842511055E+02  0.00000000000E+00 0. -1.
</event>
<event>
 7    1  0.1019486E-010  0.4778726E+02  0.7816164E-02  0.1312668E+00
        -11   -1    0    0    0    0  0.00000000000E+00  0.00000000000E+00  0.45593999997E+02  0.45594000000E+02  0.51100000000E-03 0.  1.
         11   -1    0    0    0    0 -0.00000000000E+00 -0.00000000000E+00 -0.45593999997E+02  0.45594000000E+02  0.51100000000E-03 0. -1.
    9900012    2    1    2    0    0 -0.29528562074E+02 -0.14998738824E+02 -0.28048630309E+02  0.47787264906E+02  0.19999972014E+02 0.  0.
         12    1    1    2    0    0  0.29528562074E+02  0.14998738824E+02  0.28048630309E+02  0.43400735094E+02  0.00000000000E+00 0. -1.
         11    1    3    3    0    0  0.84945302072E+00 -0.11670345777E+01 -0.44437438083E+01  0.46723012996E+01  0.51100000000E-03 0. -1.
        -11    1    3    3    0    0 -0.24151856952E+02 -0.40785270268E+01 -0.16595541414E+02  0.29586459268E+02  0.51100000000E-03 0.  1.
        -12    1    3    3    0    0 -0.62261581424E+01 -0.97531772195E+01 -0.70093450865E+01  0.13528504338E+02  0.00000000000E+00 0.  1.
</event>
<event>
 7    1  0.1019486E-010  0.4778727E+02  0.7816164E-02  0.1312668E+00
        -11   -1    0    0    0    0  0.00000000000E+00  0.00000000000E+00  0.45593999997E+02  0.45594000000E+02  0.51100000000E-03 0. -1.
         11   -1    0    0    0    0 -0.00000000000E+00 -0.00000000000E+00 -0.45593999997E+02  0.45594000000E+02  0.51100000000E-03 0.  1.
    9900012    2    1    2    0    0 -0.18979630261E+02 -0.22471972564E+02 -0.31912498350E+02  0.47787268823E+02  0.19999989872E+02 0.  0.
         12    1    1    2    0    0  0.18979630261E+02  0.22471972564E+02  0.31912498350E+02  0.43400731177E+02  0.00000000000E+00 0. -1.
         11    1    3    3    0    0  0.44458487459E+00  0.24157437868E+01 -0.36097061204E+00  0.24826948661E+01  0.51100000000E-03 0. -1.
        -11    1    3    3    0    0 -0.11692711623E+02 -0.11733845868E+02 -0.11762580259E+02  0.20316518859E+02  0.51100000000E-03 0.  1.
         12    1    3    3    0    0 -0.77315035124E+01 -0.13153870483E+02 -0.19788947479E+02  0.24988055098E+02  0.00000000000E+00 0. -1.
</event>
<event>
 7    1  0.1019486E-010  0.4778723E+02  0.7816164E-02  0.1312668E+00
        -11   -1    0    0    0    0  0.00000000000E+00  0.00000000000E+00  0.45593999997E+02  0.45594000000E+02  0.51100000000E-03 0. -1.
         11   -1    0    0    0    0 -0.00000000000E+00 -0.00000000000E+00 -0.45593999997E+02  0.45594000000E+02  0.51100000000E-03 0.  1.
    9900012    2    1    2    0    0 -0.10595531976E+02  0.18178098563E+02 -0.37959424201E+02  0.47787234443E+02  0.19999833119E+02 0.  0.
         12    1    1    2    0    0  0.10595531976E+02 -0.18178098563E+02  0.37959424201E+02  0.43400765557E+02  0.00000000000E+00 0. -1.
         11    1    3    3    0    0 -0.68943641386E+01 -0.52647568916E+00 -0.15374951970E+02  0.16858190349E+02  0.51100000000E-03 0. -1.
        -11    1    3    3    0    0 -0.33902831149E+01  0.11972835065E+02 -0.20305814018E+02  0.23815307730E+02  0.51100000000E-03 0.  1.
         12    1    3    3    0    0 -0.31088472203E+00  0.67317391870E+01 -0.22786582139E+01  0.71137363634E+01  0.00000000000E+00 0. -1.
</event>
<event>
 7    1  0.1019486E-010  0.4778727E+02  0.7816164E-02  0.1312668E+00
        -11   -1    0    0    0    0  0.00000000000E+00  0.00000000000E+00  0.45593999997E+02  0.45594000000E+02  0.51100000000E-03 0. -1.
         11   -1    0    0    0    0 -0.00000000000E+00 -0.00000000000E+00 -0.45593999997E+02  0.45594000000E+02  0.51100000000E-03 0.  1.
    9900012    2    1    2    0    0  0.94548252480E+01  0.19933818639E+01  0.42311417002E+02  0.47787270738E+02  0.19999998604E+02 0.  0.
        -12    1    1    2    0    0 -0.94548252480E+01 -0.19933818639E+01 -0.42311417002E+02  0.43400729262E+02  0.00000000000E+00 0.  1.
         11    1    3    3    0    0  0.85610226127E+00  0.56300905192E+01  0.81945390878E+01  0.99790431134E+01  0.51100000000E-03 0. -1.
        -11    1    3    3    0    0  0.28449575391E+01 -0.80013681694E+01  0.23325242461E+02  0.24823025845E+02  0.51100000000E-03 0.  1.
        -12    1    3    3    0    0  0.57537654476E+01  0.43646595140E+01  0.10791635453E+02  0.12985201779E+02  0.00000000000E+00 0.  1.
</event>
<event>
 7    1  0.1019486E-010  0.4778727E+02  0.7816164E-02  0.1312668E+00
        -11   -1    0    0    0    0  0.00000000000E+00  0.00000000000E+00  0.45593999997E+02  0.45594000000E+02  0.51100000000E-03 0. -1.
         11   -1    0    0    0    0 -0.00000000000E+00 -0.00000000000E+00 -0.45593999997E+02  0.45594000000E+02  0.51100000000E-03 0.  1.
    9900012    2    1    2    0    0 -0.22432383798E+01  0.26337108637E+02  0.34423071209E+02  0.47787271420E+02  0.20000001712E+02 0.  0.
        -12    1    1    2    0    0  0.22432383798E+01 -0.26337108637E+02 -0.34423071209E+02  0.43400728580E+02  0.00000000000E+00 0.  1.
         11    1    3    3    0    0 -0.39516676362E+01  0.11060108367E+02  0.59322720695E+01  0.13158021370E+02  0.51100000000E-03 0. -1.
        -11    1    3    3    0    0  0.72542384253E+00  0.35038781984E+01  0.19386970946E+02  0.19714412111E+02  0.51100000000E-03 0.  1.
         12    1    3    3    0    0  0.98300541387E+00  0.11773122072E+02  0.91038281938E+01  0.14914837939E+02  0.00000000000E+00 0. -1.
</event>
<event>
 7    1  0.1019486E-010  0.4778727E+02  0.7816164E-02  0.1312668E+00
        -11   -1    0    0    0    0  0.00000000000E+00  0.00000000000E+00  0.45593999997E+02  0.45594000000E+02  0.51100000000E-03 0. -1.
         11   -1    0    0    0    0 -0.00000000000E+00 -0.00000000000E+00 -0.45593999997E+02  0.45594000000E+02  0.51100000000E-03 0.  1.
    9900012    2    1    2    0    0 -0.39541388010E+02 -0.72383560360E+01 -0.16361795195E+02  0.47787268372E+02  0.19999987816E+02 0.  0.
         12    1    1    2    0    0  0.39541388010E+02  0.72383560360E+01  0.16361795195E+02  0.43400731628E+02  0.00000000000E+00 0. -1.
         11    1    3    3    0    0 -0.20643973483E+02  0.41815810362E+01 -0.87194755025E+01  0.22796677706E+02  0.51100000000E-03 0. -1.
        -11    1    3    3    0    0 -0.67221195673E+01 -0.66981685098E+01  0.66582861624E+00  0.95129217841E+01  0.51100000000E-03 0.  1.
        -12    1    3    3    0    0 -0.12175294959E+02 -0.47217685625E+01 -0.83081483086E+01  0.15477668882E+02  0.00000000000E+00 0.  1.
</event>
<event>
 7    1  0.1019486E-010  0.4778727E+02  0.7816164E-02  0.1312668E+00
        -11   -1    0    0    0    0  0.00000000000E+00  0.00000000000E+00  0.45593999997E+02  0.45594000000E+02  0.51100000000E-03 0. -1.
         11   -1    0    0    0    0 -0.00000000000E+00 -0.00000000000E+00 -0.45593999997E+02  0.45594000000E+02  0.51100000000E-03 0.  1.
    9900012    2    1    2    0    0  0.22748667055E+02  0.36565786408E+02  0.53911566046E+01  0.47787272380E+02  0.20000006088E+02 0.  0.
        -12    1    1    2    0    0 -0.22748667055E+02 -0.36565786408E+02 -0.53911566046E+01  0.43400727620E+02  0.00000000000E+00 0.  1.
         11    1    3    3    0    0  0.14675865732E+02  0.12111119249E+02  0.92347965501E+01  0.21150454181E+02  0.51100000000E-03 0. -1.
        -11    1    3    3    0    0  0.54914381755E+01  0.15347167453E+02 -0.51191942863E+01  0.17085010754E+02  0.51100000000E-03 0.  1.
         12    1    3    3    0    0  0.25813631471E+01  0.91074997060E+01  0.12755543408E+01  0.95518074451E+01  0.00000000000E+00 0. -1.
</event>
<event>
 7    1  0.1019486E-010  0.4778727E+02  0.7816164E-02  0.1312668E+00
        -11   -1    0    0    0    0  0.00000000000E+00  0.00000000000E+00  0.45593999997E+02  0.45594000000E+02  0.51100000000E-03 0. -1.
         11   -1    0    0    0    0 -0.00000000000E+00 -0.00000000000E+00 -0.45593999997E+02  0.45594000000E+02  0.51100000000E-03 0.  1.
    9900012    2    1    2    0    0 -0.39962580120E+02  0.55060457022E+01  0.16009342400E+02  0.47787269670E+02  0.19999993732E+02 0.  0.
        -12    1    1    2    0    0  0.39962580120E+02 -0.55060457022E+01 -0.16009342400E+02  0.43400730330E+02  0.00000000000E+00 0.  1.
         11    1    3    3    0    0 -0.18200342189E+02 -0.75866619430E+00  0.12901916573E+02  0.22322353857E+02  0.51100000000E-03 0. -1.
        -11    1    3    3    0    0 -0.11083917023E+02  0.58532988317E+01 -0.33560454307E+01  0.12976030402E+02  0.51100000000E-03 0.  1.
        -12    1    3    3    0    0 -0.10678320908E+02  0.41141306481E+00  0.64634712571E+01  0.12488885411E+02  0.00000000000E+00 0.  1.
</event>
<event>
 7    1  0.1019486E-010  0.4778727E+02  0.7816164E-02  0.1312668E+00
        -11   -1    0    0    0    0  0.00000000000E+00  0.00000000000E+00  0.45593999997E+02  0.45594000000E+02  0.51100000000E-03 0. -1.
         11   -1    0    0    0    0 -0.00000000000E+00 -0.00000000000E+00 -0.45593999997E+02  0.45594000000E+02  0.51100000000E-03 0.  1.
    9900012    2    1    2    0    0 -0.18702226316E+00  0.25815518326E+02  0.34887641934E+02  0.47787268169E+02  0.19999986891E+02 0.  0.
        -12    1    1    2    0    0  0.18702226316E+00 -0.25815518326E+02 -0.34887641934E+02  0.43400731831E+02  0.00000000000E+00 0.  1.
         11    1    3    3    0    0 -0.51667422638E+01  0.71208336893E+01  0.67074916625E+01  0.11063089203E+02  0.51100000000E-03 0. -1.
        -11    1    3    3    0    0  0.57032200464E+01  0.17802957230E+02  0.29531311540E+02  0.34950970896E+02  0.51100000000E-03 0.  1.
        -12    1    3    3    0    0 -0.72350004574E+00  0.89172740695E+00 -0.13511612692E+01  0.17732080701E+01  0.00000000000E+00 0.  1.
</event>
<event>
 7    1  0.1019486E-010  0.4778727E+02  0.7816164E-02  0.1312668E+00
        -11   -1    0    0    0    0  0.00000000000E+00  0.00000000000E+00  0.45593999997E+02  0.45594000000E+02  0.51100000000E-03 0.  1.
         11   -1    0    0    0    0 -0.00000000000E+00 -0.00000000000E+00 -0.45593999997E+02  0.45594000000E+02  0.51100000000E-03 0. -1.
    9900012    2    1    2    0    0  0.26122061730E+02 -0.38546988325E+01  0.34444196203E+02  0.47787268852E+02  0.19999990005E+02 0.  0.
        -12    1    1    2    0    0 -0.26122061730E+02  0.38546988325E+01 -0.34444196203E+02  0.43400731148E+02  0.00000000000E+00 0.  1.
         11    1    3    3    0    0  0.16120196657E+02 -0.30004958286E+01  0.10196615725E+02  0.19308927676E+02  0.51100000000E-03 0. -1.
        -11    1    3    3    0    0  0.56750241162E+01 -0.52989488833E+01  0.18324750286E+02  0.19901789651E+02  0.51100000000E-03 0.  1.
         12    1    3    3    0    0  0.43268409563E+01  0.44447458794E+01  0.59228301908E+01  0.85765515250E+01  0.00000000000E+00 0. -1.
</event>
<event>
 7    1  0.1019486E-010  0.4778727E+02  0.7816164E-02  0.1312668E+00
        -11   -1    0    0    0    0  0.00000000000E+00  0.00000000000E+00  0.45593999997E+02  0.45594000000E+02  0.51100000000E-03 0.  1.
         11   -1    0    0    0    0 -0.00000000000E+00 -0.00000000000E+00 -0.45593999997E+02  0.45594000000E+02  0.51100000000E-03 0. -1.
    9900012    2    1    2    0    0  0.16140513359E+02 -0.35274318006E+02  0.19463541275E+02  0.47787272803E+02  0.20000008016E+02 0.  0.
        -12    1    1    2    0    0 -0.16140513359E+02  0.35274318006E+02 -0.19463541275E+02  0.43400727197E+02  0.00000000000E+00 0.  1.
         11    1    3    3    0    0  0.19050682345E+02 -0.26716284492E+02  0.12456732852E+02  0.35097842504E+02  0.51100000000E-03 0. -1.
        -11    1    3    3    0    0 -0.10821660840E+01  0.47683107754E+00  0.16435482622E+01  0.20247721998E+01  0.51100000000E-03 0.  1.
         12    1    3    3    0    0 -0.18280029020E+01 -0.90348645920E+01  0.53632601606E+01  0.10664658098E+02  0.00000000000E+00 0. -1.
</event>
<event>
 7    1  0.1642018E-010  0.4778727E+02  0.7816164E-02  0.1312668E+00
        -11   -1    0    0    0    0  0.00000000000E+00  0.00000000000E+00  0.45593999997E+02  0.45594000000E+02  0.51100000000E-03 0. -1.
         11   -1    0    0    0    0 -0.00000000000E+00 -0.00000000000E+00 -0.45593999997E+02  0.45594000000E+02  0.51100000000E-03 0.  1.
    9900012    2    1    2    0    0  0.17751110184E+02  0.23546023156E+02 -0.31845031802E+02  0.47787272245E+02  0.20000005472E+02 0.  0.
         12    1    1    2    0    0 -0.17751110184E+02 -0.23546023156E+02  0.31845031802E+02  0.43400727755E+02  0.00000000000E+00 0. -1.
         11    1    3    3    0    0 -0.15752797536E+01  0.32031868080E+01  0.69686173158E+00  0.36369669455E+01  0.51100000000E-03 0. -1.
        -11    1    3    3    0    0  0.14561202710E+02  0.16578279129E+02 -0.18295029714E+02  0.28663148392E+02  0.51100000000E-03 0.  1.
         12    1    3    3    0    0  0.47651872273E+01  0.37645572182E+01 -0.14246863820E+02  0.15487156907E+02  0.00000000000E+00 0. -1.
</event>
<event>
 7    1  0.1019486E-010  0.4778727E+02  0.7816164E-02  0.1312668E+00
        -11   -1    0    0    0    0  0.00000000000E+00  0.00000000000E+00  0.45593999997E+02  0.45594000000E+02  0.51100000000E-03 0. -1.
         11   -1    0    0    0    0 -0.00000000000E+00 -0.00000000000E+00 -0.45593999997E+02  0.45594000000E+02  0.51100000000E-03 0.  1.
    9900012    2    1    2    0    0  0.34409121288E+02  0.55248187806E+01 -0.25867202239E+02  0.47787269568E+02  0.19999993269E+02 0.  0.
         12    1    1    2    0    0 -0.34409121288E+02 -0.55248187806E+01  0.25867202239E+02  0.43400730432E+02  0.00000000000E+00 0. -1.
         11    1    3    3    0    0  0.51803275475E+01  0.76413681449E+01 -0.52316115550E+01  0.10611129080E+02  0.51100000000E-03 0. -1.
        -11    1    3    3    0    0  0.15048822314E+02 -0.24194030443E+01 -0.16365608298E+02  0.22364116333E+02  0.51100000000E-03 0.  1.
         12    1    3    3    0    0  0.14179971426E+02  0.30285368003E+00 -0.42699823856E+01  0.14812024155E+02  0.00000000000E+00 0. -1.
</event>
<event>
 7    1  0.1019486E-010  0.4778726E+02  0.7816164E-02  0.1312668E+00
        -11   -1    0    0    0    0  0.00000000000E+00  0.00000000000E+00  0.45593999997E+02  0.45594000000E+02  0.51100000000E-03 0. -1.
         11   -1    0    0    0    0 -0.00000000000E+00 -0.00000000000E+00 -0.45593999997E+02  0.45594000000E+02  0.51100000000E-03 0.  1.
    9900012    2    1    2    0    0 -0.74029261602E+01 -0.18265970920E+02 -0.38667496953E+02  0.47787258877E+02  0.19999944525E+02 0.  0.
         12    1    1    2    0    0  0.74029261602E+01  0.18265970920E+02  0.38667496953E+02  0.43400741123E+02  0.00000000000E+00 0. -1.
         11    1    3    3    0    0  0.21857188775E+01 -0.11445192007E+02 -0.82483741348E+01  0.14276045083E+02  0.51100000000E-03 0. -1.
        -11    1    3    3    0    0 -0.39980520422E+01 -0.11258470492E-01 -0.16959572880E+02  0.17424455785E+02  0.51100000000E-03 0.  1.
         12    1    3    3    0    0 -0.55905929955E+01 -0.68095204426E+01 -0.13459549938E+02  0.16086758009E+02  0.00000000000E+00 0. -1.
</event>
<event>
 7    1  0.1019486E-010  0.4778727E+02  0.7816164E-02  0.1312668E+00
        -11   -1    0    0    0    0  0.00000000000E+00  0.00000000000E+00  0.45593999997E+02  0.45594000000E+02  0.51100000000E-03 0. -1.
         11   -1    0    0    0    0 -0.00000000000E+00 -0.00000000000E+00 -0.45593999997E+02  0.45594000000E+02  0.51100000000E-03 0.  1.
    9900012    2    1    2    0    0 -0.20285601831E+02  0.35472999919E+02  0.14621348621E+02  0.47787271890E+02  0.20000003857E+02 0.  0.
        -12    1    1    2    0    0  0.20285601831E+02 -0.35472999919E+02 -0.14621348621E+02  0.43400728110E+02  0.00000000000E+00 0.  1.
         11    1    3    3    0    0 -0.24207820800E+00  0.75753259350E+01  0.90456795435E+01  0.11801206868E+02  0.51100000000E-03 0. -1.
        -11    1    3    3    0    0 -0.15837282770E+02  0.17191238147E+02  0.41390453374E+00  0.23377970651E+02  0.51100000000E-03 0.  1.
        -12    1    3    3    0    0 -0.42062408534E+01  0.10706435838E+02  0.51617645434E+01  0.12608094371E+02  0.00000000000E+00 0.  1.
</event>
<event>
 7    1  0.1019486E-010  0.4778727E+02  0.7816164E-02  0.1312668E+00
        -11   -1    0    0    0    0  0.00000000000E+00  0.00000000000E+00  0.45593999997E+02  0.45594000000E+02  0.51100000000E-03 0. -1.
         11   -1    0    0    0    0 -0.00000000000E+00 -0.00000000000E+00 -0.45593999997E+02  0.45594000000E+02  0.51100000000E-03 0.  1.
    9900012    2    1    2    0    0 -0.15854352203E+02 -0.32301117747E+02 -0.24267272774E+02  0.47787271672E+02  0.20000002864E+02 0.  0.
         12    1    1    2    0    0  0.15854352203E+02  0.32301117747E+02  0.24267272774E+02  0.43400728328E+02  0.00000000000E+00 0. -1.
         11    1    3    3    0    0 -0.58314504759E+01 -0.91528485001E+01  0.12262538355E+01  0.10921728300E+02  0.51100000000E-03 0. -1.
        -11    1    3    3    0    0 -0.12093583868E+01 -0.98204446841E+01 -0.14165251034E+02  0.17278831518E+02  0.51100000000E-03 0.  1.
        -12    1    3    3    0    0 -0.88135433404E+01 -0.13327824562E+02 -0.11328275575E+02  0.19586711855E+02  0.00000000000E+00 0.  1.
</event>
<event>
 7    1  0.1019486E-010  0.4778727E+02  0.7816164E-02  0.1312668E+00
        -11   -1    0    0    0    0  0.00000000000E+00  0.00000000000E+00  0.45593999997E+02  0.45594000000E+02  0.51100000000E-03 0. -1.
         11   -1    0    0    0    0 -0.00000000000E+00 -0.00000000000E+00 -0.45593999997E+02  0.45594000000E+02  0.51100000000E-03 0.  1.
    9900012    2    1    2    0    0 -0.38703947792E+02 -0.51300233928E+01  0.18955486075E+02  0.47787272275E+02  0.20000005613E+02 0.  0.
        -12    1    1    2    0    0  0.38703947792E+02  0.51300233928E+01 -0.18955486075E+02  0.43400727725E+02  0.00000000000E+00 0.  1.
         11    1    3    3    0    0 -0.57665847559E+01  0.37792887631E+01  0.24254184188E+01  0.73088424575E+01  0.51100000000E-03 0. -1.
        -11    1    3    3    0    0 -0.25435080535E+02 -0.11326702055E+02  0.82342626016E+01  0.29035161135E+02  0.51100000000E-03 0.  1.
        -12    1    3    3    0    0 -0.75022825005E+01  0.24173898993E+01  0.82958050547E+01  0.11443268683E+02  0.00000000000E+00 0.  1.
</event>
<event>
 7    1  0.1019486E-010  0.4778727E+02  0.7816164E-02  0.1312668E+00
        -11   -1    0    0    0    0  0.00000000000E+00  0.00000000000E+00  0.45593999997E+02  0.45594000000E+02  0.51100000000E-03 0. -1.
         11   -1    0    0    0    0 -0.00000000000E+00 -0.00000000000E+00 -0.45593999997E+02  0.45594000000E+02  0.51100000000E-03 0.  1.
    9900012    2    1    2    0    0 -0.29590566728E+02 -0.20445308946E+01  0.31683466048E+02  0.47787265367E+02  0.19999974116E+02 0.  0.
        -12    1    1    2    0    0  0.29590566728E+02  0.20445308946E+01 -0.31683466048E+02  0.43400734633E+02  0.00000000000E+00 0.  1.
         11    1    3    3    0    0 -0.21981437104E+02  0.61151517739E+01  0.20289297448E+02  0.30532511354E+02  0.51100000000E-03 0. -1.
        -11    1    3    3    0    0 -0.27329406645E-01 -0.45305600641E+01  0.44686130201E+01  0.63635857797E+01  0.51100000000E-03 0.  1.
         12    1    3    3    0    0 -0.75818002168E+01 -0.36291226044E+01  0.69255555801E+01  0.10891168234E+02  0.00000000000E+00 0. -1.
</event>
<event>
 7    1  0.1019486E-010  0.4778727E+02  0.7816164E-02  0.1312668E+00
        -11   -1    0    0    0    0  0.00000000000E+00  0.00000000000E+00  0.45593999997E+02  0.45594000000E+02  0.51100000000E-03 0. -1.
         11   -1    0    0    0    0 -0.00000000000E+00 -0.00000000000E+00 -0.45593999997E+02  0.45594000000E+02  0.51100000000E-03 0.  1.
    9900012    2    1    2    0    0 -0.70769975063E+00  0.19680049494E+02 -0.38675806497E+02  0.47787271950E+02  0.20000004130E+02 0.  0.
         12    1    1    2    0    0  0.70769975063E+00 -0.19680049494E+02  0.38675806497E+02  0.43400728050E+02  0.00000000000E+00 0. -1.
         11    1    3    3    0    0 -0.12112435550E+01  0.54488387237E+01  0.78675883983E+00  0.56370155330E+01  0.51100000000E-03 0. -1.
        -11    1    3    3    0    0  0.17570237930E+01  0.94255057530E+01 -0.29489189762E+02  0.31008702075E+02  0.51100000000E-03 0.  1.
         12    1    3    3    0    0 -0.12534799886E+01  0.48057050176E+01 -0.99733755753E+01  0.11141554342E+02  0.00000000000E+00 0. -1.
</event>
<event>
 7    1  0.1019486E-010  0.4778727E+02  0.7816164E-02  0.1312668E+00
        -11   -1    0    0    0    0  0.00000000000E+00  0.00000000000E+00  0.45593999997E+02  0.45594000000E+02  0.51100000000E-03 0. -1.
         11   -1    0    0    0    0 -0.00000000000E+00 -0.00000000000E+00 -0.45593999997E+02  0.45594000000E+02  0.51100000000E-03 0.  1.
    9900012    2    1    2    0    0 -0.20466956192E+02 -0.23471784235E+02 -0.30229163370E+02  0.47787271101E+02  0.20000000258E+02 0.  0.
         12    1    1    2    0    0  0.20466956192E+02  0.23471784235E+02  0.30229163370E+02  0.43400728899E+02  0.00000000000E+00 0. -1.
         11    1    3    3    0    0  0.32104074193E+01 -0.56464606153E+01 -0.46994448452E+01  0.80171076700E+01  0.51100000000E-03 0. -1.
        -11    1    3    3    0    0 -0.18571873478E+02 -0.98542323601E+01 -0.17303943372E+02  0.27229521412E+02  0.51100000000E-03 0.  1.
        -12    1    3    3    0    0 -0.51054901337E+01 -0.79710912598E+01 -0.82257751528E+01  0.12540642019E+02  0.00000000000E+00 0.  1.
</event>
<event>
 7    1  0.1019486E-010  0.4778727E+02  0.7816164E-02  0.1312668E+00
        -11   -1    0    0    0    0  0.00000000000E+00  0.00000000000E+00  0.45593999997E+02  0.45594000000E+02  0.51100000000E-03 0.  1.
         11   -1    0    0    0    0 -0.00000000000E+00 -0.00000000000E+00 -0.45593999997E+02  0.45594000000E+02  0.51100000000E-03 0. -1.
    9900012    2    1    2    0    0 -0.10197482027E+02 -0.40066556624E+02 -0.13202485283E+02  0.47787271699E+02  0.20000002986E+02 0.  0.
         12    1    1    2    0    0  0.10197482027E+02  0.40066556624E+02  0.13202485283E+02  0.43400728301E+02  0.00000000000E+00 0. -1.
         11    1    3    3    0    0  0.10405880992E+01  0.79584427633E+00 -0.39860030642E+01  0.41957612412E+01  0.51100000000E-03 0. -1.
        -11    1    3    3    0    0 -0.85283299621E+01 -0.23563748612E+02 -0.63164311629E+01  0.25843373687E+02  0.51100000000E-03 0.  1.
         12    1    3    3    0    0 -0.27097401644E+01 -0.17298652288E+02 -0.29000510557E+01  0.17748136771E+02  0.00000000000E+00 0. -1.
</event>
<event>
 7    1  0.1019486E-010  0.4778727E+02  0.7816164E-02  0.1312668E+00
        -11   -1    0    0    0    0  0.00000000000E+00  0.00000000000E+00  0.45593999997E+02  0.45594000000E+02  0.51100000000E-03 0. -1.
         11   -1    0    0    0    0 -0.00000000000E+00 -0.00000000000E+00 -0.45593999997E+02  0.45594000000E+02  0.51100000000E-03 0.  1.
    9900012    2    1    2    0    0  0.18103774805E+02 -0.15796944940E+01  0.39412957428E+02  0.47787270627E+02  0.19999998096E+02 0.  0.
        -12    1    1    2    0    0 -0.18103774805E+02  0.15796944940E+01 -0.39412957428E+02  0.43400729373E+02  0.00000000000E+00 0.  1.
         11    1    3    3    0    0  0.69664388176E+01 -0.40915870553E+01  0.19984203666E+02  0.21555527153E+02  0.51100000000E-03 0. -1.
        -11    1    3    3    0    0  0.11698412665E+02  0.64697541459E+01  0.12906377853E+02  0.18581850477E+02  0.51100000000E-03 0.  1.
        -12    1    3    3    0    0 -0.56107667758E+00 -0.39578615846E+01  0.65223759092E+01  0.76498929967E+01  0.00000000000E+00 0.  1.
</event>
<event>
 7    1  0.1019486E-010  0.4778729E+02  0.7816164E-02  0.1312668E+00
        -11   -1    0    0    0    0  0.00000000000E+00  0.00000000000E+00  0.45593999997E+02  0.45594000000E+02  0.51100000000E-03 0. -1.
         11   -1    0    0    0    0 -0.00000000000E+00 -0.00000000000E+00 -0.45593999997E+02  0.45594000000E+02  0.51100000000E-03 0.  1.
    9900012    2    1    2    0    0  0.14576388654E+02  0.13396671404E+02 -0.38622268945E+02  0.47787290681E+02  0.20000089532E+02 0.  0.
         12    1    1    2    0    0 -0.14576388654E+02 -0.13396671404E+02  0.38622268945E+02  0.43400709319E+02  0.00000000000E+00 0. -1.
         11    1    3    3    0    0 -0.30389266050E+01 -0.31524905858E+00 -0.38573460333E+01  0.49207291697E+01  0.51100000000E-03 0. -1.
        -11    1    3    3    0    0  0.13635371070E+02  0.34402051144E+01 -0.19398985730E+02  0.23959945807E+02  0.51100000000E-03 0.  1.
        -12    1    3    3    0    0  0.39799441894E+01  0.10271715348E+02 -0.15365937182E+02  0.18906615705E+02  0.00000000000E+00 0.  1.
</event>
<event>
 7    1  0.1019486E-010  0.4778727E+02  0.7816164E-02  0.1312668E+00
        -11   -1    0    0    0    0  0.00000000000E+00  0.00000000000E+00  0.45593999997E+02  0.45594000000E+02  0.51100000000E-03 0. -1.
         11   -1    0    0    0    0 -0.00000000000E+00 -0.00000000000E+00 -0.45593999997E+02  0.45594000000E+02  0.51100000000E-03 0.  1.
    9900012    2    1    2    0    0 -0.17100153786E+01 -0.35985750097E+02  0.24201751262E+02  0.47787272739E+02  0.20000007727E+02 0.  0.
        -12    1    1    2    0    0  0.17100153786E+01  0.35985750097E+02 -0.24201751262E+02  0.43400727261E+02  0.00000000000E+00 0.  1.
         11    1    3    3    0    0  0.64056282561E+00 -0.31177373218E+02  0.23300316743E+02  0.38927415559E+02  0.51100000000E-03 0. -1.
        -11    1    3    3    0    0 -0.20165338859E+01  0.79999354765E+00  0.22039512557E+01  0.30925394077E+01  0.51100000000E-03 0.  1.
         12    1    3    3    0    0 -0.33404431832E+00 -0.56083704261E+01 -0.13025167362E+01  0.57673177727E+01  0.00000000000E+00 0. -1.
</event>
<event>
 7    1  0.1019486E-010  0.4778728E+02  0.7816164E-02  0.1312668E+00
        -11   -1    0    0    0    0  0.00000000000E+00  0.00000000000E+00  0.45593999997E+02  0.45594000000E+02  0.51100000000E-03 0. -1.
         11   -1    0    0    0    0 -0.00000000000E+00 -0.00000000000E+00 -0.45593999997E+02  0.45594000000E+02  0.51100000000E-03 0.  1.
    9900012    2    1    2    0    0  0.22082309608E+02 -0.26265094396E+02  0.26573266402E+02  0.47787284930E+02  0.20000063312E+02 0.  0.
        -12    1    1    2    0    0 -0.22082309608E+02  0.26265094396E+02 -0.26573266402E+02  0.43400715070E+02  0.00000000000E+00 0.  1.
         11    1    3    3    0    0  0.43649976814E+01 -0.10583319057E+02  0.14776021291E+02  0.18691994342E+02  0.51100000000E-03 0. -1.
        -11    1    3    3    0    0  0.19184643425E+02 -0.12836983890E+02  0.87807185461E+01  0.24696957650E+02  0.51100000000E-03 0.  1.
        -12    1    3    3    0    0 -0.14673314987E+01 -0.28447914490E+01  0.30165265648E+01  0.43983329378E+01  0.00000000000E+00 0.  1.
</event>
<event>
 7    1  0.1019486E-010  0.4778727E+02  0.7816164E-02  0.1312668E+00
        -11   -1    0    0    0    0  0.00000000000E+00  0.00000000000E+00  0.45593999997E+02  0.45594000000E+02  0.51100000000E-03 0. -1.
         11   -1    0    0    0    0 -0.00000000000E+00 -0.00000000000E+00 -0.45593999997E+02  0.45594000000E+02  0.51100000000E-03 0.  1.
    9900012    2    1    2    0    0 -0.58865070829E+01 -0.20123655778E+02 -0.38000139265E+02  0.47787273374E+02  0.20000010621E+02 0.  0.
         12    1    1    2    0    0  0.58865070829E+01  0.20123655778E+02  0.38000139265E+02  0.43400726626E+02  0.00000000000E+00 0. -1.
         11    1    3    3    0    0  0.86217563828E+00 -0.32790462366E+01 -0.22384215499E+02  0.22639536100E+02  0.51100000000E-03 0. -1.
        -11    1    3    3    0    0 -0.81681903294E+01 -0.14577131686E+02 -0.11673576207E+02  0.20383436491E+02  0.51100000000E-03 0.  1.
        -12    1    3    3    0    0  0.14195076082E+01 -0.22674778559E+01 -0.39423475586E+01  0.47643007829E+01  0.00000000000E+00 0.  1.
</event>
<event>
 7    1  0.1019486E-010  0.4778727E+02  0.7816164E-02  0.1312668E+00
        -11   -1    0    0    0    0  0.00000000000E+00  0.00000000000E+00  0.45593999997E+02  0.45594000000E+02  0.51100000000E-03 0. -1.
         11   -1    0    0    0    0 -0.00000000000E+00 -0.00000000000E+00 -0.45593999997E+02  0.45594000000E+02  0.51100000000E-03 0.  1.
    9900012    2    1    2    0    0  0.11496307105E+02 -0.40392723605E+02  0.10949246354E+02  0.47787271976E+02  0.20000004249E+02 0.  0.
        -12    1    1    2    0    0 -0.11496307105E+02  0.40392723605E+02 -0.10949246354E+02  0.43400728024E+02  0.00000000000E+00 0.  1.
         11    1    3    3    0    0  0.57956704933E+01 -0.30205992353E+02 -0.19375916791E+00  0.30757589524E+02  0.51100000000E-03 0. -1.
        -11    1    3    3    0    0  0.52658649657E+01 -0.10076305030E+02  0.11700249354E+02  0.16314321687E+02  0.51100000000E-03 0.  1.
        -12    1    3    3    0    0  0.43477164573E+00 -0.11042622217E+00 -0.55724383272E+00  0.71536076464E+00  0.00000000000E+00 0.  1.
</event>
<event>
 7    1  0.1019486E-010  0.4778727E+02  0.7816164E-02  0.1312668E+00
        -11   -1    0    0    0    0  0.00000000000E+00  0.00000000000E+00  0.45593999997E+02  0.45594000000E+02  0.51100000000E-03 0. -1.
         11   -1    0    0    0    0 -0.00000000000E+00 -0.00000000000E+00 -0.45593999997E+02  0.45594000000E+02  0.51100000000E-03 0.  1.
    9900012    2    1    2    0    0  0.18319577318E+02 -0.38618479259E+01  0.39154853592E+02  0.47787270256E+02  0.19999996404E+02 0.  0.
        -12    1    1    2    0    0 -0.18319577318E+02  0.38618479259E+01 -0.39154853592E+02  0.43400729744E+02  0.00000000000E+00 0.  1.
         11    1    3    3    0    0 -0.22221263784E+01  0.29597141227E+00  0.13414913292E+02  0.13600931719E+02  0.51100000000E-03 0. -1.
        -11    1    3    3    0    0  0.31781227186E+00 -0.16811533595E+00  0.47618067046E+01  0.47753607989E+01  0.51100000000E-03 0.  1.
         12    1    3    3    0    0  0.20223891425E+02 -0.39897040022E+01  0.20978133595E+02  0.29410977738E+02  0.00000000000E+00 0. -1.
</event>
<event>
 7    1  0.1019486E-010  0.4778727E+02  0.7816164E-02  0.1312668E+00
        -11   -1    0    0    0    0  0.00000000000E+00  0.00000000000E+00  0.45593999997E+02  0.45594000000E+02  0.51100000000E-03 0. -1.
         11   -1    0    0    0    0 -0.00000000000E+00 -0.00000000000E+00 -0.45593999997E+02  0.45594000000E+02  0.51100000000E-03 0.  1.
    9900012    2    1    2    0    0  0.93114247998E+01  0.23960614932E+02  0.34968694554E+02  0.47787270761E+02  0.19999998706E+02 0.  0.
        -12    1    1    2    0    0 -0.93114247998E+01 -0.23960614932E+02 -0.34968694554E+02  0.43400729239E+02  0.00000000000E+00 0.  1.
         11    1    3    3    0    0  0.13252330183E+02  0.11182217746E+02  0.26223318236E+02  0.31437695027E+02  0.51100000000E-03 0. -1.
        -11    1    3    3    0    0 -0.14772458729E+01  0.48119978924E+01  0.13688211687E+01  0.52164404279E+01  0.51100000000E-03 0.  1.
         12    1    3    3    0    0 -0.24636595102E+01  0.79663992933E+01  0.73765551488E+01  0.11133135306E+02  0.00000000000E+00 0. -1.
</event>
<event>
 7    1  0.1019486E-010  0.4778727E+02  0.7816164E-02  0.1312668E+00
        -11   -1    0    0    0    0  0.00000000000E+00  0.00000000000E+00  0.45593999997E+02  0.45594000000E+02  0.51100000000E-03 0.  1.
         11   -1    0    0    0    0 -0.00000000000E+00 -0.00000000000E+00 -0.45593999997E+02  0.45594000000E+02  0.51100000000E-03 0. -1.
    9900012    2    1    2    0    0 -0.22078289882E+02 -0.15934814082E+02  0.33797253148E+02  0.47787268390E+02  0.19999987897E+02 0.  0.
        -12    1    1    2    0    0  0.22078289882E+02  0.15934814082E+02 -0.33797253148E+02  0.43400731610E+02  0.00000000000E+00 0.  1.
         11    1    3    3    0    0 -0.68925991306E+01  0.39675024740E+01  0.11058723899E+02  0.13621467366E+02  0.51100000000E-03 0. -1.
        -11    1    3    3    0    0 -0.95299706676E+01 -0.15610083363E+02  0.14905622609E+02  0.23593910849E+02  0.51100000000E-03 0.  1.
         12    1    3    3    0    0 -0.56557200840E+01 -0.42922331929E+01  0.78329066394E+01  0.10571890175E+02  0.00000000000E+00 0. -1.
</event>
<event>
 7    1  0.1019486E-010  0.4778727E+02  0.7816164E-02  0.1312668E+00
        -11   -1    0    0    0    0  0.00000000000E+00  0.00000000000E+00  0.45593999997E+02  0.45594000000E+02  0.51100000000E-03 0.  1.
         11   -1    0    0    0    0 -0.00000000000E+00 -0.00000000000E+00 -0.45593999997E+02  0.45594000000E+02  0.51100000000E-03 0. -1.
    9900012    2    1    2    0    0 -0.38358307104E+02  0.18139940642E+02  0.91217516972E+01  0.47787268158E+02  0.19999986841E+02 0.  0.
         12    1    1    2    0    0  0.38358307104E+02 -0.18139940642E+02 -0.91217516972E+01  0.43400731842E+02  0.00000000000E+00 0. -1.
         11    1    3    3    0    0 -0.34219933775E+02  0.82945415606E+01  0.49780400595E+01  0.35560992258E+02  0.51100000000E-03 0. -1.
        -11    1    3    3    0    0 -0.44617037021E+01  0.72796714513E+01  0.17778450424E+01  0.87213043532E+01  0.51100000000E-03 0.  1.
         12    1    3    3    0    0  0.32333037303E+00  0.25657276297E+01  0.23658665953E+01  0.35049715472E+01  0.00000000000E+00 0. -1.
</event>
<event>
 7    1  0.1019486E-010  0.4778727E+02  0.7816164E-02  0.1312668E+00
        -11   -1    0    0    0    0  0.00000000000E+00  0.00000000000E+00  0.45593999997E+02  0.45594000000E+02  0.51100000000E-03 0. -1.
         11   -1    0    0    0    0 -0.00000000000E+00 -0.00000000000E+00 -0.45593999997E+02  0.45594000000E+02  0.51100000000E-03 0.  1.
    9900012    2    1    2    0    0  0.10198879768E+02 -0.36456250644E+02  0.21226114472E+02  0.47787270800E+02  0.19999998884E+02 0.  0.
        -12    1    1    2    0    0 -0.10198879768E+02  0.36456250644E+02 -0.21226114472E+02  0.43400729200E+02  0.00000000000E+00 0.  1.
         11    1    3    3    0    0  0.42457515896E+01  0.27797512712E+00  0.37172690796E+01  0.56499350795E+01  0.51100000000E-03 0. -1.
        -11    1    3    3    0    0  0.26989143774E+00 -0.18511565012E+02  0.45458638162E+01  0.19063466596E+02  0.51100000000E-03 0.  1.
        -12    1    3    3    0    0  0.56832367409E+01 -0.18222660759E+02  0.12962981576E+02  0.23073869124E+02  0.00000000000E+00 0.  1.
</event>
<event>
 7    1  0.1019486E-010  0.4778727E+02  0.7816164E-02  0.1312668E+00
        -11   -1    0    0    0    0  0.00000000000E+00  0.00000000000E+00  0.45593999997E+02  0.45594000000E+02  0.51100000000E-03 0. -1.
         11   -1    0    0    0    0 -0.00000000000E+00 -0.00000000000E+00 -0.45593999997E+02  0.45594000000E+02  0.51100000000E-03 0.  1.
    9900012    2    1    2    0    0  0.13728260046E+02 -0.72968465820E+01  0.40520539216E+02  0.47787271984E+02  0.20000004286E+02 0.  0.
        -12    1    1    2    0    0 -0.13728260046E+02  0.72968465820E+01 -0.40520539216E+02  0.43400728016E+02  0.00000000000E+00 0.  1.
         11    1    3    3    0    0  0.81060405573E+01  0.22078504169E+01  0.50982334554E+01  0.98272316349E+01  0.51100000000E-03 0.  1.
        -11    1    3    3    0    0 -0.60924387841E+00 -0.16229913819E+01  0.15991592101E+02  0.16085282010E+02  0.51100000000E-03 0. -1.
        -12    1    3    3    0    0  0.62314633674E+01 -0.78817056170E+01  0.19430713659E+02  0.21874758340E+02  0.00000000000E+00 0.  1.
</event>
<event>
 7    1  0.1194708E-010  0.4778727E+02  0.7816164E-02  0.1312668E+00
        -11   -1    0    0    0    0  0.00000000000E+00  0.00000000000E+00  0.45593999997E+02  0.45594000000E+02  0.51100000000E-03 0. -1.
         11   -1    0    0    0    0 -0.00000000000E+00 -0.00000000000E+00 -0.45593999997E+02  0.45594000000E+02  0.51100000000E-03 0.  1.
    9900012    2    1    2    0    0  0.14675960057E+02  0.36843080579E+01 -0.40677577465E+02  0.47787271459E+02  0.20000001890E+02 0.  0.
         12    1    1    2    0    0 -0.14675960057E+02 -0.36843080579E+01  0.40677577465E+02  0.43400728541E+02  0.00000000000E+00 0. -1.
         11    1    3    3    0    0  0.13927103298E+02 -0.12057307050E+01 -0.19709110287E+02  0.24163340443E+02  0.51100000000E-03 0. -1.
        -11    1    3    3    0    0  0.12285935038E+01  0.62002280168E+01 -0.21276109806E+02  0.22195159792E+02  0.51100000000E-03 0.  1.
         12    1    3    3    0    0 -0.47973674469E+00 -0.13101892538E+01  0.30764262739E+00  0.14287712242E+01  0.00000000000E+00 0. -1.
</event>
<event>
 7    1  0.1019486E-010  0.4778729E+02  0.7816164E-02  0.1312668E+00
        -11   -1    0    0    0    0  0.00000000000E+00  0.00000000000E+00  0.45593999997E+02  0.45594000000E+02  0.51100000000E-03 0. -1.
         11   -1    0    0    0    0 -0.00000000000E+00 -0.00000000000E+00 -0.45593999997E+02  0.45594000000E+02  0.51100000000E-03 0.  1.
    9900012    2    1    2    0    0 -0.46979449485E+01  0.41669145901E+02 -0.11190763053E+02  0.47787290506E+02  0.20000088733E+02 0.  0.
         12    1    1    2    0    0  0.46979449485E+01 -0.41669145901E+02  0.11190763053E+02  0.43400709494E+02  0.00000000000E+00 0. -1.
         11    1    3    3    0    0 -0.47588951067E+00  0.14669889490E+02 -0.12028122871E+02  0.18976508334E+02  0.51100000000E-03 0.  1.
        -11    1    3    3    0    0  0.27190450026E+01  0.63684661042E+01 -0.85865626174E+00  0.69776684561E+01  0.51100000000E-03 0. -1.
         12    1    3    3    0    0 -0.69411004404E+01  0.20630790307E+02  0.16960160796E+01  0.21833113716E+02  0.00000000000E+00 0. -1.
</event>
<event>
 7    1  0.1019486E-010  0.4778727E+02  0.7816164E-02  0.1312668E+00
        -11   -1    0    0    0    0  0.00000000000E+00  0.00000000000E+00  0.45593999997E+02  0.45594000000E+02  0.51100000000E-03 0. -1.
         11   -1    0    0    0    0 -0.00000000000E+00 -0.00000000000E+00 -0.45593999997E+02  0.45594000000E+02  0.51100000000E-03 0.  1.
    9900012    2    1    2    0    0 -0.27693570307E+02 -0.32108221204E+01  0.33262292338E+02  0.47787270667E+02  0.19999998278E+02 0.  0.
        -12    1    1    2    0    0  0.27693570307E+02  0.32108221204E+01 -0.33262292338E+02  0.43400729333E+02  0.00000000000E+00 0.  1.
         11    1    3    3    0    0 -0.17892802185E+01 -0.52211600455E+01  0.11368673022E+02  0.12637593223E+02  0.51100000000E-03 0. -1.
        -11    1    3    3    0    0 -0.57330145895E+01  0.40558161111E+01  0.38504984289E+01  0.80089599214E+01  0.51100000000E-03 0.  1.
         12    1    3    3    0    0 -0.20171275500E+02 -0.20454781860E+01  0.18043120887E+02  0.27140717522E+02  0.00000000000E+00 0. -1.
</event>
<event>
 7    1  0.1019486E-010  0.4778727E+02  0.7816164E-02  0.1312668E+00
        -11   -1    0    0    0    0  0.00000000000E+00  0.00000000000E+00  0.45593999997E+02  0.45594000000E+02  0.51100000000E-03 0. -1.
         11   -1    0    0    0    0 -0.00000000000E+00 -0.00000000000E+00 -0.45593999997E+02  0.45594000000E+02  0.51100000000E-03 0.  1.
    9900012    2    1    2    0    0  0.42094107539E-01 -0.12478452157E+02 -0.41568134080E+02  0.47787270617E+02  0.19999998049E+02 0.  0.
         12    1    1    2    0    0 -0.42094107539E-01  0.12478452157E+02  0.41568134080E+02  0.43400729383E+02  0.00000000000E+00 0. -1.
         11    1    3    3    0    0  0.18724277777E+01  0.88729110748E+00 -0.72875494799E+00  0.21964415147E+01  0.51100000000E-03 0. -1.
        -11    1    3    3    0    0 -0.35092883257E+01 -0.11236880159E+02 -0.41206262610E+02  0.42854855721E+02  0.51100000000E-03 0.  1.
        -12    1    3    3    0    0  0.16789546556E+01 -0.21288631051E+01  0.36688347876E+00  0.27359733812E+01  0.00000000000E+00 0.  1.
</event>
<event>
 7    1  0.1055514E-010  0.4778727E+02  0.7816164E-02  0.1312668E+00
        -11   -1    0    0    0    0  0.00000000000E+00  0.00000000000E+00  0.45593999997E+02  0.45594000000E+02  0.51100000000E-03 0. -1.
         11   -1    0    0    0    0 -0.00000000000E+00 -0.00000000000E+00 -0.45593999997E+02  0.45594000000E+02  0.51100000000E-03 0.  1.
    9900012    2    1    2    0    0  0.52881326399E+01 -0.32631301477E+02 -0.28122180957E+02  0.47787271381E+02  0.20000001536E+02 0.  0.
         12    1    1    2    0    0 -0.52881326399E+01  0.32631301477E+02  0.28122180957E+02  0.43400728619E+02  0.00000000000E+00 0. -1.
         11    1    3    3    0    0 -0.27660593889E+01 -0.67405285588E+01  0.55379606368E+00  0.73070171846E+01  0.51100000000E-03 0. -1.
        -11    1    3    3    0    0  0.26746605575E+01 -0.14296228982E+02 -0.92840390380E+01  0.17254835651E+02  0.51100000000E-03 0.  1.
         12    1    3    3    0    0  0.53795314712E+01 -0.11594543936E+02 -0.19391937982E+02  0.23225418546E+02  0.00000000000E+00 0. -1.
</event>
<event>
 7    1  0.1019486E-010  0.4778727E+02  0.7816164E-02  0.1312668E+00
        -11   -1    0    0    0    0  0.00000000000E+00  0.00000000000E+00  0.45593999997E+02  0.45594000000E+02  0.51100000000E-03 0. -1.
         11   -1    0    0    0    0 -0.00000000000E+00 -0.00000000000E+00 -0.45593999997E+02  0.45594000000E+02  0.51100000000E-03 0.  1.
    9900012    2    1    2    0    0 -0.19833985382E+02 -0.35604167696E+02  0.14919098675E+02  0.47787271449E+02  0.20000001844E+02 0.  0.
        -12    1    1    2    0    0  0.19833985382E+02  0.35604167696E+02 -0.14919098675E+02  0.43400728551E+02  0.00000000000E+00 0.  1.
         11    1    3    3    0    0 -0.20985866737E+01 -0.45085874000E+01 -0.29728631121E+01  0.57939055666E+01  0.51100000000E-03 0. -1.
        -11    1    3    3    0    0 -0.15262143455E+02 -0.31075000797E+02  0.13920000308E+02  0.37314274832E+02  0.51100000000E-03 0.  1.
        -12    1    3    3    0    0 -0.24732552533E+01 -0.20579499005E-01  0.39719614795E+01  0.46790910504E+01  0.00000000000E+00 0.  1.
</event>
<event>
 7    1  0.1019486E-010  0.4778726E+02  0.7816164E-02  0.1312668E+00
        -11   -1    0    0    0    0  0.00000000000E+00  0.00000000000E+00  0.45593999997E+02  0.45594000000E+02  0.51100000000E-03 0. -1.
         11   -1    0    0    0    0 -0.00000000000E+00 -0.00000000000E+00 -0.45593999997E+02  0.45594000000E+02  0.51100000000E-03 0.  1.
    9900012    2    1    2    0    0 -0.55887776768E+00  0.38385938742E+02  0.20244288795E+02  0.47787264219E+02  0.19999968882E+02 0.  0.
        -12    1    1    2    0    0  0.55887776768E+00 -0.38385938742E+02 -0.20244288795E+02  0.43400735781E+02  0.00000000000E+00 0.  1.
         11    1    3    3    0    0  0.44458173685E+01  0.33571772999E+02  0.12645148086E+02  0.36148706820E+02  0.51100000000E-03 0. -1.
        -11    1    3    3    0    0 -0.10110229364E+01 -0.12060690869E+01  0.16463981262E+01  0.22775857989E+01  0.51100000000E-03 0.  1.
         12    1    3    3    0    0 -0.39936721998E+01  0.60202348299E+01  0.59527425826E+01  0.93609716003E+01  0.00000000000E+00 0. -1.
</event>
<event>
 7    1  0.1019486E-010  0.4778729E+02  0.7816164E-02  0.1312668E+00
        -11   -1    0    0    0    0  0.00000000000E+00  0.00000000000E+00  0.45593999997E+02  0.45594000000E+02  0.51100000000E-03 0.  1.
         11   -1    0    0    0    0 -0.00000000000E+00 -0.00000000000E+00 -0.45593999997E+02  0.45594000000E+02  0.51100000000E-03 0. -1.
    9900012    2    1    2    0    0 -0.33977049622E+02  0.26819541968E+02 -0.31454265563E+01  0.47787292165E+02  0.20000096296E+02 0.  0.
        -12    1    1    2    0    0  0.33977049622E+02 -0.26819541968E+02  0.31454265563E+01  0.43400707835E+02  0.00000000000E+00 0.  1.
         11    1    3    3    0    0 -0.18450477987E+02  0.95731561305E+01 -0.10390314857E+02  0.23238418607E+02  0.51100000000E-03 0. -1.
        -11    1    3    3    0    0 -0.12502018699E+02  0.11640454306E+02  0.54649058542E+01  0.17935045142E+02  0.51100000000E-03 0.  1.
         12    1    3    3    0    0 -0.30245529353E+01  0.56059315321E+01  0.17799824467E+01  0.66138284156E+01  0.00000000000E+00 0. -1.
</event>
<event>
 7    1  0.1019486E-010  0.4778727E+02  0.7816164E-02  0.1312668E+00
        -11   -1    0    0    0    0  0.00000000000E+00  0.00000000000E+00  0.45593999997E+02  0.45594000000E+02  0.51100000000E-03 0. -1.
         11   -1    0    0    0    0 -0.00000000000E+00 -0.00000000000E+00 -0.45593999997E+02  0.45594000000E+02  0.51100000000E-03 0.  1.
    9900012    2    1    2    0    0 -0.30817928306E+01 -0.14014632664E+01  0.43268483100E+02  0.47787272170E+02  0.20000005134E+02 0.  0.
        -12    1    1    2    0    0  0.30817928306E+01  0.14014632664E+01 -0.43268483100E+02  0.43400727830E+02  0.00000000000E+00 0.  1.
         11    1    3    3    0    0 -0.39948643393E+01 -0.34829591420E+01  0.34529761309E+02  0.34934143210E+02  0.51100000000E-03 0. -1.
        -11    1    3    3    0    0 -0.33682058090E+00 -0.64581399348E+00 -0.17755920199E+01  0.19191797988E+01  0.51100000000E-03 0.  1.
        -12    1    3    3    0    0  0.12498920897E+01  0.27273098691E+01  0.10514313811E+02  0.10933949162E+02  0.00000000000E+00 0.  1.
</event>
<event>
 7    1  0.1019486E-010  0.4778728E+02  0.7816164E-02  0.1312668E+00
        -11   -1    0    0    0    0  0.00000000000E+00  0.00000000000E+00  0.45593999997E+02  0.45594000000E+02  0.51100000000E-03 0. -1.
         11   -1    0    0    0    0 -0.00000000000E+00 -0.00000000000E+00 -0.45593999997E+02  0.45594000000E+02  0.51100000000E-03 0.  1.
    9900012    2    1    2    0    0 -0.29841134208E+02 -0.76395005854E+01 -0.30573964864E+02  0.47787278952E+02  0.20000036055E+02 0.  0.
         12    1    1    2    0    0  0.29841134208E+02  0.76395005854E+01  0.30573964864E+02  0.43400721048E+02  0.00000000000E+00 0. -1.
         11    1    3    3    0    0 -0.44808198146E+01  0.36451055203E+01 -0.19810501122E+01  0.61064801869E+01  0.51100000000E-03 0. -1.
        -11    1    3    3    0    0 -0.22178130537E+02 -0.12191611344E+02 -0.19333488431E+02  0.31847898462E+02  0.51100000000E-03 0.  1.
        -12    1    3    3    0    0 -0.31821838563E+01  0.90700523842E+00 -0.92594263202E+01  0.98329003034E+01  0.00000000000E+00 0.  1.
</event>
<event>
 7    1  0.1019486E-010  0.4778728E+02  0.7816164E-02  0.1312668E+00
        -11   -1    0    0    0    0  0.00000000000E+00  0.00000000000E+00  0.45593999997E+02  0.45594000000E+02  0.51100000000E-03 0. -1.
         11   -1    0    0    0    0 -0.00000000000E+00 -0.00000000000E+00 -0.45593999997E+02  0.45594000000E+02  0.51100000000E-03 0.  1.
    9900012    2    1    2    0    0  0.88442131544E+01 -0.38269637792E+02  0.18461781106E+02  0.47787278294E+02  0.20000033052E+02 0.  0.
        -12    1    1    2    0    0 -0.88442131544E+01  0.38269637792E+02 -0.18461781106E+02  0.43400721706E+02  0.00000000000E+00 0.  1.
         11    1    3    3    0    0  0.53896113806E+01 -0.34235688704E+02  0.13466779134E+02  0.37181775541E+02  0.51100000000E-03 0. -1.
        -11    1    3    3    0    0  0.44737847447E+00 -0.76388600708E+00  0.59881615724E+01  0.60532428177E+01  0.51100000000E-03 0.  1.
         12    1    3    3    0    0  0.30072232993E+01 -0.32700630803E+01 -0.99315960085E+00  0.45522599348E+01  0.00000000000E+00 0. -1.
</event>
<event>
 7    1  0.1019486E-010  0.4778729E+02  0.7816164E-02  0.1312668E+00
        -11   -1    0    0    0    0  0.00000000000E+00  0.00000000000E+00  0.45593999997E+02  0.45594000000E+02  0.51100000000E-03 0. -1.
         11   -1    0    0    0    0 -0.00000000000E+00 -0.00000000000E+00 -0.45593999997E+02  0.45594000000E+02  0.51100000000E-03 0.  1.
    9900012    2    1    2    0    0 -0.14005300129E+02  0.20955833598E+02 -0.35331661242E+02  0.47787289411E+02  0.20000083740E+02 0.  0.
         12    1    1    2    0    0  0.14005300129E+02 -0.20955833598E+02  0.35331661242E+02  0.43400710589E+02  0.00000000000E+00 0. -1.
         11    1    3    3    0    0 -0.14899849824E+01  0.13194371024E+02 -0.16352175938E+02  0.21064309628E+02  0.51100000000E-03 0. -1.
        -11    1    3    3    0    0  0.55420622705E-01  0.59551826576E+01 -0.45085078054E+01  0.74695324367E+01  0.51100000000E-03 0.  1.
         12    1    3    3    0    0 -0.12570735769E+02  0.18062799167E+01 -0.14470977499E+02  0.19253447346E+02  0.00000000000E+00 0. -1.
</event>
<event>
 7    1  0.1019486E-010  0.4778727E+02  0.7816164E-02  0.1312668E+00
        -11   -1    0    0    0    0  0.00000000000E+00  0.00000000000E+00  0.45593999997E+02  0.45594000000E+02  0.51100000000E-03 0.  1.
         11   -1    0    0    0    0 -0.00000000000E+00 -0.00000000000E+00 -0.45593999997E+02  0.45594000000E+02  0.51100000000E-03 0. -1.
    9900012    2    1    2    0    0  0.35662835259E+02 -0.18107997803E+02 -0.16848912918E+02  0.47787271093E+02  0.20000000220E+02 0.  0.
         12    1    1    2    0    0 -0.35662835259E+02  0.18107997803E+02  0.16848912918E+02  0.43400728907E+02  0.00000000000E+00 0. -1.
         11    1    3    3    0    0  0.12299961158E+02 -0.17278756711E+02 -0.76332815421E+01  0.22541327940E+02  0.51100000000E-03 0. -1.
        -11    1    3    3    0    0  0.13593210944E+02  0.68713316533E+00 -0.56333441630E+01  0.14730312369E+02  0.51100000000E-03 0.  1.
         12    1    3    3    0    0  0.97696631575E+01 -0.15163742575E+01 -0.35822872128E+01  0.10515630783E+02  0.00000000000E+00 0. -1.
</event>
<event>
 7    1  0.1019486E-010  0.4778727E+02  0.7816164E-02  0.1312668E+00
        -11   -1    0    0    0    0  0.00000000000E+00  0.00000000000E+00  0.45593999997E+02  0.45594000000E+02  0.51100000000E-03 0. -1.
         11   -1    0    0    0    0 -0.00000000000E+00 -0.00000000000E+00 -0.45593999997E+02  0.45594000000E+02  0.51100000000E-03 0.  1.
    9900012    2    1    2    0    0 -0.67385840664E+00 -0.25857783789E+02 -0.34850312687E+02  0.47787270029E+02  0.19999995371E+02 0.  0.
         12    1    1    2    0    0  0.67385840664E+00  0.25857783789E+02  0.34850312687E+02  0.43400729971E+02  0.00000000000E+00 0. -1.
         11    1    3    3    0    0  0.75902139476E+00 -0.11949706643E+02 -0.14452548655E+02  0.18768264843E+02  0.51100000000E-03 0. -1.
        -11    1    3    3    0    0 -0.31949905147E+01 -0.16797895063E+02 -0.18258213169E+02  0.25014787453E+02  0.51100000000E-03 0.  1.
         12    1    3    3    0    0  0.17621107133E+01  0.28898179171E+01 -0.21395508635E+01  0.40042177335E+01  0.00000000000E+00 0. -1.
</event>
<event>
 7    1  0.1019486E-010  0.4778727E+02  0.7816164E-02  0.1312668E+00
        -11   -1    0    0    0    0  0.00000000000E+00  0.00000000000E+00  0.45593999997E+02  0.45594000000E+02  0.51100000000E-03 0. -1.
         11   -1    0    0    0    0 -0.00000000000E+00 -0.00000000000E+00 -0.45593999997E+02  0.45594000000E+02  0.51100000000E-03 0.  1.
    9900012    2    1    2    0    0  0.21975066119E+02 -0.21564666312E+02  0.30588967246E+02  0.47787270959E+02  0.19999999612E+02 0.  0.
        -12    1    1    2    0    0 -0.21975066119E+02  0.21564666312E+02 -0.30588967246E+02  0.43400729041E+02  0.00000000000E+00 0.  1.
         11    1    3    3    0    0  0.21085282670E+02 -0.15785072871E+02  0.22575035793E+02  0.34689910812E+02  0.51100000000E-03 0. -1.
        -11    1    3    3    0    0 -0.31521623188E+01 -0.12916551707E+00  0.39263856044E+01  0.50367961236E+01  0.51100000000E-03 0.  1.
         12    1    3    3    0    0  0.40419457677E+01 -0.56504279245E+01  0.40875458485E+01  0.80605640238E+01  0.00000000000E+00 0. -1.
</event>
<event>
 7    1  0.1019486E-010  0.4778727E+02  0.7816164E-02  0.1312668E+00
        -11   -1    0    0    0    0  0.00000000000E+00  0.00000000000E+00  0.45593999997E+02  0.45594000000E+02  0.51100000000E-03 0. -1.
         11   -1    0    0    0    0 -0.00000000000E+00 -0.00000000000E+00 -0.45593999997E+02  0.45594000000E+02  0.51100000000E-03 0.  1.
    9900012    2    1    2    0    0  0.33041709222E+02 -0.21068573118E+02  0.18654330369E+02  0.47787270016E+02  0.19999995313E+02 0.  0.
        -12    1    1    2    0    0 -0.33041709222E+02  0.21068573118E+02 -0.18654330369E+02  0.43400729984E+02  0.00000000000E+00 0.  1.
         11    1    3    3    0    0  0.23908574714E+02 -0.16467217055E+02  0.16787877947E+02  0.33535384724E+02  0.51100000000E-03 0. -1.
        -11    1    3    3    0    0  0.32315072579E+01  0.29207253871E+01 -0.54977650568E+00  0.43903906901E+01  0.51100000000E-03 0.  1.
        -12    1    3    3    0    0  0.59016272509E+01 -0.75220814509E+01  0.24162289284E+01  0.98614946026E+01  0.00000000000E+00 0.  1.
</event>
<event>
 7    1  0.1019486E-010  0.4778727E+02  0.7816164E-02  0.1312668E+00
        -11   -1    0    0    0    0  0.00000000000E+00  0.00000000000E+00  0.45593999997E+02  0.45594000000E+02  0.51100000000E-03 0. -1.
         11   -1    0    0    0    0 -0.00000000000E+00 -0.00000000000E+00 -0.45593999997E+02  0.45594000000E+02  0.51100000000E-03 0.  1.
    9900012    2    1    2    0    0  0.20691280712E+02 -0.33826028975E+02 -0.17643514447E+02  0.47787274939E+02  0.20000017758E+02 0.  0.
         12    1    1    2    0    0 -0.20691280712E+02  0.33826028975E+02  0.17643514447E+02  0.43400725061E+02  0.00000000000E+00 0. -1.
         11    1    3    3    0    0  0.20562389706E-01 -0.55006516880E+01 -0.89234399342E+01  0.10482622397E+02  0.51100000000E-03 0. -1.
        -11    1    3    3    0    0  0.15876289094E+02 -0.26955484458E+02 -0.76343055942E+01  0.32201511144E+02  0.51100000000E-03 0.  1.
        -12    1    3    3    0    0  0.47944292280E+01 -0.13698928293E+01 -0.10857689188E+01  0.51031413983E+01  0.00000000000E+00 0.  1.
</event>
<event>
 7    1  0.1019486E-010  0.4778727E+02  0.7816164E-02  0.1312668E+00
        -11   -1    0    0    0    0  0.00000000000E+00  0.00000000000E+00  0.45593999997E+02  0.45594000000E+02  0.51100000000E-03 0. -1.
         11   -1    0    0    0    0 -0.00000000000E+00 -0.00000000000E+00 -0.45593999997E+02  0.45594000000E+02  0.51100000000E-03 0.  1.
    9900012    2    1    2    0    0  0.36001615329E+02 -0.18260300633E+02 -0.15939512765E+02  0.47787274745E+02  0.20000016871E+02 0.  0.
         12    1    1    2    0    0 -0.36001615329E+02  0.18260300633E+02  0.15939512765E+02  0.43400725255E+02  0.00000000000E+00 0. -1.
         11    1    3    3    0    0  0.30707488480E+02 -0.98932083490E+01 -0.91540949521E+01  0.33535397341E+02  0.51100000000E-03 0. -1.
        -11    1    3    3    0    0  0.23578549509E+01 -0.78846940659E+01 -0.17664848624E+01  0.84171461620E+01  0.51100000000E-03 0.  1.
         12    1    3    3    0    0  0.29362718983E+01 -0.48239821817E+00 -0.50189329501E+01  0.58347312414E+01  0.00000000000E+00 0. -1.
</event>
<event>
 7    1  0.1019486E-010  0.4778728E+02  0.7816164E-02  0.1312668E+00
        -11   -1    0    0    0    0  0.00000000000E+00  0.00000000000E+00  0.45593999997E+02  0.45594000000E+02  0.51100000000E-03 0. -1.
         11   -1    0    0    0    0 -0.00000000000E+00 -0.00000000000E+00 -0.45593999997E+02  0.45594000000E+02  0.51100000000E-03 0.  1.
    9900012    2    1    2    0    0 -0.22401048626E+02 -0.26651919779E+02  0.25913144107E+02  0.47787275986E+02  0.20000022530E+02 0.  0.
        -12    1    1    2    0    0  0.22401048626E+02  0.26651919779E+02 -0.25913144107E+02  0.43400724014E+02  0.00000000000E+00 0.  1.
         11    1    3    3    0    0 -0.15198354964E+02 -0.12101509177E+02  0.23972529180E+02  0.30856420297E+02  0.51100000000E-03 0. -1.
        -11    1    3    3    0    0 -0.12672166765E+01 -0.57165380318E+01 -0.87914338009E+00  0.59209406785E+01  0.51100000000E-03 0.  1.
         12    1    3    3    0    0 -0.59354769863E+01 -0.88338725699E+01  0.28197583062E+01  0.11009915011E+02  0.00000000000E+00 0. -1.
</event>
<event>
 7    1  0.1019486E-010  0.4778727E+02  0.7816164E-02  0.1312668E+00
        -11   -1    0    0    0    0  0.00000000000E+00  0.00000000000E+00  0.45593999997E+02  0.45594000000E+02  0.51100000000E-03 0. -1.
         11   -1    0    0    0    0 -0.00000000000E+00 -0.00000000000E+00 -0.45593999997E+02  0.45594000000E+02  0.51100000000E-03 0.  1.
    9900012    2    1    2    0    0  0.12537520630E+02 -0.29084960347E+02  0.29673205930E+02  0.47787268531E+02  0.19999988538E+02 0.  0.
        -12    1    1    2    0    0 -0.12537520630E+02  0.29084960347E+02 -0.29673205930E+02  0.43400731469E+02  0.00000000000E+00 0.  1.
         11    1    3    3    0    0  0.13185442420E+02 -0.24286349212E+02  0.22138417850E+02  0.35408928182E+02  0.51100000000E-03 0. -1.
        -11    1    3    3    0    0 -0.39447806566E+01  0.27875587782E-01  0.35229603206E+01  0.52889811078E+01  0.51100000000E-03 0.  1.
        -12    1    3    3    0    0  0.32968588664E+01 -0.48264867224E+01  0.40118277594E+01  0.70893592402E+01  0.00000000000E+00 0.  1.
</event>
<event>
 7    1  0.1019486E-010  0.4778727E+02  0.7816164E-02  0.1312668E+00
        -11   -1    0    0    0    0  0.00000000000E+00  0.00000000000E+00  0.45593999997E+02  0.45594000000E+02  0.51100000000E-03 0.  1.
         11   -1    0    0    0    0 -0.00000000000E+00 -0.00000000000E+00 -0.45593999997E+02  0.45594000000E+02  0.51100000000E-03 0. -1.
    9900012    2    1    2    0    0  0.12336574449E+02  0.41505128987E+02 -0.29590836934E+01  0.47787274457E+02  0.20000015560E+02 0.  0.
        -12    1    1    2    0    0 -0.12336574449E+02 -0.41505128987E+02  0.29590836934E+01  0.43400725543E+02  0.00000000000E+00 0.  1.
         11    1    3    3    0    0  0.36037490203E+00  0.17107033971E+02 -0.82970435972E+01  0.19016345971E+02  0.51100000000E-03 0. -1.
        -11    1    3    3    0    0  0.40360388208E+01  0.63868532299E+01  0.50453280734E+01  0.90849787657E+01  0.51100000000E-03 0.  1.
         12    1    3    3    0    0  0.79401607264E+01  0.18011241786E+02  0.29263183051E+00  0.19685949721E+02  0.00000000000E+00 0. -1.
</event>
<event>
 7    1  0.1019486E-010  0.4778728E+02  0.7816164E-02  0.1312668E+00
        -11   -1    0    0    0    0  0.00000000000E+00  0.00000000000E+00  0.45593999997E+02  0.45594000000E+02  0.51100000000E-03 0. -1.
         11   -1    0    0    0    0 -0.00000000000E+00 -0.00000000000E+00 -0.45593999997E+02  0.45594000000E+02  0.51100000000E-03 0.  1.
    9900012    2    1    2    0    0  0.35405788017E+00  0.31611380932E+02 -0.29735806164E+02  0.47787275010E+02  0.20000018080E+02 0.  0.
         12    1    1    2    0    0 -0.35405788017E+00 -0.31611380932E+02  0.29735806164E+02  0.43400724990E+02  0.00000000000E+00 0. -1.
         11    1    3    3    0    0  0.66906029448E+01  0.13098181250E+02 -0.67410857596E+01  0.16179269369E+02  0.51100000000E-03 0. -1.
        -11    1    3    3    0    0 -0.63119130571E+01  0.19147580847E+02 -0.23374625257E+02  0.30868158430E+02  0.51100000000E-03 0.  1.
         12    1    3    3    0    0 -0.24632007570E-01 -0.63438116478E+00  0.37990485241E+00  0.73984721052E+00  0.00000000000E+00 0. -1.
</event>
<event>
 7    1  0.1019486E-010  0.4778727E+02  0.7816164E-02  0.1312668E+00
        -11   -1    0    0    0    0  0.00000000000E+00  0.00000000000E+00  0.45593999997E+02  0.45594000000E+02  0.51100000000E-03 0. -1.
         11   -1    0    0    0    0 -0.00000000000E+00 -0.00000000000E+00 -0.45593999997E+02  0.45594000000E+02  0.51100000000E-03 0.  1.
    9900012    2    1    2    0    0  0.64424010168E+01  0.29293521191E+02  0.31368908401E+02  0.47787270411E+02  0.19999997111E+02 0.  0.
        -12    1    1    2    0    0 -0.64424010168E+01 -0.29293521191E+02 -0.31368908401E+02  0.43400729589E+02  0.00000000000E+00 0.  1.
         11    1    3    3    0    0  0.69922159058E+01  0.17026336320E+02  0.10540124750E+02  0.21210408807E+02  0.51100000000E-03 0. -1.
        -11    1    3    3    0    0 -0.37739496873E+01  0.12588833016E+02  0.17919429008E+02  0.22222226467E+02  0.51100000000E-03 0.  1.
         12    1    3    3    0    0  0.32241347983E+01 -0.32164814582E+00  0.29093546433E+01  0.43546351360E+01  0.00000000000E+00 0. -1.
</event>
<event>
 7    1  0.1019486E-010  0.4778727E+02  0.7816164E-02  0.1312668E+00
        -11   -1    0    0    0    0  0.00000000000E+00  0.00000000000E+00  0.45593999997E+02  0.45594000000E+02  0.51100000000E-03 0. -1.
         11   -1    0    0    0    0 -0.00000000000E+00 -0.00000000000E+00 -0.45593999997E+02  0.45594000000E+02  0.51100000000E-03 0.  1.
    9900012    2    1    2    0    0  0.18833822594E+01  0.16912228858E+01  0.43326851294E+02  0.47787269515E+02  0.19999993025E+02 0.  0.
        -12    1    1    2    0    0 -0.18833822594E+01 -0.16912228858E+01 -0.43326851294E+02  0.43400730485E+02  0.00000000000E+00 0.  1.
         11    1    3    3    0    0  0.31936463238E+01  0.58572453187E+01  0.21029179948E+02  0.22062028672E+02  0.51100000000E-03 0. -1.
        -11    1    3    3    0    0 -0.15054129387E+01 -0.71931838196E+01  0.70676706626E+01  0.10196084074E+02  0.51100000000E-03 0.  1.
        -12    1    3    3    0    0  0.19514887440E+00  0.30271613868E+01  0.15230000684E+02  0.15529156769E+02  0.00000000000E+00 0.  1.
</event>
<event>
 7    1  0.1019486E-010  0.4778727E+02  0.7816164E-02  0.1312668E+00
        -11   -1    0    0    0    0  0.00000000000E+00  0.00000000000E+00  0.45593999997E+02  0.45594000000E+02  0.51100000000E-03 0. -1.
         11   -1    0    0    0    0 -0.00000000000E+00 -0.00000000000E+00 -0.45593999997E+02  0.45594000000E+02  0.51100000000E-03 0.  1.
    9900012    2    1    2    0    0 -0.14657270757E+02 -0.12807125735E+02 -0.38791305583E+02  0.47787269079E+02  0.19999991039E+02 0.  0.
         12    1    1    2    0    0  0.14657270757E+02  0.12807125735E+02  0.38791305583E+02  0.43400730921E+02  0.00000000000E+00 0. -1.
         11    1    3    3    0    0  0.38705802100E+01 -0.37429620042E+01 -0.12426612017E+02  0.13542962830E+02  0.51100000000E-03 0. -1.
        -11    1    3    3    0    0 -0.12617210643E+02 -0.88181455334E+01 -0.15334575615E+02  0.21727929138E+02  0.51100000000E-03 0.  1.
         12    1    3    3    0    0 -0.59106403242E+01 -0.24601819778E+00 -0.11030117951E+02  0.12516377112E+02  0.00000000000E+00 0. -1.
</event>
<event>
 7    1  0.1019486E-010  0.4778727E+02  0.7816164E-02  0.1312668E+00
        -11   -1    0    0    0    0  0.00000000000E+00  0.00000000000E+00  0.45593999997E+02  0.45594000000E+02  0.51100000000E-03 0. -1.
         11   -1    0    0    0    0 -0.00000000000E+00 -0.00000000000E+00 -0.45593999997E+02  0.45594000000E+02  0.51100000000E-03 0.  1.
    9900012    2    1    2    0    0  0.13512657682E+02  0.13541665166E+02 -0.38957089359E+02  0.47787269310E+02  0.19999992093E+02 0.  0.
         12    1    1    2    0    0 -0.13512657682E+02 -0.13541665166E+02  0.38957089359E+02  0.43400730690E+02  0.00000000000E+00 0. -1.
         11    1    3    3    0    0  0.26146624152E+01  0.98472100663E+01 -0.31864137731E+02  0.33453359760E+02  0.51100000000E-03 0. -1.
        -11    1    3    3    0    0  0.63904013810E+01  0.44872518949E+01 -0.37250755389E+01  0.86515228377E+01  0.51100000000E-03 0.  1.
        -12    1    3    3    0    0  0.45075938860E+01 -0.79279679539E+00 -0.33678760887E+01  0.56823867124E+01  0.00000000000E+00 0.  1.
</event>
<event>
 7    1  0.1019486E-010  0.4778727E+02  0.7816164E-02  0.1312668E+00
        -11   -1    0    0    0    0  0.00000000000E+00  0.00000000000E+00  0.45593999997E+02  0.45594000000E+02  0.51100000000E-03 0. -1.
         11   -1    0    0    0    0 -0.00000000000E+00 -0.00000000000E+00 -0.45593999997E+02  0.45594000000E+02  0.51100000000E-03 0.  1.
    9900012    2    1    2    0    0 -0.20497710384E+02 -0.22756730222E+02  0.30750584767E+02  0.47787269996E+02  0.19999995221E+02 0.  0.
        -12    1    1    2    0    0  0.20497710384E+02  0.22756730222E+02 -0.30750584767E+02  0.43400730004E+02  0.00000000000E+00 0.  1.
         11    1    3    3    0    0 -0.94177046912E+01 -0.19076079784E+02  0.20790503745E+02  0.29746176692E+02  0.51100000000E-03 0. -1.
        -11    1    3    3    0    0 -0.56712283232E-01 -0.48160528075E+00 -0.16471438656E+01  0.17170448756E+01  0.51100000000E-03 0.  1.
         12    1    3    3    0    0 -0.11023293409E+02 -0.31990451570E+01  0.11607224887E+02  0.16324048428E+02  0.00000000000E+00 0. -1.
</event>
<event>
 7    1  0.1019486E-010  0.4778727E+02  0.7816164E-02  0.1312668E+00
        -11   -1    0    0    0    0  0.00000000000E+00  0.00000000000E+00  0.45593999997E+02  0.45594000000E+02  0.51100000000E-03 0. -1.
         11   -1    0    0    0    0 -0.00000000000E+00 -0.00000000000E+00 -0.45593999997E+02  0.45594000000E+02  0.51100000000E-03 0.  1.
    9900012    2    1    2    0    0 -0.16465496627E+01  0.13146787640E+02 -0.41328852240E+02  0.47787272143E+02  0.20000005007E+02 0.  0.
         12    1    1    2    0    0  0.16465496627E+01 -0.13146787640E+02  0.41328852240E+02  0.43400727857E+02  0.00000000000E+00 0. -1.
         11    1    3    3    0    0  0.27818767530E+01 -0.18487384129E+01 -0.15773295947E+01  0.36938653061E+01  0.51100000000E-03 0. -1.
        -11    1    3    3    0    0 -0.57938920580E+01  0.16230576989E+02 -0.36207150279E+02  0.40099358425E+02  0.51100000000E-03 0.  1.
        -12    1    3    3    0    0  0.13654656423E+01 -0.12350509353E+01 -0.35443723670E+01  0.39940484110E+01  0.00000000000E+00 0.  1.
</event>
<event>
 7    1  0.1019486E-010  0.4778727E+02  0.7816164E-02  0.1312668E+00
        -11   -1    0    0    0    0  0.00000000000E+00  0.00000000000E+00  0.45593999997E+02  0.45594000000E+02  0.51100000000E-03 0. -1.
         11   -1    0    0    0    0 -0.00000000000E+00 -0.00000000000E+00 -0.45593999997E+02  0.45594000000E+02  0.51100000000E-03 0.  1.
    9900012    2    1    2    0    0  0.76273980511E+01 -0.28337378779E+02 -0.31975598936E+02  0.47787272305E+02  0.20000005749E+02 0.  0.
         12    1    1    2    0    0 -0.76273980511E+01  0.28337378779E+02  0.31975598936E+02  0.43400727695E+02  0.00000000000E+00 0. -1.
         11    1    3    3    0    0 -0.33130112180E+01 -0.14993949026E+02 -0.16354467598E+02  0.22433527618E+02  0.51100000000E-03 0.  1.
        -11    1    3    3    0    0  0.81122054168E+01 -0.25001002672E+01 -0.46854094285E+01  0.96959496618E+01  0.51100000000E-03 0. -1.
         12    1    3    3    0    0  0.28282038523E+01 -0.10843329486E+02 -0.10935721910E+02  0.15657795026E+02  0.00000000000E+00 0. -1.
</event>
<event>
 7    1  0.1019486E-010  0.4778727E+02  0.7816164E-02  0.1312668E+00
        -11   -1    0    0    0    0  0.00000000000E+00  0.00000000000E+00  0.45593999997E+02  0.45594000000E+02  0.51100000000E-03 0. -1.
         11   -1    0    0    0    0 -0.00000000000E+00 -0.00000000000E+00 -0.45593999997E+02  0.45594000000E+02  0.51100000000E-03 0.  1.
    9900012    2    1    2    0    0  0.34889397246E+01  0.21037412317E+02  0.37800501809E+02  0.47787270117E+02  0.19999995770E+02 0.  0.
        -12    1    1    2    0    0 -0.34889397246E+01 -0.21037412317E+02 -0.37800501809E+02  0.43400729883E+02  0.00000000000E+00 0.  1.
         11    1    3    3    0    0 -0.51387485872E+01  0.12810955773E+02  0.11327110996E+02  0.17855832902E+02  0.51100000000E-03 0. -1.
        -11    1    3    3    0    0  0.19241270927E+01  0.31142398592E+00  0.57347930577E+00  0.20317796985E+01  0.51100000000E-03 0.  1.
         12    1    3    3    0    0  0.67035612191E+01  0.79150325577E+01  0.25899911508E+02  0.27899657516E+02  0.00000000000E+00 0. -1.
</event>
<event>
 7    1  0.1019486E-010  0.4778727E+02  0.7816164E-02  0.1312668E+00
        -11   -1    0    0    0    0  0.00000000000E+00  0.00000000000E+00  0.45593999997E+02  0.45594000000E+02  0.51100000000E-03 0. -1.
         11   -1    0    0    0    0 -0.00000000000E+00 -0.00000000000E+00 -0.45593999997E+02  0.45594000000E+02  0.51100000000E-03 0.  1.
    9900012    2    1    2    0    0 -0.16321731972E+02  0.38354467477E+02  0.12089648671E+02  0.47787265962E+02  0.19999976827E+02 0.  0.
        -12    1    1    2    0    0  0.16321731972E+02 -0.38354467477E+02 -0.12089648671E+02  0.43400734038E+02  0.00000000000E+00 0.  1.
         11    1    3    3    0    0 -0.95106755215E+01  0.43362824930E+01  0.35014166957E+01  0.11023439294E+02  0.51100000000E-03 0. -1.
        -11    1    3    3    0    0 -0.18039343769E+01  0.19873813025E+02  0.86738545879E+01  0.21759098719E+02  0.51100000000E-03 0.  1.
         12    1    3    3    0    0 -0.50071220739E+01  0.14144371959E+02 -0.85622612585E-01  0.15004727949E+02  0.00000000000E+00 0. -1.
</event>
<event>
 7    1  0.1019486E-010  0.4778727E+02  0.7816164E-02  0.1312668E+00
        -11   -1    0    0    0    0  0.00000000000E+00  0.00000000000E+00  0.45593999997E+02  0.45594000000E+02  0.51100000000E-03 0. -1.
         11   -1    0    0    0    0 -0.00000000000E+00 -0.00000000000E+00 -0.45593999997E+02  0.45594000000E+02  0.51100000000E-03 0.  1.
    9900012    2    1    2    0    0  0.30161957561E+02  0.23222478426E+02 -0.20846973184E+02  0.47787268680E+02  0.19999989221E+02 0.  0.
         12    1    1    2    0    0 -0.30161957561E+02 -0.23222478426E+02  0.20846973184E+02  0.43400731320E+02  0.00000000000E+00 0. -1.
         11    1    3    3    0    0  0.76535414415E+01  0.92738573963E+01  0.11418701985E+00  0.12024731454E+02  0.51100000000E-03 0. -1.
        -11    1    3    3    0    0  0.21112170680E+02  0.11341365172E+02 -0.22093503282E+02  0.32595600966E+02  0.51100000000E-03 0.  1.
        -12    1    3    3    0    0  0.13962454403E+01  0.26072558569E+01  0.11323430782E+01  0.31669362608E+01  0.00000000000E+00 0.  1.
</event>
<event>
 7    1  0.1019486E-010  0.4778727E+02  0.7816164E-02  0.1312668E+00
        -11   -1    0    0    0    0  0.00000000000E+00  0.00000000000E+00  0.45593999997E+02  0.45594000000E+02  0.51100000000E-03 0. -1.
         11   -1    0    0    0    0 -0.00000000000E+00 -0.00000000000E+00 -0.45593999997E+02  0.45594000000E+02  0.51100000000E-03 0.  1.
    9900012    2    1    2    0    0 -0.26336930414E+02 -0.15815303096E+02 -0.30657222790E+02  0.47787273913E+02  0.20000013080E+02 0.  0.
         12    1    1    2    0    0  0.26336930414E+02  0.15815303096E+02  0.30657222790E+02  0.43400726087E+02  0.00000000000E+00 0. -1.
         11    1    3    3    0    0 -0.15029761108E+02 -0.95937002348E+01 -0.59157219120E+01  0.18786393192E+02  0.51100000000E-03 0. -1.
        -11    1    3    3    0    0 -0.19844852432E+01  0.47065258552E+00 -0.10572444042E+02  0.10767370562E+02  0.51100000000E-03 0.  1.
         12    1    3    3    0    0 -0.93226840626E+01 -0.66922554466E+01 -0.14169056836E+02  0.18233510159E+02  0.00000000000E+00 0. -1.
</event>
<event>
 7    1  0.1019486E-010  0.4778728E+02  0.7816164E-02  0.1312668E+00
        -11   -1    0    0    0    0  0.00000000000E+00  0.00000000000E+00  0.45593999997E+02  0.45594000000E+02  0.51100000000E-03 0. -1.
         11   -1    0    0    0    0 -0.00000000000E+00 -0.00000000000E+00 -0.45593999997E+02  0.45594000000E+02  0.51100000000E-03 0.  1.
    9900012    2    1    2    0    0 -0.65802122693E+01 -0.36502197185E+02  0.22536928339E+02  0.47787277289E+02  0.20000028473E+02 0.  0.
        -12    1    1    2    0    0  0.65802122693E+01  0.36502197185E+02 -0.22536928339E+02  0.43400722711E+02  0.00000000000E+00 0.  1.
         11    1    3    3    0    0 -0.47493990238E+01 -0.10136685226E+02  0.72561490614E+01  0.13340197822E+02  0.51100000000E-03 0. -1.
        -11    1    3    3    0    0 -0.30916483524E+01 -0.24509862086E+02  0.67264456515E+01  0.25603450947E+02  0.51100000000E-03 0.  1.
        -12    1    3    3    0    0  0.12608351069E+01 -0.18556498726E+01  0.85543336266E+01  0.88436285207E+01  0.00000000000E+00 0.  1.
</event>
<event>
 7    1  0.1019486E-010  0.4778727E+02  0.7816164E-02  0.1312668E+00
        -11   -1    0    0    0    0  0.00000000000E+00  0.00000000000E+00  0.45593999997E+02  0.45594000000E+02  0.51100000000E-03 0. -1.
         11   -1    0    0    0    0 -0.00000000000E+00 -0.00000000000E+00 -0.45593999997E+02  0.45594000000E+02  0.51100000000E-03 0.  1.
    9900012    2    1    2    0    0  0.13195096827E+02 -0.40469124905E+01  0.41147724308E+02  0.47787270782E+02  0.19999998802E+02 0.  0.
        -12    1    1    2    0    0 -0.13195096827E+02  0.40469124905E+01 -0.41147724308E+02  0.43400729218E+02  0.00000000000E+00 0.  1.
         11    1    3    3    0    0  0.56329614538E+01  0.35106294090E+01  0.11350835880E+02  0.13149001826E+02  0.51100000000E-03 0. -1.
        -11    1    3    3    0    0  0.32761493592E+01 -0.50383827594E+01  0.28984279179E+02  0.29600792139E+02  0.51100000000E-03 0.  1.
        -12    1    3    3    0    0  0.42859860135E+01 -0.25191591401E+01  0.81260924815E+00  0.50374768160E+01  0.00000000000E+00 0.  1.
</event>
<event>
 7    1  0.1019486E-010  0.4778727E+02  0.7816164E-02  0.1312668E+00
        -11   -1    0    0    0    0  0.00000000000E+00  0.00000000000E+00  0.45593999997E+02  0.45594000000E+02  0.51100000000E-03 0. -1.
         11   -1    0    0    0    0 -0.00000000000E+00 -0.00000000000E+00 -0.45593999997E+02  0.45594000000E+02  0.51100000000E-03 0.  1.
    9900012    2    1    2    0    0 -0.24778715306E+02  0.32827189983E+02 -0.13856914863E+02  0.47787271620E+02  0.20000002624E+02 0.  0.
         12    1    1    2    0    0  0.24778715306E+02 -0.32827189983E+02  0.13856914863E+02  0.43400728380E+02  0.00000000000E+00 0. -1.
         11    1    3    3    0    0 -0.17630321259E+02  0.82433337727E+01 -0.82960913077E+01  0.21156698954E+02  0.51100000000E-03 0. -1.
        -11    1    3    3    0    0 -0.26821108017E+01  0.17183921712E+02 -0.33988182163E+01  0.17720972018E+02  0.51100000000E-03 0.  1.
         12    1    3    3    0    0 -0.44662832451E+01  0.73999344988E+01 -0.21620053393E+01  0.89096006476E+01  0.00000000000E+00 0. -1.
</event>
<event>
 7    1  0.1019486E-010  0.4778726E+02  0.7816164E-02  0.1312668E+00
        -11   -1    0    0    0    0  0.00000000000E+00  0.00000000000E+00  0.45593999997E+02  0.45594000000E+02  0.51100000000E-03 0. -1.
         11   -1    0    0    0    0 -0.00000000000E+00 -0.00000000000E+00 -0.45593999997E+02  0.45594000000E+02  0.51100000000E-03 0.  1.
    9900012    2    1    2    0    0  0.62576302952E+01  0.34103463445E+01  0.42811628141E+02  0.47787263794E+02  0.19999966944E+02 0.  0.
        -12    1    1    2    0    0 -0.62576302952E+01 -0.34103463445E+01 -0.42811628141E+02  0.43400736206E+02  0.00000000000E+00 0.  1.
         11    1    3    3    0    0  0.38692217540E+01  0.82160834625E+00  0.36191200712E+01  0.53613382291E+01  0.51100000000E-03 0.  1.
        -11    1    3    3    0    0  0.84375064221E+01 -0.10005903876E+01  0.27480815488E+02  0.28764351477E+02  0.51100000000E-03 0. -1.
        -12    1    3    3    0    0 -0.60490978809E+01  0.35893283859E+01  0.11711692582E+02  0.13661574088E+02  0.00000000000E+00 0.  1.
</event>
<event>
 7    1  0.1019486E-010  0.4778727E+02  0.7816164E-02  0.1312668E+00
        -11   -1    0    0    0    0  0.00000000000E+00  0.00000000000E+00  0.45593999997E+02  0.45594000000E+02  0.51100000000E-03 0. -1.
         11   -1    0    0    0    0 -0.00000000000E+00 -0.00000000000E+00 -0.45593999997E+02  0.45594000000E+02  0.51100000000E-03 0.  1.
    9900012    2    1    2    0    0  0.59574761090E+00 -0.27445815134E+02  0.33615407277E+02  0.47787270859E+02  0.19999999155E+02 0.  0.
        -12    1    1    2    0    0 -0.59574761090E+00  0.27445815134E+02 -0.33615407277E+02  0.43400729141E+02  0.00000000000E+00 0.  1.
         11    1    3    3    0    0 -0.22801919079E+01 -0.14804180447E+02  0.24977538087E+02  0.29124567688E+02  0.51100000000E-03 0. -1.
        -11    1    3    3    0    0  0.29957729997E+01 -0.28130473743E+00 -0.79674824024E+00  0.31126509988E+01  0.51100000000E-03 0.  1.
        -12    1    3    3    0    0 -0.11983348085E+00 -0.12360329949E+02  0.94346174302E+01  0.15550052173E+02  0.00000000000E+00 0.  1.
</event>
<event>
 7    1  0.1019486E-010  0.4778727E+02  0.7816164E-02  0.1312668E+00
        -11   -1    0    0    0    0  0.00000000000E+00  0.00000000000E+00  0.45593999997E+02  0.45594000000E+02  0.51100000000E-03 0. -1.
         11   -1    0    0    0    0 -0.00000000000E+00 -0.00000000000E+00 -0.45593999997E+02  0.45594000000E+02  0.51100000000E-03 0.  1.
    9900012    2    1    2    0    0 -0.40420883775E+02  0.27440807023E+01 -0.15564227577E+02  0.47787274153E+02  0.20000014171E+02 0.  0.
         12    1    1    2    0    0  0.40420883775E+02 -0.27440807023E+01  0.15564227577E+02  0.43400725847E+02  0.00000000000E+00 0. -1.
         11    1    3    3    0    0  0.21543117193E+01 -0.35760871633E+00 -0.12909569838E+01  0.25368313253E+01  0.51100000000E-03 0. -1.
        -11    1    3    3    0    0 -0.33542387267E+02  0.41078976540E+01 -0.12204203042E+02  0.35929224023E+02  0.51100000000E-03 0.  1.
         12    1    3    3    0    0 -0.90328082267E+01 -0.10062082353E+01 -0.20690675512E+01  0.93212188047E+01  0.00000000000E+00 0. -1.
</event>
<event>
 7    1  0.1019486E-010  0.4778728E+02  0.7816164E-02  0.1312668E+00
        -11   -1    0    0    0    0  0.00000000000E+00  0.00000000000E+00  0.45593999997E+02  0.45594000000E+02  0.51100000000E-03 0. -1.
         11   -1    0    0    0    0 -0.00000000000E+00 -0.00000000000E+00 -0.45593999997E+02  0.45594000000E+02  0.51100000000E-03 0.  1.
    9900012    2    1    2    0    0  0.11053821646E+02 -0.15528075082E+02  0.38991214268E+02  0.47787275595E+02  0.20000020749E+02 0.  0.
        -12    1    1    2    0    0 -0.11053821646E+02  0.15528075082E+02 -0.38991214268E+02  0.43400724405E+02  0.00000000000E+00 0.  1.
         11    1    3    3    0    0  0.10959925330E+00 -0.10721540987E+02  0.11967378800E+02  0.16068030642E+02  0.51100000000E-03 0. -1.
        -11    1    3    3    0    0  0.87845120853E+01 -0.24504628119E+00  0.24595868205E+02  0.26118660633E+02  0.51100000000E-03 0.  1.
        -12    1    3    3    0    0  0.21597103075E+01 -0.45614878138E+01  0.24279672634E+01  0.56005843195E+01  0.00000000000E+00 0.  1.
</event>
<event>
 7    1  0.1019486E-010  0.4778728E+02  0.7816164E-02  0.1312668E+00
        -11   -1    0    0    0    0  0.00000000000E+00  0.00000000000E+00  0.45593999997E+02  0.45594000000E+02  0.51100000000E-03 0. -1.
         11   -1    0    0    0    0 -0.00000000000E+00 -0.00000000000E+00 -0.45593999997E+02  0.45594000000E+02  0.51100000000E-03 0.  1.
    9900012    2    1    2    0    0  0.32356833714E+02 -0.16793489404E+02  0.23550713673E+02  0.47787284697E+02  0.20000062246E+02 0.  0.
        -12    1    1    2    0    0 -0.32356833714E+02  0.16793489404E+02 -0.23550713673E+02  0.43400715303E+02  0.00000000000E+00 0.  1.
         11    1    3    3    0    0  0.18858421016E+02 -0.63960255505E+01  0.17035287453E+02  0.26205919272E+02  0.51100000000E-03 0. -1.
        -11    1    3    3    0    0  0.85992405287E+01 -0.12551539486E+02  0.45577495374E+01  0.15882731573E+02  0.51100000000E-03 0.  1.
        -12    1    3    3    0    0  0.48991721691E+01  0.21540756322E+01  0.19576766828E+01  0.56986338509E+01  0.00000000000E+00 0.  1.
</event>
<event>
 7    1  0.1019486E-010  0.4778727E+02  0.7816164E-02  0.1312668E+00
        -11   -1    0    0    0    0  0.00000000000E+00  0.00000000000E+00  0.45593999997E+02  0.45594000000E+02  0.51100000000E-03 0. -1.
         11   -1    0    0    0    0 -0.00000000000E+00 -0.00000000000E+00 -0.45593999997E+02  0.45594000000E+02  0.51100000000E-03 0.  1.
    9900012    2    1    2    0    0 -0.12355227997E+02 -0.22222801278E+02  0.35172695527E+02  0.47787273438E+02  0.20000010912E+02 0.  0.
        -12    1    1    2    0    0  0.12355227997E+02  0.22222801278E+02 -0.35172695527E+02  0.43400726562E+02  0.00000000000E+00 0.  1.
         11    1    3    3    0    0 -0.14061051450E+02 -0.19192278306E+02  0.31970749069E+02  0.39852045252E+02  0.51100000000E-03 0. -1.
        -11    1    3    3    0    0 -0.49559007146E+00 -0.21817437692E+01 -0.14868191527E+01  0.26863072883E+01  0.51100000000E-03 0.  1.
         12    1    3    3    0    0  0.22014135241E+01 -0.84877920280E+00  0.46887656105E+01  0.52489208976E+01  0.00000000000E+00 0. -1.
</event>
<event>
 7    1  0.1019486E-010  0.4778727E+02  0.7816164E-02  0.1312668E+00
        -11   -1    0    0    0    0  0.00000000000E+00  0.00000000000E+00  0.45593999997E+02  0.45594000000E+02  0.51100000000E-03 0. -1.
         11   -1    0    0    0    0 -0.00000000000E+00 -0.00000000000E+00 -0.45593999997E+02  0.45594000000E+02  0.51100000000E-03 0.  1.
    9900012    2    1    2    0    0  0.11474853944E+02  0.28167300927E+02  0.30960528117E+02  0.47787269409E+02  0.19999992543E+02 0.  0.
        -12    1    1    2    0    0 -0.11474853944E+02 -0.28167300927E+02 -0.30960528117E+02  0.43400730591E+02  0.00000000000E+00 0.  1.
         11    1    3    3    0    0  0.42633273191E+01  0.22132769743E+02  0.18202647083E+02  0.28971914286E+02  0.51100000000E-03 0. -1.
        -11    1    3    3    0    0  0.62338678678E+01  0.50887199718E+00  0.18069072216E+01  0.65103742804E+01  0.51100000000E-03 0.  1.
        -12    1    3    3    0    0  0.97765875758E+00  0.55256591875E+01  0.10950973812E+02  0.12304980842E+02  0.00000000000E+00 0.  1.
</event>
<event>
 7    1  0.1019486E-010  0.4778727E+02  0.7816164E-02  0.1312668E+00
        -11   -1    0    0    0    0  0.00000000000E+00  0.00000000000E+00  0.45593999997E+02  0.45594000000E+02  0.51100000000E-03 0. -1.
         11   -1    0    0    0    0 -0.00000000000E+00 -0.00000000000E+00 -0.45593999997E+02  0.45594000000E+02  0.51100000000E-03 0.  1.
    9900012    2    1    2    0    0 -0.12090965930E+02  0.97855567136E+01 -0.40517583486E+02  0.47787272485E+02  0.20000006566E+02 0.  0.
         12    1    1    2    0    0  0.12090965930E+02 -0.97855567136E+01  0.40517583486E+02  0.43400727515E+02  0.00000000000E+00 0. -1.
         11    1    3    3    0    0 -0.76109164528E+01 -0.17743269505E+01 -0.68969610533E+01  0.10423164462E+02  0.51100000000E-03 0. -1.
        -11    1    3    3    0    0 -0.53410311543E+01  0.13136538322E+02 -0.26917592124E+02  0.30424529888E+02  0.51100000000E-03 0.  1.
        -12    1    3    3    0    0  0.86098167730E+00 -0.15766546582E+01 -0.67030303088E+01  0.69395781342E+01  0.00000000000E+00 0.  1.
</event>
<event>
 7    1  0.1019486E-010  0.4778727E+02  0.7816164E-02  0.1312668E+00
        -11   -1    0    0    0    0  0.00000000000E+00  0.00000000000E+00  0.45593999997E+02  0.45594000000E+02  0.51100000000E-03 0. -1.
         11   -1    0    0    0    0 -0.00000000000E+00 -0.00000000000E+00 -0.45593999997E+02  0.45594000000E+02  0.51100000000E-03 0.  1.
    9900012    2    1    2    0    0 -0.18777073669E+02  0.26038914837E+02  0.29206508222E+02  0.47787266089E+02  0.19999977406E+02 0.  0.
        -12    1    1    2    0    0  0.18777073669E+02 -0.26038914837E+02 -0.29206508222E+02  0.43400733911E+02  0.00000000000E+00 0.  1.
         11    1    3    3    0    0 -0.14068139716E+02  0.11076424988E+02  0.19623690204E+02  0.26564806851E+02  0.51100000000E-03 0. -1.
        -11    1    3    3    0    0  0.31999227248E+01  0.20718876762E+01  0.19697698900E+01  0.42909460108E+01  0.51100000000E-03 0.  1.
        -12    1    3    3    0    0 -0.79088566787E+01  0.12890602173E+02  0.76130481281E+01  0.16931513227E+02  0.00000000000E+00 0.  1.
</event>
<event>
 7    1  0.1019486E-010  0.4778725E+02  0.7816164E-02  0.1312668E+00
        -11   -1    0    0    0    0  0.00000000000E+00  0.00000000000E+00  0.45593999997E+02  0.45594000000E+02  0.51100000000E-03 0. -1.
         11   -1    0    0    0    0 -0.00000000000E+00 -0.00000000000E+00 -0.45593999997E+02  0.45594000000E+02  0.51100000000E-03 0.  1.
    9900012    2    1    2    0    0 -0.22599130181E+02 -0.22492445210E+02  0.29444767960E+02  0.47787249584E+02  0.19999902153E+02 0.  0.
        -12    1    1    2    0    0  0.22599130181E+02  0.22492445210E+02 -0.29444767960E+02  0.43400750416E+02  0.00000000000E+00 0.  1.
         11    1    3    3    0    0  0.92006836849E+00 -0.58226777113E+01  0.11282030413E+02  0.12729269894E+02  0.51100000000E-03 0. -1.
        -11    1    3    3    0    0 -0.87072437507E-01 -0.94457642706E+00  0.27385772848E+01  0.28982084193E+01  0.51100000000E-03 0.  1.
         12    1    3    3    0    0 -0.23432126112E+02 -0.15725191072E+02  0.15424160262E+02  0.32159771270E+02  0.00000000000E+00 0. -1.
</event>
<event>
 7    1  0.1019486E-010  0.4778727E+02  0.7816164E-02  0.1312668E+00
        -11   -1    0    0    0    0  0.00000000000E+00  0.00000000000E+00  0.45593999997E+02  0.45594000000E+02  0.51100000000E-03 0. -1.
         11   -1    0    0    0    0 -0.00000000000E+00 -0.00000000000E+00 -0.45593999997E+02  0.45594000000E+02  0.51100000000E-03 0.  1.
    9900012    2    1    2    0    0 -0.22041560043E+02  0.31608038217E+01  0.37253214215E+02  0.47787273978E+02  0.20000013375E+02 0.  0.
        -12    1    1    2    0    0  0.22041560043E+02 -0.31608038217E+01 -0.37253214215E+02  0.43400726022E+02  0.00000000000E+00 0.  1.
         11    1    3    3    0    0 -0.11890644395E+02  0.73412511188E+00  0.29949684868E+02  0.32232126640E+02  0.51100000000E-03 0. -1.
        -11    1    3    3    0    0 -0.25943357498E+01 -0.32849533464E+01  0.15009450961E+01  0.44468340325E+01  0.51100000000E-03 0.  1.
         12    1    3    3    0    0 -0.75565798977E+01  0.57116320562E+01  0.58025842506E+01  0.11108313305E+02  0.00000000000E+00 0. -1.
</event>
<event>
 7    1  0.1019486E-010  0.4778728E+02  0.7816164E-02  0.1312668E+00
        -11   -1    0    0    0    0  0.00000000000E+00  0.00000000000E+00  0.45593999997E+02  0.45594000000E+02  0.51100000000E-03 0. -1.
         11   -1    0    0    0    0 -0.00000000000E+00 -0.00000000000E+00 -0.45593999997E+02  0.45594000000E+02  0.51100000000E-03 0.  1.
    9900012    2    1    2    0    0  0.10263362640E+02 -0.32993148564E+02 -0.26262867681E+02  0.47787277843E+02  0.20000030999E+02 0.  0.
         12    1    1    2    0    0 -0.10263362640E+02  0.32993148564E+02  0.26262867681E+02  0.43400722157E+02  0.00000000000E+00 0. -1.
         11    1    3    3    0    0  0.65542975346E+01 -0.65943094396E+01 -0.39382669682E+01  0.10097211503E+02  0.51100000000E-03 0. -1.
        -11    1    3    3    0    0  0.90524491884E+01 -0.20078598222E+02 -0.17310264396E+02  0.28013250376E+02  0.51100000000E-03 0.  1.
        -12    1    3    3    0    0 -0.53433840830E+01 -0.63202409024E+01 -0.50143363170E+01  0.96768159651E+01  0.00000000000E+00 0.  1.
</event>
<event>
 7    1  0.1019486E-010  0.4778727E+02  0.7816164E-02  0.1312668E+00
        -11   -1    0    0    0    0  0.00000000000E+00  0.00000000000E+00  0.45593999997E+02  0.45594000000E+02  0.51100000000E-03 0. -1.
         11   -1    0    0    0    0 -0.00000000000E+00 -0.00000000000E+00 -0.45593999997E+02  0.45594000000E+02  0.51100000000E-03 0.  1.
    9900012    2    1    2    0    0 -0.99267629975E+01  0.21987436205E+02 -0.36078182048E+02  0.47787271960E+02  0.20000004174E+02 0.  0.
         12    1    1    2    0    0  0.99267629975E+01 -0.21987436205E+02  0.36078182048E+02  0.43400728040E+02  0.00000000000E+00 0. -1.
         11    1    3    3    0    0 -0.45521416304E+01  0.28527427163E+01 -0.12555729404E+01  0.55169373840E+01  0.51100000000E-03 0. -1.
        -11    1    3    3    0    0 -0.23092641308E+01  0.13550092012E+02 -0.32836441416E+02  0.35597325454E+02  0.51100000000E-03 0.  1.
        -12    1    3    3    0    0 -0.30653572363E+01  0.55846014769E+01 -0.19861676921E+01  0.66730091221E+01  0.00000000000E+00 0.  1.
</event>
<event>
 7    1  0.1019486E-010  0.4778727E+02  0.7816164E-02  0.1312668E+00
        -11   -1    0    0    0    0  0.00000000000E+00  0.00000000000E+00  0.45593999997E+02  0.45594000000E+02  0.51100000000E-03 0. -1.
         11   -1    0    0    0    0 -0.00000000000E+00 -0.00000000000E+00 -0.45593999997E+02  0.45594000000E+02  0.51100000000E-03 0.  1.
    9900012    2    1    2    0    0  0.14223465807E+02  0.24439626679E+02  0.32924468178E+02  0.47787274930E+02  0.20000017716E+02 0.  0.
        -12    1    1    2    0    0 -0.14223465807E+02 -0.24439626679E+02 -0.32924468178E+02  0.43400725070E+02  0.00000000000E+00 0.  1.
         11    1    3    3    0    0  0.53951566420E+01  0.11731400132E+02  0.11472903525E+02  0.17273128836E+02  0.51100000000E-03 0. -1.
        -11    1    3    3    0    0  0.84151396616E+01  0.57787342612E+01  0.27594362178E+01  0.10574631610E+02  0.51100000000E-03 0.  1.
        -12    1    3    3    0    0  0.41316950338E+00  0.69294922858E+01  0.18692128436E+02  0.19939514484E+02  0.00000000000E+00 0.  1.
</event>
<event>
 7    1  0.1019486E-010  0.4778727E+02  0.7816164E-02  0.1312668E+00
        -11   -1    0    0    0    0  0.00000000000E+00  0.00000000000E+00  0.45593999997E+02  0.45594000000E+02  0.51100000000E-03 0. -1.
         11   -1    0    0    0    0 -0.00000000000E+00 -0.00000000000E+00 -0.45593999997E+02  0.45594000000E+02  0.51100000000E-03 0.  1.
    9900012    2    1    2    0    0 -0.26170227810E+02  0.44844235224E+01  0.34331213124E+02  0.47787273364E+02  0.20000010575E+02 0.  0.
        -12    1    1    2    0    0  0.26170227810E+02 -0.44844235224E+01 -0.34331213124E+02  0.43400726636E+02  0.00000000000E+00 0.  1.
         11    1    3    3    0    0 -0.18731537195E+02  0.10628413905E+02  0.30152559995E+02  0.37054156883E+02  0.51100000000E-03 0. -1.
        -11    1    3    3    0    0 -0.37464898534E+01 -0.43867320302E+01  0.28438194916E+01  0.64317115676E+01  0.51100000000E-03 0.  1.
         12    1    3    3    0    0 -0.36922007620E+01 -0.17572583522E+01  0.13348336375E+01  0.43014049127E+01  0.00000000000E+00 0. -1.
</event>
<event>
 7    1  0.1019486E-010  0.4778727E+02  0.7816164E-02  0.1312668E+00
        -11   -1    0    0    0    0  0.00000000000E+00  0.00000000000E+00  0.45593999997E+02  0.45594000000E+02  0.51100000000E-03 0. -1.
         11   -1    0    0    0    0 -0.00000000000E+00 -0.00000000000E+00 -0.45593999997E+02  0.45594000000E+02  0.51100000000E-03 0.  1.
    9900012    2    1    2    0    0 -0.67477657775E+01 -0.41432871357E+02 -0.11018537361E+02  0.47787270312E+02  0.19999996661E+02 0.  0.
         12    1    1    2    0    0  0.67477657775E+01  0.41432871357E+02  0.11018537361E+02  0.43400729688E+02  0.00000000000E+00 0. -1.
         11    1    3    3    0    0 -0.55794268902E+01 -0.26819153536E+02 -0.71516789737E+00  0.27402709103E+02  0.51100000000E-03 0. -1.
        -11    1    3    3    0    0 -0.17520425080E+01 -0.52951868735E+00 -0.49985895840E+01  0.53231514237E+01  0.51100000000E-03 0.  1.
        -12    1    3    3    0    0  0.58370362061E+00 -0.14084199134E+02 -0.53047798798E+01  0.15061409786E+02  0.00000000000E+00 0.  1.
</event>
<event>
 7    1  0.1019486E-010  0.4778727E+02  0.7816164E-02  0.1312668E+00
        -11   -1    0    0    0    0  0.00000000000E+00  0.00000000000E+00  0.45593999997E+02  0.45594000000E+02  0.51100000000E-03 0. -1.
         11   -1    0    0    0    0 -0.00000000000E+00 -0.00000000000E+00 -0.45593999997E+02  0.45594000000E+02  0.51100000000E-03 0.  1.
    9900012    2    1    2    0    0 -0.19371964433E+01  0.17605858809E+02  0.39622021419E+02  0.47787267567E+02  0.19999984144E+02 0.  0.
        -12    1    1    2    0    0  0.19371964433E+01 -0.17605858809E+02 -0.39622021419E+02  0.43400732433E+02  0.00000000000E+00 0.  1.
         11    1    3    3    0    0 -0.21643600343E+01  0.14369426643E+02  0.37258662423E+02  0.39992159259E+02  0.51100000000E-03 0. -1.
        -11    1    3    3    0    0  0.51427338922E+00  0.29242912619E+00 -0.22436004037E+01  0.23202876859E+01  0.51100000000E-03 0.  1.
        -12    1    3    3    0    0 -0.28710979823E+00  0.29440030392E+01  0.46069593992E+01  0.54748206214E+01  0.00000000000E+00 0.  1.
</event>
<event>
 7    1  0.1019486E-010  0.4778727E+02  0.7816164E-02  0.1312668E+00
        -11   -1    0    0    0    0  0.00000000000E+00  0.00000000000E+00  0.45593999997E+02  0.45594000000E+02  0.51100000000E-03 0. -1.
         11   -1    0    0    0    0 -0.00000000000E+00 -0.00000000000E+00 -0.45593999997E+02  0.45594000000E+02  0.51100000000E-03 0.  1.
    9900012    2    1    2    0    0 -0.79787324226E+00  0.41616723221E+02 -0.12289638134E+02  0.47787268913E+02  0.19999990284E+02 0.  0.
         12    1    1    2    0    0  0.79787324226E+00 -0.41616723221E+02  0.12289638134E+02  0.43400731087E+02  0.00000000000E+00 0. -1.
         11    1    3    3    0    0  0.17957223974E+01  0.22352236991E+01 -0.77582465463E+00  0.29703111065E+01  0.51100000000E-03 0. -1.
        -11    1    3    3    0    0  0.52378354934E+01  0.13010985503E+02 -0.10077453869E+02  0.17270661283E+02  0.51100000000E-03 0.  1.
        -12    1    3    3    0    0 -0.78314311331E+01  0.26370514019E+02 -0.14363596096E+01  0.27546296523E+02  0.00000000000E+00 0.  1.
</event>
<event>
 7    1  0.1019486E-010  0.4778727E+02  0.7816164E-02  0.1312668E+00
        -11   -1    0    0    0    0  0.00000000000E+00  0.00000000000E+00  0.45593999997E+02  0.45594000000E+02  0.51100000000E-03 0. -1.
         11   -1    0    0    0    0 -0.00000000000E+00 -0.00000000000E+00 -0.45593999997E+02  0.45594000000E+02  0.51100000000E-03 0.  1.
    9900012    2    1    2    0    0  0.30620250344E+02  0.10675652592E+02  0.28845342954E+02  0.47787273053E+02  0.20000009156E+02 0.  0.
        -12    1    1    2    0    0 -0.30620250344E+02 -0.10675652592E+02 -0.28845342954E+02  0.43400726947E+02  0.00000000000E+00 0.  1.
         11    1    3    3    0    0  0.18016665857E+02  0.56131442182E+01  0.25727208115E+02  0.31906063284E+02  0.51100000000E-03 0. -1.
        -11    1    3    3    0    0  0.36366586460E+01  0.54914253432E+01  0.15788380721E+01  0.67730176677E+01  0.51100000000E-03 0.  1.
         12    1    3    3    0    0  0.89669258415E+01 -0.42891696905E+00  0.15392967666E+01  0.91081921010E+01  0.00000000000E+00 0. -1.
</event>
<event>
 7    1  0.1019486E-010  0.4778727E+02  0.7816164E-02  0.1312668E+00
        -11   -1    0    0    0    0  0.00000000000E+00  0.00000000000E+00  0.45593999997E+02  0.45594000000E+02  0.51100000000E-03 0. -1.
         11   -1    0    0    0    0 -0.00000000000E+00 -0.00000000000E+00 -0.45593999997E+02  0.45594000000E+02  0.51100000000E-03 0.  1.
    9900012    2    1    2    0    0  0.11767930070E+02  0.30099182102E+02  0.28968577884E+02  0.47787269062E+02  0.19999990963E+02 0.  0.
        -12    1    1    2    0    0 -0.11767930070E+02 -0.30099182102E+02 -0.28968577884E+02  0.43400730938E+02  0.00000000000E+00 0.  1.
         11    1    3    3    0    0  0.10788644647E+02  0.16106419103E+02  0.15842344314E+02  0.25035803627E+02  0.51100000000E-03 0. -1.
        -11    1    3    3    0    0 -0.15797009897E+01  0.11628616500E+02  0.31011315223E+01  0.12138253330E+02  0.51100000000E-03 0.  1.
         12    1    3    3    0    0  0.25589864133E+01  0.23641464984E+01  0.10025102047E+02  0.10613212105E+02  0.00000000000E+00 0. -1.
</event>
<event>
 7    1  0.1019486E-010  0.4778727E+02  0.7816164E-02  0.1312668E+00
        -11   -1    0    0    0    0  0.00000000000E+00  0.00000000000E+00  0.45593999997E+02  0.45594000000E+02  0.51100000000E-03 0. -1.
         11   -1    0    0    0    0 -0.00000000000E+00 -0.00000000000E+00 -0.45593999997E+02  0.45594000000E+02  0.51100000000E-03 0.  1.
    9900012    2    1    2    0    0 -0.11388934511E+02 -0.29507180026E+02 -0.29719388988E+02  0.47787267469E+02  0.19999983700E+02 0.  0.
         12    1    1    2    0    0  0.11388934511E+02  0.29507180026E+02  0.29719388988E+02  0.43400732531E+02  0.00000000000E+00 0. -1.
         11    1    3    3    0    0 -0.80240353589E+00 -0.75769288662E+00  0.16656877065E+01  0.19981155476E+01  0.51100000000E-03 0. -1.
        -11    1    3    3    0    0 -0.12592522947E+02 -0.28188286202E+02 -0.27337365892E+02  0.41236909285E+02  0.51100000000E-03 0.  1.
        -12    1    3    3    0    0  0.20059919720E+01 -0.56120093693E+00 -0.40477108024E+01  0.45522426367E+01  0.00000000000E+00 0.  1.
</event>
<event>
 7    1  0.1019486E-010  0.4778727E+02  0.7816164E-02  0.1312668E+00
        -11   -1    0    0    0    0  0.00000000000E+00  0.00000000000E+00  0.45593999997E+02  0.45594000000E+02  0.51100000000E-03 0. -1.
         11   -1    0    0    0    0 -0.00000000000E+00 -0.00000000000E+00 -0.45593999997E+02  0.45594000000E+02  0.51100000000E-03 0.  1.
    9900012    2    1    2    0    0  0.92002888609E+01 -0.75478350406E+01 -0.41737370988E+02  0.47787271136E+02  0.20000000420E+02 0.  0.
         12    1    1    2    0    0 -0.92002888609E+01  0.75478350406E+01  0.41737370988E+02  0.43400728864E+02  0.00000000000E+00 0. -1.
         11    1    3    3    0    0  0.10064561332E+02 -0.25042741839E+01 -0.29514446108E+02  0.31283690852E+02  0.51100000000E-03 0. -1.
        -11    1    3    3    0    0  0.39977579572E+01 -0.84278869988E-01 -0.57929470924E+01  0.70389919654E+01  0.51100000000E-03 0.  1.
         12    1    3    3    0    0 -0.48620304281E+01 -0.49592819867E+01 -0.64299777870E+01  0.94645883190E+01  0.00000000000E+00 0. -1.
</event>
<event>
 7    1  0.1019486E-010  0.4778727E+02  0.7816164E-02  0.1312668E+00
        -11   -1    0    0    0    0  0.00000000000E+00  0.00000000000E+00  0.45593999997E+02  0.45594000000E+02  0.51100000000E-03 0. -1.
         11   -1    0    0    0    0 -0.00000000000E+00 -0.00000000000E+00 -0.45593999997E+02  0.45594000000E+02  0.51100000000E-03 0.  1.
    9900012    2    1    2    0    0 -0.93626996163E+01 -0.29572722531E+02  0.30354861679E+02  0.47787266256E+02  0.19999978166E+02 0.  0.
        -12    1    1    2    0    0  0.93626996163E+01  0.29572722531E+02 -0.30354861679E+02  0.43400733744E+02  0.00000000000E+00 0.  1.
         11    1    3    3    0    0 -0.83300438849E+01 -0.42223675305E+01  0.13618565929E+02  0.16513126806E+02  0.51100000000E-03 0. -1.
        -11    1    3    3    0    0  0.75267120367E+00 -0.10935753247E+02  0.31986974164E+01  0.11418794965E+02  0.51100000000E-03 0.  1.
        -12    1    3    3    0    0 -0.17853269350E+01 -0.14414601753E+02  0.13537598333E+02  0.19855344484E+02  0.00000000000E+00 0.  1.
</event>
<event>
 7    1  0.1019486E-010  0.4778727E+02  0.7816164E-02  0.1312668E+00
        -11   -1    0    0    0    0  0.00000000000E+00  0.00000000000E+00  0.45593999997E+02  0.45594000000E+02  0.51100000000E-03 0. -1.
         11   -1    0    0    0    0 -0.00000000000E+00 -0.00000000000E+00 -0.45593999997E+02  0.45594000000E+02  0.51100000000E-03 0.  1.
    9900012    2    1    2    0    0 -0.80667680169E+01 -0.23483607395E+02 -0.35595943976E+02  0.47787265098E+02  0.19999972887E+02 0.  0.
         12    1    1    2    0    0  0.80667680169E+01  0.23483607395E+02  0.35595943976E+02  0.43400734902E+02  0.00000000000E+00 0. -1.
         11    1    3    3    0    0 -0.24120813610E+01 -0.12679332560E+02 -0.31002938035E+02  0.33582224133E+02  0.51100000000E-03 0. -1.
        -11    1    3    3    0    0 -0.46926481986E+01 -0.93167896097E+01 -0.59173312301E+01  0.11993261645E+02  0.51100000000E-03 0.  1.
         12    1    3    3    0    0 -0.96203845735E+00 -0.14874852251E+01  0.13243252889E+01  0.22117793197E+01  0.00000000000E+00 0. -1.
</event>
<event>
 7    1  0.1019486E-010  0.4778729E+02  0.7816164E-02  0.1312668E+00
        -11   -1    0    0    0    0  0.00000000000E+00  0.00000000000E+00  0.45593999997E+02  0.45594000000E+02  0.51100000000E-03 0. -1.
         11   -1    0    0    0    0 -0.00000000000E+00 -0.00000000000E+00 -0.45593999997E+02  0.45594000000E+02  0.51100000000E-03 0.  1.
    9900012    2    1    2    0    0  0.32330382584E+01  0.34266536491E+01 -0.43144261851E+02  0.47787287768E+02  0.20000076248E+02 0.  0.
         12    1    1    2    0    0 -0.32330382584E+01 -0.34266536491E+01  0.43144261851E+02  0.43400712232E+02  0.00000000000E+00 0. -1.
         11    1    3    3    0    0 -0.30917241696E+01  0.49233341199E+00 -0.94283630662E+01  0.99345448260E+01  0.51100000000E-03 0. -1.
        -11    1    3    3    0    0  0.43907932941E+01 -0.49460384504E+01 -0.25348503334E+02  0.26197117850E+02  0.51100000000E-03 0.  1.
        -12    1    3    3    0    0  0.19339691339E+01  0.78803586875E+01 -0.83673954504E+01  0.11655625092E+02  0.00000000000E+00 0.  1.
</event>
<event>
 7    1  0.1019486E-010  0.4778727E+02  0.7816164E-02  0.1312668E+00
        -11   -1    0    0    0    0  0.00000000000E+00  0.00000000000E+00  0.45593999997E+02  0.45594000000E+02  0.51100000000E-03 0. -1.
         11   -1    0    0    0    0 -0.00000000000E+00 -0.00000000000E+00 -0.45593999997E+02  0.45594000000E+02  0.51100000000E-03 0.  1.
    9900012    2    1    2    0    0  0.12454200386E+02  0.68029615864E+01 -0.41015067217E+02  0.47787272674E+02  0.20000007431E+02 0.  0.
         12    1    1    2    0    0 -0.12454200386E+02 -0.68029615864E+01  0.41015067217E+02  0.43400727326E+02  0.00000000000E+00 0. -1.
         11    1    3    3    0    0  0.56663662823E+01  0.19061250587E+01 -0.62941865887E+01  0.86808873198E+01  0.51100000000E-03 0. -1.
        -11    1    3    3    0    0  0.10498597044E+02  0.75069767541E+01 -0.29436908067E+02  0.32141978730E+02  0.51100000000E-03 0.  1.
        -12    1    3    3    0    0 -0.37107629403E+01 -0.26101402264E+01 -0.52839725613E+01  0.69644066243E+01  0.00000000000E+00 0.  1.
</event>
<event>
 7    1  0.1019486E-010  0.4778727E+02  0.7816164E-02  0.1312668E+00
        -11   -1    0    0    0    0  0.00000000000E+00  0.00000000000E+00  0.45593999997E+02  0.45594000000E+02  0.51100000000E-03 0. -1.
         11   -1    0    0    0    0 -0.00000000000E+00 -0.00000000000E+00 -0.45593999997E+02  0.45594000000E+02  0.51100000000E-03 0.  1.
    9900012    2    1    2    0    0  0.70329092572E+01 -0.24609346816E+02 -0.35050562376E+02  0.47787266294E+02  0.19999978342E+02 0.  0.
         12    1    1    2    0    0 -0.70329092572E+01  0.24609346816E+02  0.35050562376E+02  0.43400733706E+02  0.00000000000E+00 0. -1.
         11    1    3    3    0    0 -0.33655408789E+01 -0.63663169953E+01 -0.18276319009E+02  0.19643846219E+02  0.51100000000E-03 0. -1.
        -11    1    3    3    0    0  0.11133067671E+02 -0.14210537737E+02 -0.11272639654E+02  0.21282786085E+02  0.51100000000E-03 0.  1.
        -12    1    3    3    0    0 -0.73461753477E+00 -0.40324920839E+01 -0.55016037135E+01  0.68606339903E+01  0.00000000000E+00 0.  1.
</event>
<event>
 7    1  0.1019486E-010  0.4778728E+02  0.7816164E-02  0.1312668E+00
        -11   -1    0    0    0    0  0.00000000000E+00  0.00000000000E+00  0.45593999997E+02  0.45594000000E+02  0.51100000000E-03 0. -1.
         11   -1    0    0    0    0 -0.00000000000E+00 -0.00000000000E+00 -0.45593999997E+02  0.45594000000E+02  0.51100000000E-03 0.  1.
    9900012    2    1    2    0    0  0.22475069424E+02 -0.58833607366E+01 -0.36658964671E+02  0.47787281458E+02  0.20000047481E+02 0.  0.
         12    1    1    2    0    0 -0.22475069424E+02  0.58833607366E+01  0.36658964671E+02  0.43400718542E+02  0.00000000000E+00 0. -1.
         11    1    3    3    0    0  0.16944875183E+01  0.34647152495E+01 -0.59587181996E+00  0.39026405416E+01  0.51100000000E-03 0. -1.
        -11    1    3    3    0    0  0.20385839092E+02 -0.54743549730E+01 -0.30742111761E+02  0.37291130764E+02  0.51100000000E-03 0.  1.
        -12    1    3    3    0    0  0.39474281367E+00 -0.38737210131E+01 -0.53209810899E+01  0.65935101529E+01  0.00000000000E+00 0.  1.
</event>
<event>
 7    1  0.1019486E-010  0.4778728E+02  0.7816164E-02  0.1312668E+00
        -11   -1    0    0    0    0  0.00000000000E+00  0.00000000000E+00  0.45593999997E+02  0.45594000000E+02  0.51100000000E-03 0. -1.
         11   -1    0    0    0    0 -0.00000000000E+00 -0.00000000000E+00 -0.45593999997E+02  0.45594000000E+02  0.51100000000E-03 0.  1.
    9900012    2    1    2    0    0  0.27230532933E+02 -0.24239986539E+02  0.23548755467E+02  0.47787277019E+02  0.20000027240E+02 0.  0.
        -12    1    1    2    0    0 -0.27230532933E+02  0.24239986539E+02 -0.23548755467E+02  0.43400722981E+02  0.00000000000E+00 0.  1.
         11    1    3    3    0    0  0.77532232430E+01 -0.32443906529E+01 -0.12333907512E+01  0.84946921293E+01  0.51100000000E-03 0.  1.
        -11    1    3    3    0    0 -0.88959684236E+00 -0.23613814371E+01  0.60051190633E+00  0.25938619169E+01  0.51100000000E-03 0. -1.
         12    1    3    3    0    0  0.20366906533E+02 -0.18634214449E+02  0.24181634312E+02  0.36698722973E+02  0.00000000000E+00 0. -1.
</event>
<event>
 7    1  0.1019486E-010  0.4778732E+02  0.7816164E-02  0.1312668E+00
        -11   -1    0    0    0    0  0.00000000000E+00  0.00000000000E+00  0.45593999997E+02  0.45594000000E+02  0.51100000000E-03 0. -1.
         11   -1    0    0    0    0 -0.00000000000E+00 -0.00000000000E+00 -0.45593999997E+02  0.45594000000E+02  0.51100000000E-03 0.  1.
    9900012    2    1    2    0    0 -0.30299728239E+02  0.20600904913E+02  0.23262593177E+02  0.47787319637E+02  0.20000221553E+02 0.  0.
        -12    1    1    2    0    0  0.30299728239E+02 -0.20600904913E+02 -0.23262593177E+02  0.43400680363E+02  0.00000000000E+00 0.  1.
         11    1    3    3    0    0 -0.67137562925E+01  0.27562420950E+01  0.59534831809E+01  0.93869780168E+01  0.51100000000E-03 0.  1.
        -11    1    3    3    0    0 -0.25057941525E+02  0.11653851584E+02  0.12063711697E+02  0.30153703427E+02  0.51100000000E-03 0. -1.
        -12    1    3    3    0    0  0.14719695780E+01  0.61908112344E+01  0.52453982989E+01  0.82466381934E+01  0.00000000000E+00 0.  1.
</event>
<event>
 7    1  0.1019486E-010  0.4778727E+02  0.7816164E-02  0.1312668E+00
        -11   -1    0    0    0    0  0.00000000000E+00  0.00000000000E+00  0.45593999997E+02  0.45594000000E+02  0.51100000000E-03 0. -1.
         11   -1    0    0    0    0 -0.00000000000E+00 -0.00000000000E+00 -0.45593999997E+02  0.45594000000E+02  0.51100000000E-03 0.  1.
    9900012    2    1    2    0    0  0.53741906893E+01 -0.68852818432E+01  0.42512757766E+02  0.47787267235E+02  0.19999982633E+02 0.  0.
        -12    1    1    2    0    0 -0.53741906893E+01  0.68852818432E+01 -0.42512757766E+02  0.43400732765E+02  0.00000000000E+00 0.  1.
         11    1    3    3    0    0  0.89397870949E+00 -0.74193750870E+01  0.53415146964E+01  0.91857555012E+01  0.51100000000E-03 0. -1.
        -11    1    3    3    0    0 -0.85409900544E-01  0.41128722252E+01  0.99107002939E+01  0.10730563516E+02  0.51100000000E-03 0.  1.
         12    1    3    3    0    0  0.45656218804E+01 -0.35787789814E+01  0.27260542776E+02  0.27870948218E+02  0.00000000000E+00 0. -1.
</event>
<event>
 7    1  0.1019486E-010  0.4778728E+02  0.7816164E-02  0.1312668E+00
        -11   -1    0    0    0    0  0.00000000000E+00  0.00000000000E+00  0.45593999997E+02  0.45594000000E+02  0.51100000000E-03 0. -1.
         11   -1    0    0    0    0 -0.00000000000E+00 -0.00000000000E+00 -0.45593999997E+02  0.45594000000E+02  0.51100000000E-03 0.  1.
    9900012    2    1    2    0    0 -0.23209060343E+02  0.23659664629E+02  0.28021103807E+02  0.47787280294E+02  0.20000042174E+02 0.  0.
        -12    1    1    2    0    0  0.23209060343E+02 -0.23659664629E+02 -0.28021103807E+02  0.43400719706E+02  0.00000000000E+00 0.  1.
         11    1    3    3    0    0  0.11333417145E+01  0.29565063906E+01 -0.12709655234E+01  0.34118539099E+01  0.51100000000E-03 0. -1.
        -11    1    3    3    0    0 -0.17315716971E+01  0.31251170557E+01  0.77644427314E+01  0.85470034717E+01  0.51100000000E-03 0.  1.
         12    1    3    3    0    0 -0.22610830360E+02  0.17578041183E+02  0.21527626599E+02  0.35828422913E+02  0.00000000000E+00 0. -1.
</event>
<event>
 7    1  0.1019486E-010  0.4778727E+02  0.7816164E-02  0.1312668E+00
        -11   -1    0    0    0    0  0.00000000000E+00  0.00000000000E+00  0.45593999997E+02  0.45594000000E+02  0.51100000000E-03 0. -1.
         11   -1    0    0    0    0 -0.00000000000E+00 -0.00000000000E+00 -0.45593999997E+02  0.45594000000E+02  0.51100000000E-03 0.  1.
    9900012    2    1    2    0    0  0.34673269516E+02  0.18626696872E+02  0.18287528270E+02  0.47787272523E+02  0.20000006742E+02 0.  0.
        -12    1    1    2    0    0 -0.34673269516E+02 -0.18626696872E+02 -0.18287528270E+02  0.43400727477E+02  0.00000000000E+00 0.  1.
         11    1    3    3    0    0  0.72944687802E+01 -0.97179144263E+00  0.23750054193E+01  0.77326776990E+01  0.51100000000E-03 0. -1.
        -11    1    3    3    0    0  0.23714420125E+02  0.19130543894E+02  0.82781071318E+01  0.31573382611E+02  0.51100000000E-03 0.  1.
        -12    1    3    3    0    0  0.36643806113E+01  0.46794442035E+00  0.76344157186E+01  0.84812122135E+01  0.00000000000E+00 0.  1.
</event>
<event>
 7    1  0.1019486E-010  0.4778727E+02  0.7816164E-02  0.1312668E+00
        -11   -1    0    0    0    0  0.00000000000E+00  0.00000000000E+00  0.45593999997E+02  0.45594000000E+02  0.51100000000E-03 0.  1.
         11   -1    0    0    0    0 -0.00000000000E+00 -0.00000000000E+00 -0.45593999997E+02  0.45594000000E+02  0.51100000000E-03 0. -1.
    9900012    2    1    2    0    0 -0.27465501061E+02 -0.30328165592E+02 -0.14473147160E+02  0.47787269990E+02  0.19999995194E+02 0.  0.
         12    1    1    2    0    0  0.27465501061E+02  0.30328165592E+02  0.14473147160E+02  0.43400730010E+02  0.00000000000E+00 0. -1.
         11    1    3    3    0    0 -0.25524691287E+01 -0.21598705661E+00 -0.19682155461E+01  0.32304212974E+01  0.51100000000E-03 0. -1.
        -11    1    3    3    0    0 -0.34802004733E+01 -0.59061441470E+01 -0.10006365382E+02  0.12129372714E+02  0.51100000000E-03 0.  1.
        -12    1    3    3    0    0 -0.21432831459E+02 -0.24206034388E+02 -0.24985662316E+01  0.32427475979E+02  0.00000000000E+00 0.  1.
</event>
<event>
 7    1  0.1019486E-010  0.4778726E+02  0.7816164E-02  0.1312668E+00
        -11   -1    0    0    0    0  0.00000000000E+00  0.00000000000E+00  0.45593999997E+02  0.45594000000E+02  0.51100000000E-03 0. -1.
         11   -1    0    0    0    0 -0.00000000000E+00 -0.00000000000E+00 -0.45593999997E+02  0.45594000000E+02  0.51100000000E-03 0.  1.
    9900012    2    1    2    0    0  0.14505110442E+02 -0.15653010033E+01  0.40875120632E+02  0.47787264028E+02  0.19999968011E+02 0.  0.
        -12    1    1    2    0    0 -0.14505110442E+02  0.15653010033E+01 -0.40875120632E+02  0.43400735972E+02  0.00000000000E+00 0.  1.
         11    1    3    3    0    0 -0.37051275916E+01  0.94048163741E-01  0.13978655913E+02  0.14461660932E+02  0.51100000000E-03 0. -1.
        -11    1    3    3    0    0  0.73548673766E+01  0.68007789094E+00  0.54653449653E+01  0.91883935438E+01  0.51100000000E-03 0.  1.
         12    1    3    3    0    0  0.10855370657E+02 -0.23394270580E+01  0.21431119754E+02  0.24137209553E+02  0.00000000000E+00 0. -1.
</event>
<event>
 7    1  0.1019486E-010  0.4778727E+02  0.7816164E-02  0.1312668E+00
        -11   -1    0    0    0    0  0.00000000000E+00  0.00000000000E+00  0.45593999997E+02  0.45594000000E+02  0.51100000000E-03 0. -1.
         11   -1    0    0    0    0 -0.00000000000E+00 -0.00000000000E+00 -0.45593999997E+02  0.45594000000E+02  0.51100000000E-03 0.  1.
    9900012    2    1    2    0    0 -0.23599365618E+01 -0.95897992297E+01  0.42262154451E+02  0.47787271334E+02  0.20000001322E+02 0.  0.
        -12    1    1    2    0    0  0.23599365618E+01  0.95897992297E+01 -0.42262154451E+02  0.43400728666E+02  0.00000000000E+00 0.  1.
         11    1    3    3    0    0 -0.76480047899E+01 -0.14614223983E+01  0.22264842124E+02  0.23587092397E+02  0.51100000000E-03 0. -1.
        -11    1    3    3    0    0  0.70454783510E+01 -0.46051974010E+01  0.81515990741E+01  0.11717302421E+02  0.51100000000E-03 0.  1.
        -12    1    3    3    0    0 -0.17574101229E+01 -0.35231794304E+01  0.11845713253E+02  0.12482876516E+02  0.00000000000E+00 0.  1.
</event>
<event>
 7    1  0.1019486E-010  0.4778727E+02  0.7816164E-02  0.1312668E+00
        -11   -1    0    0    0    0  0.00000000000E+00  0.00000000000E+00  0.45593999997E+02  0.45594000000E+02  0.51100000000E-03 0.  1.
         11   -1    0    0    0    0 -0.00000000000E+00 -0.00000000000E+00 -0.45593999997E+02  0.45594000000E+02  0.51100000000E-03 0. -1.
    9900012    2    1    2    0    0 -0.33220229770E+02 -0.45376922927E+01  0.27558105409E+02  0.47787268543E+02  0.19999988593E+02 0.  0.
        -12    1    1    2    0    0  0.33220229770E+02  0.45376922927E+01 -0.27558105409E+02  0.43400731457E+02  0.00000000000E+00 0.  1.
         11    1    3    3    0    0 -0.51531313252E+00 -0.26939191942E+01 -0.76090520693E+00  0.28463529726E+01  0.51100000000E-03 0. -1.
        -11    1    3    3    0    0 -0.25965240870E+02  0.28751762122E+01  0.17913852248E+02  0.31675960512E+02  0.51100000000E-03 0.  1.
         12    1    3    3    0    0 -0.67396757673E+01 -0.47189493107E+01  0.10405158367E+02  0.13264955058E+02  0.00000000000E+00 0. -1.
</event>
<event>
 7    1  0.1019486E-010  0.4778728E+02  0.7816164E-02  0.1312668E+00
        -11   -1    0    0    0    0  0.00000000000E+00  0.00000000000E+00  0.45593999997E+02  0.45594000000E+02  0.51100000000E-03 0. -1.
         11   -1    0    0    0    0 -0.00000000000E+00 -0.00000000000E+00 -0.45593999997E+02  0.45594000000E+02  0.51100000000E-03 0.  1.
    9900012    2    1    2    0    0  0.39981798921E+01 -0.27941645323E+02  0.32968182877E+02  0.47787284937E+02  0.20000063342E+02 0.  0.
        -12    1    1    2    0    0 -0.39981798921E+01  0.27941645323E+02 -0.32968182877E+02  0.43400715063E+02  0.00000000000E+00 0.  1.
         11    1    3    3    0    0 -0.58084108820E+01 -0.52672329934E+01  0.15032712272E+02  0.16954758002E+02  0.51100000000E-03 0. -1.
        -11    1    3    3    0    0  0.44882316903E+01 -0.15404493099E+02  0.10800960545E+02  0.19341752255E+02  0.51100000000E-03 0.  1.
         12    1    3    3    0    0  0.53183590838E+01 -0.72699192302E+01  0.71345100599E+01  0.11490774680E+02  0.00000000000E+00 0. -1.
</event>
<event>
 7    1  0.1019486E-010  0.4778727E+02  0.7816164E-02  0.1312668E+00
        -11   -1    0    0    0    0  0.00000000000E+00  0.00000000000E+00  0.45593999997E+02  0.45594000000E+02  0.51100000000E-03 0. -1.
         11   -1    0    0    0    0 -0.00000000000E+00 -0.00000000000E+00 -0.45593999997E+02  0.45594000000E+02  0.51100000000E-03 0.  1.
    9900012    2    1    2    0    0  0.11881324193E+02 -0.31086805094E+02  0.27857998000E+02  0.47787269959E+02  0.19999995052E+02 0.  0.
        -12    1    1    2    0    0 -0.11881324193E+02  0.31086805094E+02 -0.27857998000E+02  0.43400730041E+02  0.00000000000E+00 0.  1.
         11    1    3    3    0    0  0.53020365514E+00 -0.17621091470E+02  0.15301481027E+02  0.23343506643E+02  0.51100000000E-03 0. -1.
        -11    1    3    3    0    0  0.13171897202E+02 -0.96283811968E+01  0.78562288221E+01  0.18108697688E+02  0.51100000000E-03 0.  1.
        -12    1    3    3    0    0 -0.18207766647E+01 -0.38373324275E+01  0.47002881503E+01  0.63350656286E+01  0.00000000000E+00 0.  1.
</event>
<event>
 7    1  0.1019486E-010  0.4778727E+02  0.7816164E-02  0.1312668E+00
        -11   -1    0    0    0    0  0.00000000000E+00  0.00000000000E+00  0.45593999997E+02  0.45594000000E+02  0.51100000000E-03 0. -1.
         11   -1    0    0    0    0 -0.00000000000E+00 -0.00000000000E+00 -0.45593999997E+02  0.45594000000E+02  0.51100000000E-03 0.  1.
    9900012    2    1    2    0    0 -0.22307872101E+02  0.14008146460E+02  0.34492810608E+02  0.47787270645E+02  0.19999998178E+02 0.  0.
        -12    1    1    2    0    0  0.22307872101E+02 -0.14008146460E+02 -0.34492810608E+02  0.43400729355E+02  0.00000000000E+00 0.  1.
         11    1    3    3    0    0 -0.30461227089E+01  0.35842731047E+01  0.52249431813E+01  0.70303562325E+01  0.51100000000E-03 0. -1.
        -11    1    3    3    0    0 -0.22653664576E+02  0.10228424121E+02  0.26838074308E+02  0.36579931815E+02  0.51100000000E-03 0.  1.
        -12    1    3    3    0    0  0.33919151843E+01  0.19544923405E+00  0.24297931187E+01  0.41769825976E+01  0.00000000000E+00 0.  1.
</event>
<event>
 7    1  0.1019486E-010  0.4778727E+02  0.7816164E-02  0.1312668E+00
        -11   -1    0    0    0    0  0.00000000000E+00  0.00000000000E+00  0.45593999997E+02  0.45594000000E+02  0.51100000000E-03 0. -1.
         11   -1    0    0    0    0 -0.00000000000E+00 -0.00000000000E+00 -0.45593999997E+02  0.45594000000E+02  0.51100000000E-03 0.  1.
    9900012    2    1    2    0    0 -0.66714662845E+01  0.99274328573E+00  0.42873406965E+02  0.47787273896E+02  0.20000013000E+02 0.  0.
        -12    1    1    2    0    0  0.66714662845E+01 -0.99274328573E+00 -0.42873406965E+02  0.43400726104E+02  0.00000000000E+00 0.  1.
         11    1    3    3    0    0  0.45164203156E+00  0.16647969279E+01  0.16116959271E+02  0.16209006933E+02  0.51100000000E-03 0. -1.
        -11    1    3    3    0    0 -0.26689497519E+01  0.65297188328E+01  0.63758643518E+01  0.95085312908E+01  0.51100000000E-03 0.  1.
        -12    1    3    3    0    0 -0.44541585642E+01 -0.72017724749E+01  0.20380583342E+02  0.22069735672E+02  0.00000000000E+00 0.  1.
</event>
<event>
 7    1  0.1019486E-010  0.4778727E+02  0.7816164E-02  0.1312668E+00
        -11   -1    0    0    0    0  0.00000000000E+00  0.00000000000E+00  0.45593999997E+02  0.45594000000E+02  0.51100000000E-03 0. -1.
         11   -1    0    0    0    0 -0.00000000000E+00 -0.00000000000E+00 -0.45593999997E+02  0.45594000000E+02  0.51100000000E-03 0.  1.
    9900012    2    1    2    0    0  0.27393217319E+02 -0.35783057583E+00 -0.33661649609E+02  0.47787273598E+02  0.20000011643E+02 0.  0.
         12    1    1    2    0    0 -0.27393217319E+02  0.35783057583E+00  0.33661649609E+02  0.43400726402E+02  0.00000000000E+00 0. -1.
         11    1    3    3    0    0  0.62886606181E+01 -0.25380358162E+01 -0.22180894201E+02  0.23194416267E+02  0.51100000000E-03 0. -1.
        -11    1    3    3    0    0  0.16786292388E+02  0.15415884269E+01 -0.11158925746E+02  0.20215779260E+02  0.51100000000E-03 0.  1.
        -12    1    3    3    0    0  0.43182643128E+01  0.63861681348E+00 -0.32182966269E+00  0.43770780712E+01  0.00000000000E+00 0.  1.
</event>
<event>
 7    1  0.1019486E-010  0.4778726E+02  0.7816164E-02  0.1312668E+00
        -11   -1    0    0    0    0  0.00000000000E+00  0.00000000000E+00  0.45593999997E+02  0.45594000000E+02  0.51100000000E-03 0. -1.
         11   -1    0    0    0    0 -0.00000000000E+00 -0.00000000000E+00 -0.45593999997E+02  0.45594000000E+02  0.51100000000E-03 0.  1.
    9900012    2    1    2    0    0 -0.14098890058E+02 -0.15950468986E+01  0.41015862247E+02  0.47787264622E+02  0.19999970717E+02 0.  0.
        -12    1    1    2    0    0  0.14098890058E+02  0.15950468986E+01 -0.41015862247E+02  0.43400735378E+02  0.00000000000E+00 0.  1.
         11    1    3    3    0    0 -0.96280128253E+01 -0.62557502881E+01  0.20099574293E+02  0.23147914153E+02  0.51100000000E-03 0. -1.
        -11    1    3    3    0    0 -0.68281478091E+01  0.67517192458E+01  0.13365005020E+02  0.16456994705E+02  0.51100000000E-03 0.  1.
        -12    1    3    3    0    0  0.23572705768E+01 -0.20910158563E+01  0.75512829347E+01  0.81823557637E+01  0.00000000000E+00 0.  1.
</event>
<event>
 7    1  0.1602105E-010  0.4778728E+02  0.7816164E-02  0.1312668E+00
        -11   -1    0    0    0    0  0.00000000000E+00  0.00000000000E+00  0.45593999997E+02  0.45594000000E+02  0.51100000000E-03 0. -1.
         11   -1    0    0    0    0 -0.00000000000E+00 -0.00000000000E+00 -0.45593999997E+02  0.45594000000E+02  0.51100000000E-03 0.  1.
    9900012    2    1    2    0    0  0.73528882258E+01  0.30538548877E+00  0.42772241179E+02  0.47787276031E+02  0.20000022737E+02 0.  0.
        -12    1    1    2    0    0 -0.73528882258E+01 -0.30538548877E+00 -0.42772241179E+02  0.43400723969E+02  0.00000000000E+00 0.  1.
         11    1    3    3    0    0  0.46712339972E+01 -0.34280363180E+01  0.22348973240E+02  0.23087842368E+02  0.51100000000E-03 0. -1.
        -11    1    3    3    0    0 -0.50932864987E+01  0.33671429828E+01  0.91576512602E+01  0.11006443390E+02  0.51100000000E-03 0.  1.
        -12    1    3    3    0    0  0.77749407273E+01  0.36627882396E+00  0.11265616679E+02  0.13692990274E+02  0.00000000000E+00 0.  1.
</event>
<event>
 7    1  0.1019486E-010  0.4778727E+02  0.7816164E-02  0.1312668E+00
        -11   -1    0    0    0    0  0.00000000000E+00  0.00000000000E+00  0.45593999997E+02  0.45594000000E+02  0.51100000000E-03 0. -1.
         11   -1    0    0    0    0 -0.00000000000E+00 -0.00000000000E+00 -0.45593999997E+02  0.45594000000E+02  0.51100000000E-03 0.  1.
    9900012    2    1    2    0    0  0.42631944485E+01  0.12828761559E+01  0.43171786569E+02  0.47787265517E+02  0.19999974797E+02 0.  0.
        -12    1    1    2    0    0 -0.42631944485E+01 -0.12828761559E+01 -0.43171786569E+02  0.43400734483E+02  0.00000000000E+00 0.  1.
         11    1    3    3    0    0 -0.24296251206E+01 -0.23283006872E+01  0.22098430815E+02  0.22353181140E+02  0.51100000000E-03 0. -1.
        -11    1    3    3    0    0  0.32763436238E+01  0.21917297061E+01 -0.96865247940E-01  0.39430305329E+01  0.51100000000E-03 0.  1.
        -12    1    3    3    0    0  0.34164759453E+01  0.14194471370E+01  0.21170221002E+02  0.21491053844E+02  0.00000000000E+00 0.  1.
</event>
<event>
 7    1  0.1019486E-010  0.4778727E+02  0.7816164E-02  0.1312668E+00
        -11   -1    0    0    0    0  0.00000000000E+00  0.00000000000E+00  0.45593999997E+02  0.45594000000E+02  0.51100000000E-03 0. -1.
         11   -1    0    0    0    0 -0.00000000000E+00 -0.00000000000E+00 -0.45593999997E+02  0.45594000000E+02  0.51100000000E-03 0.  1.
    9900012    2    1    2    0    0 -0.71251590870E+01 -0.65847938191E+01  0.42302432752E+02  0.47787271683E+02  0.20000002913E+02 0.  0.
        -12    1    1    2    0    0  0.71251590870E+01  0.65847938191E+01 -0.42302432752E+02  0.43400728317E+02  0.00000000000E+00 0.  1.
         11    1    3    3    0    0 -0.75684946619E+01  0.28410461520E+01  0.19977822022E+02  0.21551497111E+02  0.51100000000E-03 0. -1.
        -11    1    3    3    0    0  0.15328418076E+01 -0.11352912357E+02  0.19824077650E+02  0.22896119277E+02  0.51100000000E-03 0.  1.
         12    1    3    3    0    0 -0.10895062326E+01  0.19270723864E+01  0.25005330798E+01  0.33396552961E+01  0.00000000000E+00 0. -1.
</event>
<event>
 7    1  0.1019486E-010  0.4778728E+02  0.7816164E-02  0.1312668E+00
        -11   -1    0    0    0    0  0.00000000000E+00  0.00000000000E+00  0.45593999997E+02  0.45594000000E+02  0.51100000000E-03 0.  1.
         11   -1    0    0    0    0 -0.00000000000E+00 -0.00000000000E+00 -0.45593999997E+02  0.45594000000E+02  0.51100000000E-03 0. -1.
    9900012    2    1    2    0    0 -0.20246351395E+02  0.37887011335E+02  0.61872817645E+01  0.47787276177E+02  0.20000023402E+02 0.  0.
        -12    1    1    2    0    0  0.20246351395E+02 -0.37887011335E+02 -0.61872817645E+01  0.43400723823E+02  0.00000000000E+00 0.  1.
         11    1    3    3    0    0 -0.20507066290E+02  0.35357883521E+02  0.21778537253E+01  0.40932416762E+02  0.51100000000E-03 0. -1.
        -11    1    3    3    0    0  0.44716898918E+00  0.36639663020E+01  0.43016828151E+01  0.56682523294E+01  0.51100000000E-03 0.  1.
         12    1    3    3    0    0 -0.18645409405E+00 -0.11348384875E+01 -0.29225477586E+00  0.11866070857E+01  0.00000000000E+00 0. -1.
</event>
<event>
 7    1  0.1019486E-010  0.4778727E+02  0.7816164E-02  0.1312668E+00
        -11   -1    0    0    0    0  0.00000000000E+00  0.00000000000E+00  0.45593999997E+02  0.45594000000E+02  0.51100000000E-03 0. -1.
         11   -1    0    0    0    0 -0.00000000000E+00 -0.00000000000E+00 -0.45593999997E+02  0.45594000000E+02  0.51100000000E-03 0.  1.
    9900012    2    1    2    0    0  0.24590729362E+02 -0.31337938072E+02 -0.17229431827E+02  0.47787266663E+02  0.19999980022E+02 0.  0.
         12    1    1    2    0    0 -0.24590729362E+02  0.31337938072E+02  0.17229431827E+02  0.43400733337E+02  0.00000000000E+00 0. -1.
         11    1    3    3    0    0 -0.36189867745E+00 -0.66050988872E-01 -0.13663452449E+01  0.14150028181E+01  0.51100000000E-03 0. -1.
        -11    1    3    3    0    0  0.65585712885E+00 -0.12259993457E+02 -0.75789378038E+01  0.14428370894E+02  0.51100000000E-03 0.  1.
        -12    1    3    3    0    0  0.24296770910E+02 -0.19011893625E+02 -0.82841487784E+01  0.31943892951E+02  0.00000000000E+00 0.  1.
</event>
<event>
 7    1  0.1019486E-010  0.4778727E+02  0.7816164E-02  0.1312668E+00
        -11   -1    0    0    0    0  0.00000000000E+00  0.00000000000E+00  0.45593999997E+02  0.45594000000E+02  0.51100000000E-03 0. -1.
         11   -1    0    0    0    0 -0.00000000000E+00 -0.00000000000E+00 -0.45593999997E+02  0.45594000000E+02  0.51100000000E-03 0.  1.
    9900012    2    1    2    0    0  0.34526113147E+01 -0.40720453261E+01  0.43071119199E+02  0.47787269740E+02  0.19999994053E+02 0.  0.
        -12    1    1    2    0    0 -0.34526113147E+01  0.40720453261E+01 -0.43071119199E+02  0.43400730260E+02  0.00000000000E+00 0.  1.
         11    1    3    3    0    0  0.38336725589E+01 -0.14503669397E+01  0.11313840504E+02  0.12033436614E+02  0.51100000000E-03 0. -1.
        -11    1    3    3    0    0  0.22139533064E+01 -0.77998904669E-01 -0.12523426831E+01  0.25448055975E+01  0.51100000000E-03 0.  1.
        -12    1    3    3    0    0 -0.25950145507E+01 -0.25436794818E+01  0.33009621378E+02  0.33209027528E+02  0.00000000000E+00 0.  1.
</event>
<event>
 7    1  0.1019486E-010  0.4778726E+02  0.7816164E-02  0.1312668E+00
        -11   -1    0    0    0    0  0.00000000000E+00  0.00000000000E+00  0.45593999997E+02  0.45594000000E+02  0.51100000000E-03 0. -1.
         11   -1    0    0    0    0 -0.00000000000E+00 -0.00000000000E+00 -0.45593999997E+02  0.45594000000E+02  0.51100000000E-03 0.  1.
    9900012    2    1    2    0    0  0.32943557753E+02  0.20690608408E+02  0.19241753680E+02  0.47787258551E+02  0.19999943036E+02 0.  0.
        -12    1    1    2    0    0 -0.32943557753E+02 -0.20690608408E+02 -0.19241753680E+02  0.43400741449E+02  0.00000000000E+00 0.  1.
         11    1    3    3    0    0  0.12781962227E+02  0.17757086861E+01  0.47484782283E+01  0.13750627093E+02  0.51100000000E-03 0. -1.
        -11    1    3    3    0    0  0.15116900621E+02  0.18215301705E+02  0.64802156635E+01  0.24542027136E+02  0.51100000000E-03 0.  1.
        -12    1    3    3    0    0  0.50446949043E+01  0.69959801597E+00  0.80130597882E+01  0.94946043219E+01  0.00000000000E+00 0.  1.
</event>
<event>
 7    1  0.1019486E-010  0.4778727E+02  0.7816164E-02  0.1312668E+00
        -11   -1    0    0    0    0  0.00000000000E+00  0.00000000000E+00  0.45593999997E+02  0.45594000000E+02  0.51100000000E-03 0. -1.
         11   -1    0    0    0    0 -0.00000000000E+00 -0.00000000000E+00 -0.45593999997E+02  0.45594000000E+02  0.51100000000E-03 0.  1.
    9900012    2    1    2    0    0  0.23266836823E+02 -0.23384394576E+02  0.28203689783E+02  0.47787265873E+02  0.19999976420E+02 0.  0.
        -12    1    1    2    0    0 -0.23266836823E+02  0.23384394576E+02 -0.28203689783E+02  0.43400734127E+02  0.00000000000E+00 0.  1.
         11    1    3    3    0    0  0.20633458267E+02 -0.15646665560E+02  0.23417682474E+02  0.34913401380E+02  0.51100000000E-03 0. -1.
        -11    1    3    3    0    0 -0.75673583927E+00  0.13318349909E+01 -0.76590173239E+00  0.17126118353E+01  0.51100000000E-03 0.  1.
         12    1    3    3    0    0  0.33901143951E+01 -0.90695640063E+01  0.55519090421E+01  0.11161252658E+02  0.00000000000E+00 0. -1.
</event>
<event>
 7    1  0.1019486E-010  0.4778727E+02  0.7816164E-02  0.1312668E+00
        -11   -1    0    0    0    0  0.00000000000E+00  0.00000000000E+00  0.45593999997E+02  0.45594000000E+02  0.51100000000E-03 0. -1.
         11   -1    0    0    0    0 -0.00000000000E+00 -0.00000000000E+00 -0.45593999997E+02  0.45594000000E+02  0.51100000000E-03 0.  1.
    9900012    2    1    2    0    0  0.89975791865E+01  0.23606139168E+02 -0.35290469281E+02  0.47787268903E+02  0.19999990237E+02 0.  0.
         12    1    1    2    0    0 -0.89975791865E+01 -0.23606139168E+02  0.35290469281E+02  0.43400731097E+02  0.00000000000E+00 0. -1.
         11    1    3    3    0    0 -0.20466958081E+01  0.10329766650E+02 -0.25470932516E+02  0.27561956503E+02  0.51100000000E-03 0.  1.
        -11    1    3    3    0    0  0.74738951251E+01  0.81665524907E+01 -0.82238838573E+01  0.13790719847E+02  0.51100000000E-03 0. -1.
        -12    1    3    3    0    0  0.35703798694E+01  0.51098200279E+01 -0.15956529075E+01  0.64345925535E+01  0.00000000000E+00 0.  1.
</event>
<event>
 7    1  0.1019486E-010  0.4778727E+02  0.7816164E-02  0.1312668E+00
        -11   -1    0    0    0    0  0.00000000000E+00  0.00000000000E+00  0.45593999997E+02  0.45594000000E+02  0.51100000000E-03 0. -1.
         11   -1    0    0    0    0 -0.00000000000E+00 -0.00000000000E+00 -0.45593999997E+02  0.45594000000E+02  0.51100000000E-03 0.  1.
    9900012    2    1    2    0    0 -0.11925061729E+01  0.33887639245E+02 -0.27089281337E+02  0.47787270422E+02  0.19999997160E+02 0.  0.
         12    1    1    2    0    0  0.11925061729E+01 -0.33887639245E+02  0.27089281337E+02  0.43400729578E+02  0.00000000000E+00 0. -1.
         11    1    3    3    0    0  0.24659669928E+01 -0.70649641961E+00  0.91327200097E+00  0.27229022034E+01  0.51100000000E-03 0. -1.
        -11    1    3    3    0    0 -0.48099457292E+01  0.20332195042E+02 -0.18320782156E+02  0.27788213188E+02  0.51100000000E-03 0.  1.
        -12    1    3    3    0    0  0.11514725635E+01  0.14261940622E+02 -0.96817711828E+01  0.17276155030E+02  0.00000000000E+00 0.  1.
</event>
<event>
 7    1  0.1019486E-010  0.4778727E+02  0.7816164E-02  0.1312668E+00
        -11   -1    0    0    0    0  0.00000000000E+00  0.00000000000E+00  0.45593999997E+02  0.45594000000E+02  0.51100000000E-03 0. -1.
         11   -1    0    0    0    0 -0.00000000000E+00 -0.00000000000E+00 -0.45593999997E+02  0.45594000000E+02  0.51100000000E-03 0.  1.
    9900012    2    1    2    0    0  0.30953089146E+02 -0.37556880701E+01  0.30189807821E+02  0.47787269397E+02  0.19999992491E+02 0.  0.
        -12    1    1    2    0    0 -0.30953089146E+02  0.37556880701E+01 -0.30189807821E+02  0.43400730603E+02  0.00000000000E+00 0.  1.
         11    1    3    3    0    0  0.18606297348E+01 -0.25271322749E+01 -0.14800835874E+01  0.34697245182E+01  0.51100000000E-03 0. -1.
        -11    1    3    3    0    0  0.20435185365E+02  0.37137173969E+01  0.18608456042E+02  0.27886612099E+02  0.51100000000E-03 0.  1.
         12    1    3    3    0    0  0.86572740464E+01 -0.49422731921E+01  0.13061435366E+02  0.16430932781E+02  0.00000000000E+00 0. -1.
</event>
<event>
 7    1  0.1019486E-010  0.4778728E+02  0.7816164E-02  0.1312668E+00
        -11   -1    0    0    0    0  0.00000000000E+00  0.00000000000E+00  0.45593999997E+02  0.45594000000E+02  0.51100000000E-03 0. -1.
         11   -1    0    0    0    0 -0.00000000000E+00 -0.00000000000E+00 -0.45593999997E+02  0.45594000000E+02  0.51100000000E-03 0.  1.
    9900012    2    1    2    0    0 -0.60824197101E-01 -0.19174467300E+02  0.38935316280E+02  0.47787277084E+02  0.20000027538E+02 0.  0.
        -12    1    1    2    0    0  0.60824197101E-01  0.19174467300E+02 -0.38935316280E+02  0.43400722916E+02  0.00000000000E+00 0.  1.
         11    1    3    3    0    0  0.78425246055E+01 -0.17571535622E+02  0.29290377255E+02  0.35045545456E+02  0.51100000000E-03 0. -1.
        -11    1    3    3    0    0 -0.40856370177E+01 -0.17996501940E+01  0.58069499696E+01  0.73247415566E+01  0.51100000000E-03 0.  1.
         12    1    3    3    0    0 -0.38177117849E+01  0.19671851632E+00  0.38379890548E+01  0.54169900713E+01  0.00000000000E+00 0. -1.
</event>
<event>
 7    1  0.1019486E-010  0.4778726E+02  0.7816164E-02  0.1312668E+00
        -11   -1    0    0    0    0  0.00000000000E+00  0.00000000000E+00  0.45593999997E+02  0.45594000000E+02  0.51100000000E-03 0. -1.
         11   -1    0    0    0    0 -0.00000000000E+00 -0.00000000000E+00 -0.45593999997E+02  0.45594000000E+02  0.51100000000E-03 0.  1.
    9900012    2    1    2    0    0 -0.21102624812E+02  0.31328955931E+02  0.21372888513E+02  0.47787255570E+02  0.19999929448E+02 0.  0.
        -12    1    1    2    0    0  0.21102624812E+02 -0.31328955931E+02 -0.21372888513E+02  0.43400744430E+02  0.00000000000E+00 0.  1.
         11    1    3    3    0    0  0.15645358833E+01  0.75541932550E+01  0.69760910935E+01  0.10400935317E+02  0.51100000000E-03 0. -1.
        -11    1    3    3    0    0 -0.10161265898E+02  0.76935372853E+01  0.55547676961E+00  0.12757366315E+02  0.51100000000E-03 0.  1.
         12    1    3    3    0    0 -0.12505894797E+02  0.16081225391E+02  0.13841320650E+02  0.24628953938E+02  0.00000000000E+00 0. -1.
</event>
<event>
 7    1  0.1019486E-010  0.4778727E+02  0.7816164E-02  0.1312668E+00
        -11   -1    0    0    0    0  0.00000000000E+00  0.00000000000E+00  0.45593999997E+02  0.45594000000E+02  0.51100000000E-03 0. -1.
         11   -1    0    0    0    0 -0.00000000000E+00 -0.00000000000E+00 -0.45593999997E+02  0.45594000000E+02  0.51100000000E-03 0.  1.
    9900012    2    1    2    0    0 -0.27046323049E+02 -0.13545192886E+02 -0.31123102266E+02  0.47787270335E+02  0.19999996767E+02 0.  0.
         12    1    1    2    0    0  0.27046323049E+02  0.13545192886E+02  0.31123102266E+02  0.43400729665E+02  0.00000000000E+00 0. -1.
         11    1    3    3    0    0 -0.13899733596E+01 -0.25445056072E+01  0.31502344108E+00  0.29164661416E+01  0.51100000000E-03 0. -1.
        -11    1    3    3    0    0 -0.15733672778E+02  0.38985615637E+00 -0.10006448205E+02  0.18650186402E+02  0.51100000000E-03 0.  1.
        -12    1    3    3    0    0 -0.99226769114E+01 -0.11390543435E+02 -0.21431677501E+02  0.26220617791E+02  0.00000000000E+00 0.  1.
</event>
<event>
 7    1  0.1019486E-010  0.4778727E+02  0.7816164E-02  0.1312668E+00
        -11   -1    0    0    0    0  0.00000000000E+00  0.00000000000E+00  0.45593999997E+02  0.45594000000E+02  0.51100000000E-03 0.  1.
         11   -1    0    0    0    0 -0.00000000000E+00 -0.00000000000E+00 -0.45593999997E+02  0.45594000000E+02  0.51100000000E-03 0. -1.
    9900012    2    1    2    0    0  0.35747782856E+02  0.17680967220E+02 -0.17120233480E+02  0.47787274484E+02  0.20000015680E+02 0.  0.
        -12    1    1    2    0    0 -0.35747782856E+02 -0.17680967220E+02  0.17120233480E+02  0.43400725516E+02  0.00000000000E+00 0.  1.
         11    1    3    3    0    0  0.34398075884E+02  0.15505590540E+02 -0.88887105871E+01  0.38764160492E+02  0.51100000000E-03 0. -1.
        -11    1    3    3    0    0  0.15633823696E+01  0.15863383737E+01 -0.80760151674E+01  0.83775088848E+01  0.51100000000E-03 0.  1.
         12    1    3    3    0    0 -0.21367539716E+00  0.58903830565E+00 -0.15550772560E+00  0.64560510654E+00  0.00000000000E+00 0. -1.
</event>
<event>
 7    1  0.1019486E-010  0.4778728E+02  0.7816164E-02  0.1312668E+00
        -11   -1    0    0    0    0  0.00000000000E+00  0.00000000000E+00  0.45593999997E+02  0.45594000000E+02  0.51100000000E-03 0. -1.
         11   -1    0    0    0    0 -0.00000000000E+00 -0.00000000000E+00 -0.45593999997E+02  0.45594000000E+02  0.51100000000E-03 0.  1.
    9900012    2    1    2    0    0  0.15644709830E+02  0.17053813822E+02 -0.36715571747E+02  0.47787277422E+02  0.20000029077E+02 0.  0.
         12    1    1    2    0    0 -0.15644709830E+02 -0.17053813822E+02  0.36715571747E+02  0.43400722578E+02  0.00000000000E+00 0. -1.
         11    1    3    3    0    0  0.68275804588E+01 -0.18096152278E+01 -0.63061280701E+01  0.94687810035E+01  0.51100000000E-03 0. -1.
        -11    1    3    3    0    0  0.44169860506E+01  0.18051265666E+02 -0.26560698000E+02  0.32416487109E+02  0.51100000000E-03 0.  1.
        -12    1    3    3    0    0  0.44001433211E+01  0.81216338388E+00 -0.38487456769E+01  0.59020093098E+01  0.00000000000E+00 0.  1.
</event>
<event>
 7    1  0.1469467E-010  0.4778727E+02  0.7816164E-02  0.1312668E+00
        -11   -1    0    0    0    0  0.00000000000E+00  0.00000000000E+00  0.45593999997E+02  0.45594000000E+02  0.51100000000E-03 0. -1.
         11   -1    0    0    0    0 -0.00000000000E+00 -0.00000000000E+00 -0.45593999997E+02  0.45594000000E+02  0.51100000000E-03 0.  1.
    9900012    2    1    2    0    0 -0.55351809786E+01  0.22077167159E+02 -0.36953809552E+02  0.47787267534E+02  0.19999983993E+02 0.  0.
         12    1    1    2    0    0  0.55351809786E+01 -0.22077167159E+02  0.36953809552E+02  0.43400732466E+02  0.00000000000E+00 0. -1.
         11    1    3    3    0    0  0.10593250603E+01 -0.22546643736E+01  0.20169419596E+00  0.24992722603E+01  0.51100000000E-03 0. -1.
        -11    1    3    3    0    0 -0.49550383851E+01  0.92708919294E+01 -0.18252646973E+02  0.21063261010E+02  0.51100000000E-03 0.  1.
         12    1    3    3    0    0 -0.16394676538E+01  0.15060939603E+02 -0.18902856774E+02  0.24224734264E+02  0.00000000000E+00 0. -1.
</event>
<event>
 7    1  0.1019486E-010  0.4778723E+02  0.7816164E-02  0.1312668E+00
        -11   -1    0    0    0    0  0.00000000000E+00  0.00000000000E+00  0.45593999997E+02  0.45594000000E+02  0.51100000000E-03 0. -1.
         11   -1    0    0    0    0 -0.00000000000E+00 -0.00000000000E+00 -0.45593999997E+02  0.45594000000E+02  0.51100000000E-03 0.  1.
    9900012    2    1    2    0    0  0.21064109441E+02  0.10621422931E+02  0.36429599440E+02  0.47787227576E+02  0.19999801810E+02 0.  0.
        -12    1    1    2    0    0 -0.21064109441E+02 -0.10621422931E+02 -0.36429599440E+02  0.43400772424E+02  0.00000000000E+00 0.  1.
         11    1    3    3    0    0  0.15348614055E+02  0.11973074411E+02  0.20235185821E+02  0.28078411809E+02  0.51100000000E-03 0. -1.
        -11    1    3    3    0    0  0.60052391010E+01  0.21328633567E+01  0.14467908419E+02  0.15809249731E+02  0.51100000000E-03 0.  1.
         12    1    3    3    0    0 -0.28974371502E+00 -0.34845148363E+01  0.17265051994E+01  0.38995660359E+01  0.00000000000E+00 0. -1.
</event>
<event>
 7    1  0.1019486E-010  0.4778726E+02  0.7816164E-02  0.1312668E+00
        -11   -1    0    0    0    0  0.00000000000E+00  0.00000000000E+00  0.45593999997E+02  0.45594000000E+02  0.51100000000E-03 0.  1.
         11   -1    0    0    0    0 -0.00000000000E+00 -0.00000000000E+00 -0.45593999997E+02  0.45594000000E+02  0.51100000000E-03 0. -1.
    9900012    2    1    2    0    0 -0.37298436689E+02 -0.47522100792E+01  0.21676423804E+02  0.47787260041E+02  0.19999949830E+02 0.  0.
        -12    1    1    2    0    0  0.37298436689E+02  0.47522100792E+01 -0.21676423804E+02  0.43400739959E+02  0.00000000000E+00 0.  1.
         11    1    3    3    0    0 -0.25713640061E+02  0.23601079379E+01  0.12725054108E+02  0.28786948380E+02  0.51100000000E-03 0. -1.
        -11    1    3    3    0    0 -0.92929101953E+01 -0.73855421849E+01  0.10796112663E+02  0.16045574535E+02  0.51100000000E-03 0.  1.
         12    1    3    3    0    0 -0.22918864324E+01  0.27322416771E+00 -0.18447429683E+01  0.29547371260E+01  0.00000000000E+00 0. -1.
</event>
<event>
 7    1  0.1019486E-010  0.4778727E+02  0.7816164E-02  0.1312668E+00
        -11   -1    0    0    0    0  0.00000000000E+00  0.00000000000E+00  0.45593999997E+02  0.45594000000E+02  0.51100000000E-03 0. -1.
         11   -1    0    0    0    0 -0.00000000000E+00 -0.00000000000E+00 -0.45593999997E+02  0.45594000000E+02  0.51100000000E-03 0.  1.
    9900012    2    1    2    0    0 -0.23626801532E+01 -0.19491187895E+02 -0.38705742996E+02  0.47787271850E+02  0.20000003672E+02 0.  0.
         12    1    1    2    0    0  0.23626801532E+01  0.19491187895E+02  0.38705742996E+02  0.43400728150E+02  0.00000000000E+00 0. -1.
         11    1    3    3    0    0  0.54512967855E+01 -0.15961776184E+01 -0.92396578965E+01  0.10845999167E+02  0.51100000000E-03 0.  1.
        -11    1    3    3    0    0 -0.61211467202E+01 -0.18516158233E+02 -0.22640785477E+02  0.29881795798E+02  0.51100000000E-03 0. -1.
         12    1    3    3    0    0 -0.16928302184E+01  0.62114795627E+00 -0.68252996232E+01  0.70594768842E+01  0.00000000000E+00 0. -1.
</event>
<event>
 7    1  0.1019486E-010  0.4778727E+02  0.7816164E-02  0.1312668E+00
        -11   -1    0    0    0    0  0.00000000000E+00  0.00000000000E+00  0.45593999997E+02  0.45594000000E+02  0.51100000000E-03 0. -1.
         11   -1    0    0    0    0 -0.00000000000E+00 -0.00000000000E+00 -0.45593999997E+02  0.45594000000E+02  0.51100000000E-03 0.  1.
    9900012    2    1    2    0    0 -0.14796455538E+02  0.12947019229E+02 -0.38691897200E+02  0.47787270601E+02  0.19999997978E+02 0.  0.
         12    1    1    2    0    0  0.14796455538E+02 -0.12947019229E+02  0.38691897200E+02  0.43400729399E+02  0.00000000000E+00 0. -1.
         11    1    3    3    0    0  0.40965296829E+00  0.17370745985E+01  0.15256088868E+01  0.23479196008E+01  0.51100000000E-03 0. -1.
        -11    1    3    3    0    0 -0.64722278933E+01  0.50368284807E+01 -0.28122116377E+02  0.29293562515E+02  0.51100000000E-03 0.  1.
        -12    1    3    3    0    0 -0.87338806131E+01  0.61731161501E+01 -0.12095389710E+02  0.16145788485E+02  0.00000000000E+00 0.  1.
</event>
<event>
 7    1  0.1019486E-010  0.4778726E+02  0.7816164E-02  0.1312668E+00
        -11   -1    0    0    0    0  0.00000000000E+00  0.00000000000E+00  0.45593999997E+02  0.45594000000E+02  0.51100000000E-03 0. -1.
         11   -1    0    0    0    0 -0.00000000000E+00 -0.00000000000E+00 -0.45593999997E+02  0.45594000000E+02  0.51100000000E-03 0.  1.
    9900012    2    1    2    0    0 -0.28789378903E+02 -0.21988857918E+02  0.23901592117E+02  0.47787259040E+02  0.19999945269E+02 0.  0.
        -12    1    1    2    0    0  0.28789378903E+02  0.21988857918E+02 -0.23901592117E+02  0.43400740960E+02  0.00000000000E+00 0.  1.
         11    1    3    3    0    0  0.15435338669E+01 -0.33139405521E+01  0.29482875712E+01  0.46964985515E+01  0.51100000000E-03 0. -1.
        -11    1    3    3    0    0 -0.26551330384E+02 -0.10342393261E+02  0.15469417135E+02  0.32422848583E+02  0.51100000000E-03 0.  1.
        -12    1    3    3    0    0 -0.37815823857E+01 -0.83325241044E+01  0.54838874109E+01  0.10667911906E+02  0.00000000000E+00 0.  1.
</event>
<event>
 7    1  0.1019486E-010  0.4778728E+02  0.7816164E-02  0.1312668E+00
        -11   -1    0    0    0    0  0.00000000000E+00  0.00000000000E+00  0.45593999997E+02  0.45594000000E+02  0.51100000000E-03 0. -1.
         11   -1    0    0    0    0 -0.00000000000E+00 -0.00000000000E+00 -0.45593999997E+02  0.45594000000E+02  0.51100000000E-03 0.  1.
    9900012    2    1    2    0    0  0.33152367689E+02  0.94677901760E+01  0.26361037232E+02  0.47787276295E+02  0.20000023939E+02 0.  0.
        -12    1    1    2    0    0 -0.33152367689E+02 -0.94677901760E+01 -0.26361037232E+02  0.43400723705E+02  0.00000000000E+00 0.  1.
         11    1    3    3    0    0  0.31796297426E+01 -0.41860374183E+00  0.58326287781E+01  0.66561875813E+01  0.51100000000E-03 0.  1.
        -11    1    3    3    0    0  0.10488605089E+02  0.88237853619E+01  0.16058307322E+02  0.21112537961E+02  0.51100000000E-03 0. -1.
        -12    1    3    3    0    0  0.19484132857E+02  0.10626085559E+01  0.44701011318E+01  0.20018550753E+02  0.00000000000E+00 0.  1.
</event>
<event>
 7    1  0.1019486E-010  0.4778727E+02  0.7816164E-02  0.1312668E+00
        -11   -1    0    0    0    0  0.00000000000E+00  0.00000000000E+00  0.45593999997E+02  0.45594000000E+02  0.51100000000E-03 0. -1.
         11   -1    0    0    0    0 -0.00000000000E+00 -0.00000000000E+00 -0.45593999997E+02  0.45594000000E+02  0.51100000000E-03 0.  1.
    9900012    2    1    2    0    0  0.16539876416E+02 -0.11884401042E+02 -0.38325145893E+02  0.47787270655E+02  0.19999998222E+02 0.  0.
         12    1    1    2    0    0 -0.16539876416E+02  0.11884401042E+02  0.38325145893E+02  0.43400729345E+02  0.00000000000E+00 0. -1.
         11    1    3    3    0    0  0.11166035780E+02  0.42085749759E+00 -0.76301402845E+01  0.13530577116E+02  0.51100000000E-03 0. -1.
        -11    1    3    3    0    0  0.65155402769E+01 -0.10106301456E+02 -0.28552287163E+02  0.30981005418E+02  0.51100000000E-03 0.  1.
         12    1    3    3    0    0 -0.11416996409E+01 -0.21989570834E+01 -0.21427184456E+01  0.32756881204E+01  0.00000000000E+00 0. -1.
</event>
<event>
 7    1  0.1019486E-010  0.4778727E+02  0.7816164E-02  0.1312668E+00
        -11   -1    0    0    0    0  0.00000000000E+00  0.00000000000E+00  0.45593999997E+02  0.45594000000E+02  0.51100000000E-03 0. -1.
         11   -1    0    0    0    0 -0.00000000000E+00 -0.00000000000E+00 -0.45593999997E+02  0.45594000000E+02  0.51100000000E-03 0.  1.
    9900012    2    1    2    0    0 -0.85963671584E+01 -0.20443826585E+02  0.37306509479E+02  0.47787271627E+02  0.20000002658E+02 0.  0.
        -12    1    1    2    0    0  0.85963671584E+01  0.20443826585E+02 -0.37306509479E+02  0.43400728373E+02  0.00000000000E+00 0.  1.
         11    1    3    3    0    0 -0.35226750080E+01 -0.15781362837E+02  0.25384910408E+02  0.30097413990E+02  0.51100000000E-03 0. -1.
        -11    1    3    3    0    0 -0.61839366512E+01  0.17217584920E+01  0.45110059206E+01  0.78456803075E+01  0.51100000000E-03 0.  1.
        -12    1    3    3    0    0  0.11102445008E+01 -0.63842222401E+01  0.74105931499E+01  0.98441773296E+01  0.00000000000E+00 0.  1.
</event>
<event>
 7    1  0.1019486E-010  0.4778727E+02  0.7816164E-02  0.1312668E+00
        -11   -1    0    0    0    0  0.00000000000E+00  0.00000000000E+00  0.45593999997E+02  0.45594000000E+02  0.51100000000E-03 0.  1.
         11   -1    0    0    0    0 -0.00000000000E+00 -0.00000000000E+00 -0.45593999997E+02  0.45594000000E+02  0.51100000000E-03 0. -1.
    9900012    2    1    2    0    0  0.40099346095E+02  0.16287771329E+02  0.32208889130E+01  0.47787272155E+02  0.20000005063E+02 0.  0.
         12    1    1    2    0    0 -0.40099346095E+02 -0.16287771329E+02 -0.32208889130E+01  0.43400727845E+02  0.00000000000E+00 0. -1.
         11    1    3    3    0    0  0.33934411691E+01  0.84206160314E+01 -0.17180015059E+01  0.92397914885E+01  0.51100000000E-03 0. -1.
        -11    1    3    3    0    0  0.25166341838E+02  0.84918083843E+01  0.20743494210E+01  0.26641293079E+02  0.51100000000E-03 0.  1.
         12    1    3    3    0    0  0.11539563088E+02 -0.62465308650E+00  0.28645409979E+01  0.11906187587E+02  0.00000000000E+00 0. -1.
</event>
<event>
 7    1  0.1019486E-010  0.4778726E+02  0.7816164E-02  0.1312668E+00
        -11   -1    0    0    0    0  0.00000000000E+00  0.00000000000E+00  0.45593999997E+02  0.45594000000E+02  0.51100000000E-03 0. -1.
         11   -1    0    0    0    0 -0.00000000000E+00 -0.00000000000E+00 -0.45593999997E+02  0.45594000000E+02  0.51100000000E-03 0.  1.
    9900012    2    1    2    0    0 -0.21819248129E+02  0.32294867852E+02 -0.19094135417E+02  0.47787261690E+02  0.19999957351E+02 0.  0.
         12    1    1    2    0    0  0.21819248129E+02 -0.32294867852E+02  0.19094135417E+02  0.43400738310E+02  0.00000000000E+00 0. -1.
         11    1    3    3    0    0 -0.23044977730E+02  0.24888735937E+02 -0.96363772918E+01  0.35261593025E+02  0.51100000000E-03 0.  1.
        -11    1    3    3    0    0  0.17115302057E+01  0.36939449523E+01 -0.68312416956E+01  0.79523850712E+01  0.51100000000E-03 0. -1.
        -12    1    3    3    0    0 -0.48580060479E+00  0.37121869626E+01 -0.26265164297E+01  0.45732835938E+01  0.00000000000E+00 0.  1.
</event>
<event>
 7    1  0.1019486E-010  0.4778727E+02  0.7816164E-02  0.1312668E+00
        -11   -1    0    0    0    0  0.00000000000E+00  0.00000000000E+00  0.45593999997E+02  0.45594000000E+02  0.51100000000E-03 0. -1.
         11   -1    0    0    0    0 -0.00000000000E+00 -0.00000000000E+00 -0.45593999997E+02  0.45594000000E+02  0.51100000000E-03 0.  1.
    9900012    2    1    2    0    0  0.33417951653E+02 -0.75595413709E+01 -0.26640516942E+02  0.47787270728E+02  0.19999998556E+02 0.  0.
         12    1    1    2    0    0 -0.33417951653E+02  0.75595413709E+01  0.26640516942E+02  0.43400729272E+02  0.00000000000E+00 0. -1.
         11    1    3    3    0    0  0.14082755947E+02 -0.42259259497E+01 -0.20632818080E+02  0.25335659600E+02  0.51100000000E-03 0. -1.
        -11    1    3    3    0    0  0.22150245882E+01 -0.39075116167E+01 -0.15463789052E+01  0.47503967140E+01  0.51100000000E-03 0.  1.
         12    1    3    3    0    0  0.17120171118E+02  0.57389619557E+00 -0.44613199568E+01  0.17701214413E+02  0.00000000000E+00 0. -1.
</event>
<event>
 7    1  0.1019486E-010  0.4778727E+02  0.7816164E-02  0.1312668E+00
        -11   -1    0    0    0    0  0.00000000000E+00  0.00000000000E+00  0.45593999997E+02  0.45594000000E+02  0.51100000000E-03 0. -1.
         11   -1    0    0    0    0 -0.00000000000E+00 -0.00000000000E+00 -0.45593999997E+02  0.45594000000E+02  0.51100000000E-03 0.  1.
    9900012    2    1    2    0    0 -0.10609732983E+02  0.23854712277E+02 -0.34670009361E+02  0.47787270964E+02  0.19999999632E+02 0.  0.
         12    1    1    2    0    0  0.10609732983E+02 -0.23854712277E+02  0.34670009361E+02  0.43400729036E+02  0.00000000000E+00 0. -1.
         11    1    3    3    0    0 -0.97521701781E+01  0.32049527927E+01 -0.70166761462E+01  0.12434238617E+02  0.51100000000E-03 0. -1.
        -11    1    3    3    0    0  0.26141143301E+01  0.12009887413E+02 -0.12244180813E+02  0.17349090853E+02  0.51100000000E-03 0.  1.
        -12    1    3    3    0    0 -0.34716771346E+01  0.86398720715E+01 -0.15409152402E+02  0.18003941493E+02  0.00000000000E+00 0.  1.
</event>
<event>
 7    1  0.1019486E-010  0.4778727E+02  0.7816164E-02  0.1312668E+00
        -11   -1    0    0    0    0  0.00000000000E+00  0.00000000000E+00  0.45593999997E+02  0.45594000000E+02  0.51100000000E-03 0. -1.
         11   -1    0    0    0    0 -0.00000000000E+00 -0.00000000000E+00 -0.45593999997E+02  0.45594000000E+02  0.51100000000E-03 0.  1.
    9900012    2    1    2    0    0  0.25281937485E+02 -0.47722542853E+01  0.34952431890E+02  0.47787271100E+02  0.20000000256E+02 0.  0.
        -12    1    1    2    0    0 -0.25281937485E+02  0.47722542853E+01 -0.34952431890E+02  0.43400728900E+02  0.00000000000E+00 0.  1.
         11    1    3    3    0    0  0.15951778649E+02  0.29791291205E+01  0.16598766012E+02  0.23213217911E+02  0.51100000000E-03 0. -1.
        -11    1    3    3    0    0 -0.48991468257E+00 -0.20418566306E+01  0.10635454685E+02  0.10840760652E+02  0.51100000000E-03 0.  1.
        -12    1    3    3    0    0  0.98200735182E+01 -0.57095267752E+01  0.77182111933E+01  0.13733292538E+02  0.00000000000E+00 0.  1.
</event>
<event>
 7    1  0.1047159E-010  0.4778727E+02  0.7816164E-02  0.1312668E+00
        -11   -1    0    0    0    0  0.00000000000E+00  0.00000000000E+00  0.45593999997E+02  0.45594000000E+02  0.51100000000E-03 0. -1.
         11   -1    0    0    0    0 -0.00000000000E+00 -0.00000000000E+00 -0.45593999997E+02  0.45594000000E+02  0.51100000000E-03 0.  1.
    9900012    2    1    2    0    0 -0.84037504657E+01  0.23182533874E+02  0.35715128861E+02  0.47787270418E+02  0.19999997143E+02 0.  0.
        -12    1    1    2    0    0  0.84037504657E+01 -0.23182533874E+02 -0.35715128861E+02  0.43400729582E+02  0.00000000000E+00 0.  1.
         11    1    3    3    0    0 -0.13788403093E+01  0.15402103747E+02  0.27444799312E+02  0.31501476314E+02  0.51100000000E-03 0. -1.
        -11    1    3    3    0    0 -0.42238764461E+01 -0.12044572608E+01  0.40387972295E+01  0.59668863612E+01  0.51100000000E-03 0.  1.
        -12    1    3    3    0    0 -0.28010337103E+01  0.89848873883E+01  0.42315323191E+01  0.10318907742E+02  0.00000000000E+00 0.  1.
</event>
<event>
 7    1  0.1019486E-010  0.4778727E+02  0.7816164E-02  0.1312668E+00
        -11   -1    0    0    0    0  0.00000000000E+00  0.00000000000E+00  0.45593999997E+02  0.45594000000E+02  0.51100000000E-03 0. -1.
         11   -1    0    0    0    0 -0.00000000000E+00 -0.00000000000E+00 -0.45593999997E+02  0.45594000000E+02  0.51100000000E-03 0.  1.
    9900012    2    1    2    0    0 -0.80036563614E+01 -0.42714868446E+01  0.42441946675E+02  0.47787274746E+02  0.20000016876E+02 0.  0.
        -12    1    1    2    0    0  0.80036563614E+01  0.42714868446E+01 -0.42441946675E+02  0.43400725254E+02  0.00000000000E+00 0.  1.
         11    1    3    3    0    0  0.44397757947E+01  0.19267962265E+01  0.13869443166E+02  0.14689642842E+02  0.51100000000E-03 0.  1.
        -11    1    3    3    0    0 -0.47229326847E+01 -0.73143123791E+01  0.17587645318E+02  0.19624742720E+02  0.51100000000E-03 0. -1.
         12    1    3    3    0    0 -0.77204994714E+01  0.11160293080E+01  0.10984858190E+02  0.13472889184E+02  0.00000000000E+00 0. -1.
</event>
<event>
 7    1  0.1019486E-010  0.4778727E+02  0.7816164E-02  0.1312668E+00
        -11   -1    0    0    0    0  0.00000000000E+00  0.00000000000E+00  0.45593999997E+02  0.45594000000E+02  0.51100000000E-03 0. -1.
         11   -1    0    0    0    0 -0.00000000000E+00 -0.00000000000E+00 -0.45593999997E+02  0.45594000000E+02  0.51100000000E-03 0.  1.
    9900012    2    1    2    0    0  0.12310671690E+02 -0.41004348986E+02 -0.71213819851E+01  0.47787270114E+02  0.19999995760E+02 0.  0.
         12    1    1    2    0    0 -0.12310671690E+02  0.41004348986E+02  0.71213819851E+01  0.43400729886E+02  0.00000000000E+00 0. -1.
         11    1    3    3    0    0  0.33010674342E+01 -0.73063066461E+01  0.63421318511E+01  0.10222612175E+02  0.51100000000E-03 0. -1.
        -11    1    3    3    0    0  0.69463524650E+01 -0.27341172692E+02 -0.12326568638E+02  0.30785318439E+02  0.51100000000E-03 0.  1.
         12    1    3    3    0    0  0.20632517910E+01 -0.63568696475E+01 -0.11369451985E+01  0.67793394997E+01  0.00000000000E+00 0. -1.
</event>
<event>
 7    1  0.1019486E-010  0.4778728E+02  0.7816164E-02  0.1312668E+00
        -11   -1    0    0    0    0  0.00000000000E+00  0.00000000000E+00  0.45593999997E+02  0.45594000000E+02  0.51100000000E-03 0. -1.
         11   -1    0    0    0    0 -0.00000000000E+00 -0.00000000000E+00 -0.45593999997E+02  0.45594000000E+02  0.51100000000E-03 0.  1.
    9900012    2    1    2    0    0  0.32558391365E+00 -0.18854195178E+02  0.39090101475E+02  0.47787277494E+02  0.20000029407E+02 0.  0.
        -12    1    1    2    0    0 -0.32558391365E+00  0.18854195178E+02 -0.39090101475E+02  0.43400722506E+02  0.00000000000E+00 0.  1.
         11    1    3    3    0    0 -0.82574619232E+01 -0.38930178467E+01  0.10858123956E+02  0.14185912782E+02  0.51100000000E-03 0. -1.
        -11    1    3    3    0    0  0.55441115364E+01 -0.13879702200E+02  0.22224462182E+02  0.26782644108E+02  0.51100000000E-03 0.  1.
        -12    1    3    3    0    0  0.30389343004E+01 -0.10814751309E+01  0.60075153375E+01  0.68187206037E+01  0.00000000000E+00 0.  1.
</event>
<event>
 7    1  0.1019486E-010  0.4778728E+02  0.7816164E-02  0.1312668E+00
        -11   -1    0    0    0    0  0.00000000000E+00  0.00000000000E+00  0.45593999997E+02  0.45594000000E+02  0.51100000000E-03 0. -1.
         11   -1    0    0    0    0 -0.00000000000E+00 -0.00000000000E+00 -0.45593999997E+02  0.45594000000E+02  0.51100000000E-03 0.  1.
    9900012    2    1    2    0    0  0.28897373957E+02 -0.31344993634E+02 -0.81274812919E+01  0.47787276507E+02  0.20000024907E+02 0.  0.
         12    1    1    2    0    0 -0.28897373957E+02  0.31344993634E+02  0.81274812919E+01  0.43400723493E+02  0.00000000000E+00 0. -1.
         11    1    3    3    0    0  0.38916420511E+01 -0.24101896281E+01 -0.51207328508E+01  0.68684639540E+01  0.51100000000E-03 0. -1.
        -11    1    3    3    0    0  0.10374909345E+02 -0.21253286224E+02  0.17728449122E+01  0.23716743001E+02  0.51100000000E-03 0.  1.
        -12    1    3    3    0    0  0.14630822561E+02 -0.76815177819E+01 -0.47795933533E+01  0.17202069552E+02  0.00000000000E+00 0.  1.
</event>
<event>
 7    1  0.1019486E-010  0.4778727E+02  0.7816164E-02  0.1312668E+00
        -11   -1    0    0    0    0  0.00000000000E+00  0.00000000000E+00  0.45593999997E+02  0.45594000000E+02  0.51100000000E-03 0. -1.
         11   -1    0    0    0    0 -0.00000000000E+00 -0.00000000000E+00 -0.45593999997E+02  0.45594000000E+02  0.51100000000E-03 0.  1.
    9900012    2    1    2    0    0  0.64525730620E+01 -0.11374200605E+02  0.41383755707E+02  0.47787269880E+02  0.19999994691E+02 0.  0.
        -12    1    1    2    0    0 -0.64525730620E+01  0.11374200605E+02 -0.41383755707E+02  0.43400730120E+02  0.00000000000E+00 0.  1.
         11    1    3    3    0    0  0.84837266444E+01 -0.14597828235E+02  0.21414620413E+02  0.27270060041E+02  0.51100000000E-03 0. -1.
        -11    1    3    3    0    0 -0.23471546482E+01  0.17038149933E+01  0.94776746838E+01  0.99115305653E+01  0.51100000000E-03 0.  1.
         12    1    3    3    0    0  0.31600106587E+00  0.15198126364E+01  0.10491460610E+02  0.10605679274E+02  0.00000000000E+00 0. -1.
</event>
<event>
 7    1  0.1019486E-010  0.4778727E+02  0.7816164E-02  0.1312668E+00
        -11   -1    0    0    0    0  0.00000000000E+00  0.00000000000E+00  0.45593999997E+02  0.45594000000E+02  0.51100000000E-03 0. -1.
         11   -1    0    0    0    0 -0.00000000000E+00 -0.00000000000E+00 -0.45593999997E+02  0.45594000000E+02  0.51100000000E-03 0.  1.
    9900012    2    1    2    0    0  0.39110263470E+02 -0.18263610236E+02 -0.45222736130E+01  0.47787272746E+02  0.20000007757E+02 0.  0.
         12    1    1    2    0    0 -0.39110263470E+02  0.18263610236E+02  0.45222736130E+01  0.43400727254E+02  0.00000000000E+00 0. -1.
         11    1    3    3    0    0  0.27970377362E+02 -0.15613420088E+02 -0.85150492403E+01  0.33145542090E+02  0.51100000000E-03 0. -1.
        -11    1    3    3    0    0  0.60337027549E+01  0.69096491726E+00 -0.16893132997E+01  0.63037116952E+01  0.51100000000E-03 0.  1.
         12    1    3    3    0    0  0.51061833531E+01 -0.33411550654E+01  0.56820889270E+01  0.83380189602E+01  0.00000000000E+00 0. -1.
</event>
<event>
 7    1  0.1019486E-010  0.4778726E+02  0.7816164E-02  0.1312668E+00
        -11   -1    0    0    0    0  0.00000000000E+00  0.00000000000E+00  0.45593999997E+02  0.45594000000E+02  0.51100000000E-03 0. -1.
         11   -1    0    0    0    0 -0.00000000000E+00 -0.00000000000E+00 -0.45593999997E+02  0.45594000000E+02  0.51100000000E-03 0.  1.
    9900012    2    1    2    0    0 -0.17389540501E+02  0.37365012461E+01  0.39588720166E+02  0.47787258937E+02  0.19999944799E+02 0.  0.
        -12    1    1    2    0    0  0.17389540501E+02 -0.37365012461E+01 -0.39588720166E+02  0.43400741063E+02  0.00000000000E+00 0.  1.
         11    1    3    3    0    0 -0.10256173456E+02 -0.32088067331E+01  0.26674177442E+02  0.28757560346E+02  0.51100000000E-03 0. -1.
        -11    1    3    3    0    0 -0.18388904220E+01  0.69754286899E+01  0.30457981555E+01  0.78303901600E+01  0.51100000000E-03 0.  1.
        -12    1    3    3    0    0 -0.52944766237E+01 -0.30120710671E-01  0.98687445688E+01  0.11199308431E+02  0.00000000000E+00 0.  1.
</event>
<event>
 7    1  0.1019486E-010  0.4778727E+02  0.7816164E-02  0.1312668E+00
        -11   -1    0    0    0    0  0.00000000000E+00  0.00000000000E+00  0.45593999997E+02  0.45594000000E+02  0.51100000000E-03 0. -1.
         11   -1    0    0    0    0 -0.00000000000E+00 -0.00000000000E+00 -0.45593999997E+02  0.45594000000E+02  0.51100000000E-03 0.  1.
    9900012    2    1    2    0    0  0.20448295592E+02 -0.92220648296E+01 -0.37154325317E+02  0.47787272332E+02  0.20000005870E+02 0.  0.
         12    1    1    2    0    0 -0.20448295592E+02  0.92220648296E+01  0.37154325317E+02  0.43400727668E+02  0.00000000000E+00 0. -1.
         11    1    3    3    0    0 -0.18379479852E+01  0.29878956658E+01 -0.47565326562E+01  0.59101756722E+01  0.51100000000E-03 0. -1.
        -11    1    3    3    0    0  0.16929891286E+02 -0.52059335461E+01 -0.21254804624E+02  0.27667484217E+02  0.51100000000E-03 0.  1.
        -12    1    3    3    0    0  0.53563522916E+01 -0.70040269493E+01 -0.11142988037E+02  0.14209612443E+02  0.00000000000E+00 0.  1.
</event>
<event>
 7    1  0.1019486E-010  0.4778728E+02  0.7816164E-02  0.1312668E+00
        -11   -1    0    0    0    0  0.00000000000E+00  0.00000000000E+00  0.45593999997E+02  0.45594000000E+02  0.51100000000E-03 0. -1.
         11   -1    0    0    0    0 -0.00000000000E+00 -0.00000000000E+00 -0.45593999997E+02  0.45594000000E+02  0.51100000000E-03 0.  1.
    9900012    2    1    2    0    0 -0.26665631864E+02  0.27715965766E+02 -0.20109505392E+02  0.47787275489E+02  0.20000020263E+02 0.  0.
         12    1    1    2    0    0  0.26665631864E+02 -0.27715965766E+02  0.20109505392E+02  0.43400724511E+02  0.00000000000E+00 0. -1.
         11    1    3    3    0    0 -0.91694746721E+01  0.11523951171E+01 -0.85654113437E+01  0.12600537767E+02  0.51100000000E-03 0. -1.
        -11    1    3    3    0    0 -0.80270769052E+01  0.20443279230E+02 -0.74648874172E+01  0.23196684542E+02  0.51100000000E-03 0.  1.
        -12    1    3    3    0    0 -0.94690802864E+01  0.61202914186E+01 -0.40792066307E+01  0.11990053180E+02  0.00000000000E+00 0.  1.
</event>
<event>
 7    1  0.1019486E-010  0.4778731E+02  0.7816164E-02  0.1312668E+00
        -11   -1    0    0    0    0  0.00000000000E+00  0.00000000000E+00  0.45593999997E+02  0.45594000000E+02  0.51100000000E-03 0.  1.
         11   -1    0    0    0    0 -0.00000000000E+00 -0.00000000000E+00 -0.45593999997E+02  0.45594000000E+02  0.51100000000E-03 0. -1.
    9900012    2    1    2    0    0 -0.17460489374E+02  0.35306279424E+02  0.18226836375E+02  0.47787313137E+02  0.20000191914E+02 0.  0.
         12    1    1    2    0    0  0.17460489374E+02 -0.35306279424E+02 -0.18226836375E+02  0.43400686863E+02  0.00000000000E+00 0. -1.
         11    1    3    3    0    0 -0.70448921725E+01  0.20801926366E+02  0.40314984248E+01  0.22329434074E+02  0.51100000000E-03 0. -1.
        -11    1    3    3    0    0 -0.20555026440E+01  0.89418108217E+01  0.12124919928E+02  0.15205089787E+02  0.51100000000E-03 0.  1.
         12    1    3    3    0    0 -0.83600945578E+01  0.55625422364E+01  0.20704180218E+01  0.10252789276E+02  0.00000000000E+00 0. -1.
</event>
<event>
 7    1  0.1019486E-010  0.4778727E+02  0.7816164E-02  0.1312668E+00
        -11   -1    0    0    0    0  0.00000000000E+00  0.00000000000E+00  0.45593999997E+02  0.45594000000E+02  0.51100000000E-03 0.  1.
         11   -1    0    0    0    0 -0.00000000000E+00 -0.00000000000E+00 -0.45593999997E+02  0.45594000000E+02  0.51100000000E-03 0. -1.
    9900012    2    1    2    0    0 -0.11826807066E+02 -0.39573696334E+02  0.13329390369E+02  0.47787268964E+02  0.19999990513E+02 0.  0.
        -12    1    1    2    0    0  0.11826807066E+02  0.39573696334E+02 -0.13329390369E+02  0.43400731036E+02  0.00000000000E+00 0.  1.
         11    1    3    3    0    0  0.18457770926E+01 -0.91504799112E+01  0.77274696926E+01  0.12118249205E+02  0.51100000000E-03 0. -1.
        -11    1    3    3    0    0  0.13522134748E+00 -0.55641389748E+01  0.45905338728E+01  0.72146329666E+01  0.51100000000E-03 0.  1.
         12    1    3    3    0    0 -0.13807805506E+02 -0.24859077448E+02  0.10113868033E+01  0.28454386792E+02  0.00000000000E+00 0. -1.
</event>
<event>
 7    1  0.1019486E-010  0.4778727E+02  0.7816164E-02  0.1312668E+00
        -11   -1    0    0    0    0  0.00000000000E+00  0.00000000000E+00  0.45593999997E+02  0.45594000000E+02  0.51100000000E-03 0. -1.
         11   -1    0    0    0    0 -0.00000000000E+00 -0.00000000000E+00 -0.45593999997E+02  0.45594000000E+02  0.51100000000E-03 0.  1.
    9900012    2    1    2    0    0  0.63645603207E+01 -0.36327158612E+02 -0.22879102732E+02  0.47787269329E+02  0.19999992181E+02 0.  0.
         12    1    1    2    0    0 -0.63645603207E+01  0.36327158612E+02  0.22879102732E+02  0.43400730671E+02  0.00000000000E+00 0. -1.
         11    1    3    3    0    0 -0.24260829862E+00 -0.53215691284E+00  0.73071623272E+00  0.93594670806E+00  0.51100000000E-03 0. -1.
        -11    1    3    3    0    0  0.91671532764E+01 -0.33042475957E+02 -0.14944118794E+02  0.37405462213E+02  0.51100000000E-03 0.  1.
        -12    1    3    3    0    0 -0.25599846571E+01 -0.27525257426E+01 -0.86657001710E+01  0.94458604087E+01  0.00000000000E+00 0.  1.
</event>
<event>
 7    1  0.1019486E-010  0.4778727E+02  0.7816164E-02  0.1312668E+00
        -11   -1    0    0    0    0  0.00000000000E+00  0.00000000000E+00  0.45593999997E+02  0.45594000000E+02  0.51100000000E-03 0. -1.
         11   -1    0    0    0    0 -0.00000000000E+00 -0.00000000000E+00 -0.45593999997E+02  0.45594000000E+02  0.51100000000E-03 0.  1.
    9900012    2    1    2    0    0 -0.16819376545E+02  0.27419170406E+02 -0.29136247049E+02  0.47787271605E+02  0.20000002554E+02 0.  0.
         12    1    1    2    0    0  0.16819376545E+02 -0.27419170406E+02  0.29136247049E+02  0.43400728395E+02  0.00000000000E+00 0. -1.
         11    1    3    3    0    0 -0.90814407479E+01 -0.19925920916E+00 -0.58170267460E+01  0.10786568996E+02  0.51100000000E-03 0. -1.
        -11    1    3    3    0    0 -0.73502879251E+01  0.24576484325E+02 -0.20540721151E+02  0.32862616147E+02  0.51100000000E-03 0.  1.
         12    1    3    3    0    0 -0.38764787224E+00  0.30419452901E+01 -0.27784991523E+01  0.41380864612E+01  0.00000000000E+00 0. -1.
</event>
<event>
 7    1  0.1019486E-010  0.4778727E+02  0.7816164E-02  0.1312668E+00
        -11   -1    0    0    0    0  0.00000000000E+00  0.00000000000E+00  0.45593999997E+02  0.45594000000E+02  0.51100000000E-03 0. -1.
         11   -1    0    0    0    0 -0.00000000000E+00 -0.00000000000E+00 -0.45593999997E+02  0.45594000000E+02  0.51100000000E-03 0.  1.
    9900012    2    1    2    0    0  0.10273744104E+02  0.30183587856E+02  0.29445277726E+02  0.47787272193E+02  0.20000005239E+02 0.  0.
        -12    1    1    2    0    0 -0.10273744104E+02 -0.30183587856E+02 -0.29445277726E+02  0.43400727807E+02  0.00000000000E+00 0.  1.
         11    1    3    3    0    0  0.46273726517E+01  0.50227086030E+01 -0.14686058095E+01  0.69854837093E+01  0.51100000000E-03 0. -1.
        -11    1    3    3    0    0  0.27664817613E+01  0.32228512468E+01  0.30888628296E+01  0.52517868707E+01  0.51100000000E-03 0.  1.
         12    1    3    3    0    0  0.28798896907E+01  0.21938028006E+02  0.27825020706E+02  0.35550001613E+02  0.00000000000E+00 0. -1.
</event>
<event>
 7    1  0.1019486E-010  0.4778727E+02  0.7816164E-02  0.1312668E+00
        -11   -1    0    0    0    0  0.00000000000E+00  0.00000000000E+00  0.45593999997E+02  0.45594000000E+02  0.51100000000E-03 0. -1.
         11   -1    0    0    0    0 -0.00000000000E+00 -0.00000000000E+00 -0.45593999997E+02  0.45594000000E+02  0.51100000000E-03 0.  1.
    9900012    2    1    2    0    0 -0.37394270681E+02 -0.11733048122E+02  0.18644762449E+02  0.47787273453E+02  0.20000010984E+02 0.  0.
        -12    1    1    2    0    0  0.37394270681E+02  0.11733048122E+02 -0.18644762449E+02  0.43400726547E+02  0.00000000000E+00 0.  1.
         11    1    3    3    0    0 -0.78123478130E+01 -0.35795600148E+01  0.13121470212E+02  0.15684993115E+02  0.51100000000E-03 0. -1.
        -11    1    3    3    0    0 -0.29518894173E+02 -0.83752423495E+01  0.62723407169E+01  0.31318557692E+02  0.51100000000E-03 0.  1.
         12    1    3    3    0    0 -0.63028694892E-01  0.22175424226E+00 -0.74904847961E+00  0.78372264555E+00  0.00000000000E+00 0. -1.
</event>
<event>
 7    1  0.1019486E-010  0.4778727E+02  0.7816164E-02  0.1312668E+00
        -11   -1    0    0    0    0  0.00000000000E+00  0.00000000000E+00  0.45593999997E+02  0.45594000000E+02  0.51100000000E-03 0. -1.
         11   -1    0    0    0    0 -0.00000000000E+00 -0.00000000000E+00 -0.45593999997E+02  0.45594000000E+02  0.51100000000E-03 0.  1.
    9900012    2    1    2    0    0  0.36251337792E+01 -0.16109370099E+02  0.40136890997E+02  0.47787269375E+02  0.19999992388E+02 0.  0.
        -12    1    1    2    0    0 -0.36251337792E+01  0.16109370099E+02 -0.40136890997E+02  0.43400730625E+02  0.00000000000E+00 0.  1.
         11    1    3    3    0    0 -0.53268517310E+01 -0.18056051933E+01  0.35222723316E+01  0.66364118405E+01  0.51100000000E-03 0.  1.
        -11    1    3    3    0    0  0.79115762745E+01 -0.70568819248E+01  0.27416105692E+02  0.29394480319E+02  0.51100000000E-03 0. -1.
         12    1    3    3    0    0  0.10404092357E+01 -0.72468829811E+01  0.91985129733E+01  0.11756377216E+02  0.00000000000E+00 0. -1.
</event>
<event>
 7    1  0.1019486E-010  0.4778727E+02  0.7816164E-02  0.1312668E+00
        -11   -1    0    0    0    0  0.00000000000E+00  0.00000000000E+00  0.45593999997E+02  0.45594000000E+02  0.51100000000E-03 0. -1.
         11   -1    0    0    0    0 -0.00000000000E+00 -0.00000000000E+00 -0.45593999997E+02  0.45594000000E+02  0.51100000000E-03 0.  1.
    9900012    2    1    2    0    0 -0.99809565030E+01 -0.21579283622E+02 -0.36308932888E+02  0.47787267497E+02  0.19999983826E+02 0.  0.
         12    1    1    2    0    0  0.99809565030E+01  0.21579283622E+02  0.36308932888E+02  0.43400732503E+02  0.00000000000E+00 0. -1.
         11    1    3    3    0    0  0.11926425336E+01 -0.11475613559E+01 -0.53854999168E+01  0.56340840333E+01  0.51100000000E-03 0. -1.
        -11    1    3    3    0    0 -0.89556460599E+01 -0.43297374214E+01 -0.20659909392E+02  0.22929938483E+02  0.51100000000E-03 0.  1.
        -12    1    3    3    0    0 -0.22179529767E+01 -0.16101984844E+02 -0.10263523579E+02  0.19223244981E+02  0.00000000000E+00 0.  1.
</event>
<event>
 7    1  0.1019486E-010  0.4778727E+02  0.7816164E-02  0.1312668E+00
        -11   -1    0    0    0    0  0.00000000000E+00  0.00000000000E+00  0.45593999997E+02  0.45594000000E+02  0.51100000000E-03 0. -1.
         11   -1    0    0    0    0 -0.00000000000E+00 -0.00000000000E+00 -0.45593999997E+02  0.45594000000E+02  0.51100000000E-03 0.  1.
    9900012    2    1    2    0    0 -0.16774308586E+02 -0.72734170908E+01  0.39361697640E+02  0.47787271137E+02  0.20000000422E+02 0.  0.
        -12    1    1    2    0    0  0.16774308586E+02  0.72734170908E+01 -0.39361697640E+02  0.43400728863E+02  0.00000000000E+00 0.  1.
         11    1    3    3    0    0 -0.16764378454E+02 -0.99139087535E+01  0.32505701640E+02  0.37893938975E+02  0.51100000000E-03 0. -1.
        -11    1    3    3    0    0 -0.85756602143E+00  0.44292048085E+01  0.26184344117E+01  0.52162700991E+01  0.51100000000E-03 0.  1.
        -12    1    3    3    0    0  0.84763588913E+00 -0.17887131458E+01  0.42375615890E+01  0.46770620628E+01  0.00000000000E+00 0.  1.
</event>
<event>
 7    1  0.1019486E-010  0.4778727E+02  0.7816164E-02  0.1312668E+00
        -11   -1    0    0    0    0  0.00000000000E+00  0.00000000000E+00  0.45593999997E+02  0.45594000000E+02  0.51100000000E-03 0. -1.
         11   -1    0    0    0    0 -0.00000000000E+00 -0.00000000000E+00 -0.45593999997E+02  0.45594000000E+02  0.51100000000E-03 0.  1.
    9900012    2    1    2    0    0  0.38654332664E+02  0.12483000586E+02 -0.15285307225E+02  0.47787270118E+02  0.19999995775E+02 0.  0.
         12    1    1    2    0    0 -0.38654332664E+02 -0.12483000586E+02  0.15285307225E+02  0.43400729882E+02  0.00000000000E+00 0. -1.
         11    1    3    3    0    0  0.27385854650E+02  0.55695457513E+01 -0.15015970470E+02  0.31725135842E+02  0.51100000000E-03 0. -1.
        -11    1    3    3    0    0  0.91859799821E+01  0.54742710372E+01  0.37331205616E+01  0.11326343673E+02  0.51100000000E-03 0.  1.
        -12    1    3    3    0    0  0.20824980327E+01  0.14391837973E+01 -0.40024573170E+01  0.47357906027E+01  0.00000000000E+00 0.  1.
</event>
<event>
 7    1  0.1049555E-010  0.4778727E+02  0.7816164E-02  0.1312668E+00
        -11   -1    0    0    0    0  0.00000000000E+00  0.00000000000E+00  0.45593999997E+02  0.45594000000E+02  0.51100000000E-03 0. -1.
         11   -1    0    0    0    0 -0.00000000000E+00 -0.00000000000E+00 -0.45593999997E+02  0.45594000000E+02  0.51100000000E-03 0.  1.
    9900012    2    1    2    0    0 -0.27262912308E+02  0.25178908228E+02 -0.22502877587E+02  0.47787270666E+02  0.19999998272E+02 0.  0.
         12    1    1    2    0    0  0.27262912308E+02 -0.25178908228E+02  0.22502877587E+02  0.43400729334E+02  0.00000000000E+00 0. -1.
         11    1    3    3    0    0 -0.14230935119E+02  0.15522685190E+02 -0.53571927893E+01  0.21729537149E+02  0.51100000000E-03 0. -1.
        -11    1    3    3    0    0 -0.98541220624E+01  0.11731365563E+02 -0.11099348338E+02  0.18918884570E+02  0.51100000000E-03 0.  1.
         12    1    3    3    0    0 -0.31778551263E+01 -0.20751425241E+01 -0.60463364597E+01  0.71388489466E+01  0.00000000000E+00 0. -1.
</event>
<event>
 7    1  0.1019486E-010  0.4778727E+02  0.7816164E-02  0.1312668E+00
        -11   -1    0    0    0    0  0.00000000000E+00  0.00000000000E+00  0.45593999997E+02  0.45594000000E+02  0.51100000000E-03 0. -1.
         11   -1    0    0    0    0 -0.00000000000E+00 -0.00000000000E+00 -0.45593999997E+02  0.45594000000E+02  0.51100000000E-03 0.  1.
    9900012    2    1    2    0    0 -0.34431103540E+02  0.11379454668E+02 -0.23845970769E+02  0.47787271879E+02  0.20000003804E+02 0.  0.
         12    1    1    2    0    0  0.34431103540E+02 -0.11379454668E+02  0.23845970769E+02  0.43400728121E+02  0.00000000000E+00 0. -1.
         11    1    3    3    0    0 -0.74366955281E+01 -0.10371744678E+00 -0.14858875233E+02  0.16616298358E+02  0.51100000000E-03 0. -1.
        -11    1    3    3    0    0 -0.23723194284E+02  0.99991571236E+01 -0.58472980066E+01  0.26400075463E+02  0.51100000000E-03 0.  1.
        -12    1    3    3    0    0 -0.32712137285E+01  0.14840149916E+01 -0.31397975293E+01  0.47708980578E+01  0.00000000000E+00 0.  1.
</event>
<event>
 7    1  0.1019486E-010  0.4778727E+02  0.7816164E-02  0.1312668E+00
        -11   -1    0    0    0    0  0.00000000000E+00  0.00000000000E+00  0.45593999997E+02  0.45594000000E+02  0.51100000000E-03 0. -1.
         11   -1    0    0    0    0 -0.00000000000E+00 -0.00000000000E+00 -0.45593999997E+02  0.45594000000E+02  0.51100000000E-03 0.  1.
    9900012    2    1    2    0    0 -0.36408937571E+02  0.23031391491E+02 -0.52504915429E+01  0.47787269700E+02  0.19999993872E+02 0.  0.
         12    1    1    2    0    0  0.36408937571E+02 -0.23031391491E+02  0.52504915429E+01  0.43400730300E+02  0.00000000000E+00 0. -1.
         11    1    3    3    0    0 -0.92579778603E+00 -0.11434149323E+00  0.85851016856E+00  0.12677600279E+01  0.51100000000E-03 0. -1.
        -11    1    3    3    0    0 -0.33958026739E+02  0.15778144472E+02 -0.89120352926E+01  0.38490541647E+02  0.51100000000E-03 0.  1.
        -12    1    3    3    0    0 -0.15251130463E+01  0.73675885126E+01  0.28030335811E+01  0.80289680254E+01  0.00000000000E+00 0.  1.
</event>
<event>
 7    1  0.1019486E-010  0.4778728E+02  0.7816164E-02  0.1312668E+00
        -11   -1    0    0    0    0  0.00000000000E+00  0.00000000000E+00  0.45593999997E+02  0.45594000000E+02  0.51100000000E-03 0. -1.
         11   -1    0    0    0    0 -0.00000000000E+00 -0.00000000000E+00 -0.45593999997E+02  0.45594000000E+02  0.51100000000E-03 0.  1.
    9900012    2    1    2    0    0 -0.24107967948E+02 -0.49887793743E+01 -0.35742702811E+02  0.47787276015E+02  0.20000022661E+02 0.  0.
         12    1    1    2    0    0  0.24107967948E+02  0.49887793743E+01  0.35742702811E+02  0.43400723985E+02  0.00000000000E+00 0. -1.
         11    1    3    3    0    0 -0.12841613113E+02 -0.83123303817E+01 -0.30615420400E+02  0.34224345578E+02  0.51100000000E-03 0. -1.
        -11    1    3    3    0    0 -0.83328787065E+01  0.25127127119E+01 -0.15064333949E+01  0.88328893655E+01  0.51100000000E-03 0.  1.
         12    1    3    3    0    0 -0.29334761277E+01  0.81083829554E+00 -0.36208490165E+01  0.47300410710E+01  0.00000000000E+00 0. -1.
</event>
<event>
 7    1  0.1019486E-010  0.4778727E+02  0.7816164E-02  0.1312668E+00
        -11   -1    0    0    0    0  0.00000000000E+00  0.00000000000E+00  0.45593999997E+02  0.45594000000E+02  0.51100000000E-03 0. -1.
         11   -1    0    0    0    0 -0.00000000000E+00 -0.00000000000E+00 -0.45593999997E+02  0.45594000000E+02  0.51100000000E-03 0.  1.
    9900012    2    1    2    0    0 -0.96972023784E+01 -0.39403242961E+02  0.15393890829E+02  0.47787272303E+02  0.20000005736E+02 0.  0.
        -12    1    1    2    0    0  0.96972023784E+01  0.39403242961E+02 -0.15393890829E+02  0.43400727697E+02  0.00000000000E+00 0.  1.
         11    1    3    3    0    0 -0.26928166563E+01 -0.10187921052E+02  0.12448769951E+02  0.16310023620E+02  0.51100000000E-03 0. -1.
        -11    1    3    3    0    0 -0.31967111942E+01 -0.26080060122E+02  0.35260771583E+01  0.26510784953E+02  0.51100000000E-03 0.  1.
         12    1    3    3    0    0 -0.38076745279E+01 -0.31352617865E+01 -0.58095628064E+00  0.49664637299E+01  0.00000000000E+00 0. -1.
</event>
<event>
 7    1  0.1019486E-010  0.4778728E+02  0.7816164E-02  0.1312668E+00
        -11   -1    0    0    0    0  0.00000000000E+00  0.00000000000E+00  0.45593999997E+02  0.45594000000E+02  0.51100000000E-03 0. -1.
         11   -1    0    0    0    0 -0.00000000000E+00 -0.00000000000E+00 -0.45593999997E+02  0.45594000000E+02  0.51100000000E-03 0.  1.
    9900012    2    1    2    0    0  0.17022389653E+02  0.36197640230E+01 -0.39758752386E+02  0.47787276131E+02  0.20000023191E+02 0.  0.
         12    1    1    2    0    0 -0.17022389653E+02 -0.36197640230E+01  0.39758752386E+02  0.43400723869E+02  0.00000000000E+00 0. -1.
         11    1    3    3    0    0  0.19996193517E+02  0.18705428632E+01 -0.23667690057E+02  0.31040396883E+02  0.51100000000E-03 0. -1.
        -11    1    3    3    0    0 -0.29055675633E+01  0.99380059013E+00 -0.15454584393E+02  0.15756717346E+02  0.51100000000E-03 0.  1.
         12    1    3    3    0    0 -0.68236300878E-01  0.75542056967E+00 -0.63647793525E+00  0.99016190186E+00  0.00000000000E+00 0. -1.
</event>
<event>
 7    1  0.1019486E-010  0.4778727E+02  0.7816164E-02  0.1312668E+00
        -11   -1    0    0    0    0  0.00000000000E+00  0.00000000000E+00  0.45593999997E+02  0.45594000000E+02  0.51100000000E-03 0. -1.
         11   -1    0    0    0    0 -0.00000000000E+00 -0.00000000000E+00 -0.45593999997E+02  0.45594000000E+02  0.51100000000E-03 0.  1.
    9900012    2    1    2    0    0  0.12655126503E+02  0.80222475909E+01  0.40732230401E+02  0.47787271013E+02  0.19999999854E+02 0.  0.
        -12    1    1    2    0    0 -0.12655126503E+02 -0.80222475909E+01 -0.40732230401E+02  0.43400728987E+02  0.00000000000E+00 0.  1.
         11    1    3    3    0    0  0.20296106549E+00 -0.43063907557E+01  0.90520663371E+01  0.10026270481E+02  0.51100000000E-03 0. -1.
        -11    1    3    3    0    0  0.14125364327E+02  0.10979554776E+02  0.30358046895E+02  0.35237587205E+02  0.51100000000E-03 0.  1.
        -12    1    3    3    0    0 -0.16731988905E+01  0.13490835705E+01  0.13221171686E+01  0.25234133262E+01  0.00000000000E+00 0.  1.
</event>
<event>
 7    1  0.1019486E-010  0.4778725E+02  0.7816164E-02  0.1312668E+00
        -11   -1    0    0    0    0  0.00000000000E+00  0.00000000000E+00  0.45593999997E+02  0.45594000000E+02  0.51100000000E-03 0. -1.
         11   -1    0    0    0    0 -0.00000000000E+00 -0.00000000000E+00 -0.45593999997E+02  0.45594000000E+02  0.51100000000E-03 0.  1.
    9900012    2    1    2    0    0 -0.13464155007E+02 -0.10588195758E+02 -0.39877710211E+02  0.47787249648E+02  0.19999902444E+02 0.  0.
         12    1    1    2    0    0  0.13464155007E+02  0.10588195758E+02  0.39877710211E+02  0.43400750352E+02  0.00000000000E+00 0. -1.
         11    1    3    3    0    0  0.34260734369E+01 -0.12593898937E-01 -0.41648726255E+01  0.53929863757E+01  0.51100000000E-03 0. -1.
        -11    1    3    3    0    0 -0.17705836678E+02 -0.72207082477E+01 -0.32324686879E+02  0.37556898995E+02  0.51100000000E-03 0.  1.
        -12    1    3    3    0    0  0.81560823407E+00 -0.33548936118E+01 -0.33881507066E+01  0.48373642770E+01  0.00000000000E+00 0.  1.
</event>
<event>
 7    1  0.1019486E-010  0.4778727E+02  0.7816164E-02  0.1312668E+00
        -11   -1    0    0    0    0  0.00000000000E+00  0.00000000000E+00  0.45593999997E+02  0.45594000000E+02  0.51100000000E-03 0. -1.
         11   -1    0    0    0    0 -0.00000000000E+00 -0.00000000000E+00 -0.45593999997E+02  0.45594000000E+02  0.51100000000E-03 0.  1.
    9900012    2    1    2    0    0 -0.14520206023E+02 -0.40848988431E+02  0.20364409840E+01  0.47787270391E+02  0.19999997019E+02 0.  0.
         12    1    1    2    0    0  0.14520206023E+02  0.40848988431E+02 -0.20364409840E+01  0.43400729609E+02  0.00000000000E+00 0. -1.
         11    1    3    3    0    0  0.27100902544E+00 -0.22703306063E+01  0.60074827210E+00  0.23640528127E+01  0.51100000000E-03 0. -1.
        -11    1    3    3    0    0 -0.26846197244E+01 -0.21402563204E+02  0.86000716108E+01  0.23221501389E+02  0.51100000000E-03 0.  1.
        -12    1    3    3    0    0 -0.12106595324E+02 -0.17176094620E+02 -0.71643788989E+01  0.22201716189E+02  0.00000000000E+00 0.  1.
</event>
<event>
 7    1  0.1019486E-010  0.4778727E+02  0.7816164E-02  0.1312668E+00
        -11   -1    0    0    0    0  0.00000000000E+00  0.00000000000E+00  0.45593999997E+02  0.45594000000E+02  0.51100000000E-03 0. -1.
         11   -1    0    0    0    0 -0.00000000000E+00 -0.00000000000E+00 -0.45593999997E+02  0.45594000000E+02  0.51100000000E-03 0.  1.
    9900012    2    1    2    0    0  0.19764571478E+02 -0.10604181104E+02 -0.37155569052E+02  0.47787271271E+02  0.20000001035E+02 0.  0.
         12    1    1    2    0    0 -0.19764571478E+02  0.10604181104E+02  0.37155569052E+02  0.43400728729E+02  0.00000000000E+00 0. -1.
         11    1    3    3    0    0  0.41433035437E+00  0.31825278372E+01 -0.18803860958E-01  0.32094402819E+01  0.51100000000E-03 0. -1.
        -11    1    3    3    0    0  0.17853846011E+02 -0.14485373611E+02 -0.35030317506E+02  0.41901181498E+02  0.51100000000E-03 0.  1.
         12    1    3    3    0    0  0.14963951127E+01  0.69866466996E+00 -0.21064476844E+01  0.26766494917E+01  0.00000000000E+00 0. -1.
</event>
<event>
 7    1  0.1019486E-010  0.4778727E+02  0.7816164E-02  0.1312668E+00
        -11   -1    0    0    0    0  0.00000000000E+00  0.00000000000E+00  0.45593999997E+02  0.45594000000E+02  0.51100000000E-03 0. -1.
         11   -1    0    0    0    0 -0.00000000000E+00 -0.00000000000E+00 -0.45593999997E+02  0.45594000000E+02  0.51100000000E-03 0.  1.
    9900012    2    1    2    0    0 -0.98277153279E+01  0.46789351818E+01  0.42013653392E+02  0.47787268505E+02  0.19999988419E+02 0.  0.
        -12    1    1    2    0    0  0.98277153279E+01 -0.46789351818E+01 -0.42013653392E+02  0.43400731495E+02  0.00000000000E+00 0.  1.
         11    1    3    3    0    0 -0.84859385267E+01 -0.19468909377E+00  0.59853225274E+01  0.10386199620E+02  0.51100000000E-03 0. -1.
        -11    1    3    3    0    0 -0.24002305628E+01 -0.88979625366E+00  0.34282036684E+01  0.42784839349E+01  0.51100000000E-03 0.  1.
         12    1    3    3    0    0  0.10584537616E+01  0.57634205293E+01  0.32600127196E+02  0.33122584950E+02  0.00000000000E+00 0. -1.
</event>
<event>
 7    1  0.1019486E-010  0.4778727E+02  0.7816164E-02  0.1312668E+00
        -11   -1    0    0    0    0  0.00000000000E+00  0.00000000000E+00  0.45593999997E+02  0.45594000000E+02  0.51100000000E-03 0. -1.
         11   -1    0    0    0    0 -0.00000000000E+00 -0.00000000000E+00 -0.45593999997E+02  0.45594000000E+02  0.51100000000E-03 0.  1.
    9900012    2    1    2    0    0 -0.29157929334E+01 -0.35589885274E+02  0.24667411855E+02  0.47787274316E+02  0.20000014917E+02 0.  0.
        -12    1    1    2    0    0  0.29157929334E+01  0.35589885274E+02 -0.24667411855E+02  0.43400725684E+02  0.00000000000E+00 0.  1.
         11    1    3    3    0    0 -0.30084049010E+01  0.15970485278E+00  0.58783490566E+01  0.66053761120E+01  0.51100000000E-03 0. -1.
        -11    1    3    3    0    0  0.33639607551E+01 -0.23886287114E+02  0.14527487975E+02  0.28158814804E+02  0.51100000000E-03 0.  1.
        -12    1    3    3    0    0 -0.32713487875E+01 -0.11863303013E+02  0.42615748233E+01  0.13023083400E+02  0.00000000000E+00 0.  1.
</event>
<event>
 7    1  0.1019486E-010  0.4778727E+02  0.7816164E-02  0.1312668E+00
        -11   -1    0    0    0    0  0.00000000000E+00  0.00000000000E+00  0.45593999997E+02  0.45594000000E+02  0.51100000000E-03 0. -1.
         11   -1    0    0    0    0 -0.00000000000E+00 -0.00000000000E+00 -0.45593999997E+02  0.45594000000E+02  0.51100000000E-03 0.  1.
    9900012    2    1    2    0    0  0.14090385415E+02  0.58943102557E+01  0.40624395439E+02  0.47787270060E+02  0.19999995512E+02 0.  0.
        -12    1    1    2    0    0 -0.14090385415E+02 -0.58943102557E+01 -0.40624395439E+02  0.43400729940E+02  0.00000000000E+00 0.  1.
         11    1    3    3    0    0  0.11882292430E+00  0.99388490914E+00  0.58073977894E+01  0.58930293946E+01  0.51100000000E-03 0. -1.
        -11    1    3    3    0    0 -0.35271633461E+01  0.51647939500E-01  0.12717569714E+01  0.37497886388E+01  0.51100000000E-03 0.  1.
        -12    1    3    3    0    0  0.17498725837E+02  0.48487774070E+01  0.33545240678E+02  0.38144452027E+02  0.00000000000E+00 0.  1.
</event>
<event>
 7    1  0.1019486E-010  0.4778727E+02  0.7816164E-02  0.1312668E+00
        -11   -1    0    0    0    0  0.00000000000E+00  0.00000000000E+00  0.45593999997E+02  0.45594000000E+02  0.51100000000E-03 0. -1.
         11   -1    0    0    0    0 -0.00000000000E+00 -0.00000000000E+00 -0.45593999997E+02  0.45594000000E+02  0.51100000000E-03 0.  1.
    9900012    2    1    2    0    0 -0.33182517897E+02  0.10740019018E+02  0.25830131212E+02  0.47787272115E+02  0.20000004880E+02 0.  0.
        -12    1    1    2    0    0  0.33182517897E+02 -0.10740019018E+02 -0.25830131212E+02  0.43400727885E+02  0.00000000000E+00 0.  1.
         11    1    3    3    0    0 -0.25377961484E+02  0.10368143843E+02  0.87502147658E+01  0.28776823913E+02  0.51100000000E-03 0.  1.
        -11    1    3    3    0    0 -0.75674085351E+01 -0.12407520461E+00  0.14327305402E+02  0.16203479470E+02  0.51100000000E-03 0. -1.
        -12    1    3    3    0    0 -0.23714787846E+00  0.49595037944E+00  0.27526110449E+01  0.28069687315E+01  0.00000000000E+00 0.  1.
</event>
<event>
 7    1  0.1019486E-010  0.4778726E+02  0.7816164E-02  0.1312668E+00
        -11   -1    0    0    0    0  0.00000000000E+00  0.00000000000E+00  0.45593999997E+02  0.45594000000E+02  0.51100000000E-03 0. -1.
         11   -1    0    0    0    0 -0.00000000000E+00 -0.00000000000E+00 -0.45593999997E+02  0.45594000000E+02  0.51100000000E-03 0.  1.
    9900012    2    1    2    0    0  0.20790503237E+02  0.35741066855E+02  0.13189197067E+02  0.47787264936E+02  0.19999972151E+02 0.  0.
        -12    1    1    2    0    0 -0.20790503237E+02 -0.35741066855E+02 -0.13189197067E+02  0.43400735064E+02  0.00000000000E+00 0.  1.
         11    1    3    3    0    0  0.38676416508E+01  0.19510431213E+02  0.11416526447E+02  0.22933657677E+02  0.51100000000E-03 0. -1.
        -11    1    3    3    0    0  0.13869264935E+02  0.14336296642E+02 -0.14863820199E+01  0.20002380934E+02  0.51100000000E-03 0.  1.
        -12    1    3    3    0    0  0.30535966516E+01  0.18943389996E+01  0.32590526395E+01  0.48512263258E+01  0.00000000000E+00 0.  1.
</event>
<event>
 7    1  0.1019486E-010  0.4778727E+02  0.7816164E-02  0.1312668E+00
        -11   -1    0    0    0    0  0.00000000000E+00  0.00000000000E+00  0.45593999997E+02  0.45594000000E+02  0.51100000000E-03 0. -1.
         11   -1    0    0    0    0 -0.00000000000E+00 -0.00000000000E+00 -0.45593999997E+02  0.45594000000E+02  0.51100000000E-03 0.  1.
    9900012    2    1    2    0    0  0.16714221700E+02 -0.17310618392E+02 -0.36119261666E+02  0.47787265220E+02  0.19999973445E+02 0.  0.
         12    1    1    2    0    0 -0.16714221700E+02  0.17310618392E+02  0.36119261666E+02  0.43400734780E+02  0.00000000000E+00 0. -1.
         11    1    3    3    0    0  0.83752659712E+00  0.19633527259E+01 -0.25003015830E+01  0.32875086303E+01  0.51100000000E-03 0. -1.
        -11    1    3    3    0    0  0.16553294509E+02 -0.21199192925E+02 -0.32451499621E+02  0.42148750488E+02  0.51100000000E-03 0.  1.
        -12    1    3    3    0    0 -0.67659940586E+00  0.19252218071E+01 -0.11674604615E+01  0.23510061020E+01  0.00000000000E+00 0.  1.
</event>
<event>
 7    1  0.1026259E-010  0.4778727E+02  0.7816164E-02  0.1312668E+00
        -11   -1    0    0    0    0  0.00000000000E+00  0.00000000000E+00  0.45593999997E+02  0.45594000000E+02  0.51100000000E-03 0. -1.
         11   -1    0    0    0    0 -0.00000000000E+00 -0.00000000000E+00 -0.45593999997E+02  0.45594000000E+02  0.51100000000E-03 0.  1.
    9900012    2    1    2    0    0  0.11990214905E+02  0.86973618769E+01 -0.40794776901E+02  0.47787272132E+02  0.20000004959E+02 0.  0.
         12    1    1    2    0    0 -0.11990214905E+02 -0.86973618769E+01  0.40794776901E+02  0.43400727868E+02  0.00000000000E+00 0. -1.
         11    1    3    3    0    0 -0.22462783674E+01 -0.15389065331E+01 -0.44097756326E-01  0.27232232179E+01  0.51100000000E-03 0. -1.
        -11    1    3    3    0    0  0.10291420536E+02  0.11163432615E+02 -0.32503987452E+02  0.35875406130E+02  0.51100000000E-03 0.  1.
         12    1    3    3    0    0  0.39450727365E+01 -0.92716420529E+00 -0.82466916921E+01  0.91886427847E+01  0.00000000000E+00 0. -1.
</event>
<event>
 7    1  0.1019486E-010  0.4778726E+02  0.7816164E-02  0.1312668E+00
        -11   -1    0    0    0    0  0.00000000000E+00  0.00000000000E+00  0.45593999997E+02  0.45594000000E+02  0.51100000000E-03 0. -1.
         11   -1    0    0    0    0 -0.00000000000E+00 -0.00000000000E+00 -0.45593999997E+02  0.45594000000E+02  0.51100000000E-03 0.  1.
    9900012    2    1    2    0    0  0.26586727928E+02  0.20476775980E+02 -0.27522200756E+02  0.47787262784E+02  0.19999962338E+02 0.  0.
         12    1    1    2    0    0 -0.26586727928E+02 -0.20476775980E+02  0.27522200756E+02  0.43400737216E+02  0.00000000000E+00 0. -1.
         11    1    3    3    0    0  0.18416164767E+02  0.36500349620E+01 -0.10688033005E+02  0.21603516606E+02  0.51100000000E-03 0. -1.
        -11    1    3    3    0    0  0.62377502800E+01  0.17004111004E+02 -0.15098584388E+02  0.23580003613E+02  0.51100000000E-03 0.  1.
        -12    1    3    3    0    0  0.19328128811E+01 -0.17736998547E+00 -0.17355833619E+01  0.26037425662E+01  0.00000000000E+00 0.  1.
</event>
<event>
 7    1  0.1019486E-010  0.4778726E+02  0.7816164E-02  0.1312668E+00
        -11   -1    0    0    0    0  0.00000000000E+00  0.00000000000E+00  0.45593999997E+02  0.45594000000E+02  0.51100000000E-03 0. -1.
         11   -1    0    0    0    0 -0.00000000000E+00 -0.00000000000E+00 -0.45593999997E+02  0.45594000000E+02  0.51100000000E-03 0.  1.
    9900012    2    1    2    0    0 -0.11674383678E+02 -0.33127762120E+02  0.25492823456E+02  0.47787263772E+02  0.19999966843E+02 0.  0.
        -12    1    1    2    0    0  0.11674383678E+02  0.33127762120E+02 -0.25492823456E+02  0.43400736228E+02  0.00000000000E+00 0.  1.
         11    1    3    3    0    0 -0.11020543172E+02 -0.11959028981E+02  0.97524960453E+01  0.18962645526E+02  0.51100000000E-03 0. -1.
        -11    1    3    3    0    0  0.45687368204E+01 -0.36389956945E+01  0.33733354608E+01  0.67450009778E+01  0.51100000000E-03 0.  1.
         12    1    3    3    0    0 -0.52225773264E+01 -0.17529737445E+02  0.12366991950E+02  0.22079617268E+02  0.00000000000E+00 0. -1.
</event>
<event>
 7    1  0.1019486E-010  0.4778724E+02  0.7816164E-02  0.1312668E+00
        -11   -1    0    0    0    0  0.00000000000E+00  0.00000000000E+00  0.45593999997E+02  0.45594000000E+02  0.51100000000E-03 0. -1.
         11   -1    0    0    0    0 -0.00000000000E+00 -0.00000000000E+00 -0.45593999997E+02  0.45594000000E+02  0.51100000000E-03 0.  1.
    9900012    2    1    2    0    0  0.20398011839E+02 -0.32418816550E+02 -0.20409984564E+02  0.47787239368E+02  0.19999855576E+02 0.  0.
         12    1    1    2    0    0 -0.20398011839E+02  0.32418816550E+02  0.20409984564E+02  0.43400760632E+02  0.00000000000E+00 0. -1.
         11    1    3    3    0    0 -0.23291219663E+01 -0.10692340577E+02 -0.29093140313E+01  0.11323209110E+02  0.51100000000E-03 0. -1.
        -11    1    3    3    0    0  0.14006630457E+02 -0.14643040306E+02 -0.14236660310E+02  0.24764628469E+02  0.51100000000E-03 0.  1.
         12    1    3    3    0    0  0.87205033483E+01 -0.70834356669E+01 -0.32640102225E+01  0.11699401789E+02  0.00000000000E+00 0. -1.
</event>
<event>
 7    1  0.1019486E-010  0.4778728E+02  0.7816164E-02  0.1312668E+00
        -11   -1    0    0    0    0  0.00000000000E+00  0.00000000000E+00  0.45593999997E+02  0.45594000000E+02  0.51100000000E-03 0. -1.
         11   -1    0    0    0    0 -0.00000000000E+00 -0.00000000000E+00 -0.45593999997E+02  0.45594000000E+02  0.51100000000E-03 0.  1.
    9900012    2    1    2    0    0 -0.71726070765E+01  0.11038751354E+02 -0.41356037080E+02  0.47787284261E+02  0.20000060260E+02 0.  0.
         12    1    1    2    0    0  0.71726070765E+01 -0.11038751354E+02  0.41356037080E+02  0.43400715739E+02  0.00000000000E+00 0. -1.
         11    1    3    3    0    0 -0.11371175732E+02  0.12060051916E+02 -0.26377695128E+02  0.31153351189E+02  0.51100000000E-03 0. -1.
        -11    1    3    3    0    0  0.30363983706E+01 -0.33917076004E+01 -0.85925832280E+01  0.97239848983E+01  0.51100000000E-03 0.  1.
        -12    1    3    3    0    0  0.11621702849E+01  0.23704070381E+01 -0.63857587234E+01  0.69099481742E+01  0.00000000000E+00 0.  1.
</event>
<event>
 7    1  0.1019486E-010  0.4778726E+02  0.7816164E-02  0.1312668E+00
        -11   -1    0    0    0    0  0.00000000000E+00  0.00000000000E+00  0.45593999997E+02  0.45594000000E+02  0.51100000000E-03 0. -1.
         11   -1    0    0    0    0 -0.00000000000E+00 -0.00000000000E+00 -0.45593999997E+02  0.45594000000E+02  0.51100000000E-03 0.  1.
    9900012    2    1    2    0    0 -0.20483213384E+02 -0.31085077309E+02 -0.22310993128E+02  0.47787257193E+02  0.19999936846E+02 0.  0.
         12    1    1    2    0    0  0.20483213384E+02  0.31085077309E+02  0.22310993128E+02  0.43400742807E+02  0.00000000000E+00 0. -1.
         11    1    3    3    0    0 -0.96032233638E+01 -0.33748787995E+01 -0.14203882982E+01  0.10277607166E+02  0.51100000000E-03 0. -1.
        -11    1    3    3    0    0  0.96336939810E+00 -0.69621419331E+01 -0.67676831407E+01  0.97571018365E+01  0.51100000000E-03 0.  1.
         12    1    3    3    0    0 -0.11843359418E+02 -0.20748056577E+02 -0.14122921689E+02  0.27752548190E+02  0.00000000000E+00 0. -1.
</event>
<event>
 7    1  0.1019486E-010  0.4778727E+02  0.7816164E-02  0.1312668E+00
        -11   -1    0    0    0    0  0.00000000000E+00  0.00000000000E+00  0.45593999997E+02  0.45594000000E+02  0.51100000000E-03 0. -1.
         11   -1    0    0    0    0 -0.00000000000E+00 -0.00000000000E+00 -0.45593999997E+02  0.45594000000E+02  0.51100000000E-03 0.  1.
    9900012    2    1    2    0    0  0.72293133719E+01  0.26080505678E+02  0.33928864350E+02  0.47787267467E+02  0.19999983691E+02 0.  0.
        -12    1    1    2    0    0 -0.72293133719E+01 -0.26080505678E+02 -0.33928864350E+02  0.43400732533E+02  0.00000000000E+00 0.  1.
         11    1    3    3    0    0  0.88415020551E+01  0.16139879862E+02  0.11677638870E+02  0.21795300649E+02  0.51100000000E-03 0. -1.
        -11    1    3    3    0    0 -0.21604140305E+01  0.70413412209E+01  0.60709779367E+01  0.95448755017E+01  0.51100000000E-03 0.  1.
         12    1    3    3    0    0  0.54822534729E+00  0.28992845950E+01  0.16180247544E+02  0.16447091317E+02  0.00000000000E+00 0. -1.
</event>
<event>
 7    1  0.1019486E-010  0.4778727E+02  0.7816164E-02  0.1312668E+00
        -11   -1    0    0    0    0  0.00000000000E+00  0.00000000000E+00  0.45593999997E+02  0.45594000000E+02  0.51100000000E-03 0.  1.
         11   -1    0    0    0    0 -0.00000000000E+00 -0.00000000000E+00 -0.45593999997E+02  0.45594000000E+02  0.51100000000E-03 0. -1.
    9900012    2    1    2    0    0 -0.25993269468E+02 -0.27736474080E+02 -0.20944242897E+02  0.47787270023E+02  0.19999995342E+02 0.  0.
         12    1    1    2    0    0  0.25993269468E+02  0.27736474080E+02  0.20944242897E+02  0.43400729977E+02  0.00000000000E+00 0. -1.
         11    1    3    3    0    0 -0.12401467607E+01 -0.90216601352E+01 -0.74614897802E+01  0.11772941246E+02  0.51100000000E-03 0. -1.
        -11    1    3    3    0    0 -0.24462170291E+02 -0.18947526495E+02 -0.10008859660E+02  0.32520513643E+02  0.51100000000E-03 0.  1.
         12    1    3    3    0    0 -0.29095241591E+00  0.23271254990E+00 -0.34738934570E+01  0.34938151339E+01  0.00000000000E+00 0. -1.
</event>
<event>
 7    1  0.1019486E-010  0.4778727E+02  0.7816164E-02  0.1312668E+00
        -11   -1    0    0    0    0  0.00000000000E+00  0.00000000000E+00  0.45593999997E+02  0.45594000000E+02  0.51100000000E-03 0. -1.
         11   -1    0    0    0    0 -0.00000000000E+00 -0.00000000000E+00 -0.45593999997E+02  0.45594000000E+02  0.51100000000E-03 0.  1.
    9900012    2    1    2    0    0 -0.14681925220E+00 -0.88749881873E+01 -0.42483369091E+02  0.47787267050E+02  0.19999981789E+02 0.  0.
         12    1    1    2    0    0  0.14681925220E+00  0.88749881873E+01  0.42483369091E+02  0.43400732950E+02  0.00000000000E+00 0. -1.
         11    1    3    3    0    0  0.48471331040E+01 -0.95105301327E+01 -0.17716917142E+02  0.20684149390E+02  0.51100000000E-03 0.  1.
        -11    1    3    3    0    0 -0.12843259235E+01  0.45701934427E+01 -0.16922591886E+02  0.17575843581E+02  0.51100000000E-03 0. -1.
         12    1    3    3    0    0 -0.37096264327E+01 -0.39346514973E+01 -0.78438600638E+01  0.95272740789E+01  0.00000000000E+00 0. -1.
</event>
<event>
 7    1  0.1019486E-010  0.4778727E+02  0.7816164E-02  0.1312668E+00
        -11   -1    0    0    0    0  0.00000000000E+00  0.00000000000E+00  0.45593999997E+02  0.45594000000E+02  0.51100000000E-03 0. -1.
         11   -1    0    0    0    0 -0.00000000000E+00 -0.00000000000E+00 -0.45593999997E+02  0.45594000000E+02  0.51100000000E-03 0.  1.
    9900012    2    1    2    0    0 -0.55475795293E+01 -0.51648804421E+00  0.43041618963E+02  0.47787270035E+02  0.19999995396E+02 0.  0.
        -12    1    1    2    0    0  0.55475795293E+01  0.51648804421E+00 -0.43041618963E+02  0.43400729965E+02  0.00000000000E+00 0.  1.
         11    1    3    3    0    0 -0.60033658509E+01  0.28438138914E+01  0.11226346022E+02  0.13044482522E+02  0.51100000000E-03 0. -1.
        -11    1    3    3    0    0 -0.43494071980E+01  0.26503742696E+01  0.63505711841E+01  0.81407359230E+01  0.51100000000E-03 0.  1.
         12    1    3    3    0    0  0.48051935196E+01 -0.60106762052E+01  0.25464701757E+02  0.26602051590E+02  0.00000000000E+00 0. -1.
</event>
<event>
 7    1  0.1019486E-010  0.4778727E+02  0.7816164E-02  0.1312668E+00
        -11   -1    0    0    0    0  0.00000000000E+00  0.00000000000E+00  0.45593999997E+02  0.45594000000E+02  0.51100000000E-03 0.  1.
         11   -1    0    0    0    0 -0.00000000000E+00 -0.00000000000E+00 -0.45593999997E+02  0.45594000000E+02  0.51100000000E-03 0. -1.
    9900012    2    1    2    0    0 -0.16106009085E+02 -0.25570085503E+02  0.31151091246E+02  0.47787270892E+02  0.19999999305E+02 0.  0.
        -12    1    1    2    0    0  0.16106009085E+02  0.25570085503E+02 -0.31151091246E+02  0.43400729108E+02  0.00000000000E+00 0.  1.
         11    1    3    3    0    0 -0.99547657841E+01 -0.21019453539E+02  0.13360388673E+02  0.26821908483E+02  0.51100000000E-03 0. -1.
        -11    1    3    3    0    0 -0.79752558759E+01 -0.37461489808E+01  0.12350990673E+02  0.15171859126E+02  0.51100000000E-03 0.  1.
         12    1    3    3    0    0  0.18240125747E+01 -0.80448298342E+00  0.54397118997E+01  0.57935032834E+01  0.00000000000E+00 0. -1.
</event>
<event>
 7    1  0.1454287E-010  0.4778727E+02  0.7816164E-02  0.1312668E+00
        -11   -1    0    0    0    0  0.00000000000E+00  0.00000000000E+00  0.45593999997E+02  0.45594000000E+02  0.51100000000E-03 0. -1.
         11   -1    0    0    0    0 -0.00000000000E+00 -0.00000000000E+00 -0.45593999997E+02  0.45594000000E+02  0.51100000000E-03 0.  1.
    9900012    2    1    2    0    0 -0.15099433971E+02  0.51779909727E+01 -0.40358631275E+02  0.47787267113E+02  0.19999982074E+02 0.  0.
         12    1    1    2    0    0  0.15099433971E+02 -0.51779909727E+01  0.40358631275E+02  0.43400732887E+02  0.00000000000E+00 0. -1.
         11    1    3    3    0    0 -0.78888731042E+01  0.26370486596E+01 -0.24934881512E+01  0.86836529127E+01  0.51100000000E-03 0. -1.
        -11    1    3    3    0    0 -0.69921449617E+01 -0.97855076458E-01 -0.24484802363E+02  0.25463802029E+02  0.51100000000E-03 0.  1.
         12    1    3    3    0    0 -0.21841590480E+00  0.26387973895E+01 -0.13380340761E+02  0.13639812171E+02  0.00000000000E+00 0. -1.
</event>
<event>
 7    1  0.1019486E-010  0.4778727E+02  0.7816164E-02  0.1312668E+00
        -11   -1    0    0    0    0  0.00000000000E+00  0.00000000000E+00  0.45593999997E+02  0.45594000000E+02  0.51100000000E-03 0. -1.
         11   -1    0    0    0    0 -0.00000000000E+00 -0.00000000000E+00 -0.45593999997E+02  0.45594000000E+02  0.51100000000E-03 0.  1.
    9900012    2    1    2    0    0 -0.20126277404E+02  0.30431418554E+00 -0.38450796092E+02  0.47787269944E+02  0.19999994982E+02 0.  0.
         12    1    1    2    0    0  0.20126277404E+02 -0.30431418554E+00  0.38450796092E+02  0.43400730056E+02  0.00000000000E+00 0. -1.
         11    1    3    3    0    0 -0.13611857177E+02 -0.32330108115E+01 -0.10877024154E+02  0.17721305522E+02  0.51100000000E-03 0. -1.
        -11    1    3    3    0    0 -0.67981151771E+01  0.62632945627E+01 -0.21092564659E+02  0.23029101435E+02  0.51100000000E-03 0.  1.
        -12    1    3    3    0    0  0.28369494975E+00 -0.27259695656E+01 -0.64812072792E+01  0.70368629866E+01  0.00000000000E+00 0.  1.
</event>
<event>
 7    1  0.1019486E-010  0.4778727E+02  0.7816164E-02  0.1312668E+00
        -11   -1    0    0    0    0  0.00000000000E+00  0.00000000000E+00  0.45593999997E+02  0.45594000000E+02  0.51100000000E-03 0. -1.
         11   -1    0    0    0    0 -0.00000000000E+00 -0.00000000000E+00 -0.45593999997E+02  0.45594000000E+02  0.51100000000E-03 0.  1.
    9900012    2    1    2    0    0 -0.24266439104E+02 -0.66768845410E+01 -0.35357918836E+02  0.47787270993E+02  0.19999999764E+02 0.  0.
         12    1    1    2    0    0  0.24266439104E+02  0.66768845410E+01  0.35357918836E+02  0.43400729007E+02  0.00000000000E+00 0. -1.
         11    1    3    3    0    0  0.22107834794E+01  0.97389849901E+00 -0.32004981620E+01  0.40098915977E+01  0.51100000000E-03 0. -1.
        -11    1    3    3    0    0 -0.13380032960E+02 -0.94482076741E+01 -0.19610500728E+02  0.25551235769E+02  0.51100000000E-03 0.  1.
         12    1    3    3    0    0 -0.13097189623E+02  0.17974246341E+01 -0.12546919946E+02  0.18226143626E+02  0.00000000000E+00 0. -1.
</event>
<event>
 7    1  0.1019486E-010  0.4778727E+02  0.7816164E-02  0.1312668E+00
        -11   -1    0    0    0    0  0.00000000000E+00  0.00000000000E+00  0.45593999997E+02  0.45594000000E+02  0.51100000000E-03 0. -1.
         11   -1    0    0    0    0 -0.00000000000E+00 -0.00000000000E+00 -0.45593999997E+02  0.45594000000E+02  0.51100000000E-03 0.  1.
    9900012    2    1    2    0    0  0.25243738414E+02 -0.35123282274E+02 -0.35681494214E+01  0.47787274463E+02  0.20000015588E+02 0.  0.
         12    1    1    2    0    0 -0.25243738414E+02  0.35123282274E+02  0.35681494214E+01  0.43400725537E+02  0.00000000000E+00 0. -1.
         11    1    3    3    0    0  0.19732481740E+02 -0.21642247159E+02 -0.86045001127E+01  0.30525319330E+02  0.51100000000E-03 0. -1.
        -11    1    3    3    0    0  0.55910114962E+01 -0.14453806915E+02  0.50041961283E+01  0.16285389865E+02  0.51100000000E-03 0.  1.
        -12    1    3    3    0    0 -0.79754822121E-01  0.97277180079E+00  0.32154562958E-01  0.97656526867E+00  0.00000000000E+00 0.  1.
</event>
<event>
 7    1  0.1019486E-010  0.4778723E+02  0.7816164E-02  0.1312668E+00
        -11   -1    0    0    0    0  0.00000000000E+00  0.00000000000E+00  0.45593999997E+02  0.45594000000E+02  0.51100000000E-03 0. -1.
         11   -1    0    0    0    0 -0.00000000000E+00 -0.00000000000E+00 -0.45593999997E+02  0.45594000000E+02  0.51100000000E-03 0.  1.
    9900012    2    1    2    0    0  0.14467600188E+02 -0.13203057388E+02  0.38729762269E+02  0.47787231977E+02  0.19999821874E+02 0.  0.
        -12    1    1    2    0    0 -0.14467600188E+02  0.13203057388E+02 -0.38729762269E+02  0.43400768023E+02  0.00000000000E+00 0.  1.
         11    1    3    3    0    0  0.12919700316E+02 -0.12171818993E+02  0.13726844863E+02  0.22438763424E+02  0.51100000000E-03 0. -1.
        -11    1    3    3    0    0  0.19579891820E+01 -0.19226511573E+01  0.22387392266E+02  0.22554947170E+02  0.51100000000E-03 0.  1.
         12    1    3    3    0    0 -0.41008931023E+00  0.89141276228E+00  0.26155251406E+01  0.27935213828E+01  0.00000000000E+00 0. -1.
</event>
<event>
 7    1  0.1019486E-010  0.4778727E+02  0.7816164E-02  0.1312668E+00
        -11   -1    0    0    0    0  0.00000000000E+00  0.00000000000E+00  0.45593999997E+02  0.45594000000E+02  0.51100000000E-03 0.  1.
         11   -1    0    0    0    0 -0.00000000000E+00 -0.00000000000E+00 -0.45593999997E+02  0.45594000000E+02  0.51100000000E-03 0. -1.
    9900012    2    1    2    0    0 -0.34094020666E+02  0.23147223433E+02  0.13617159689E+02  0.47787271483E+02  0.20000001999E+02 0.  0.
        -12    1    1    2    0    0  0.34094020666E+02 -0.23147223433E+02 -0.13617159689E+02  0.43400728517E+02  0.00000000000E+00 0.  1.
         11    1    3    3    0    0 -0.26852954247E+02  0.21803795563E+02  0.48801008104E+01  0.34932821772E+02  0.51100000000E-03 0. -1.
        -11    1    3    3    0    0 -0.82095310399E+01  0.97902774506E+00  0.83473319354E+01  0.11748738057E+02  0.51100000000E-03 0.  1.
         12    1    3    3    0    0  0.96846462088E+00  0.36440012448E+00  0.38972694358E+00  0.11057116546E+01  0.00000000000E+00 0. -1.
</event>
<event>
 7    1  0.1019486E-010  0.4778727E+02  0.7816164E-02  0.1312668E+00
        -11   -1    0    0    0    0  0.00000000000E+00  0.00000000000E+00  0.45593999997E+02  0.45594000000E+02  0.51100000000E-03 0. -1.
         11   -1    0    0    0    0 -0.00000000000E+00 -0.00000000000E+00 -0.45593999997E+02  0.45594000000E+02  0.51100000000E-03 0.  1.
    9900012    2    1    2    0    0  0.36997199581E+02  0.55300069004E+01  0.22005675917E+02  0.47787268143E+02  0.19999986770E+02 0.  0.
        -12    1    1    2    0    0 -0.36997199581E+02 -0.55300069004E+01 -0.22005675917E+02  0.43400731857E+02  0.00000000000E+00 0.  1.
         11    1    3    3    0    0  0.23628126431E+02  0.97795694584E+01  0.18762109067E+02  0.31716637185E+02  0.51100000000E-03 0. -1.
        -11    1    3    3    0    0  0.84333811685E+01 -0.55327893106E+01  0.41214016074E+01  0.10895853659E+02  0.51100000000E-03 0.  1.
        -12    1    3    3    0    0  0.49356919811E+01  0.12832267526E+01 -0.87783475646E+00  0.51747772986E+01  0.00000000000E+00 0.  1.
</event>
<event>
 7    1  0.1019486E-010  0.4778727E+02  0.7816164E-02  0.1312668E+00
        -11   -1    0    0    0    0  0.00000000000E+00  0.00000000000E+00  0.45593999997E+02  0.45594000000E+02  0.51100000000E-03 0. -1.
         11   -1    0    0    0    0 -0.00000000000E+00 -0.00000000000E+00 -0.45593999997E+02  0.45594000000E+02  0.51100000000E-03 0.  1.
    9900012    2    1    2    0    0  0.48219666862E+01 -0.47898844337E+01 -0.42865243072E+02  0.47787269370E+02  0.19999992366E+02 0.  0.
         12    1    1    2    0    0 -0.48219666862E+01  0.47898844337E+01  0.42865243072E+02  0.43400730630E+02  0.00000000000E+00 0. -1.
         11    1    3    3    0    0  0.90372323227E+01 -0.67640424632E+00 -0.35221563513E+02  0.36368772694E+02  0.51100000000E-03 0. -1.
        -11    1    3    3    0    0 -0.24980607068E+00 -0.23355758369E+01 -0.65194043354E+01  0.69296428993E+01  0.51100000000E-03 0.  1.
         12    1    3    3    0    0 -0.39654595658E+01 -0.17779043505E+01 -0.11242752238E+01  0.44888537765E+01  0.00000000000E+00 0. -1.
</event>
<event>
 7    1  0.1019486E-010  0.4778728E+02  0.7816164E-02  0.1312668E+00
        -11   -1    0    0    0    0  0.00000000000E+00  0.00000000000E+00  0.45593999997E+02  0.45594000000E+02  0.51100000000E-03 0.  1.
         11   -1    0    0    0    0 -0.00000000000E+00 -0.00000000000E+00 -0.45593999997E+02  0.45594000000E+02  0.51100000000E-03 0. -1.
    9900012    2    1    2    0    0  0.83556123431E+01  0.31074887610E+02  0.29123150067E+02  0.47787276879E+02  0.20000026601E+02 0.  0.
        -12    1    1    2    0    0 -0.83556123431E+01 -0.31074887610E+02 -0.29123150067E+02  0.43400723121E+02  0.00000000000E+00 0.  1.
         11    1    3    3    0    0 -0.12101295507E+01  0.84098561966E+01  0.61046008101E+01  0.10462133917E+02  0.51100000000E-03 0. -1.
        -11    1    3    3    0    0 -0.11807843403E+01 -0.20866624770E+01  0.18114825979E+01  0.30049761089E+01  0.51100000000E-03 0.  1.
        -12    1    3    3    0    0  0.10746526234E+02  0.24751693891E+02  0.21207066659E+02  0.34320166853E+02  0.00000000000E+00 0.  1.
</event>
<event>
 7    1  0.1019486E-010  0.4778730E+02  0.7816164E-02  0.1312668E+00
        -11   -1    0    0    0    0  0.00000000000E+00  0.00000000000E+00  0.45593999997E+02  0.45594000000E+02  0.51100000000E-03 0.  1.
         11   -1    0    0    0    0 -0.00000000000E+00 -0.00000000000E+00 -0.45593999997E+02  0.45594000000E+02  0.51100000000E-03 0. -1.
    9900012    2    1    2    0    0 -0.16563241374E+02 -0.39947001138E+02  0.36765304734E+01  0.47787300224E+02  0.20000133040E+02 0.  0.
        -12    1    1    2    0    0  0.16563241374E+02  0.39947001138E+02 -0.36765304734E+01  0.43400699776E+02  0.00000000000E+00 0.  1.
         11    1    3    3    0    0  0.36990743174E-01 -0.11141732222E+02  0.10834786338E+01  0.11194350872E+02  0.51100000000E-03 0. -1.
        -11    1    3    3    0    0  0.50648723243E+00 -0.95364375099E+01 -0.34023274422E+01  0.10137849968E+02  0.51100000000E-03 0.  1.
        -12    1    3    3    0    0 -0.17106719350E+02 -0.19268831406E+02  0.59953792817E+01  0.26455099384E+02  0.00000000000E+00 0.  1.
</event>
<event>
 7    1  0.1019486E-010  0.4778726E+02  0.7816164E-02  0.1312668E+00
        -11   -1    0    0    0    0  0.00000000000E+00  0.00000000000E+00  0.45593999997E+02  0.45594000000E+02  0.51100000000E-03 0. -1.
         11   -1    0    0    0    0 -0.00000000000E+00 -0.00000000000E+00 -0.45593999997E+02  0.45594000000E+02  0.51100000000E-03 0.  1.
    9900012    2    1    2    0    0  0.37198445039E+01 -0.13348394819E+02 -0.41129152924E+02  0.47787261439E+02  0.19999956206E+02 0.  0.
         12    1    1    2    0    0 -0.37198445039E+01  0.13348394819E+02  0.41129152924E+02  0.43400738561E+02  0.00000000000E+00 0. -1.
         11    1    3    3    0    0 -0.35667181729E+01  0.46813707277E-01 -0.89490026647E+00  0.36775694142E+01  0.51100000000E-03 0. -1.
        -11    1    3    3    0    0  0.86394738733E+01 -0.92407339054E+01 -0.35405572546E+02  0.37597689284E+02  0.51100000000E-03 0.  1.
        -12    1    3    3    0    0 -0.13529111966E+01 -0.41544746211E+01 -0.48286801117E+01  0.65120027414E+01  0.00000000000E+00 0.  1.
</event>
<event>
 7    1  0.1019486E-010  0.4778728E+02  0.7816164E-02  0.1312668E+00
        -11   -1    0    0    0    0  0.00000000000E+00  0.00000000000E+00  0.45593999997E+02  0.45594000000E+02  0.51100000000E-03 0. -1.
         11   -1    0    0    0    0 -0.00000000000E+00 -0.00000000000E+00 -0.45593999997E+02  0.45594000000E+02  0.51100000000E-03 0.  1.
    9900012    2    1    2    0    0 -0.22738650059E+02 -0.24454276030E+01 -0.36886265679E+02  0.47787275140E+02  0.20000018672E+02 0.  0.
         12    1    1    2    0    0  0.22738650059E+02  0.24454276030E+01  0.36886265679E+02  0.43400724860E+02  0.00000000000E+00 0. -1.
         11    1    3    3    0    0 -0.11558966594E+02 -0.10802534495E+02 -0.18593336754E+02  0.24413451869E+02  0.51100000000E-03 0. -1.
        -11    1    3    3    0    0 -0.79381787814E+01  0.44285969647E+01 -0.14103290785E+02  0.16778854689E+02  0.51100000000E-03 0.  1.
         12    1    3    3    0    0 -0.32415046840E+01  0.39285099269E+01 -0.41896381392E+01  0.65949685822E+01  0.00000000000E+00 0. -1.
</event>
<event>
 7    1  0.1019486E-010  0.4778726E+02  0.7816164E-02  0.1312668E+00
        -11   -1    0    0    0    0  0.00000000000E+00  0.00000000000E+00  0.45593999997E+02  0.45594000000E+02  0.51100000000E-03 0. -1.
         11   -1    0    0    0    0 -0.00000000000E+00 -0.00000000000E+00 -0.45593999997E+02  0.45594000000E+02  0.51100000000E-03 0.  1.
    9900012    2    1    2    0    0 -0.65107320830E+01  0.18507257424E+01  0.42869674439E+02  0.47787264931E+02  0.19999972125E+02 0.  0.
        -12    1    1    2    0    0  0.65107320830E+01 -0.18507257424E+01 -0.42869674439E+02  0.43400735069E+02  0.00000000000E+00 0.  1.
         11    1    3    3    0    0 -0.11547773637E+02 -0.41398945332E+01  0.26921800692E+02  0.29585015725E+02  0.51100000000E-03 0. -1.
        -11    1    3    3    0    0  0.36828917984E+01  0.21228271799E+01  0.53072742915E+01  0.67997976368E+01  0.51100000000E-03 0.  1.
         12    1    3    3    0    0  0.13541497555E+01  0.38677930957E+01  0.10640599456E+02  0.11402451569E+02  0.00000000000E+00 0. -1.
</event>
<event>
 7    1  0.1019486E-010  0.4778727E+02  0.7816164E-02  0.1312668E+00
        -11   -1    0    0    0    0  0.00000000000E+00  0.00000000000E+00  0.45593999997E+02  0.45594000000E+02  0.51100000000E-03 0. -1.
         11   -1    0    0    0    0 -0.00000000000E+00 -0.00000000000E+00 -0.45593999997E+02  0.45594000000E+02  0.51100000000E-03 0.  1.
    9900012    2    1    2    0    0  0.18037316311E+02 -0.14920952674E+02 -0.36546460931E+02  0.47787269419E+02  0.19999992588E+02 0.  0.
         12    1    1    2    0    0 -0.18037316311E+02  0.14920952674E+02  0.36546460931E+02  0.43400730581E+02  0.00000000000E+00 0. -1.
         11    1    3    3    0    0  0.81880776355E+01 -0.67707204034E+00 -0.15669070389E+02  0.17692450623E+02  0.51100000000E-03 0. -1.
        -11    1    3    3    0    0  0.10990643173E+02 -0.16093862044E+02 -0.18455931245E+02  0.26840790436E+02  0.51100000000E-03 0.  1.
        -12    1    3    3    0    0 -0.11414044971E+01  0.18499814102E+01 -0.24214592969E+01  0.32540283605E+01  0.00000000000E+00 0.  1.
</event>
<event>
 7    1  0.1019486E-010  0.4778727E+02  0.7816164E-02  0.1312668E+00
        -11   -1    0    0    0    0  0.00000000000E+00  0.00000000000E+00  0.45593999997E+02  0.45594000000E+02  0.51100000000E-03 0. -1.
         11   -1    0    0    0    0 -0.00000000000E+00 -0.00000000000E+00 -0.45593999997E+02  0.45594000000E+02  0.51100000000E-03 0.  1.
    9900012    2    1    2    0    0 -0.11035496175E+02  0.11409579969E+01  0.41958779363E+02  0.47787272741E+02  0.20000007735E+02 0.  0.
        -12    1    1    2    0    0  0.11035496175E+02 -0.11409579969E+01 -0.41958779363E+02  0.43400727259E+02  0.00000000000E+00 0.  1.
         11    1    3    3    0    0 -0.95421648454E+01  0.44769807108E+01  0.40132994801E+02  0.41494018101E+02  0.51100000000E-03 0. -1.
        -11    1    3    3    0    0 -0.14344142894E+01 -0.23082671869E+01 -0.12925625550E+01  0.30093786700E+01  0.51100000000E-03 0.  1.
         12    1    3    3    0    0 -0.58917039972E-01 -0.10277555271E+01  0.31183471170E+01  0.32838759696E+01  0.00000000000E+00 0. -1.
</event>
<event>
 7    1  0.1019486E-010  0.4778727E+02  0.7816164E-02  0.1312668E+00
        -11   -1    0    0    0    0  0.00000000000E+00  0.00000000000E+00  0.45593999997E+02  0.45594000000E+02  0.51100000000E-03 0. -1.
         11   -1    0    0    0    0 -0.00000000000E+00 -0.00000000000E+00 -0.45593999997E+02  0.45594000000E+02  0.51100000000E-03 0.  1.
    9900012    2    1    2    0    0  0.12965509164E+02 -0.82065836815E+01  0.40597668500E+02  0.47787272688E+02  0.20000007492E+02 0.  0.
        -12    1    1    2    0    0 -0.12965509164E+02  0.82065836815E+01 -0.40597668500E+02  0.43400727312E+02  0.00000000000E+00 0.  1.
         11    1    3    3    0    0  0.95868174911E+01 -0.51450227602E+01  0.28962819613E+02  0.30939024694E+02  0.51100000000E-03 0. -1.
        -11    1    3    3    0    0 -0.20808661745E+01  0.26409467542E+01  0.82406403627E+00  0.34617460322E+01  0.51100000000E-03 0.  1.
        -12    1    3    3    0    0  0.54595578471E+01 -0.57025076755E+01  0.10810784851E+02  0.13386501962E+02  0.00000000000E+00 0.  1.
</event>
<event>
 7    1  0.1019486E-010  0.4778727E+02  0.7816164E-02  0.1312668E+00
        -11   -1    0    0    0    0  0.00000000000E+00  0.00000000000E+00  0.45593999997E+02  0.45594000000E+02  0.51100000000E-03 0. -1.
         11   -1    0    0    0    0 -0.00000000000E+00 -0.00000000000E+00 -0.45593999997E+02  0.45594000000E+02  0.51100000000E-03 0.  1.
    9900012    2    1    2    0    0  0.24045138179E+01  0.42523774810E+02 -0.83408650536E+01  0.47787272580E+02  0.20000007000E+02 0.  0.
         12    1    1    2    0    0 -0.24045138179E+01 -0.42523774810E+02  0.83408650536E+01  0.43400727420E+02  0.00000000000E+00 0. -1.
         11    1    3    3    0    0 -0.43378858610E+01  0.33976893117E+02 -0.49581226308E+01  0.34609673502E+02  0.51100000000E-03 0. -1.
        -11    1    3    3    0    0  0.65037254589E+01  0.42551391904E+01 -0.10613096503E+00  0.77727677450E+01  0.51100000000E-03 0.  1.
        -12    1    3    3    0    0  0.23867422000E+00  0.42917425022E+01 -0.32766114577E+01  0.54048313325E+01  0.00000000000E+00 0.  1.
</event>
<event>
 7    1  0.1019486E-010  0.4778727E+02  0.7816164E-02  0.1312668E+00
        -11   -1    0    0    0    0  0.00000000000E+00  0.00000000000E+00  0.45593999997E+02  0.45594000000E+02  0.51100000000E-03 0. -1.
         11   -1    0    0    0    0 -0.00000000000E+00 -0.00000000000E+00 -0.45593999997E+02  0.45594000000E+02  0.51100000000E-03 0.  1.
    9900012    2    1    2    0    0  0.84910558018E+01  0.39358314492E+02  0.16200252718E+02  0.47787272628E+02  0.20000007220E+02 0.  0.
        -12    1    1    2    0    0 -0.84910558018E+01 -0.39358314492E+02 -0.16200252718E+02  0.43400727372E+02  0.00000000000E+00 0.  1.
         11    1    3    3    0    0  0.57640287225E+01  0.19332535926E+01  0.20341167760E+01  0.64108601518E+01  0.51100000000E-03 0. -1.
        -11    1    3    3    0    0  0.28682293473E+01  0.32392119978E+02  0.81370389786E+01  0.33521449549E+02  0.51100000000E-03 0.  1.
         12    1    3    3    0    0 -0.14120226801E+00  0.50329409218E+01  0.60290969631E+01  0.78549629276E+01  0.00000000000E+00 0. -1.
</event>
<event>
 7    1  0.1019486E-010  0.4778727E+02  0.7816164E-02  0.1312668E+00
        -11   -1    0    0    0    0  0.00000000000E+00  0.00000000000E+00  0.45593999997E+02  0.45594000000E+02  0.51100000000E-03 0. -1.
         11   -1    0    0    0    0 -0.00000000000E+00 -0.00000000000E+00 -0.45593999997E+02  0.45594000000E+02  0.51100000000E-03 0.  1.
    9900012    2    1    2    0    0 -0.71876574038E+01  0.28093147535E+01 -0.42709118735E+02  0.47787268538E+02  0.19999988572E+02 0.  0.
         12    1    1    2    0    0  0.71876574038E+01 -0.28093147535E+01  0.42709118735E+02  0.43400731462E+02  0.00000000000E+00 0. -1.
         11    1    3    3    0    0 -0.72274083484E+01  0.30212969604E+01 -0.35838027013E+01  0.86143664202E+01  0.51100000000E-03 0. -1.
        -11    1    3    3    0    0 -0.38048962276E+00  0.50778300550E+00 -0.53790476201E+01  0.54163428154E+01  0.51100000000E-03 0.  1.
         12    1    3    3    0    0  0.42024056736E+00 -0.71976521244E+00 -0.33746268413E+02  0.33756559302E+02  0.00000000000E+00 0. -1.
</event>
<event>
 7    1  0.1019486E-010  0.4778727E+02  0.7816164E-02  0.1312668E+00
        -11   -1    0    0    0    0  0.00000000000E+00  0.00000000000E+00  0.45593999997E+02  0.45594000000E+02  0.51100000000E-03 0. -1.
         11   -1    0    0    0    0 -0.00000000000E+00 -0.00000000000E+00 -0.45593999997E+02  0.45594000000E+02  0.51100000000E-03 0.  1.
    9900012    2    1    2    0    0  0.21067119193E+02  0.31799049999E+02 -0.20703143897E+02  0.47787271214E+02  0.20000000775E+02 0.  0.
         12    1    1    2    0    0 -0.21067119193E+02 -0.31799049999E+02  0.20703143897E+02  0.43400728786E+02  0.00000000000E+00 0. -1.
         11    1    3    3    0    0  0.16472264562E+02  0.20772308357E+02 -0.12253931373E+02  0.29205874900E+02  0.51100000000E-03 0. -1.
        -11    1    3    3    0    0 -0.31887764991E+01  0.53463281765E+01 -0.79558435967E+00  0.62757051609E+01  0.51100000000E-03 0.  1.
        -12    1    3    3    0    0  0.77836311296E+01  0.56804134652E+01 -0.76536281640E+01  0.12305691154E+02  0.00000000000E+00 0.  1.
</event>
<event>
 7    1  0.1019486E-010  0.4778727E+02  0.7816164E-02  0.1312668E+00
        -11   -1    0    0    0    0  0.00000000000E+00  0.00000000000E+00  0.45593999997E+02  0.45594000000E+02  0.51100000000E-03 0. -1.
         11   -1    0    0    0    0 -0.00000000000E+00 -0.00000000000E+00 -0.45593999997E+02  0.45594000000E+02  0.51100000000E-03 0.  1.
    9900012    2    1    2    0    0 -0.31136144161E+02  0.27756533834E+02 -0.11989101182E+02  0.47787272001E+02  0.20000004362E+02 0.  0.
         12    1    1    2    0    0  0.31136144161E+02 -0.27756533834E+02  0.11989101182E+02  0.43400727999E+02  0.00000000000E+00 0. -1.
         11    1    3    3    0    0 -0.64963791846E+01  0.34829474276E+01  0.49214709139E+01  0.88631112771E+01  0.51100000000E-03 0. -1.
        -11    1    3    3    0    0 -0.18744504187E+02  0.21557668363E+02 -0.13880384948E+02  0.31760897170E+02  0.51100000000E-03 0.  1.
        -12    1    3    3    0    0 -0.58952607890E+01  0.27159180430E+01 -0.30301871488E+01  0.71632635540E+01  0.00000000000E+00 0.  1.
</event>
<event>
 7    1  0.1019486E-010  0.4778727E+02  0.7816164E-02  0.1312668E+00
        -11   -1    0    0    0    0  0.00000000000E+00  0.00000000000E+00  0.45593999997E+02  0.45594000000E+02  0.51100000000E-03 0. -1.
         11   -1    0    0    0    0 -0.00000000000E+00 -0.00000000000E+00 -0.45593999997E+02  0.45594000000E+02  0.51100000000E-03 0.  1.
    9900012    2    1    2    0    0  0.16115364843E+02  0.20082395873E+02  0.34937310119E+02  0.47787271361E+02  0.20000001445E+02 0.  0.
        -12    1    1    2    0    0 -0.16115364843E+02 -0.20082395873E+02 -0.34937310119E+02  0.43400728639E+02  0.00000000000E+00 0.  1.
         11    1    3    3    0    0  0.93953894606E+01  0.16670208278E+02  0.34713987449E+02  0.39638745087E+02  0.51100000000E-03 0. -1.
        -11    1    3    3    0    0  0.63139866937E+01  0.19213424982E+01  0.21570070623E+00  0.66033712616E+01  0.51100000000E-03 0.  1.
         12    1    3    3    0    0  0.40598868884E+00  0.14908450975E+01  0.76219630143E-02  0.15451550131E+01  0.00000000000E+00 0. -1.
</event>
<event>
 7    1  0.1019486E-010  0.4778727E+02  0.7816164E-02  0.1312668E+00
        -11   -1    0    0    0    0  0.00000000000E+00  0.00000000000E+00  0.45593999997E+02  0.45594000000E+02  0.51100000000E-03 0. -1.
         11   -1    0    0    0    0 -0.00000000000E+00 -0.00000000000E+00 -0.45593999997E+02  0.45594000000E+02  0.51100000000E-03 0.  1.
    9900012    2    1    2    0    0 -0.21882830537E+01  0.70184180001E+01  0.42773549890E+02  0.47787270235E+02  0.19999996310E+02 0.  0.
        -12    1    1    2    0    0  0.21882830537E+01 -0.70184180001E+01 -0.42773549890E+02  0.43400729765E+02  0.00000000000E+00 0.  1.
         11    1    3    3    0    0 -0.86363335071E+00  0.27944150275E+01  0.31050901000E+02  0.31188348322E+02  0.51100000000E-03 0. -1.
        -11    1    3    3    0    0  0.29824213409E+01  0.77482907891E+00 -0.56168611530E+00  0.31322018948E+01  0.51100000000E-03 0.  1.
        -12    1    3    3    0    0 -0.43070710439E+01  0.34491738937E+01  0.12284335005E+02  0.13466720018E+02  0.00000000000E+00 0.  1.
</event>
<event>
 7    1  0.1019486E-010  0.4778729E+02  0.7816164E-02  0.1312668E+00
        -11   -1    0    0    0    0  0.00000000000E+00  0.00000000000E+00  0.45593999997E+02  0.45594000000E+02  0.51100000000E-03 0. -1.
         11   -1    0    0    0    0 -0.00000000000E+00 -0.00000000000E+00 -0.45593999997E+02  0.45594000000E+02  0.51100000000E-03 0.  1.
    9900012    2    1    2    0    0  0.30869323467E+02  0.21384326059E+02 -0.21758158474E+02  0.47787285807E+02  0.20000067306E+02 0.  0.
         12    1    1    2    0    0 -0.30869323467E+02 -0.21384326059E+02  0.21758158474E+02  0.43400714193E+02  0.00000000000E+00 0. -1.
         11    1    3    3    0    0  0.22516572592E+02  0.13837823627E+02 -0.87213378907E+01  0.27830615136E+02  0.51100000000E-03 0. -1.
        -11    1    3    3    0    0  0.90901749641E+01  0.51044394994E+01 -0.13798806725E+02  0.17294324236E+02  0.51100000000E-03 0.  1.
         12    1    3    3    0    0 -0.73742408856E+00  0.24420629333E+01  0.76198614184E+00  0.26623464344E+01  0.00000000000E+00 0. -1.
</event>
<event>
 7    1  0.1019486E-010  0.4778730E+02  0.7816164E-02  0.1312668E+00
        -11   -1    0    0    0    0  0.00000000000E+00  0.00000000000E+00  0.45593999997E+02  0.45594000000E+02  0.51100000000E-03 0.  1.
         11   -1    0    0    0    0 -0.00000000000E+00 -0.00000000000E+00 -0.45593999997E+02  0.45594000000E+02  0.51100000000E-03 0. -1.
    9900012    2    1    2    0    0  0.22412964494E+02 -0.27075045076E+02  0.25460200217E+02  0.47787299103E+02  0.20000127930E+02 0.  0.
        -12    1    1    2    0    0 -0.22412964494E+02  0.27075045076E+02 -0.25460200217E+02  0.43400700897E+02  0.00000000000E+00 0.  1.
         11    1    3    3    0    0  0.11317186276E+02 -0.34459495527E+01  0.28625706741E+01  0.12171589241E+02  0.51100000000E-03 0. -1.
        -11    1    3    3    0    0  0.58026908793E-01 -0.42553228153E+01  0.77050338059E+01  0.88021977708E+01  0.51100000000E-03 0.  1.
         12    1    3    3    0    0  0.11037751309E+02 -0.19373772708E+02  0.14892595737E+02  0.26813512092E+02  0.00000000000E+00 0. -1.
</event>
<event>
 7    1  0.1019486E-010  0.4778727E+02  0.7816164E-02  0.1312668E+00
        -11   -1    0    0    0    0  0.00000000000E+00  0.00000000000E+00  0.45593999997E+02  0.45594000000E+02  0.51100000000E-03 0. -1.
         11   -1    0    0    0    0 -0.00000000000E+00 -0.00000000000E+00 -0.45593999997E+02  0.45594000000E+02  0.51100000000E-03 0.  1.
    9900012    2    1    2    0    0 -0.48364971924E+01  0.19398608126E+01 -0.43086757891E+02  0.47787268778E+02  0.19999989667E+02 0.  0.
         12    1    1    2    0    0  0.48364971924E+01 -0.19398608126E+01  0.43086757891E+02  0.43400731222E+02  0.00000000000E+00 0. -1.
         11    1    3    3    0    0 -0.38319389643E+01  0.47673603090E+01 -0.43831094593E+01  0.75248341733E+01  0.51100000000E-03 0. -1.
        -11    1    3    3    0    0 -0.18052500015E+00 -0.69121976270E+01 -0.23190841651E+02  0.24199714917E+02  0.51100000000E-03 0.  1.
        -12    1    3    3    0    0 -0.82403322802E+00  0.40846981306E+01 -0.15512806780E+02  0.16062719688E+02  0.00000000000E+00 0.  1.
</event>
<event>
 7    1  0.1019486E-010  0.4778727E+02  0.7816164E-02  0.1312668E+00
        -11   -1    0    0    0    0  0.00000000000E+00  0.00000000000E+00  0.45593999997E+02  0.45594000000E+02  0.51100000000E-03 0. -1.
         11   -1    0    0    0    0 -0.00000000000E+00 -0.00000000000E+00 -0.45593999997E+02  0.45594000000E+02  0.51100000000E-03 0.  1.
    9900012    2    1    2    0    0 -0.47840266332E+01  0.19101688631E+02  0.38676373966E+02  0.47787270484E+02  0.19999997443E+02 0.  0.
        -12    1    1    2    0    0  0.47840266332E+01 -0.19101688631E+02 -0.38676373966E+02  0.43400729516E+02  0.00000000000E+00 0.  1.
         11    1    3    3    0    0 -0.28714080148E+01  0.69782320552E+01  0.32174869583E+02  0.33047888579E+02  0.51100000000E-03 0. -1.
        -11    1    3    3    0    0 -0.13528013204E+01  0.12300212843E+02  0.67571311699E+01  0.14099082569E+02  0.51100000000E-03 0.  1.
         12    1    3    3    0    0 -0.55981729800E+00 -0.17675626654E+00 -0.25562678636E+00  0.64029933532E+00  0.00000000000E+00 0. -1.
</event>
<event>
 7    1  0.1019486E-010  0.4778727E+02  0.7816164E-02  0.1312668E+00
        -11   -1    0    0    0    0  0.00000000000E+00  0.00000000000E+00  0.45593999997E+02  0.45594000000E+02  0.51100000000E-03 0. -1.
         11   -1    0    0    0    0 -0.00000000000E+00 -0.00000000000E+00 -0.45593999997E+02  0.45594000000E+02  0.51100000000E-03 0.  1.
    9900012    2    1    2    0    0  0.10680650719E+02 -0.37738227057E+02  0.18584219865E+02  0.47787270638E+02  0.19999998146E+02 0.  0.
        -12    1    1    2    0    0 -0.10680650719E+02  0.37738227057E+02 -0.18584219865E+02  0.43400729362E+02  0.00000000000E+00 0.  1.
         11    1    3    3    0    0  0.20564896418E+01 -0.45705924052E+01 -0.61019581484E-01  0.50123036851E+01  0.51100000000E-03 0. -1.
        -11    1    3    3    0    0  0.78463791457E+01 -0.34848424304E+02  0.19542358761E+02  0.40717098723E+02  0.51100000000E-03 0.  1.
        -12    1    3    3    0    0  0.77778193110E+00  0.16807896524E+01 -0.89711931435E+00  0.20578682300E+01  0.00000000000E+00 0.  1.
</event>
<event>
 7    1  0.1019486E-010  0.4778727E+02  0.7816164E-02  0.1312668E+00
        -11   -1    0    0    0    0  0.00000000000E+00  0.00000000000E+00  0.45593999997E+02  0.45594000000E+02  0.51100000000E-03 0. -1.
         11   -1    0    0    0    0 -0.00000000000E+00 -0.00000000000E+00 -0.45593999997E+02  0.45594000000E+02  0.51100000000E-03 0.  1.
    9900012    2    1    2    0    0  0.18047599125E+02  0.36229089893E+02 -0.15663996019E+02  0.47787267749E+02  0.19999984974E+02 0.  0.
         12    1    1    2    0    0 -0.18047599125E+02 -0.36229089893E+02  0.15663996019E+02  0.43400732251E+02  0.00000000000E+00 0. -1.
         11    1    3    3    0    0  0.82824236224E+00  0.75906026428E-01  0.30315711868E+01  0.31435920946E+01  0.51100000000E-03 0. -1.
        -11    1    3    3    0    0  0.15371753075E+02  0.34343239281E+02 -0.15937502183E+02  0.40862609473E+02  0.51100000000E-03 0.  1.
         12    1    3    3    0    0  0.18476036883E+01  0.18099445858E+01 -0.27580650229E+01  0.37810661807E+01  0.00000000000E+00 0. -1.
</event>
<event>
 7    1  0.1019486E-010  0.4778728E+02  0.7816164E-02  0.1312668E+00
        -11   -1    0    0    0    0  0.00000000000E+00  0.00000000000E+00  0.45593999997E+02  0.45594000000E+02  0.51100000000E-03 0. -1.
         11   -1    0    0    0    0 -0.00000000000E+00 -0.00000000000E+00 -0.45593999997E+02  0.45594000000E+02  0.51100000000E-03 0.  1.
    9900012    2    1    2    0    0  0.25014323203E+02 -0.31822202941E+02  0.15660583096E+02  0.47787276178E+02  0.20000023407E+02 0.  0.
        -12    1    1    2    0    0 -0.25014323203E+02  0.31822202941E+02 -0.15660583096E+02  0.43400723822E+02  0.00000000000E+00 0.  1.
         11    1    3    3    0    0  0.52743195292E+01 -0.16431308073E+00  0.27552288579E-02  0.52768791096E+01  0.51100000000E-03 0. -1.
        -11    1    3    3    0    0  0.78717273348E+01 -0.24194859137E+02  0.89787765381E+01  0.26980988275E+02  0.51100000000E-03 0.  1.
        -12    1    3    3    0    0  0.11868276339E+02 -0.74630307236E+01  0.66790513286E+01  0.15529408794E+02  0.00000000000E+00 0.  1.
</event>
<event>
 7    1  0.1019486E-010  0.4778727E+02  0.7816164E-02  0.1312668E+00
        -11   -1    0    0    0    0  0.00000000000E+00  0.00000000000E+00  0.45593999997E+02  0.45594000000E+02  0.51100000000E-03 0. -1.
         11   -1    0    0    0    0 -0.00000000000E+00 -0.00000000000E+00 -0.45593999997E+02  0.45594000000E+02  0.51100000000E-03 0.  1.
    9900012    2    1    2    0    0  0.18655237088E+02 -0.99161888019E+01 -0.37911405287E+02  0.47787270490E+02  0.19999997473E+02 0.  0.
         12    1    1    2    0    0 -0.18655237088E+02  0.99161888019E+01  0.37911405287E+02  0.43400729510E+02  0.00000000000E+00 0. -1.
         11    1    3    3    0    0  0.15900136380E+01  0.35909670405E+01 -0.12280410718E+02  0.12893086338E+02  0.51100000000E-03 0.  1.
        -11    1    3    3    0    0  0.94910826786E+01 -0.60454392905E+01 -0.64682643091E+01  0.12979461856E+02  0.51100000000E-03 0. -1.
        -12    1    3    3    0    0  0.75741407718E+01 -0.74617165519E+01 -0.19162730259E+02  0.21914722296E+02  0.00000000000E+00 0.  1.
</event>
<event>
 7    1  0.1019486E-010  0.4778728E+02  0.7816164E-02  0.1312668E+00
        -11   -1    0    0    0    0  0.00000000000E+00  0.00000000000E+00  0.45593999997E+02  0.45594000000E+02  0.51100000000E-03 0.  1.
         11   -1    0    0    0    0 -0.00000000000E+00 -0.00000000000E+00 -0.45593999997E+02  0.45594000000E+02  0.51100000000E-03 0. -1.
    9900012    2    1    2    0    0 -0.16999115680E+02 -0.38080949815E+02 -0.12020574822E+02  0.47787275446E+02  0.20000020069E+02 0.  0.
         12    1    1    2    0    0  0.16999115680E+02  0.38080949815E+02  0.12020574822E+02  0.43400724554E+02  0.00000000000E+00 0. -1.
         11    1    3    3    0    0 -0.12824069667E+02 -0.30085159270E+02 -0.31553393224E+01  0.32856197857E+02  0.51100000000E-03 0. -1.
        -11    1    3    3    0    0  0.23872238099E+01 -0.19832628921E+01 -0.25699930966E+01  0.40295203183E+01  0.51100000000E-03 0.  1.
         12    1    3    3    0    0 -0.65622698228E+01 -0.60125276535E+01 -0.62952424034E+01  0.10901557271E+02  0.00000000000E+00 0. -1.
</event>
<event>
 7    1  0.1019486E-010  0.4778727E+02  0.7816164E-02  0.1312668E+00
        -11   -1    0    0    0    0  0.00000000000E+00  0.00000000000E+00  0.45593999997E+02  0.45594000000E+02  0.51100000000E-03 0. -1.
         11   -1    0    0    0    0 -0.00000000000E+00 -0.00000000000E+00 -0.45593999997E+02  0.45594000000E+02  0.51100000000E-03 0.  1.
    9900012    2    1    2    0    0  0.20635589494E+02  0.16973950597E+02  0.34200597863E+02  0.47787269051E+02  0.19999990913E+02 0.  0.
        -12    1    1    2    0    0 -0.20635589494E+02 -0.16973950597E+02 -0.34200597863E+02  0.43400730949E+02  0.00000000000E+00 0.  1.
         11    1    3    3    0    0  0.22550200650E+02  0.10886195734E+02  0.22042222345E+02  0.33359861706E+02  0.51100000000E-03 0. -1.
        -11    1    3    3    0    0 -0.16641292020E+01  0.26191951943E+01  0.20038425455E+01  0.36938996569E+01  0.51100000000E-03 0.  1.
         12    1    3    3    0    0 -0.25048195380E+00  0.34685596691E+01  0.10154532973E+02  0.10733507688E+02  0.00000000000E+00 0. -1.
</event>
<event>
 7    1  0.1019486E-010  0.4778727E+02  0.7816164E-02  0.1312668E+00
        -11   -1    0    0    0    0  0.00000000000E+00  0.00000000000E+00  0.45593999997E+02  0.45594000000E+02  0.51100000000E-03 0. -1.
         11   -1    0    0    0    0 -0.00000000000E+00 -0.00000000000E+00 -0.45593999997E+02  0.45594000000E+02  0.51100000000E-03 0.  1.
    9900012    2    1    2    0    0 -0.29672389911E+02 -0.65352677853E+01 -0.30991336338E+02  0.47787269867E+02  0.19999994633E+02 0.  0.
         12    1    1    2    0    0  0.29672389911E+02  0.65352677853E+01  0.30991336338E+02  0.43400730133E+02  0.00000000000E+00 0. -1.
         11    1    3    3    0    0 -0.83338407388E+01 -0.83248868733E+01 -0.12155025606E+02  0.16926349006E+02  0.51100000000E-03 0. -1.
        -11    1    3    3    0    0 -0.22752611829E+02  0.24178955381E+01 -0.17916961414E+02  0.29061057627E+02  0.51100000000E-03 0.  1.
        -12    1    3    3    0    0  0.14140626565E+01 -0.62827645011E+00 -0.91934931753E+00  0.17998632342E+01  0.00000000000E+00 0.  1.
</event>
<event>
 7    1  0.1019486E-010  0.4778727E+02  0.7816164E-02  0.1312668E+00
        -11   -1    0    0    0    0  0.00000000000E+00  0.00000000000E+00  0.45593999997E+02  0.45594000000E+02  0.51100000000E-03 0. -1.
         11   -1    0    0    0    0 -0.00000000000E+00 -0.00000000000E+00 -0.45593999997E+02  0.45594000000E+02  0.51100000000E-03 0.  1.
    9900012    2    1    2    0    0 -0.15802423256E+02 -0.38245500556E+02  0.13083892492E+02  0.47787272629E+02  0.20000007227E+02 0.  0.
        -12    1    1    2    0    0  0.15802423256E+02  0.38245500556E+02 -0.13083892492E+02  0.43400727371E+02  0.00000000000E+00 0.  1.
         11    1    3    3    0    0  0.25736340195E+01 -0.37652068777E+01  0.16705090378E+01  0.48570542106E+01  0.51100000000E-03 0. -1.
        -11    1    3    3    0    0 -0.20540153243E+02 -0.32410869815E+02  0.10240096876E+02  0.39714253886E+02  0.51100000000E-03 0.  1.
        -12    1    3    3    0    0  0.21640959677E+01 -0.20694238638E+01  0.11732865782E+01  0.32159645334E+01  0.00000000000E+00 0.  1.
</event>
<event>
 7    1  0.1019486E-010  0.4778727E+02  0.7816164E-02  0.1312668E+00
        -11   -1    0    0    0    0  0.00000000000E+00  0.00000000000E+00  0.45593999997E+02  0.45594000000E+02  0.51100000000E-03 0. -1.
         11   -1    0    0    0    0 -0.00000000000E+00 -0.00000000000E+00 -0.45593999997E+02  0.45594000000E+02  0.51100000000E-03 0.  1.
    9900012    2    1    2    0    0 -0.31463658461E+01 -0.23945127458E+02  0.36060428485E+02  0.47787271325E+02  0.20000001279E+02 0.  0.
        -12    1    1    2    0    0  0.31463658461E+01  0.23945127458E+02 -0.36060428485E+02  0.43400728675E+02  0.00000000000E+00 0.  1.
         11    1    3    3    0    0  0.36778030293E+01 -0.26502354428E+01  0.13227744070E+02  0.13982960933E+02  0.51100000000E-03 0.  1.
        -11    1    3    3    0    0 -0.88606627588E+01 -0.15473259622E+02  0.20600040303E+02  0.27245087055E+02  0.51100000000E-03 0. -1.
         12    1    3    3    0    0  0.20364938833E+01 -0.58216323927E+01  0.22326441121E+01  0.65592233369E+01  0.00000000000E+00 0. -1.
</event>
<event>
 7    1  0.1019486E-010  0.4778727E+02  0.7816164E-02  0.1312668E+00
        -11   -1    0    0    0    0  0.00000000000E+00  0.00000000000E+00  0.45593999997E+02  0.45594000000E+02  0.51100000000E-03 0. -1.
         11   -1    0    0    0    0 -0.00000000000E+00 -0.00000000000E+00 -0.45593999997E+02  0.45594000000E+02  0.51100000000E-03 0.  1.
    9900012    2    1    2    0    0  0.37433374929E+02 -0.19401547299E+02 -0.10292990443E+02  0.47787271338E+02  0.20000001337E+02 0.  0.
        -12    1    1    2    0    0 -0.37433374929E+02  0.19401547299E+02  0.10292990443E+02  0.43400728662E+02  0.00000000000E+00 0.  1.
         11    1    3    3    0    0  0.47980764235E+01 -0.78282296019E-01  0.38605787350E-01  0.47988702995E+01  0.51100000000E-03 0. -1.
        -11    1    3    3    0    0  0.27099190243E+02 -0.11135618931E+02 -0.87729373452E+00  0.29311051932E+02  0.51100000000E-03 0.  1.
        -12    1    3    3    0    0  0.55361082624E+01 -0.81876460727E+01 -0.94543024956E+01  0.13677349107E+02  0.00000000000E+00 0.  1.
</event>
<event>
 7    1  0.1019486E-010  0.4778726E+02  0.7816164E-02  0.1312668E+00
        -11   -1    0    0    0    0  0.00000000000E+00  0.00000000000E+00  0.45593999997E+02  0.45594000000E+02  0.51100000000E-03 0. -1.
         11   -1    0    0    0    0 -0.00000000000E+00 -0.00000000000E+00 -0.45593999997E+02  0.45594000000E+02  0.51100000000E-03 0.  1.
    9900012    2    1    2    0    0  0.12039952246E+02 -0.22821806395E+02 -0.34897405883E+02  0.47787259976E+02  0.19999949535E+02 0.  0.
         12    1    1    2    0    0 -0.12039952246E+02  0.22821806395E+02  0.34897405883E+02  0.43400740024E+02  0.00000000000E+00 0. -1.
         11    1    3    3    0    0  0.91435988986E+00 -0.98817679047E+01 -0.10892470779E+02  0.14735376170E+02  0.51100000000E-03 0. -1.
        -11    1    3    3    0    0  0.10135861807E+01 -0.11862434794E+02 -0.89956840762E+01  0.14922032317E+02  0.51100000000E-03 0.  1.
        -12    1    3    3    0    0  0.10112006176E+02 -0.10776036962E+01 -0.15009251028E+02  0.18129851490E+02  0.00000000000E+00 0.  1.
</event>
<event>
 7    1  0.1019486E-010  0.4778727E+02  0.7816164E-02  0.1312668E+00
        -11   -1    0    0    0    0  0.00000000000E+00  0.00000000000E+00  0.45593999997E+02  0.45594000000E+02  0.51100000000E-03 0. -1.
         11   -1    0    0    0    0 -0.00000000000E+00 -0.00000000000E+00 -0.45593999997E+02  0.45594000000E+02  0.51100000000E-03 0.  1.
    9900012    2    1    2    0    0  0.39942106979E+02 -0.12598244954E+02  0.11381371502E+02  0.47787270708E+02  0.19999998464E+02 0.  0.
        -12    1    1    2    0    0 -0.39942106979E+02  0.12598244954E+02 -0.11381371502E+02  0.43400729292E+02  0.00000000000E+00 0.  1.
         11    1    3    3    0    0  0.11716992126E+02  0.79538783991E+00  0.34728302820E+01  0.12246676967E+02  0.51100000000E-03 0. -1.
        -11    1    3    3    0    0  0.29388391815E+02 -0.10073611569E+02  0.77504200330E+01  0.32019122949E+02  0.51100000000E-03 0.  1.
        -12    1    3    3    0    0 -0.11632769620E+01 -0.33200212251E+01  0.15812118708E+00  0.35214707915E+01  0.00000000000E+00 0.  1.
</event>
<event>
 7    1  0.1019486E-010  0.4778727E+02  0.7816164E-02  0.1312668E+00
        -11   -1    0    0    0    0  0.00000000000E+00  0.00000000000E+00  0.45593999997E+02  0.45594000000E+02  0.51100000000E-03 0. -1.
         11   -1    0    0    0    0 -0.00000000000E+00 -0.00000000000E+00 -0.45593999997E+02  0.45594000000E+02  0.51100000000E-03 0.  1.
    9900012    2    1    2    0    0  0.20871288421E+02 -0.13709282866E+02  0.35497436591E+02  0.47787272799E+02  0.20000007999E+02 0.  0.
        -12    1    1    2    0    0 -0.20871288421E+02  0.13709282866E+02 -0.35497436591E+02  0.43400727201E+02  0.00000000000E+00 0.  1.
         11    1    3    3    0    0  0.15404580752E+02 -0.59714001886E+01  0.20382298152E+02  0.26237317061E+02  0.51100000000E-03 0. -1.
        -11    1    3    3    0    0  0.12372605986E+01 -0.64314195312E+01  0.83850819316E+00  0.66028075260E+01  0.51100000000E-03 0.  1.
        -12    1    3    3    0    0  0.42294470699E+01 -0.13064631460E+01  0.14276630246E+02  0.14947148212E+02  0.00000000000E+00 0.  1.
</event>
<event>
 7    1  0.1019486E-010  0.4778727E+02  0.7816164E-02  0.1312668E+00
        -11   -1    0    0    0    0  0.00000000000E+00  0.00000000000E+00  0.45593999997E+02  0.45594000000E+02  0.51100000000E-03 0. -1.
         11   -1    0    0    0    0 -0.00000000000E+00 -0.00000000000E+00 -0.45593999997E+02  0.45594000000E+02  0.51100000000E-03 0.  1.
    9900012    2    1    2    0    0 -0.21932209075E+00 -0.24109236937E+02 -0.36087670201E+02  0.47787270186E+02  0.19999996087E+02 0.  0.
         12    1    1    2    0    0  0.21932209075E+00  0.24109236937E+02  0.36087670201E+02  0.43400729814E+02  0.00000000000E+00 0. -1.
         11    1    3    3    0    0 -0.17950295641E+01  0.17153746560E+01 -0.61836904643E+01  0.66635327991E+01  0.51100000000E-03 0. -1.
        -11    1    3    3    0    0  0.64166824699E+01 -0.14219195082E+02 -0.17827667720E+02  0.23689344848E+02  0.51100000000E-03 0.  1.
        -12    1    3    3    0    0 -0.48409749965E+01 -0.11605416511E+02 -0.12076312016E+02  0.17434392539E+02  0.00000000000E+00 0.  1.
</event>
<event>
 7    1  0.1019486E-010  0.4778728E+02  0.7816164E-02  0.1312668E+00
        -11   -1    0    0    0    0  0.00000000000E+00  0.00000000000E+00  0.45593999997E+02  0.45594000000E+02  0.51100000000E-03 0. -1.
         11   -1    0    0    0    0 -0.00000000000E+00 -0.00000000000E+00 -0.45593999997E+02  0.45594000000E+02  0.51100000000E-03 0.  1.
    9900012    2    1    2    0    0 -0.35674500228E+02 -0.13994997157E+02  0.20373822324E+02  0.47787279407E+02  0.20000038126E+02 0.  0.
        -12    1    1    2    0    0  0.35674500228E+02  0.13994997157E+02 -0.20373822324E+02  0.43400720593E+02  0.00000000000E+00 0.  1.
         11    1    3    3    0    0 -0.29906519614E+02 -0.11890685799E+02  0.11194625929E+02  0.34075034470E+02  0.51100000000E-03 0. -1.
        -11    1    3    3    0    0 -0.72522848855E+01 -0.12496065632E+01  0.94507469590E+01  0.11978053722E+02  0.51100000000E-03 0.  1.
         12    1    3    3    0    0  0.14843042721E+01 -0.85470479540E+00 -0.27155056339E+00  0.17341912144E+01  0.00000000000E+00 0. -1.
</event>
<event>
 7    1  0.1019486E-010  0.4778727E+02  0.7816164E-02  0.1312668E+00
        -11   -1    0    0    0    0  0.00000000000E+00  0.00000000000E+00  0.45593999997E+02  0.45594000000E+02  0.51100000000E-03 0. -1.
         11   -1    0    0    0    0 -0.00000000000E+00 -0.00000000000E+00 -0.45593999997E+02  0.45594000000E+02  0.51100000000E-03 0.  1.
    9900012    2    1    2    0    0 -0.20134301947E+02  0.20886636123E+02  0.32279742518E+02  0.47787268895E+02  0.19999990200E+02 0.  0.
        -12    1    1    2    0    0  0.20134301947E+02 -0.20886636123E+02 -0.32279742518E+02  0.43400731105E+02  0.00000000000E+00 0.  1.
         11    1    3    3    0    0 -0.60491494944E+01  0.15303298655E+02  0.19139755451E+02  0.25241105331E+02  0.51100000000E-03 0. -1.
        -11    1    3    3    0    0  0.53958102556E+00  0.68143512131E+00  0.50590026713E+01  0.51331286558E+01  0.51100000000E-03 0.  1.
         12    1    3    3    0    0 -0.14624733478E+02  0.49019023472E+01  0.80809843953E+01  0.17413034908E+02  0.00000000000E+00 0. -1.
</event>
<event>
 7    1  0.1019486E-010  0.4778727E+02  0.7816164E-02  0.1312668E+00
        -11   -1    0    0    0    0  0.00000000000E+00  0.00000000000E+00  0.45593999997E+02  0.45594000000E+02  0.51100000000E-03 0. -1.
         11   -1    0    0    0    0 -0.00000000000E+00 -0.00000000000E+00 -0.45593999997E+02  0.45594000000E+02  0.51100000000E-03 0.  1.
    9900012    2    1    2    0    0 -0.37427243213E+02 -0.21553217475E+02 -0.42759522653E+01  0.47787268603E+02  0.19999988868E+02 0.  0.
         12    1    1    2    0    0  0.37427243213E+02  0.21553217475E+02  0.42759522653E+01  0.43400731397E+02  0.00000000000E+00 0. -1.
         11    1    3    3    0    0 -0.11922083192E+02  0.19683705705E+01  0.21576429825E+00  0.12085408757E+02  0.51100000000E-03 0. -1.
        -11    1    3    3    0    0 -0.20891580183E+02 -0.21744969103E+02 -0.21491816008E+01  0.30231122799E+02  0.51100000000E-03 0.  1.
         12    1    3    3    0    0 -0.46135798378E+01 -0.17766189421E+01 -0.23425349627E+01  0.54707370469E+01  0.00000000000E+00 0. -1.
</event>
<event>
 7    1  0.1019486E-010  0.4778727E+02  0.7816164E-02  0.1312668E+00
        -11   -1    0    0    0    0  0.00000000000E+00  0.00000000000E+00  0.45593999997E+02  0.45594000000E+02  0.51100000000E-03 0. -1.
         11   -1    0    0    0    0 -0.00000000000E+00 -0.00000000000E+00 -0.45593999997E+02  0.45594000000E+02  0.51100000000E-03 0.  1.
    9900012    2    1    2    0    0 -0.18830326395E+02 -0.38204613980E+02 -0.83336533002E+01  0.47787268453E+02  0.19999988183E+02 0.  0.
         12    1    1    2    0    0  0.18830326395E+02  0.38204613980E+02  0.83336533002E+01  0.43400731547E+02  0.00000000000E+00 0. -1.
         11    1    3    3    0    0  0.10398069193E+01 -0.14998368395E+01 -0.20518173027E+01  0.27460268533E+01  0.51100000000E-03 0. -1.
        -11    1    3    3    0    0 -0.62657976851E+01 -0.25178546783E+02 -0.79386853477E+01  0.27133782708E+02  0.51100000000E-03 0.  1.
        -12    1    3    3    0    0 -0.13604335630E+02 -0.11526230358E+02  0.16568493501E+01  0.17907458891E+02  0.00000000000E+00 0.  1.
</event>
<event>
 7    1  0.1019486E-010  0.4778727E+02  0.7816164E-02  0.1312668E+00
        -11   -1    0    0    0    0  0.00000000000E+00  0.00000000000E+00  0.45593999997E+02  0.45594000000E+02  0.51100000000E-03 0. -1.
         11   -1    0    0    0    0 -0.00000000000E+00 -0.00000000000E+00 -0.45593999997E+02  0.45594000000E+02  0.51100000000E-03 0.  1.
    9900012    2    1    2    0    0 -0.63849342877E+01 -0.20312332441E+02 -0.37818851415E+02  0.47787265474E+02  0.19999974600E+02 0.  0.
         12    1    1    2    0    0  0.63849342877E+01  0.20312332441E+02  0.37818851415E+02  0.43400734526E+02  0.00000000000E+00 0. -1.
         11    1    3    3    0    0 -0.10394704582E+02 -0.52244546229E+01 -0.22081453490E+02  0.24958673802E+02  0.51100000000E-03 0. -1.
        -11    1    3    3    0    0  0.22836806441E+01 -0.66359552842E+01 -0.10827073980E+02  0.12902582340E+02  0.51100000000E-03 0.  1.
         12    1    3    3    0    0  0.17260896500E+01 -0.84519225341E+01 -0.49103239457E+01  0.99260093317E+01  0.00000000000E+00 0. -1.
</event>
<event>
 7    1  0.1019486E-010  0.4778727E+02  0.7816164E-02  0.1312668E+00
        -11   -1    0    0    0    0  0.00000000000E+00  0.00000000000E+00  0.45593999997E+02  0.45594000000E+02  0.51100000000E-03 0. -1.
         11   -1    0    0    0    0 -0.00000000000E+00 -0.00000000000E+00 -0.45593999997E+02  0.45594000000E+02  0.51100000000E-03 0.  1.
    9900012    2    1    2    0    0  0.17390990704E+02  0.15713286663E+02 -0.36527650809E+02  0.47787271792E+02  0.20000003406E+02 0.  0.
         12    1    1    2    0    0 -0.17390990704E+02 -0.15713286663E+02  0.36527650809E+02  0.43400728208E+02  0.00000000000E+00 0. -1.
         11    1    3    3    0    0  0.67674429328E+01  0.21146944321E+01 -0.41752934860E+01  0.82282010394E+01  0.51100000000E-03 0. -1.
        -11    1    3    3    0    0  0.13674537638E+02  0.13649472514E+02 -0.24979290296E+02  0.31579519050E+02  0.51100000000E-03 0.  1.
        -12    1    3    3    0    0 -0.30509898670E+01 -0.50880283192E-01 -0.73730670274E+01  0.79795517019E+01  0.00000000000E+00 0.  1.
</event>
<event>
 7    1  0.1019486E-010  0.4778727E+02  0.7816164E-02  0.1312668E+00
        -11   -1    0    0    0    0  0.00000000000E+00  0.00000000000E+00  0.45593999997E+02  0.45594000000E+02  0.51100000000E-03 0.  1.
         11   -1    0    0    0    0 -0.00000000000E+00 -0.00000000000E+00 -0.45593999997E+02  0.45594000000E+02  0.51100000000E-03 0. -1.
    9900012    2    1    2    0    0  0.16192737706E+02  0.24979485067E+02 -0.31582341993E+02  0.47787265509E+02  0.19999974760E+02 0.  0.
         12    1    1    2    0    0 -0.16192737706E+02 -0.24979485067E+02  0.31582341993E+02  0.43400734491E+02  0.00000000000E+00 0. -1.
         11    1    3    3    0    0  0.11460134290E+02  0.67778652415E+01 -0.17153178758E+02  0.21714181471E+02  0.51100000000E-03 0. -1.
        -11    1    3    3    0    0  0.64438366731E+01  0.15700407189E+02 -0.75874158171E+01  0.18590177407E+02  0.51100000000E-03 0.  1.
         12    1    3    3    0    0 -0.17112332575E+01  0.25012126357E+01 -0.68417474185E+01  0.74829066311E+01  0.00000000000E+00 0. -1.
</event>
<event>
 7    1  0.1140260E-010  0.4778726E+02  0.7816164E-02  0.1312668E+00
        -11   -1    0    0    0    0  0.00000000000E+00  0.00000000000E+00  0.45593999997E+02  0.45594000000E+02  0.51100000000E-03 0. -1.
         11   -1    0    0    0    0 -0.00000000000E+00 -0.00000000000E+00 -0.45593999997E+02  0.45594000000E+02  0.51100000000E-03 0.  1.
    9900012    2    1    2    0    0 -0.17848312186E+02 -0.17806202543E+02 -0.35327065425E+02  0.47787255208E+02  0.19999927796E+02 0.  0.
         12    1    1    2    0    0  0.17848312186E+02  0.17806202543E+02  0.35327065425E+02  0.43400744792E+02  0.00000000000E+00 0. -1.
         11    1    3    3    0    0 -0.14000047075E+01 -0.11973673278E+02 -0.11353178511E+02  0.16559695876E+02  0.51100000000E-03 0. -1.
        -11    1    3    3    0    0 -0.77320043972E+01  0.62035226278E+00 -0.15952626200E+02  0.17738517747E+02  0.51100000000E-03 0.  1.
         12    1    3    3    0    0 -0.87163030817E+01 -0.64528815280E+01 -0.80212607139E+01  0.13489041584E+02  0.00000000000E+00 0. -1.
</event>
<event>
 7    1  0.1019486E-010  0.4778728E+02  0.7816164E-02  0.1312668E+00
        -11   -1    0    0    0    0  0.00000000000E+00  0.00000000000E+00  0.45593999997E+02  0.45594000000E+02  0.51100000000E-03 0. -1.
         11   -1    0    0    0    0 -0.00000000000E+00 -0.00000000000E+00 -0.45593999997E+02  0.45594000000E+02  0.51100000000E-03 0.  1.
    9900012    2    1    2    0    0 -0.33849723569E+02  0.12564044891E+02  0.24082424398E+02  0.47787283709E+02  0.20000057743E+02 0.  0.
        -12    1    1    2    0    0  0.33849723569E+02 -0.12564044891E+02 -0.24082424398E+02  0.43400716291E+02  0.00000000000E+00 0.  1.
         11    1    3    3    0    0 -0.18752277405E+02  0.11580526070E+02  0.17960338048E+02  0.28431149027E+02  0.51100000000E-03 0. -1.
        -11    1    3    3    0    0 -0.13538119737E+02 -0.30620801840E+01  0.56822763884E+01  0.14998176099E+02  0.51100000000E-03 0.  1.
        -12    1    3    3    0    0 -0.15593264266E+01  0.40455990045E+01  0.43980996080E+00  0.43579585830E+01  0.00000000000E+00 0.  1.
</event>
<event>
 7    1  0.1019486E-010  0.4778727E+02  0.7816164E-02  0.1312668E+00
        -11   -1    0    0    0    0  0.00000000000E+00  0.00000000000E+00  0.45593999997E+02  0.45594000000E+02  0.51100000000E-03 0. -1.
         11   -1    0    0    0    0 -0.00000000000E+00 -0.00000000000E+00 -0.45593999997E+02  0.45594000000E+02  0.51100000000E-03 0.  1.
    9900012    2    1    2    0    0 -0.25842220676E+02 -0.11846793006E+02  0.32794155349E+02  0.47787268450E+02  0.19999988170E+02 0.  0.
        -12    1    1    2    0    0  0.25842220676E+02  0.11846793006E+02 -0.32794155349E+02  0.43400731550E+02  0.00000000000E+00 0.  1.
         11    1    3    3    0    0 -0.90487221873E+01 -0.12317468614E+02  0.13147476918E+02  0.20160742939E+02  0.51100000000E-03 0. -1.
        -11    1    3    3    0    0 -0.12402286608E+02 -0.46136617153E+00  0.19525315670E+02  0.23135849328E+02  0.51100000000E-03 0.  1.
        -12    1    3    3    0    0 -0.43912118810E+01  0.93204177949E+00  0.12136276217E+00  0.44906761832E+01  0.00000000000E+00 0.  1.
</event>
<event>
 7    1  0.1019486E-010  0.4778727E+02  0.7816164E-02  0.1312668E+00
        -11   -1    0    0    0    0  0.00000000000E+00  0.00000000000E+00  0.45593999997E+02  0.45594000000E+02  0.51100000000E-03 0. -1.
         11   -1    0    0    0    0 -0.00000000000E+00 -0.00000000000E+00 -0.45593999997E+02  0.45594000000E+02  0.51100000000E-03 0.  1.
    9900012    2    1    2    0    0 -0.21020464345E+02  0.14867147752E+02  0.34938967099E+02  0.47787269298E+02  0.19999992035E+02 0.  0.
        -12    1    1    2    0    0  0.21020464345E+02 -0.14867147752E+02 -0.34938967099E+02  0.43400730702E+02  0.00000000000E+00 0.  1.
         11    1    3    3    0    0 -0.10250084363E+02  0.42428445515E+01  0.14563952632E+02  0.18307776377E+02  0.51100000000E-03 0. -1.
        -11    1    3    3    0    0 -0.26405997740E+01  0.54240607636E+01 -0.91745642580E+00  0.61020430093E+01  0.51100000000E-03 0.  1.
        -12    1    3    3    0    0 -0.81297802082E+01  0.52002424367E+01  0.21292470893E+02  0.23377449911E+02  0.00000000000E+00 0.  1.
</event>
<event>
 7    1  0.1019486E-010  0.4778727E+02  0.7816164E-02  0.1312668E+00
        -11   -1    0    0    0    0  0.00000000000E+00  0.00000000000E+00  0.45593999997E+02  0.45594000000E+02  0.51100000000E-03 0.  1.
         11   -1    0    0    0    0 -0.00000000000E+00 -0.00000000000E+00 -0.45593999997E+02  0.45594000000E+02  0.51100000000E-03 0. -1.
    9900012    2    1    2    0    0 -0.32611667990E+02 -0.28630645627E+02 -0.62315824108E+00  0.47787273229E+02  0.20000009959E+02 0.  0.
        -12    1    1    2    0    0  0.32611667990E+02  0.28630645627E+02  0.62315824108E+00  0.43400726771E+02  0.00000000000E+00 0.  1.
         11    1    3    3    0    0 -0.23921453898E+02 -0.22575401562E+02 -0.50300581894E+01  0.33274407552E+02  0.51100000000E-03 0. -1.
        -11    1    3    3    0    0 -0.61239055064E+01 -0.82127150061E+01  0.21399176615E+01  0.10465665496E+02  0.51100000000E-03 0.  1.
         12    1    3    3    0    0 -0.25663085848E+01  0.21574709407E+01  0.22669822868E+01  0.40472001805E+01  0.00000000000E+00 0. -1.
</event>
<event>
 7    1  0.1019486E-010  0.4778726E+02  0.7816164E-02  0.1312668E+00
        -11   -1    0    0    0    0  0.00000000000E+00  0.00000000000E+00  0.45593999997E+02  0.45594000000E+02  0.51100000000E-03 0.  1.
         11   -1    0    0    0    0 -0.00000000000E+00 -0.00000000000E+00 -0.45593999997E+02  0.45594000000E+02  0.51100000000E-03 0. -1.
    9900012    2    1    2    0    0  0.35509751866E+02  0.24953575207E+02 -0.24879813997E-01  0.47787262538E+02  0.19999961217E+02 0.  0.
        -12    1    1    2    0    0 -0.35509751866E+02 -0.24953575207E+02  0.24879813997E-01  0.43400737462E+02  0.00000000000E+00 0.  1.
         11    1    3    3    0    0  0.15063349389E+02  0.62481947705E+01 -0.51465037215E+01  0.17100612080E+02  0.51100000000E-03 0. -1.
        -11    1    3    3    0    0  0.15974916933E+02  0.17609621264E+02  0.81979615016E+01  0.25149618389E+02  0.51100000000E-03 0.  1.
         12    1    3    3    0    0  0.44714855445E+01  0.10957591725E+01 -0.30763375941E+01  0.55370320689E+01  0.00000000000E+00 0. -1.
</event>
<event>
 7    1  0.1019486E-010  0.4778727E+02  0.7816164E-02  0.1312668E+00
        -11   -1    0    0    0    0  0.00000000000E+00  0.00000000000E+00  0.45593999997E+02  0.45594000000E+02  0.51100000000E-03 0. -1.
         11   -1    0    0    0    0 -0.00000000000E+00 -0.00000000000E+00 -0.45593999997E+02  0.45594000000E+02  0.51100000000E-03 0.  1.
    9900012    2    1    2    0    0 -0.30929603255E+02 -0.28222950541E+02 -0.11421385090E+02  0.47787270374E+02  0.19999996942E+02 0.  0.
         12    1    1    2    0    0  0.30929603255E+02  0.28222950541E+02  0.11421385090E+02  0.43400729626E+02  0.00000000000E+00 0. -1.
         11    1    3    3    0    0 -0.12751603420E+02 -0.63152254579E+01 -0.11086216416E+02  0.18038560283E+02  0.51100000000E-03 0. -1.
        -11    1    3    3    0    0 -0.16621437127E+02 -0.14855845483E+02  0.13480761295E+01  0.22333509055E+02  0.51100000000E-03 0.  1.
         12    1    3    3    0    0 -0.15565627076E+01 -0.70518795992E+01 -0.16832448031E+01  0.74152010365E+01  0.00000000000E+00 0. -1.
</event>
<event>
 7    1  0.1019486E-010  0.4778727E+02  0.7816164E-02  0.1312668E+00
        -11   -1    0    0    0    0  0.00000000000E+00  0.00000000000E+00  0.45593999997E+02  0.45594000000E+02  0.51100000000E-03 0. -1.
         11   -1    0    0    0    0 -0.00000000000E+00 -0.00000000000E+00 -0.45593999997E+02  0.45594000000E+02  0.51100000000E-03 0.  1.
    9900012    2    1    2    0    0 -0.36285183306E+02 -0.84413889462E+01 -0.22265484449E+02  0.47787269907E+02  0.19999994813E+02 0.  0.
         12    1    1    2    0    0  0.36285183306E+02  0.84413889462E+01  0.22265484449E+02  0.43400730093E+02  0.00000000000E+00 0. -1.
         11    1    3    3    0    0 -0.42927645019E+01  0.28561343420E+00 -0.58757078576E+01  0.72823996863E+01  0.51100000000E-03 0. -1.
        -11    1    3    3    0    0 -0.13769178349E+02 -0.19555144591E+00 -0.14959579063E+02  0.20332671216E+02  0.51100000000E-03 0.  1.
         12    1    3    3    0    0 -0.18223240455E+02 -0.85314509345E+01 -0.14301975294E+01  0.20172199005E+02  0.00000000000E+00 0. -1.
</event>
<event>
 7    1  0.1019486E-010  0.4778728E+02  0.7816164E-02  0.1312668E+00
        -11   -1    0    0    0    0  0.00000000000E+00  0.00000000000E+00  0.45593999997E+02  0.45594000000E+02  0.51100000000E-03 0. -1.
         11   -1    0    0    0    0 -0.00000000000E+00 -0.00000000000E+00 -0.45593999997E+02  0.45594000000E+02  0.51100000000E-03 0.  1.
    9900012    2    1    2    0    0 -0.31766657514E+02  0.14437063634E+02  0.25808389182E+02  0.47787282401E+02  0.20000051777E+02 0.  0.
        -12    1    1    2    0    0  0.31766657514E+02 -0.14437063634E+02 -0.25808389182E+02  0.43400717599E+02  0.00000000000E+00 0.  1.
         11    1    3    3    0    0 -0.13389279957E+02  0.55768245200E+01  0.16177623745E+02  0.21727616063E+02  0.51100000000E-03 0. -1.
        -11    1    3    3    0    0 -0.16669808428E+02  0.25734145587E+01  0.37405953914E+01  0.17277066581E+02  0.51100000000E-03 0.  1.
        -12    1    3    3    0    0 -0.17075691297E+01  0.62868245552E+01  0.58901700449E+01  0.87825997563E+01  0.00000000000E+00 0.  1.
</event>
<event>
 7    1  0.1019486E-010  0.4778728E+02  0.7816164E-02  0.1312668E+00
        -11   -1    0    0    0    0  0.00000000000E+00  0.00000000000E+00  0.45593999997E+02  0.45594000000E+02  0.51100000000E-03 0. -1.
         11   -1    0    0    0    0 -0.00000000000E+00 -0.00000000000E+00 -0.45593999997E+02  0.45594000000E+02  0.51100000000E-03 0.  1.
    9900012    2    1    2    0    0  0.37311539412E+02  0.17153566749E+02 -0.14043749650E+02  0.47787277313E+02  0.20000028581E+02 0.  0.
         12    1    1    2    0    0 -0.37311539412E+02 -0.17153566749E+02  0.14043749650E+02  0.43400722687E+02  0.00000000000E+00 0. -1.
         11    1    3    3    0    0  0.90935837970E+01 -0.10638189550E+01  0.25272478813E+01  0.94979976393E+01  0.51100000000E-03 0. -1.
        -11    1    3    3    0    0  0.27912278802E+02  0.16215786288E+02 -0.14483329098E+02  0.35380981542E+02  0.51100000000E-03 0.  1.
         12    1    3    3    0    0  0.30567681311E+00  0.20015994159E+01 -0.20876684330E+01  0.29082981315E+01  0.00000000000E+00 0. -1.
</event>
<event>
 7    1  0.1019486E-010  0.4778727E+02  0.7816164E-02  0.1312668E+00
        -11   -1    0    0    0    0  0.00000000000E+00  0.00000000000E+00  0.45593999997E+02  0.45594000000E+02  0.51100000000E-03 0. -1.
         11   -1    0    0    0    0 -0.00000000000E+00 -0.00000000000E+00 -0.45593999997E+02  0.45594000000E+02  0.51100000000E-03 0.  1.
    9900012    2    1    2    0    0  0.15516550243E+02  0.11638799444E+02 -0.38825232255E+02  0.47787266785E+02  0.19999980578E+02 0.  0.
         12    1    1    2    0    0 -0.15516550243E+02 -0.11638799444E+02  0.38825232255E+02  0.43400733215E+02  0.00000000000E+00 0. -1.
         11    1    3    3    0    0 -0.40782640012E+00  0.33167179413E+01 -0.10566094534E+01  0.35047630552E+01  0.51100000000E-03 0. -1.
        -11    1    3    3    0    0  0.18404948802E+02  0.59619451398E+01 -0.34470179618E+02  0.39528220469E+02  0.51100000000E-03 0.  1.
        -12    1    3    3    0    0 -0.24805721588E+01  0.23601363632E+01 -0.32984431835E+01  0.47542832607E+01  0.00000000000E+00 0.  1.
</event>
<event>
 7    1  0.1019486E-010  0.4778727E+02  0.7816164E-02  0.1312668E+00
        -11   -1    0    0    0    0  0.00000000000E+00  0.00000000000E+00  0.45593999997E+02  0.45594000000E+02  0.51100000000E-03 0. -1.
         11   -1    0    0    0    0 -0.00000000000E+00 -0.00000000000E+00 -0.45593999997E+02  0.45594000000E+02  0.51100000000E-03 0.  1.
    9900012    2    1    2    0    0  0.53081004305E+00  0.80586195939E+01 -0.42642703946E+02  0.47787270641E+02  0.19999998162E+02 0.  0.
         12    1    1    2    0    0 -0.53081004305E+00 -0.80586195939E+01  0.42642703946E+02  0.43400729359E+02  0.00000000000E+00 0. -1.
         11    1    3    3    0    0  0.36434651882E+01  0.58556506258E+01 -0.37773083734E+02  0.38397517340E+02  0.51100000000E-03 0. -1.
        -11    1    3    3    0    0 -0.49184321172E+01  0.16074068387E+01 -0.53350215224E+01  0.74321723703E+01  0.51100000000E-03 0.  1.
         12    1    3    3    0    0  0.18057769720E+01  0.59556212942E+00  0.46540131062E+00  0.19575809313E+01  0.00000000000E+00 0. -1.
</event>
<event>
 7    1  0.1019486E-010  0.4778727E+02  0.7816164E-02  0.1312668E+00
        -11   -1    0    0    0    0  0.00000000000E+00  0.00000000000E+00  0.45593999997E+02  0.45594000000E+02  0.51100000000E-03 0. -1.
         11   -1    0    0    0    0 -0.00000000000E+00 -0.00000000000E+00 -0.45593999997E+02  0.45594000000E+02  0.51100000000E-03 0.  1.
    9900012    2    1    2    0    0  0.15469767673E+02  0.21684189271E+02  0.34265224335E+02  0.47787269880E+02  0.19999994693E+02 0.  0.
        -12    1    1    2    0    0 -0.15469767673E+02 -0.21684189271E+02 -0.34265224335E+02  0.43400730120E+02  0.00000000000E+00 0.  1.
         11    1    3    3    0    0  0.30290650824E+01  0.10797162625E+02  0.16780236736E+02  0.20182425553E+02  0.51100000000E-03 0. -1.
        -11    1    3    3    0    0  0.33542666245E+01  0.11584231485E+02  0.81281908535E+01  0.14543486875E+02  0.51100000000E-03 0.  1.
        -12    1    3    3    0    0  0.90864359661E+01 -0.69720483913E+00  0.93567967457E+01  0.13061357452E+02  0.00000000000E+00 0.  1.
</event>
<event>
 7    1  0.1019486E-010  0.4778727E+02  0.7816164E-02  0.1312668E+00
        -11   -1    0    0    0    0  0.00000000000E+00  0.00000000000E+00  0.45593999997E+02  0.45594000000E+02  0.51100000000E-03 0. -1.
         11   -1    0    0    0    0 -0.00000000000E+00 -0.00000000000E+00 -0.45593999997E+02  0.45594000000E+02  0.51100000000E-03 0.  1.
    9900012    2    1    2    0    0  0.14418003268E+02  0.39358086870E+02  0.11255472715E+02  0.47787268597E+02  0.19999988841E+02 0.  0.
        -12    1    1    2    0    0 -0.14418003268E+02 -0.39358086870E+02 -0.11255472715E+02  0.43400731403E+02  0.00000000000E+00 0.  1.
         11    1    3    3    0    0  0.80924240383E+01  0.10477839100E+02  0.15907006210E+01  0.13334270424E+02  0.51100000000E-03 0. -1.
        -11    1    3    3    0    0 -0.16489558885E+01  0.12525960747E+02  0.10219156155E+02  0.16249612332E+02  0.51100000000E-03 0.  1.
        -12    1    3    3    0    0  0.79745351186E+01  0.16354287023E+02 -0.55438406102E+00  0.18203385841E+02  0.00000000000E+00 0.  1.
</event>
<event>
 7    1  0.1019486E-010  0.4778727E+02  0.7816164E-02  0.1312668E+00
        -11   -1    0    0    0    0  0.00000000000E+00  0.00000000000E+00  0.45593999997E+02  0.45594000000E+02  0.51100000000E-03 0. -1.
         11   -1    0    0    0    0 -0.00000000000E+00 -0.00000000000E+00 -0.45593999997E+02  0.45594000000E+02  0.51100000000E-03 0.  1.
    9900012    2    1    2    0    0 -0.63566523679E+01 -0.42232126229E+02  0.77242597490E+01  0.47787266091E+02  0.19999977414E+02 0.  0.
        -12    1    1    2    0    0  0.63566523679E+01  0.42232126229E+02 -0.77242597490E+01  0.43400733909E+02  0.00000000000E+00 0.  1.
         11    1    3    3    0    0 -0.19182524844E+01 -0.27496203039E+01  0.61104962619E+01  0.69698112770E+01  0.51100000000E-03 0. -1.
        -11    1    3    3    0    0 -0.65720558705E+00 -0.25113128685E+02 -0.28996942797E+01  0.25288522668E+02  0.51100000000E-03 0.  1.
         12    1    3    3    0    0 -0.37811942964E+01 -0.14369377240E+02  0.45134577668E+01  0.15528932146E+02  0.00000000000E+00 0. -1.
</event>
<event>
 7    1  0.1019486E-010  0.4778727E+02  0.7816164E-02  0.1312668E+00
        -11   -1    0    0    0    0  0.00000000000E+00  0.00000000000E+00  0.45593999997E+02  0.45594000000E+02  0.51100000000E-03 0. -1.
         11   -1    0    0    0    0 -0.00000000000E+00 -0.00000000000E+00 -0.45593999997E+02  0.45594000000E+02  0.51100000000E-03 0.  1.
    9900012    2    1    2    0    0 -0.25650342238E+00  0.40644362696E+02 -0.15218198282E+02  0.47787267611E+02  0.19999984345E+02 0.  0.
         12    1    1    2    0    0  0.25650342238E+00 -0.40644362696E+02  0.15218198282E+02  0.43400732389E+02  0.00000000000E+00 0. -1.
         11    1    3    3    0    0  0.76600537933E+00  0.75167043607E+01 -0.73402174802E-01  0.75559907906E+01  0.51100000000E-03 0. -1.
        -11    1    3    3    0    0 -0.15418203383E+01  0.19230595283E+02  0.50035917153E+00  0.19298791787E+02  0.51100000000E-03 0.  1.
        -12    1    3    3    0    0  0.51931153654E+00  0.13897063052E+02 -0.15645155279E+02  0.20932485033E+02  0.00000000000E+00 0.  1.
</event>
<event>
 7    1  0.1019486E-010  0.4778727E+02  0.7816164E-02  0.1312668E+00
        -11   -1    0    0    0    0  0.00000000000E+00  0.00000000000E+00  0.45593999997E+02  0.45594000000E+02  0.51100000000E-03 0. -1.
         11   -1    0    0    0    0 -0.00000000000E+00 -0.00000000000E+00 -0.45593999997E+02  0.45594000000E+02  0.51100000000E-03 0.  1.
    9900012    2    1    2    0    0  0.15962862895E+01 -0.32686699297E+02 -0.28507107662E+02  0.47787266963E+02  0.19999981391E+02 0.  0.
         12    1    1    2    0    0 -0.15962862895E+01  0.32686699297E+02  0.28507107662E+02  0.43400733037E+02  0.00000000000E+00 0. -1.
         11    1    3    3    0    0  0.95116488228E+00 -0.50846353006E+01  0.21803717256E+01  0.56135774597E+01  0.51100000000E-03 0. -1.
        -11    1    3    3    0    0  0.21570815221E+01 -0.20500442948E+02 -0.27172920141E+02  0.34107019087E+02  0.51100000000E-03 0.  1.
        -12    1    3    3    0    0 -0.15119601149E+01 -0.71016210484E+01 -0.35145592473E+01  0.80666704164E+01  0.00000000000E+00 0.  1.
</event>
<event>
 7    1  0.1019486E-010  0.4778727E+02  0.7816164E-02  0.1312668E+00
        -11   -1    0    0    0    0  0.00000000000E+00  0.00000000000E+00  0.45593999997E+02  0.45594000000E+02  0.51100000000E-03 0. -1.
         11   -1    0    0    0    0 -0.00000000000E+00 -0.00000000000E+00 -0.45593999997E+02  0.45594000000E+02  0.51100000000E-03 0.  1.
    9900012    2    1    2    0    0  0.99840102105E+01 -0.26414557347E+01 -0.42154067681E+02  0.47787272237E+02  0.20000005438E+02 0.  0.
         12    1    1    2    0    0 -0.99840102105E+01  0.26414557347E+01  0.42154067681E+02  0.43400727763E+02  0.00000000000E+00 0. -1.
         11    1    3    3    0    0  0.12456248616E+01  0.67192702642E+01 -0.69679632374E+01  0.97597482610E+01  0.51100000000E-03 0. -1.
        -11    1    3    3    0    0  0.90629862021E+00 -0.57027184097E+01 -0.13614973628E+02  0.14788843146E+02  0.51100000000E-03 0.  1.
         12    1    3    3    0    0  0.78320867287E+01 -0.36580075892E+01 -0.21571130816E+02  0.23238680830E+02  0.00000000000E+00 0. -1.
</event>
<event>
 7    1  0.1019486E-010  0.4778727E+02  0.7816164E-02  0.1312668E+00
        -11   -1    0    0    0    0  0.00000000000E+00  0.00000000000E+00  0.45593999997E+02  0.45594000000E+02  0.51100000000E-03 0. -1.
         11   -1    0    0    0    0 -0.00000000000E+00 -0.00000000000E+00 -0.45593999997E+02  0.45594000000E+02  0.51100000000E-03 0.  1.
    9900012    2    1    2    0    0  0.34436268923E+02  0.19736818507E+02 -0.17556326184E+02  0.47787271767E+02  0.20000003293E+02 0.  0.
         12    1    1    2    0    0 -0.34436268923E+02 -0.19736818507E+02  0.17556326184E+02  0.43400728233E+02  0.00000000000E+00 0. -1.
         11    1    3    3    0    0  0.13906135114E+02  0.16967850232E+02 -0.89155411002E+01  0.23680696963E+02  0.51100000000E-03 0. -1.
        -11    1    3    3    0    0  0.12333827336E+02  0.11564122936E+01 -0.96355982100E+01  0.15694117983E+02  0.51100000000E-03 0.  1.
         12    1    3    3    0    0  0.81963064731E+01  0.16125559812E+01  0.99481312624E+00  0.84124568201E+01  0.00000000000E+00 0. -1.
</event>
<event>
 7    1  0.1019486E-010  0.4778727E+02  0.7816164E-02  0.1312668E+00
        -11   -1    0    0    0    0  0.00000000000E+00  0.00000000000E+00  0.45593999997E+02  0.45594000000E+02  0.51100000000E-03 0.  1.
         11   -1    0    0    0    0 -0.00000000000E+00 -0.00000000000E+00 -0.45593999997E+02  0.45594000000E+02  0.51100000000E-03 0. -1.
    9900012    2    1    2    0    0  0.43322970595E+02  0.12985275282E+01  0.22487724334E+01  0.47787274979E+02  0.20000017939E+02 0.  0.
         12    1    1    2    0    0 -0.43322970595E+02 -0.12985275282E+01 -0.22487724334E+01  0.43400725021E+02  0.00000000000E+00 0. -1.
         11    1    3    3    0    0  0.38851638334E+01  0.19533690510E+01 -0.22514756334E+01  0.48968654720E+01  0.51100000000E-03 0. -1.
        -11    1    3    3    0    0  0.13349734785E+02 -0.74838864124E+01 -0.11149013128E+01  0.15344933361E+02  0.51100000000E-03 0.  1.
        -12    1    3    3    0    0  0.26088071976E+02  0.68290448896E+01  0.56151493796E+01  0.27545476146E+02  0.00000000000E+00 0.  1.
</event>
<event>
 7    1  0.1019486E-010  0.4778727E+02  0.7816164E-02  0.1312668E+00
        -11   -1    0    0    0    0  0.00000000000E+00  0.00000000000E+00  0.45593999997E+02  0.45594000000E+02  0.51100000000E-03 0. -1.
         11   -1    0    0    0    0 -0.00000000000E+00 -0.00000000000E+00 -0.45593999997E+02  0.45594000000E+02  0.51100000000E-03 0.  1.
    9900012    2    1    2    0    0 -0.34023366184E+02  0.26723114447E+02 -0.34509372506E+01  0.47787271202E+02  0.20000000720E+02 0.  0.
        -12    1    1    2    0    0  0.34023366184E+02 -0.26723114447E+02  0.34509372506E+01  0.43400728798E+02  0.00000000000E+00 0.  1.
         11    1    3    3    0    0 -0.14784464339E+02  0.50333932442E+01  0.41696479818E+01  0.16164819760E+02  0.51100000000E-03 0.  1.
        -11    1    3    3    0    0 -0.12009838093E+02  0.11508251401E+02 -0.92453867095E+01  0.19030324144E+02  0.51100000000E-03 0. -1.
         12    1    3    3    0    0 -0.72290637523E+01  0.10181469802E+02  0.16248014770E+01  0.12592127298E+02  0.00000000000E+00 0. -1.
</event>
<event>
 7    1  0.1406125E-010  0.4778727E+02  0.7816164E-02  0.1312668E+00
        -11   -1    0    0    0    0  0.00000000000E+00  0.00000000000E+00  0.45593999997E+02  0.45594000000E+02  0.51100000000E-03 0. -1.
         11   -1    0    0    0    0 -0.00000000000E+00 -0.00000000000E+00 -0.45593999997E+02  0.45594000000E+02  0.51100000000E-03 0.  1.
    9900012    2    1    2    0    0 -0.21482123580E+02 -0.30023227935E+01 -0.37591589893E+02  0.47787271822E+02  0.20000003546E+02 0.  0.
         12    1    1    2    0    0  0.21482123580E+02  0.30023227935E+01  0.37591589893E+02  0.43400728178E+02  0.00000000000E+00 0. -1.
         11    1    3    3    0    0 -0.59843496771E+01  0.56061432382E+01 -0.61304657472E+01  0.10238354048E+02  0.51100000000E-03 0. -1.
        -11    1    3    3    0    0 -0.10073468975E+02 -0.34774329110E+01 -0.26557971580E+02  0.28616309537E+02  0.51100000000E-03 0.  1.
         12    1    3    3    0    0 -0.54243049272E+01 -0.51310331207E+01 -0.49031525667E+01  0.89326082374E+01  0.00000000000E+00 0. -1.
</event>
<event>
 7    1  0.1019486E-010  0.4778722E+02  0.7816164E-02  0.1312668E+00
        -11   -1    0    0    0    0  0.00000000000E+00  0.00000000000E+00  0.45593999997E+02  0.45594000000E+02  0.51100000000E-03 0. -1.
         11   -1    0    0    0    0 -0.00000000000E+00 -0.00000000000E+00 -0.45593999997E+02  0.45594000000E+02  0.51100000000E-03 0.  1.
    9900012    2    1    2    0    0 -0.30327960751E+02  0.24260194143E+02  0.19372292215E+02  0.47787217417E+02  0.19999755490E+02 0.  0.
        -12    1    1    2    0    0  0.30327960751E+02 -0.24260194143E+02 -0.19372292215E+02  0.43400782583E+02  0.00000000000E+00 0.  1.
         11    1    3    3    0    0 -0.29935051623E+01  0.24383720936E+01  0.24335765959E+00  0.38685856375E+01  0.51100000000E-03 0. -1.
        -11    1    3    3    0    0 -0.20932364275E+02  0.71617033884E+01  0.52450661077E+01  0.22736855286E+02  0.51100000000E-03 0.  1.
        -12    1    3    3    0    0 -0.64020913132E+01  0.14660118661E+02  0.13883868448E+02  0.21181776493E+02  0.00000000000E+00 0.  1.
</event>
<event>
 7    1  0.1019486E-010  0.4778727E+02  0.7816164E-02  0.1312668E+00
        -11   -1    0    0    0    0  0.00000000000E+00  0.00000000000E+00  0.45593999997E+02  0.45594000000E+02  0.51100000000E-03 0. -1.
         11   -1    0    0    0    0 -0.00000000000E+00 -0.00000000000E+00 -0.45593999997E+02  0.45594000000E+02  0.51100000000E-03 0.  1.
    9900012    2    1    2    0    0 -0.21055280871E+02  0.28798024632E+02  0.24717853392E+02  0.47787270150E+02  0.19999995922E+02 0.  0.
        -12    1    1    2    0    0  0.21055280871E+02 -0.28798024632E+02 -0.24717853392E+02  0.43400729850E+02  0.00000000000E+00 0.  1.
         11    1    3    3    0    0 -0.28038941973E+01  0.50043581683E+01  0.10455551234E+01  0.58308326269E+01  0.51100000000E-03 0. -1.
        -11    1    3    3    0    0 -0.13252769215E+02  0.25629563411E+02  0.17261462916E+02  0.33622440642E+02  0.51100000000E-03 0.  1.
        -12    1    3    3    0    0 -0.49986174584E+01 -0.18358969475E+01  0.64108353520E+01  0.83339968807E+01  0.00000000000E+00 0.  1.
</event>
<event>
 7    1  0.1019486E-010  0.4778727E+02  0.7816164E-02  0.1312668E+00
        -11   -1    0    0    0    0  0.00000000000E+00  0.00000000000E+00  0.45593999997E+02  0.45594000000E+02  0.51100000000E-03 0. -1.
         11   -1    0    0    0    0 -0.00000000000E+00 -0.00000000000E+00 -0.45593999997E+02  0.45594000000E+02  0.51100000000E-03 0.  1.
    9900012    2    1    2    0    0 -0.26076012586E+01  0.32973973201E+02 -0.28098772075E+02  0.47787268611E+02  0.19999988905E+02 0.  0.
         12    1    1    2    0    0  0.26076012586E+01 -0.32973973201E+02  0.28098772075E+02  0.43400731389E+02  0.00000000000E+00 0. -1.
         11    1    3    3    0    0 -0.45473950380E+01 -0.53360819199E-02 -0.42818584011E+01  0.62460500906E+01  0.51100000000E-03 0. -1.
        -11    1    3    3    0    0  0.18944204176E+01  0.31863425752E+02 -0.24494529667E+02  0.40234919078E+02  0.51100000000E-03 0.  1.
        -12    1    3    3    0    0  0.45373361893E-01  0.11158835312E+01  0.67761599361E+00  0.13062994419E+01  0.00000000000E+00 0.  1.
</event>
<event>
 7    1  0.1019486E-010  0.4778731E+02  0.7816164E-02  0.1312668E+00
        -11   -1    0    0    0    0  0.00000000000E+00  0.00000000000E+00  0.45593999997E+02  0.45594000000E+02  0.51100000000E-03 0. -1.
         11   -1    0    0    0    0 -0.00000000000E+00 -0.00000000000E+00 -0.45593999997E+02  0.45594000000E+02  0.51100000000E-03 0.  1.
    9900012    2    1    2    0    0  0.18669118506E+02  0.28317610050E+02 -0.27077608183E+02  0.47787310033E+02  0.20000177762E+02 0.  0.
         12    1    1    2    0    0 -0.18669118506E+02 -0.28317610050E+02  0.27077608183E+02  0.43400689967E+02  0.00000000000E+00 0. -1.
         11    1    3    3    0    0  0.12531876094E+02  0.93935697767E+01 -0.48966393063E+01  0.16409270195E+02  0.51100000000E-03 0. -1.
        -11    1    3    3    0    0 -0.10867192799E+01  0.11197007236E+02 -0.85816080668E+01  0.14149131674E+02  0.51100000000E-03 0.  1.
        -12    1    3    3    0    0  0.72239616921E+01  0.77270330366E+01 -0.13599360810E+02  0.17228908164E+02  0.00000000000E+00 0.  1.
</event>
<event>
 7    1  0.1068134E-010  0.4778727E+02  0.7816164E-02  0.1312668E+00
        -11   -1    0    0    0    0  0.00000000000E+00  0.00000000000E+00  0.45593999997E+02  0.45594000000E+02  0.51100000000E-03 0. -1.
         11   -1    0    0    0    0 -0.00000000000E+00 -0.00000000000E+00 -0.45593999997E+02  0.45594000000E+02  0.51100000000E-03 0.  1.
    9900012    2    1    2    0    0 -0.64291244403E+01 -0.21855857593E+02 -0.36940641783E+02  0.47787272269E+02  0.20000005583E+02 0.  0.
         12    1    1    2    0    0  0.64291244403E+01  0.21855857593E+02  0.36940641783E+02  0.43400727731E+02  0.00000000000E+00 0. -1.
         11    1    3    3    0    0 -0.14513480238E+01 -0.16849053843E+02 -0.18570721899E+02  0.25117100521E+02  0.51100000000E-03 0. -1.
        -11    1    3    3    0    0  0.95882630470E-01 -0.76809665064E+00 -0.15405152037E+02  0.15424586720E+02  0.51100000000E-03 0.  1.
         12    1    3    3    0    0 -0.50736590469E+01 -0.42387071000E+01 -0.29647678476E+01  0.72455850277E+01  0.00000000000E+00 0. -1.
</event>
<event>
 7    1  0.1019486E-010  0.4778727E+02  0.7816164E-02  0.1312668E+00
        -11   -1    0    0    0    0  0.00000000000E+00  0.00000000000E+00  0.45593999997E+02  0.45594000000E+02  0.51100000000E-03 0. -1.
         11   -1    0    0    0    0 -0.00000000000E+00 -0.00000000000E+00 -0.45593999997E+02  0.45594000000E+02  0.51100000000E-03 0.  1.
    9900012    2    1    2    0    0 -0.35085684040E+02 -0.24868883407E+02  0.58444001530E+01  0.47787267292E+02  0.19999982890E+02 0.  0.
        -12    1    1    2    0    0  0.35085684040E+02  0.24868883407E+02 -0.58444001530E+01  0.43400732708E+02  0.00000000000E+00 0.  1.
         11    1    3    3    0    0 -0.23856193843E+02 -0.20236785691E+02 -0.20335286007E+01  0.31349333623E+02  0.51100000000E-03 0. -1.
        -11    1    3    3    0    0 -0.83188059618E+01  0.60174871151E+00  0.55197407608E+01  0.10001608494E+02  0.51100000000E-03 0.  1.
        -12    1    3    3    0    0 -0.29106842351E+01 -0.52338464274E+01  0.23581879929E+01  0.64363251745E+01  0.00000000000E+00 0.  1.
</event>
<event>
 7    1  0.1019486E-010  0.4778727E+02  0.7816164E-02  0.1312668E+00
        -11   -1    0    0    0    0  0.00000000000E+00  0.00000000000E+00  0.45593999997E+02  0.45594000000E+02  0.51100000000E-03 0. -1.
         11   -1    0    0    0    0 -0.00000000000E+00 -0.00000000000E+00 -0.45593999997E+02  0.45594000000E+02  0.51100000000E-03 0.  1.
    9900012    2    1    2    0    0 -0.31400200510E+02  0.17912637245E+02 -0.24016415509E+02  0.47787269833E+02  0.19999994477E+02 0.  0.
         12    1    1    2    0    0  0.31400200510E+02 -0.17912637245E+02  0.24016415509E+02  0.43400730167E+02  0.00000000000E+00 0. -1.
         11    1    3    3    0    0 -0.18470472111E+02  0.31210773622E+01 -0.41373736198E+01  0.19183777643E+02  0.51100000000E-03 0. -1.
        -11    1    3    3    0    0 -0.80028456275E+00  0.32569726766E+01 -0.59391221882E+01  0.68206670513E+01  0.51100000000E-03 0.  1.
         12    1    3    3    0    0 -0.12129443836E+02  0.11534587206E+02 -0.13939919701E+02  0.21782825139E+02  0.00000000000E+00 0. -1.
</event>
<event>
 7    1  0.1019486E-010  0.4778727E+02  0.7816164E-02  0.1312668E+00
        -11   -1    0    0    0    0  0.00000000000E+00  0.00000000000E+00  0.45593999997E+02  0.45594000000E+02  0.51100000000E-03 0.  1.
         11   -1    0    0    0    0 -0.00000000000E+00 -0.00000000000E+00 -0.45593999997E+02  0.45594000000E+02  0.51100000000E-03 0. -1.
    9900012    2    1    2    0    0  0.35128187316E+02  0.14028531601E+02  0.21279901508E+02  0.47787269002E+02  0.19999990686E+02 0.  0.
        -12    1    1    2    0    0 -0.35128187316E+02 -0.14028531601E+02 -0.21279901508E+02  0.43400730998E+02  0.00000000000E+00 0.  1.
         11    1    3    3    0    0  0.15119648923E+02  0.52450218015E+01  0.17257347112E+02  0.23535718958E+02  0.51100000000E-03 0. -1.
        -11    1    3    3    0    0  0.10909101545E+02  0.93003751549E+01  0.11712094695E+00  0.14335940573E+02  0.51100000000E-03 0.  1.
        -12    1    3    3    0    0  0.90994368484E+01 -0.51686535522E+00  0.39054334487E+01  0.99156094707E+01  0.00000000000E+00 0.  1.
</event>
<event>
 7    1  0.1019486E-010  0.4778727E+02  0.7816164E-02  0.1312668E+00
        -11   -1    0    0    0    0  0.00000000000E+00  0.00000000000E+00  0.45593999997E+02  0.45594000000E+02  0.51100000000E-03 0. -1.
         11   -1    0    0    0    0 -0.00000000000E+00 -0.00000000000E+00 -0.45593999997E+02  0.45594000000E+02  0.51100000000E-03 0.  1.
    9900012    2    1    2    0    0  0.22357443692E+02 -0.24672415700E+01  0.37117124553E+02  0.47787268388E+02  0.19999987889E+02 0.  0.
        -12    1    1    2    0    0 -0.22357443692E+02  0.24672415700E+01 -0.37117124553E+02  0.43400731612E+02  0.00000000000E+00 0.  1.
         11    1    3    3    0    0  0.81631033492E+01  0.48081611087E+01  0.15932063261E+02  0.18536054314E+02  0.51100000000E-03 0. -1.
        -11    1    3    3    0    0  0.64182457480E+01 -0.10022748615E+02  0.11851411909E+02  0.16795991569E+02  0.51100000000E-03 0.  1.
        -12    1    3    3    0    0  0.77760945947E+01  0.27473459368E+01  0.93336493825E+01  0.12455222505E+02  0.00000000000E+00 0.  1.
</event>
<event>
 7    1  0.1019486E-010  0.4778727E+02  0.7816164E-02  0.1312668E+00
        -11   -1    0    0    0    0  0.00000000000E+00  0.00000000000E+00  0.45593999997E+02  0.45594000000E+02  0.51100000000E-03 0.  1.
         11   -1    0    0    0    0 -0.00000000000E+00 -0.00000000000E+00 -0.45593999997E+02  0.45594000000E+02  0.51100000000E-03 0. -1.
    9900012    2    1    2    0    0 -0.37144991422E+02 -0.22026565610E+02 -0.43247260953E+01  0.47787271479E+02  0.20000001983E+02 0.  0.
         12    1    1    2    0    0  0.37144991422E+02  0.22026565610E+02  0.43247260953E+01  0.43400728521E+02  0.00000000000E+00 0. -1.
         11    1    3    3    0    0 -0.40613872114E+01 -0.78277201533E+01  0.48183025529E+01  0.10049084965E+02  0.51100000000E-03 0. -1.
        -11    1    3    3    0    0 -0.23210950792E+02 -0.13116675685E+02 -0.60860524832E+01  0.27346580276E+02  0.51100000000E-03 0.  1.
        -12    1    3    3    0    0 -0.98726534190E+01 -0.10821697710E+01 -0.30569761650E+01  0.10391606239E+02  0.00000000000E+00 0.  1.
</event>
<event>
 7    1  0.1019486E-010  0.4778727E+02  0.7816164E-02  0.1312668E+00
        -11   -1    0    0    0    0  0.00000000000E+00  0.00000000000E+00  0.45593999997E+02  0.45594000000E+02  0.51100000000E-03 0.  1.
         11   -1    0    0    0    0 -0.00000000000E+00 -0.00000000000E+00 -0.45593999997E+02  0.45594000000E+02  0.51100000000E-03 0. -1.
    9900012    2    1    2    0    0  0.25535747079E+02 -0.35092917395E+02 -0.19006114589E+00  0.47787270128E+02  0.19999995821E+02 0.  0.
        -12    1    1    2    0    0 -0.25535747079E+02  0.35092917395E+02  0.19006114589E+00  0.43400729872E+02  0.00000000000E+00 0.  1.
         11    1    3    3    0    0  0.20229129672E+02 -0.26215934258E+02 -0.47308403199E+01  0.33449570202E+02  0.51100000000E-03 0. -1.
        -11    1    3    3    0    0 -0.12651419261E+00 -0.54502075221E+01 -0.13562004591E+01  0.56178330183E+01  0.51100000000E-03 0.  1.
         12    1    3    3    0    0  0.54331315996E+01 -0.34267756154E+01  0.58969796331E+01  0.87198669078E+01  0.00000000000E+00 0. -1.
</event>
<event>
 7    1  0.1019486E-010  0.4778727E+02  0.7816164E-02  0.1312668E+00
        -11   -1    0    0    0    0  0.00000000000E+00  0.00000000000E+00  0.45593999997E+02  0.45594000000E+02  0.51100000000E-03 0. -1.
         11   -1    0    0    0    0 -0.00000000000E+00 -0.00000000000E+00 -0.45593999997E+02  0.45594000000E+02  0.51100000000E-03 0.  1.
    9900012    2    1    2    0    0 -0.20741890586E+02  0.62435306508E+01  0.37608718463E+02  0.47787269540E+02  0.19999993140E+02 0.  0.
        -12    1    1    2    0    0  0.20741890586E+02 -0.62435306508E+01 -0.37608718463E+02  0.43400730460E+02  0.00000000000E+00 0.  1.
         11    1    3    3    0    0 -0.32962860319E+01  0.10082016053E+02  0.13270028308E+02  0.16988413724E+02  0.51100000000E-03 0. -1.
        -11    1    3    3    0    0 -0.32384759385E+01 -0.31648209775E+01  0.74582995132E+01  0.87252535845E+01  0.51100000000E-03 0.  1.
         12    1    3    3    0    0 -0.14207128615E+02 -0.67366442481E+00  0.16880390642E+02  0.22073602232E+02  0.00000000000E+00 0. -1.
</event>
<event>
 7    1  0.1019486E-010  0.4778727E+02  0.7816164E-02  0.1312668E+00
        -11   -1    0    0    0    0  0.00000000000E+00  0.00000000000E+00  0.45593999997E+02  0.45594000000E+02  0.51100000000E-03 0. -1.
         11   -1    0    0    0    0 -0.00000000000E+00 -0.00000000000E+00 -0.45593999997E+02  0.45594000000E+02  0.51100000000E-03 0.  1.
    9900012    2    1    2    0    0 -0.37526014818E+02 -0.20221224551E+02  0.81561831688E+01  0.47787273804E+02  0.20000012582E+02 0.  0.
        -12    1    1    2    0    0  0.37526014818E+02  0.20221224551E+02 -0.81561831688E+01  0.43400726196E+02  0.00000000000E+00 0.  1.
         11    1    3    3    0    0 -0.16374217576E+01  0.25949201960E+01  0.18433901239E+00  0.30738806041E+01  0.51100000000E-03 0.  1.
        -11    1    3    3    0    0 -0.35165267230E+02 -0.21190328783E+02  0.97495449028E+01  0.42198100424E+02  0.51100000000E-03 0. -1.
         12    1    3    3    0    0 -0.72332582993E+00 -0.16258159637E+01 -0.17777007463E+01  0.25152927757E+01  0.00000000000E+00 0. -1.
</event>
<event>
 7    1  0.1019486E-010  0.4778727E+02  0.7816164E-02  0.1312668E+00
        -11   -1    0    0    0    0  0.00000000000E+00  0.00000000000E+00  0.45593999997E+02  0.45594000000E+02  0.51100000000E-03 0. -1.
         11   -1    0    0    0    0 -0.00000000000E+00 -0.00000000000E+00 -0.45593999997E+02  0.45594000000E+02  0.51100000000E-03 0.  1.
    9900012    2    1    2    0    0 -0.50411180139E+01 -0.20727730582E+02  0.37796444959E+02  0.47787274921E+02  0.20000017674E+02 0.  0.
        -12    1    1    2    0    0  0.50411180139E+01  0.20727730582E+02 -0.37796444959E+02  0.43400725079E+02  0.00000000000E+00 0.  1.
         11    1    3    3    0    0  0.20044417275E+01 -0.11555317867E+02  0.24171033917E+02  0.26866001536E+02  0.51100000000E-03 0. -1.
        -11    1    3    3    0    0 -0.42643157036E+01 -0.49765004963E+00 -0.27467242613E+00  0.43020331466E+01  0.51100000000E-03 0.  1.
         12    1    3    3    0    0 -0.27812440378E+01 -0.86747626646E+01  0.13900083468E+02  0.16619240238E+02  0.00000000000E+00 0. -1.
</event>
<event>
 7    1  0.1019486E-010  0.4778727E+02  0.7816164E-02  0.1312668E+00
        -11   -1    0    0    0    0  0.00000000000E+00  0.00000000000E+00  0.45593999997E+02  0.45594000000E+02  0.51100000000E-03 0. -1.
         11   -1    0    0    0    0 -0.00000000000E+00 -0.00000000000E+00 -0.45593999997E+02  0.45594000000E+02  0.51100000000E-03 0.  1.
    9900012    2    1    2    0    0 -0.15846751412E+02  0.15688294466E+02  0.37234140669E+02  0.47787270226E+02  0.19999996270E+02 0.  0.
        -12    1    1    2    0    0  0.15846751412E+02 -0.15688294466E+02 -0.37234140669E+02  0.43400729774E+02  0.00000000000E+00 0.  1.
         11    1    3    3    0    0 -0.30277195753E+01  0.23449305672E+01  0.33332123180E+01  0.50770158371E+01  0.51100000000E-03 0. -1.
        -11    1    3    3    0    0 -0.86599711156E+01  0.11244376840E+02  0.35132977835E+02  0.37891387439E+02  0.51100000000E-03 0.  1.
        -12    1    3    3    0    0 -0.41590607206E+01  0.20989870589E+01 -0.12320494846E+01  0.48188669502E+01  0.00000000000E+00 0.  1.
</event>
<event>
 7    1  0.1019486E-010  0.4778727E+02  0.7816164E-02  0.1312668E+00
        -11   -1    0    0    0    0  0.00000000000E+00  0.00000000000E+00  0.45593999997E+02  0.45594000000E+02  0.51100000000E-03 0. -1.
         11   -1    0    0    0    0 -0.00000000000E+00 -0.00000000000E+00 -0.45593999997E+02  0.45594000000E+02  0.51100000000E-03 0.  1.
    9900012    2    1    2    0    0 -0.25282544131E+02 -0.16825990172E+02 -0.31004877716E+02  0.47787269302E+02  0.19999992053E+02 0.  0.
         12    1    1    2    0    0  0.25282544131E+02  0.16825990172E+02  0.31004877716E+02  0.43400730698E+02  0.00000000000E+00 0. -1.
         11    1    3    3    0    0 -0.43467927361E+01  0.30039442396E+00 -0.63903356927E+01  0.77344188164E+01  0.51100000000E-03 0. -1.
        -11    1    3    3    0    0 -0.29552686112E+01 -0.11562837045E+01  0.23300898801E+01  0.39369942443E+01  0.51100000000E-03 0.  1.
        -12    1    3    3    0    0 -0.17980482783E+02 -0.15970100892E+02 -0.26944631903E+02  0.36115856241E+02  0.00000000000E+00 0.  1.
</event>
<event>
 7    1  0.1019486E-010  0.4778727E+02  0.7816164E-02  0.1312668E+00
        -11   -1    0    0    0    0  0.00000000000E+00  0.00000000000E+00  0.45593999997E+02  0.45594000000E+02  0.51100000000E-03 0. -1.
         11   -1    0    0    0    0 -0.00000000000E+00 -0.00000000000E+00 -0.45593999997E+02  0.45594000000E+02  0.51100000000E-03 0.  1.
    9900012    2    1    2    0    0 -0.74277529734E+01  0.16829042271E+02 -0.39309478260E+02  0.47787271215E+02  0.20000000778E+02 0.  0.
         12    1    1    2    0    0  0.74277529734E+01 -0.16829042271E+02  0.39309478260E+02  0.43400728785E+02  0.00000000000E+00 0. -1.
         11    1    3    3    0    0 -0.84789243112E+01  0.54716861161E+01 -0.94781366292E+01  0.13844369998E+02  0.51100000000E-03 0. -1.
        -11    1    3    3    0    0 -0.17732356082E+01  0.12388531442E+02 -0.19395808810E+02  0.23082839415E+02  0.51100000000E-03 0.  1.
         12    1    3    3    0    0  0.28244069460E+01 -0.10311752877E+01 -0.10435532821E+02  0.10860061801E+02  0.00000000000E+00 0. -1.
</event>
<event>
 7    1  0.1019486E-010  0.4778729E+02  0.7816164E-02  0.1312668E+00
        -11   -1    0    0    0    0  0.00000000000E+00  0.00000000000E+00  0.45593999997E+02  0.45594000000E+02  0.51100000000E-03 0. -1.
         11   -1    0    0    0    0 -0.00000000000E+00 -0.00000000000E+00 -0.45593999997E+02  0.45594000000E+02  0.51100000000E-03 0.  1.
    9900012    2    1    2    0    0  0.19588702669E+00 -0.46210120909E+01  0.43153556334E+02  0.47787290919E+02  0.20000090617E+02 0.  0.
        -12    1    1    2    0    0 -0.19588702669E+00  0.46210120909E+01 -0.43153556334E+02  0.43400709081E+02  0.00000000000E+00 0.  1.
         11    1    3    3    0    0  0.63762585845E+01 -0.25806352001E+01  0.42116562532E+01  0.80656308016E+01  0.51100000000E-03 0. -1.
        -11    1    3    3    0    0 -0.18093488914E+01 -0.33892924530E+00  0.23771939436E+02  0.23843106367E+02  0.51100000000E-03 0.  1.
        -12    1    3    3    0    0 -0.43710226664E+01 -0.17014476455E+01  0.15169960645E+02  0.15878553750E+02  0.00000000000E+00 0.  1.
</event>
<event>
 7    1  0.1019486E-010  0.4778726E+02  0.7816164E-02  0.1312668E+00
        -11   -1    0    0    0    0  0.00000000000E+00  0.00000000000E+00  0.45593999997E+02  0.45594000000E+02  0.51100000000E-03 0. -1.
         11   -1    0    0    0    0 -0.00000000000E+00 -0.00000000000E+00 -0.45593999997E+02  0.45594000000E+02  0.51100000000E-03 0.  1.
    9900012    2    1    2    0    0 -0.26839170866E+02  0.14576208729E+02  0.30835327037E+02  0.47787258680E+02  0.19999943625E+02 0.  0.
        -12    1    1    2    0    0  0.26839170866E+02 -0.14576208729E+02 -0.30835327037E+02  0.43400741320E+02  0.00000000000E+00 0.  1.
         11    1    3    3    0    0  0.26526698745E+01  0.29544602610E+01  0.48905276381E+01  0.62994248735E+01  0.51100000000E-03 0. -1.
        -11    1    3    3    0    0 -0.10779206869E+02  0.15976763854E+01  0.64302548661E+01  0.12652748652E+02  0.51100000000E-03 0.  1.
         12    1    3    3    0    0 -0.18712633871E+02  0.10024072083E+02  0.19514544533E+02  0.28835085154E+02  0.00000000000E+00 0. -1.
</event>
<event>
 7    1  0.1019486E-010  0.4778726E+02  0.7816164E-02  0.1312668E+00
        -11   -1    0    0    0    0  0.00000000000E+00  0.00000000000E+00  0.45593999997E+02  0.45594000000E+02  0.51100000000E-03 0. -1.
         11   -1    0    0    0    0 -0.00000000000E+00 -0.00000000000E+00 -0.45593999997E+02  0.45594000000E+02  0.51100000000E-03 0.  1.
    9900012    2    1    2    0    0  0.14560097865E+02 -0.23724403770E+02  0.33298357084E+02  0.47787258433E+02  0.19999942498E+02 0.  0.
        -12    1    1    2    0    0 -0.14560097865E+02  0.23724403770E+02 -0.33298357084E+02  0.43400741567E+02  0.00000000000E+00 0.  1.
         11    1    3    3    0    0  0.26454295857E+01 -0.46047727116E+00  0.24527514102E+01  0.36368017202E+01  0.51100000000E-03 0. -1.
        -11    1    3    3    0    0 -0.16130458495E+01 -0.15612434515E+01 -0.16591765577E+01  0.27914629029E+01  0.51100000000E-03 0.  1.
        -12    1    3    3    0    0  0.13527714129E+02 -0.21702683047E+02  0.32504782232E+02  0.41358993810E+02  0.00000000000E+00 0.  1.
</event>
<event>
 7    1  0.1019486E-010  0.4778727E+02  0.7816164E-02  0.1312668E+00
        -11   -1    0    0    0    0  0.00000000000E+00  0.00000000000E+00  0.45593999997E+02  0.45594000000E+02  0.51100000000E-03 0. -1.
         11   -1    0    0    0    0 -0.00000000000E+00 -0.00000000000E+00 -0.45593999997E+02  0.45594000000E+02  0.51100000000E-03 0.  1.
    9900012    2    1    2    0    0 -0.22800603346E+02 -0.19834840506E+02  0.31150201048E+02  0.47787269174E+02  0.19999991474E+02 0.  0.
        -12    1    1    2    0    0  0.22800603346E+02  0.19834840506E+02 -0.31150201048E+02  0.43400730826E+02  0.00000000000E+00 0.  1.
         11    1    3    3    0    0 -0.11794446658E+02 -0.61646950887E+01  0.23874797179E+02  0.27333466266E+02  0.51100000000E-03 0. -1.
        -11    1    3    3    0    0 -0.30505063524E+01 -0.70361766201E+01 -0.21285882243E+00  0.76719410566E+01  0.51100000000E-03 0.  1.
         12    1    3    3    0    0 -0.79556503359E+01 -0.66339687973E+01  0.74882626912E+01  0.12781861852E+02  0.00000000000E+00 0. -1.
</event>
<event>
 7    1  0.1019486E-010  0.4778727E+02  0.7816164E-02  0.1312668E+00
        -11   -1    0    0    0    0  0.00000000000E+00  0.00000000000E+00  0.45593999997E+02  0.45594000000E+02  0.51100000000E-03 0. -1.
         11   -1    0    0    0    0 -0.00000000000E+00 -0.00000000000E+00 -0.45593999997E+02  0.45594000000E+02  0.51100000000E-03 0.  1.
    9900012    2    1    2    0    0  0.45176363100E+01  0.21421720014E+02  0.37474315213E+02  0.47787269281E+02  0.19999991962E+02 0.  0.
        -12    1    1    2    0    0 -0.45176363100E+01 -0.21421720014E+02 -0.37474315213E+02  0.43400730719E+02  0.00000000000E+00 0.  1.
         11    1    3    3    0    0  0.49996898984E+01  0.24707621675E+02  0.35451071166E+02  0.43499907069E+02  0.51100000000E-03 0. -1.
        -11    1    3    3    0    0 -0.11464625471E+01 -0.16058642759E+01  0.10772719155E+01  0.22480417002E+01  0.51100000000E-03 0.  1.
         12    1    3    3    0    0  0.66440895869E+00 -0.16800373847E+01  0.94597213156E+00  0.20393205123E+01  0.00000000000E+00 0. -1.
</event>
<event>
 7    1  0.1019486E-010  0.4778727E+02  0.7816164E-02  0.1312668E+00
        -11   -1    0    0    0    0  0.00000000000E+00  0.00000000000E+00  0.45593999997E+02  0.45594000000E+02  0.51100000000E-03 0. -1.
         11   -1    0    0    0    0 -0.00000000000E+00 -0.00000000000E+00 -0.45593999997E+02  0.45594000000E+02  0.51100000000E-03 0.  1.
    9900012    2    1    2    0    0 -0.27418292742E+01 -0.24153697579E+02 -0.35954195884E+02  0.47787274935E+02  0.20000017741E+02 0.  0.
         12    1    1    2    0    0  0.27418292742E+01  0.24153697579E+02  0.35954195884E+02  0.43400725065E+02  0.00000000000E+00 0. -1.
         11    1    3    3    0    0  0.21262845049E+01 -0.30461036509E+01 -0.71037476565E+01  0.80164246567E+01  0.51100000000E-03 0. -1.
        -11    1    3    3    0    0 -0.52834987777E+01 -0.13064599755E+02 -0.28400363326E+02  0.31704570071E+02  0.51100000000E-03 0.  1.
        -12    1    3    3    0    0  0.41538499863E+00 -0.80429941733E+01 -0.45008490084E+00  0.80662802075E+01  0.00000000000E+00 0.  1.
</event>
<event>
 7    1  0.1019486E-010  0.4778727E+02  0.7816164E-02  0.1312668E+00
        -11   -1    0    0    0    0  0.00000000000E+00  0.00000000000E+00  0.45593999997E+02  0.45594000000E+02  0.51100000000E-03 0. -1.
         11   -1    0    0    0    0 -0.00000000000E+00 -0.00000000000E+00 -0.45593999997E+02  0.45594000000E+02  0.51100000000E-03 0.  1.
    9900012    2    1    2    0    0  0.26758647311E+02  0.63759863588E+01 -0.33569998931E+02  0.47787271479E+02  0.20000001982E+02 0.  0.
         12    1    1    2    0    0 -0.26758647311E+02 -0.63759863588E+01  0.33569998931E+02  0.43400728521E+02  0.00000000000E+00 0. -1.
         11    1    3    3    0    0  0.57456937766E+01 -0.24126020447E+01 -0.74780808620E+00  0.62763733792E+01  0.51100000000E-03 0. -1.
        -11    1    3    3    0    0  0.20583448222E+02  0.75170355714E+01 -0.33481996107E+02  0.40015349905E+02  0.51100000000E-03 0.  1.
        -12    1    3    3    0    0  0.42950531204E+00  0.12715528321E+01  0.65980526239E+00  0.14955481945E+01  0.00000000000E+00 0.  1.
</event>
<event>
 7    1  0.1019486E-010  0.4778725E+02  0.7816164E-02  0.1312668E+00
        -11   -1    0    0    0    0  0.00000000000E+00  0.00000000000E+00  0.45593999997E+02  0.45594000000E+02  0.51100000000E-03 0. -1.
         11   -1    0    0    0    0 -0.00000000000E+00 -0.00000000000E+00 -0.45593999997E+02  0.45594000000E+02  0.51100000000E-03 0.  1.
    9900012    2    1    2    0    0 -0.25112364521E+02 -0.12867511462E+02  0.32976069045E+02  0.47787253085E+02  0.19999918117E+02 0.  0.
        -12    1    1    2    0    0  0.25112364521E+02  0.12867511462E+02 -0.32976069045E+02  0.43400746915E+02  0.00000000000E+00 0.  1.
         11    1    3    3    0    0 -0.15281943201E+01  0.29022014241E+01 -0.85643788760E+00  0.33899317253E+01  0.51100000000E-03 0.  1.
        -11    1    3    3    0    0 -0.21908378096E+02 -0.14937913423E+02  0.29429385731E+02  0.39613217908E+02  0.51100000000E-03 0. -1.
        -12    1    3    3    0    0 -0.16757921054E+01 -0.83179946331E+00  0.44031212016E+01  0.47841034524E+01  0.00000000000E+00 0.  1.
</event>
<event>
 7    1  0.1019486E-010  0.4778727E+02  0.7816164E-02  0.1312668E+00
        -11   -1    0    0    0    0  0.00000000000E+00  0.00000000000E+00  0.45593999997E+02  0.45594000000E+02  0.51100000000E-03 0. -1.
         11   -1    0    0    0    0 -0.00000000000E+00 -0.00000000000E+00 -0.45593999997E+02  0.45594000000E+02  0.51100000000E-03 0.  1.
    9900012    2    1    2    0    0 -0.14947082301E+02 -0.22733649948E+02  0.33814041234E+02  0.47787268510E+02  0.19999988443E+02 0.  0.
        -12    1    1    2    0    0  0.14947082301E+02  0.22733649948E+02 -0.33814041234E+02  0.43400731490E+02  0.00000000000E+00 0.  1.
         11    1    3    3    0    0 -0.82271880938E+01 -0.14690678110E+01  0.41328355982E+01  0.93233639051E+01  0.51100000000E-03 0.  1.
        -11    1    3    3    0    0 -0.56054246995E+01 -0.19014318359E+02  0.29973617606E+02  0.35935815580E+02  0.51100000000E-03 0. -1.
         12    1    3    3    0    0 -0.11144695082E+01 -0.22502637781E+01 -0.29241197031E+00  0.25280890246E+01  0.00000000000E+00 0. -1.
</event>
<event>
 7    1  0.1019486E-010  0.4778727E+02  0.7816164E-02  0.1312668E+00
        -11   -1    0    0    0    0  0.00000000000E+00  0.00000000000E+00  0.45593999997E+02  0.45594000000E+02  0.51100000000E-03 0. -1.
         11   -1    0    0    0    0 -0.00000000000E+00 -0.00000000000E+00 -0.45593999997E+02  0.45594000000E+02  0.51100000000E-03 0.  1.
    9900012    2    1    2    0    0 -0.12843332994E+02 -0.18643422356E+02  0.37028296440E+02  0.47787272624E+02  0.20000007200E+02 0.  0.
        -12    1    1    2    0    0  0.12843332994E+02  0.18643422356E+02 -0.37028296440E+02  0.43400727376E+02  0.00000000000E+00 0.  1.
         11    1    3    3    0    0 -0.12371277379E+02 -0.69970554935E+01  0.10849162310E+02  0.17880481332E+02  0.51100000000E-03 0. -1.
        -11    1    3    3    0    0 -0.13668396984E+00 -0.17095461982E+00 -0.67073275423E+00  0.70554282532E+00  0.51100000000E-03 0.  1.
         12    1    3    3    0    0 -0.33537164469E+00 -0.11475412243E+02  0.26849866884E+02  0.29201248466E+02  0.00000000000E+00 0. -1.
</event>
<event>
 7    1  0.1019486E-010  0.4778727E+02  0.7816164E-02  0.1312668E+00
        -11   -1    0    0    0    0  0.00000000000E+00  0.00000000000E+00  0.45593999997E+02  0.45594000000E+02  0.51100000000E-03 0. -1.
         11   -1    0    0    0    0 -0.00000000000E+00 -0.00000000000E+00 -0.45593999997E+02  0.45594000000E+02  0.51100000000E-03 0.  1.
    9900012    2    1    2    0    0 -0.30546330825E+02  0.17417072745E+02  0.25439939841E+02  0.47787270871E+02  0.19999999208E+02 0.  0.
        -12    1    1    2    0    0  0.30546330825E+02 -0.17417072745E+02 -0.25439939841E+02  0.43400729129E+02  0.00000000000E+00 0.  1.
         11    1    3    3    0    0 -0.23255940208E+02  0.18440982689E+02  0.14189036580E+02  0.32897376139E+02  0.51100000000E-03 0. -1.
        -11    1    3    3    0    0 -0.42062921313E+01  0.11871165355E+01  0.99680884087E+01  0.10884159405E+02  0.51100000000E-03 0.  1.
         12    1    3    3    0    0 -0.30840984859E+01 -0.22110264801E+01  0.12828148517E+01  0.40057353271E+01  0.00000000000E+00 0. -1.
</event>
<event>
 7    1  0.1019486E-010  0.4778728E+02  0.7816164E-02  0.1312668E+00
        -11   -1    0    0    0    0  0.00000000000E+00  0.00000000000E+00  0.45593999997E+02  0.45594000000E+02  0.51100000000E-03 0. -1.
         11   -1    0    0    0    0 -0.00000000000E+00 -0.00000000000E+00 -0.45593999997E+02  0.45594000000E+02  0.51100000000E-03 0.  1.
    9900012    2    1    2    0    0  0.12707384804E+02  0.11149057756E+02  0.39973031532E+02  0.47787281489E+02  0.20000047620E+02 0.  0.
        -12    1    1    2    0    0 -0.12707384804E+02 -0.11149057756E+02 -0.39973031532E+02  0.43400718511E+02  0.00000000000E+00 0.  1.
         11    1    3    3    0    0  0.10985957909E+02  0.32426857333E+00  0.11719999940E+02  0.16067197022E+02  0.51100000000E-03 0. -1.
        -11    1    3    3    0    0  0.10680202874E+01  0.10539781132E+02  0.28885646663E+02  0.30766999156E+02  0.51100000000E-03 0.  1.
        -12    1    3    3    0    0  0.65340660751E+00  0.28500805046E+00 -0.63261507024E+00  0.95308531132E+00  0.00000000000E+00 0.  1.
</event>
<event>
 7    1  0.1019486E-010  0.4778727E+02  0.7816164E-02  0.1312668E+00
        -11   -1    0    0    0    0  0.00000000000E+00  0.00000000000E+00  0.45593999997E+02  0.45594000000E+02  0.51100000000E-03 0. -1.
         11   -1    0    0    0    0 -0.00000000000E+00 -0.00000000000E+00 -0.45593999997E+02  0.45594000000E+02  0.51100000000E-03 0.  1.
    9900012    2    1    2    0    0 -0.68260100765E+01 -0.19964179035E+02 -0.37927041953E+02  0.47787269943E+02  0.19999994980E+02 0.  0.
         12    1    1    2    0    0  0.68260100765E+01  0.19964179035E+02  0.37927041953E+02  0.43400730057E+02  0.00000000000E+00 0. -1.
         11    1    3    3    0    0 -0.10565613462E+02 -0.14789866857E+02 -0.16055773011E+02  0.24252014282E+02  0.51100000000E-03 0. -1.
        -11    1    3    3    0    0  0.51497068687E+01 -0.46061553079E+01 -0.15256621265E+02  0.16748153338E+02  0.51100000000E-03 0.  1.
         12    1    3    3    0    0 -0.14101034836E+01 -0.56815687072E+00 -0.66146476769E+01  0.67871023238E+01  0.00000000000E+00 0. -1.
</event>
<event>
 7    1  0.1019486E-010  0.4778727E+02  0.7816164E-02  0.1312668E+00
        -11   -1    0    0    0    0  0.00000000000E+00  0.00000000000E+00  0.45593999997E+02  0.45594000000E+02  0.51100000000E-03 0. -1.
         11   -1    0    0    0    0 -0.00000000000E+00 -0.00000000000E+00 -0.45593999997E+02  0.45594000000E+02  0.51100000000E-03 0.  1.
    9900012    2    1    2    0    0  0.18155417129E+02 -0.24057214311E+02  0.31229065427E+02  0.47787271216E+02  0.20000000781E+02 0.  0.
        -12    1    1    2    0    0 -0.18155417129E+02  0.24057214311E+02 -0.31229065427E+02  0.43400728784E+02  0.00000000000E+00 0.  1.
         11    1    3    3    0    0 -0.23207905910E+01  0.16097473042E+00  0.23560002173E+01  0.33109997155E+01  0.51100000000E-03 0.  1.
        -11    1    3    3    0    0  0.19752788410E+02 -0.18372652274E+02  0.19057358761E+02  0.33028925577E+02  0.51100000000E-03 0. -1.
         12    1    3    3    0    0  0.72341931000E+00 -0.58455367676E+01  0.98157064490E+01  0.11447345924E+02  0.00000000000E+00 0. -1.
</event>
<event>
 7    1  0.1019486E-010  0.4778724E+02  0.7816164E-02  0.1312668E+00
        -11   -1    0    0    0    0  0.00000000000E+00  0.00000000000E+00  0.45593999997E+02  0.45594000000E+02  0.51100000000E-03 0. -1.
         11   -1    0    0    0    0 -0.00000000000E+00 -0.00000000000E+00 -0.45593999997E+02  0.45594000000E+02  0.51100000000E-03 0.  1.
    9900012    2    1    2    0    0 -0.23013676970E+02  0.47915545393E+01 -0.36483384999E+02  0.47787243053E+02  0.19999872377E+02 0.  0.
         12    1    1    2    0    0  0.23013676970E+02 -0.47915545393E+01  0.36483384999E+02  0.43400756947E+02  0.00000000000E+00 0. -1.
         11    1    3    3    0    0  0.34412706985E+01  0.16636665433E+00 -0.75511526417E+01  0.82999956845E+01  0.51100000000E-03 0. -1.
        -11    1    3    3    0    0 -0.12774914130E+02  0.19064825952E+01 -0.14428466323E+02  0.19365271690E+02  0.51100000000E-03 0.  1.
         12    1    3    3    0    0 -0.13680033539E+02  0.27187052898E+01 -0.14503766034E+02  0.20121975679E+02  0.00000000000E+00 0. -1.
</event>
<event>
 7    1  0.1019486E-010  0.4778727E+02  0.7816164E-02  0.1312668E+00
        -11   -1    0    0    0    0  0.00000000000E+00  0.00000000000E+00  0.45593999997E+02  0.45594000000E+02  0.51100000000E-03 0. -1.
         11   -1    0    0    0    0 -0.00000000000E+00 -0.00000000000E+00 -0.45593999997E+02  0.45594000000E+02  0.51100000000E-03 0.  1.
    9900012    2    1    2    0    0  0.11533633560E+02  0.74904946699E-01 -0.41840086484E+02  0.47787272462E+02  0.20000006464E+02 0.  0.
         12    1    1    2    0    0 -0.11533633560E+02 -0.74904946699E-01  0.41840086484E+02  0.43400727538E+02  0.00000000000E+00 0. -1.
         11    1    3    3    0    0 -0.26895969614E+01  0.69341177862E+00 -0.23931916001E+01  0.36663494113E+01  0.51100000000E-03 0. -1.
        -11    1    3    3    0    0  0.13029737037E+02  0.47784072818E+01 -0.24118393692E+02  0.27826320956E+02  0.51100000000E-03 0.  1.
        -12    1    3    3    0    0  0.11934934844E+01 -0.53969141138E+01 -0.15328501191E+02  0.16294602095E+02  0.00000000000E+00 0.  1.
</event>
<event>
 7    1  0.1019486E-010  0.4778727E+02  0.7816164E-02  0.1312668E+00
        -11   -1    0    0    0    0  0.00000000000E+00  0.00000000000E+00  0.45593999997E+02  0.45594000000E+02  0.51100000000E-03 0.  1.
         11   -1    0    0    0    0 -0.00000000000E+00 -0.00000000000E+00 -0.45593999997E+02  0.45594000000E+02  0.51100000000E-03 0. -1.
    9900012    2    1    2    0    0 -0.78856655872E+00  0.40771209259E+02  0.14856299449E+02  0.47787274488E+02  0.20000015702E+02 0.  0.
        -12    1    1    2    0    0  0.78856655872E+00 -0.40771209259E+02 -0.14856299449E+02  0.43400725512E+02  0.00000000000E+00 0.  1.
         11    1    3    3    0    0  0.10372249592E+01  0.12794097190E+02  0.24704147507E+01  0.13071637534E+02  0.51100000000E-03 0. -1.
        -11    1    3    3    0    0 -0.68681172794E+00  0.57808459578E+01 -0.40340202262E+01  0.70825990840E+01  0.51100000000E-03 0.  1.
        -12    1    3    3    0    0 -0.11389797900E+01  0.22196266111E+02  0.16419904924E+02  0.27633037871E+02  0.00000000000E+00 0.  1.
</event>
<event>
 7    1  0.1019486E-010  0.4778727E+02  0.7816164E-02  0.1312668E+00
        -11   -1    0    0    0    0  0.00000000000E+00  0.00000000000E+00  0.45593999997E+02  0.45594000000E+02  0.51100000000E-03 0. -1.
         11   -1    0    0    0    0 -0.00000000000E+00 -0.00000000000E+00 -0.45593999997E+02  0.45594000000E+02  0.51100000000E-03 0.  1.
    9900012    2    1    2    0    0 -0.40889328305E+02  0.16426777444E+01 -0.14456406603E+02  0.47787271305E+02  0.20000001186E+02 0.  0.
         12    1    1    2    0    0  0.40889328305E+02 -0.16426777444E+01  0.14456406603E+02  0.43400728695E+02  0.00000000000E+00 0. -1.
         11    1    3    3    0    0 -0.14729988226E+02 -0.31995740456E+01 -0.18537512887E+01  0.15187041229E+02  0.51100000000E-03 0. -1.
        -11    1    3    3    0    0 -0.17384913754E+02  0.41606338043E+01 -0.15156394240E+02  0.23436347550E+02  0.51100000000E-03 0.  1.
        -12    1    3    3    0    0 -0.87744263259E+01  0.68161798567E+00  0.25537389258E+01  0.91638825248E+01  0.00000000000E+00 0.  1.
</event>
<event>
 7    1  0.1019486E-010  0.4778728E+02  0.7816164E-02  0.1312668E+00
        -11   -1    0    0    0    0  0.00000000000E+00  0.00000000000E+00  0.45593999997E+02  0.45594000000E+02  0.51100000000E-03 0. -1.
         11   -1    0    0    0    0 -0.00000000000E+00 -0.00000000000E+00 -0.45593999997E+02  0.45594000000E+02  0.51100000000E-03 0.  1.
    9900012    2    1    2    0    0 -0.30957143211E+02  0.14298374829E+02 -0.26848360475E+02  0.47787277671E+02  0.20000030211E+02 0.  0.
         12    1    1    2    0    0  0.30957143211E+02 -0.14298374829E+02  0.26848360475E+02  0.43400722329E+02  0.00000000000E+00 0. -1.
         11    1    3    3    0    0 -0.28997651700E+01  0.83321806952E+01 -0.75246342120E+01  0.11595429852E+02  0.51100000000E-03 0. -1.
        -11    1    3    3    0    0 -0.11781677496E+02 -0.27691108077E+01 -0.69103002189E+01  0.13936575930E+02  0.51100000000E-03 0.  1.
        -12    1    3    3    0    0 -0.16275700545E+02  0.87353049416E+01 -0.12413426044E+02  0.22255271888E+02  0.00000000000E+00 0.  1.
</event>
<event>
 7    1  0.1019486E-010  0.4778727E+02  0.7816164E-02  0.1312668E+00
        -11   -1    0    0    0    0  0.00000000000E+00  0.00000000000E+00  0.45593999997E+02  0.45594000000E+02  0.51100000000E-03 0. -1.
         11   -1    0    0    0    0 -0.00000000000E+00 -0.00000000000E+00 -0.45593999997E+02  0.45594000000E+02  0.51100000000E-03 0.  1.
    9900012    2    1    2    0    0  0.67090310140E+01 -0.31639649454E+00 -0.42877872624E+02  0.47787272303E+02  0.20000005738E+02 0.  0.
         12    1    1    2    0    0 -0.67090310140E+01  0.31639649454E+00  0.42877872624E+02  0.43400727697E+02  0.00000000000E+00 0. -1.
         11    1    3    3    0    0  0.36099284681E+01 -0.15554458642E+01 -0.67452735536E+01  0.78070295859E+01  0.51100000000E-03 0. -1.
        -11    1    3    3    0    0  0.61798181032E+01  0.31845949247E+01 -0.35630252142E+02  0.36302157850E+02  0.51100000000E-03 0.  1.
        -12    1    3    3    0    0 -0.30807155573E+01 -0.19455455550E+01 -0.50234692821E+00  0.36780848669E+01  0.00000000000E+00 0.  1.
</event>
<event>
 7    1  0.1019486E-010  0.4778727E+02  0.7816164E-02  0.1312668E+00
        -11   -1    0    0    0    0  0.00000000000E+00  0.00000000000E+00  0.45593999997E+02  0.45594000000E+02  0.51100000000E-03 0. -1.
         11   -1    0    0    0    0 -0.00000000000E+00 -0.00000000000E+00 -0.45593999997E+02  0.45594000000E+02  0.51100000000E-03 0.  1.
    9900012    2    1    2    0    0 -0.17713848620E+02  0.25659194731E+02  0.30190203749E+02  0.47787272937E+02  0.20000008631E+02 0.  0.
        -12    1    1    2    0    0  0.17713848620E+02 -0.25659194731E+02 -0.30190203749E+02  0.43400727063E+02  0.00000000000E+00 0.  1.
         11    1    3    3    0    0  0.16341750332E+01  0.67125766536E+01  0.42376836194E+01  0.81047625560E+01  0.51100000000E-03 0. -1.
        -11    1    3    3    0    0 -0.16404601500E+02  0.15175621928E+02  0.26724486174E+02  0.34836885808E+02  0.51100000000E-03 0.  1.
        -12    1    3    3    0    0 -0.29434221531E+01  0.37709961499E+01 -0.77196604464E+00  0.48456245735E+01  0.00000000000E+00 0.  1.
</event>
<event>
 7    1  0.1019486E-010  0.4778727E+02  0.7816164E-02  0.1312668E+00
        -11   -1    0    0    0    0  0.00000000000E+00  0.00000000000E+00  0.45593999997E+02  0.45594000000E+02  0.51100000000E-03 0.  1.
         11   -1    0    0    0    0 -0.00000000000E+00 -0.00000000000E+00 -0.45593999997E+02  0.45594000000E+02  0.51100000000E-03 0. -1.
    9900012    2    1    2    0    0  0.34935728221E+02 -0.23322318967E+02  0.10917299279E+02  0.47787273142E+02  0.20000009561E+02 0.  0.
         12    1    1    2    0    0 -0.34935728221E+02  0.23322318967E+02 -0.10917299279E+02  0.43400726858E+02  0.00000000000E+00 0. -1.
         11    1    3    3    0    0  0.51113144178E+01 -0.65171527863E+01 -0.25699267560E+00  0.82864263114E+01  0.51100000000E-03 0. -1.
        -11    1    3    3    0    0  0.26315964464E+02 -0.10205296864E+02  0.29370046542E+01  0.28377879878E+02  0.51100000000E-03 0.  1.
        -12    1    3    3    0    0  0.35084493388E+01 -0.65998693162E+01  0.82372873002E+01  0.11122966952E+02  0.00000000000E+00 0.  1.
</event>
<event>
 7    1  0.1019486E-010  0.4778728E+02  0.7816164E-02  0.1312668E+00
        -11   -1    0    0    0    0  0.00000000000E+00  0.00000000000E+00  0.45593999997E+02  0.45594000000E+02  0.51100000000E-03 0. -1.
         11   -1    0    0    0    0 -0.00000000000E+00 -0.00000000000E+00 -0.45593999997E+02  0.45594000000E+02  0.51100000000E-03 0.  1.
    9900012    2    1    2    0    0 -0.21725148526E+02 -0.53484508355E+01  0.37189177093E+02  0.47787275378E+02  0.20000019760E+02 0.  0.
        -12    1    1    2    0    0  0.21725148526E+02  0.53484508355E+01 -0.37189177093E+02  0.43400724622E+02  0.00000000000E+00 0.  1.
         11    1    3    3    0    0  0.10768181573E+01 -0.55285577901E+01  0.74506718762E+01  0.93400749596E+01  0.51100000000E-03 0. -1.
        -11    1    3    3    0    0 -0.80301675548E+01  0.41505827125E+01  0.12018413778E+02  0.15038390799E+02  0.51100000000E-03 0.  1.
         12    1    3    3    0    0 -0.14771799128E+02 -0.39704757579E+01  0.17720091439E+02  0.23408809620E+02  0.00000000000E+00 0. -1.
</event>
<event>
 7    1  0.1019486E-010  0.4778727E+02  0.7816164E-02  0.1312668E+00
        -11   -1    0    0    0    0  0.00000000000E+00  0.00000000000E+00  0.45593999997E+02  0.45594000000E+02  0.51100000000E-03 0. -1.
         11   -1    0    0    0    0 -0.00000000000E+00 -0.00000000000E+00 -0.45593999997E+02  0.45594000000E+02  0.51100000000E-03 0.  1.
    9900012    2    1    2    0    0 -0.28436055350E+02  0.24084535895E+01  0.32698823945E+02  0.47787274431E+02  0.20000015441E+02 0.  0.
        -12    1    1    2    0    0  0.28436055350E+02 -0.24084535895E+01 -0.32698823945E+02  0.43400725569E+02  0.00000000000E+00 0.  1.
         11    1    3    3    0    0 -0.16645396258E+02  0.93097814399E+01  0.19175792669E+02  0.27045374315E+02  0.51100000000E-03 0. -1.
        -11    1    3    3    0    0 -0.26472096058E+00 -0.26917396424E+01  0.33033743964E+00  0.27248234024E+01  0.51100000000E-03 0.  1.
         12    1    3    3    0    0 -0.11525938131E+02 -0.42095882081E+01  0.13192693836E+02  0.18017076714E+02  0.00000000000E+00 0. -1.
</event>
<event>
 7    1  0.1019486E-010  0.4778727E+02  0.7816164E-02  0.1312668E+00
        -11   -1    0    0    0    0  0.00000000000E+00  0.00000000000E+00  0.45593999997E+02  0.45594000000E+02  0.51100000000E-03 0. -1.
         11   -1    0    0    0    0 -0.00000000000E+00 -0.00000000000E+00 -0.45593999997E+02  0.45594000000E+02  0.51100000000E-03 0.  1.
    9900012    2    1    2    0    0 -0.16762128047E+02 -0.38748125928E+02  0.10061650083E+02  0.47787274177E+02  0.20000014282E+02 0.  0.
        -12    1    1    2    0    0  0.16762128047E+02  0.38748125928E+02 -0.10061650083E+02  0.43400725823E+02  0.00000000000E+00 0.  1.
         11    1    3    3    0    0 -0.15781895729E+02 -0.22485566157E+02 -0.17071791016E+00  0.27471768473E+02  0.51100000000E-03 0. -1.
        -11    1    3    3    0    0  0.52186870672E+00 -0.10172206944E+02  0.96241687540E+01  0.14013235370E+02  0.51100000000E-03 0.  1.
        -12    1    3    3    0    0 -0.15021010252E+01 -0.60903528269E+01  0.60819923911E+00  0.63022703338E+01  0.00000000000E+00 0.  1.
</event>
<event>
 7    1  0.1019486E-010  0.4778727E+02  0.7816164E-02  0.1312668E+00
        -11   -1    0    0    0    0  0.00000000000E+00  0.00000000000E+00  0.45593999997E+02  0.45594000000E+02  0.51100000000E-03 0. -1.
         11   -1    0    0    0    0 -0.00000000000E+00 -0.00000000000E+00 -0.45593999997E+02  0.45594000000E+02  0.51100000000E-03 0.  1.
    9900012    2    1    2    0    0  0.17578820250E+02 -0.33451095256E+02  0.21345556150E+02  0.47787268870E+02  0.19999990086E+02 0.  0.
        -12    1    1    2    0    0 -0.17578820250E+02  0.33451095256E+02 -0.21345556150E+02  0.43400731130E+02  0.00000000000E+00 0.  1.
         11    1    3    3    0    0  0.57234587095E+01 -0.25056146342E+02  0.11245760678E+02  0.28054154463E+02  0.51100000000E-03 0. -1.
        -11    1    3    3    0    0  0.13246611826E+02 -0.79906322876E+01  0.95678245157E+01  0.18189727745E+02  0.51100000000E-03 0.  1.
        -12    1    3    3    0    0 -0.13912502850E+01 -0.40431662653E+00  0.53197095629E+00  0.15433866620E+01  0.00000000000E+00 0.  1.
</event>
<event>
 7    1  0.1019486E-010  0.4778727E+02  0.7816164E-02  0.1312668E+00
        -11   -1    0    0    0    0  0.00000000000E+00  0.00000000000E+00  0.45593999997E+02  0.45594000000E+02  0.51100000000E-03 0. -1.
         11   -1    0    0    0    0 -0.00000000000E+00 -0.00000000000E+00 -0.45593999997E+02  0.45594000000E+02  0.51100000000E-03 0.  1.
    9900012    2    1    2    0    0  0.31861670608E+02  0.20348075562E+02 -0.21316964554E+02  0.47787271771E+02  0.20000003313E+02 0.  0.
         12    1    1    2    0    0 -0.31861670608E+02 -0.20348075562E+02  0.21316964554E+02  0.43400728229E+02  0.00000000000E+00 0. -1.
         11    1    3    3    0    0  0.50540283103E+01 -0.26515834529E+01 -0.26940108100E+01  0.63112432590E+01  0.51100000000E-03 0. -1.
        -11    1    3    3    0    0  0.21725797439E+02  0.20307923689E+02 -0.19635717177E+02  0.35636826855E+02  0.51100000000E-03 0.  1.
        -12    1    3    3    0    0  0.50818448581E+01  0.26917353258E+01  0.10127634330E+01  0.58392016575E+01  0.00000000000E+00 0.  1.
</event>
<event>
 7    1  0.1019486E-010  0.4778725E+02  0.7816164E-02  0.1312668E+00
        -11   -1    0    0    0    0  0.00000000000E+00  0.00000000000E+00  0.45593999997E+02  0.45594000000E+02  0.51100000000E-03 0. -1.
         11   -1    0    0    0    0 -0.00000000000E+00 -0.00000000000E+00 -0.45593999997E+02  0.45594000000E+02  0.51100000000E-03 0.  1.
    9900012    2    1    2    0    0  0.19107556660E+01  0.26980943325E+01  0.43274638428E+02  0.47787250798E+02  0.19999907687E+02 0.  0.
        -12    1    1    2    0    0 -0.19107556660E+01 -0.26980943325E+01 -0.43274638428E+02  0.43400749202E+02  0.00000000000E+00 0.  1.
         11    1    3    3    0    0  0.39794499550E+00 -0.77672558227E+01  0.13545920475E+02  0.15619877881E+02  0.51100000000E-03 0. -1.
        -11    1    3    3    0    0  0.32681912152E+01  0.76963304186E+01  0.25375864695E+02  0.26717954357E+02  0.51100000000E-03 0.  1.
        -12    1    3    3    0    0 -0.17553805447E+01  0.27690197365E+01  0.43528532575E+01  0.54494185598E+01  0.00000000000E+00 0.  1.
</event>
<event>
 7    1  0.1019486E-010  0.4778732E+02  0.7816164E-02  0.1312668E+00
        -11   -1    0    0    0    0  0.00000000000E+00  0.00000000000E+00  0.45593999997E+02  0.45594000000E+02  0.51100000000E-03 0.  1.
         11   -1    0    0    0    0 -0.00000000000E+00 -0.00000000000E+00 -0.45593999997E+02  0.45594000000E+02  0.51100000000E-03 0. -1.
    9900012    2    1    2    0    0  0.17952618177E+02 -0.38251718955E+02  0.99059663510E+01  0.47787324063E+02  0.20000241732E+02 0.  0.
        -12    1    1    2    0    0 -0.17952618177E+02  0.38251718955E+02 -0.99059663510E+01  0.43400675937E+02  0.00000000000E+00 0.  1.
         11    1    3    3    0    0  0.13034039848E+02 -0.34481681121E+02  0.72171933996E+01  0.37562752941E+02  0.51100000000E-03 0. -1.
        -11    1    3    3    0    0  0.30486573729E+01 -0.14675846647E+01  0.52899365674E+01  0.62794542497E+01  0.51100000000E-03 0.  1.
        -12    1    3    3    0    0  0.18699209561E+01 -0.23024531694E+01 -0.26011636160E+01  0.39451168723E+01  0.00000000000E+00 0.  1.
</event>
<event>
 7    1  0.1019486E-010  0.4778727E+02  0.7816164E-02  0.1312668E+00
        -11   -1    0    0    0    0  0.00000000000E+00  0.00000000000E+00  0.45593999997E+02  0.45594000000E+02  0.51100000000E-03 0. -1.
         11   -1    0    0    0    0 -0.00000000000E+00 -0.00000000000E+00 -0.45593999997E+02  0.45594000000E+02  0.51100000000E-03 0.  1.
    9900012    2    1    2    0    0 -0.98228209804E+01  0.39200995870E+02 -0.15824576797E+02  0.47787272817E+02  0.20000008083E+02 0.  0.
         12    1    1    2    0    0  0.98228209804E+01 -0.39200995870E+02  0.15824576797E+02  0.43400727183E+02  0.00000000000E+00 0. -1.
         11    1    3    3    0    0 -0.18254595295E+00  0.43906413136E+00 -0.32931514713E+01  0.33273032941E+01  0.51100000000E-03 0. -1.
        -11    1    3    3    0    0 -0.75774235588E+01  0.37753338404E+02 -0.14780729798E+02  0.41245628642E+02  0.51100000000E-03 0.  1.
        -12    1    3    3    0    0 -0.20628514687E+01  0.10085933338E+01  0.22493044715E+01  0.32143408811E+01  0.00000000000E+00 0.  1.
</event>
<event>
 7    1  0.1019486E-010  0.4778727E+02  0.7816164E-02  0.1312668E+00
        -11   -1    0    0    0    0  0.00000000000E+00  0.00000000000E+00  0.45593999997E+02  0.45594000000E+02  0.51100000000E-03 0. -1.
         11   -1    0    0    0    0 -0.00000000000E+00 -0.00000000000E+00 -0.45593999997E+02  0.45594000000E+02  0.51100000000E-03 0.  1.
    9900012    2    1    2    0    0 -0.16321636661E+02  0.25288517830E+02  0.31268482299E+02  0.47787274860E+02  0.20000017398E+02 0.  0.
        -12    1    1    2    0    0  0.16321636661E+02 -0.25288517830E+02 -0.31268482299E+02  0.43400725140E+02  0.00000000000E+00 0.  1.
         11    1    3    3    0    0 -0.13156336430E+02  0.25060294688E+02  0.16845514676E+02  0.32937500256E+02  0.51100000000E-03 0. -1.
        -11    1    3    3    0    0 -0.16533144154E+01 -0.52956376197E+00  0.91159294455E+01  0.92797659588E+01  0.51100000000E-03 0.  1.
         12    1    3    3    0    0 -0.15119858158E+01  0.75778690397E+00  0.53070381771E+01  0.55700086456E+01  0.00000000000E+00 0. -1.
</event>
<event>
 7    1  0.1019486E-010  0.4778727E+02  0.7816164E-02  0.1312668E+00
        -11   -1    0    0    0    0  0.00000000000E+00  0.00000000000E+00  0.45593999997E+02  0.45594000000E+02  0.51100000000E-03 0. -1.
         11   -1    0    0    0    0 -0.00000000000E+00 -0.00000000000E+00 -0.45593999997E+02  0.45594000000E+02  0.51100000000E-03 0.  1.
    9900012    2    1    2    0    0  0.30330270522E+01  0.16863604704E+01 -0.43261762698E+02  0.47787272166E+02  0.20000005115E+02 0.  0.
         12    1    1    2    0    0 -0.30330270522E+01 -0.16863604704E+01  0.43261762698E+02  0.43400727834E+02  0.00000000000E+00 0. -1.
         11    1    3    3    0    0  0.10613345354E+02  0.73247874888E+00 -0.19795833636E+02  0.22473421064E+02  0.51100000000E-03 0. -1.
        -11    1    3    3    0    0 -0.36080556730E+01 -0.23261224085E+01 -0.11968807473E+02  0.12715394755E+02  0.51100000000E-03 0.  1.
         12    1    3    3    0    0 -0.39722626287E+01  0.32800041300E+01 -0.11497121590E+02  0.12598456347E+02  0.00000000000E+00 0. -1.
</event>
<event>
 7    1  0.1019486E-010  0.4778727E+02  0.7816164E-02  0.1312668E+00
        -11   -1    0    0    0    0  0.00000000000E+00  0.00000000000E+00  0.45593999997E+02  0.45594000000E+02  0.51100000000E-03 0. -1.
         11   -1    0    0    0    0 -0.00000000000E+00 -0.00000000000E+00 -0.45593999997E+02  0.45594000000E+02  0.51100000000E-03 0.  1.
    9900012    2    1    2    0    0  0.16657922356E+02  0.53399003519E+01  0.39719297808E+02  0.47787268079E+02  0.19999986477E+02 0.  0.
        -12    1    1    2    0    0 -0.16657922356E+02 -0.53399003519E+01 -0.39719297808E+02  0.43400731921E+02  0.00000000000E+00 0.  1.
         11    1    3    3    0    0  0.81985509377E+01 -0.18793688616E+01  0.25695470785E+02  0.27037113084E+02  0.51100000000E-03 0. -1.
        -11    1    3    3    0    0  0.15344394512E+01  0.41762416508E+01 -0.39604703995E+00  0.44668056007E+01  0.51100000000E-03 0.  1.
        -12    1    3    3    0    0  0.69249319673E+01  0.30430275627E+01  0.14419874062E+02  0.16283349393E+02  0.00000000000E+00 0.  1.
</event>
<event>
 7    1  0.1019486E-010  0.4778728E+02  0.7816164E-02  0.1312668E+00
        -11   -1    0    0    0    0  0.00000000000E+00  0.00000000000E+00  0.45593999997E+02  0.45594000000E+02  0.51100000000E-03 0. -1.
         11   -1    0    0    0    0 -0.00000000000E+00 -0.00000000000E+00 -0.45593999997E+02  0.45594000000E+02  0.51100000000E-03 0.  1.
    9900012    2    1    2    0    0  0.53647220434E+01 -0.28113389387E+02  0.32626359510E+02  0.47787282952E+02  0.20000054290E+02 0.  0.
        -12    1    1    2    0    0 -0.53647220434E+01  0.28113389387E+02 -0.32626359510E+02  0.43400717048E+02  0.00000000000E+00 0.  1.
         11    1    3    3    0    0  0.99188868011E+00 -0.19786657355E+01 -0.17382114174E+01  0.28143099401E+01  0.51100000000E-03 0. -1.
        -11    1    3    3    0    0 -0.99944449313E+00 -0.18978956391E+01 -0.47169219395E+00  0.21962219694E+01  0.51100000000E-03 0.  1.
         12    1    3    3    0    0  0.53722778565E+01 -0.24236828013E+02  0.34836263121E+02  0.42776751042E+02  0.00000000000E+00 0. -1.
</event>
<event>
 7    1  0.1019486E-010  0.4778727E+02  0.7816164E-02  0.1312668E+00
        -11   -1    0    0    0    0  0.00000000000E+00  0.00000000000E+00  0.45593999997E+02  0.45594000000E+02  0.51100000000E-03 0. -1.
         11   -1    0    0    0    0 -0.00000000000E+00 -0.00000000000E+00 -0.45593999997E+02  0.45594000000E+02  0.51100000000E-03 0.  1.
    9900012    2    1    2    0    0  0.11185185132E+02  0.12389801348E+02 -0.40062551804E+02  0.47787267277E+02  0.19999982821E+02 0.  0.
         12    1    1    2    0    0 -0.11185185132E+02 -0.12389801348E+02  0.40062551804E+02  0.43400732723E+02  0.00000000000E+00 0. -1.
         11    1    3    3    0    0 -0.14360548515E+01 -0.49936276864E+00  0.15615923668E+01  0.21794925309E+01  0.51100000000E-03 0. -1.
        -11    1    3    3    0    0  0.50487731744E+01  0.30132001620E+01 -0.96886862417E+01  0.11333142862E+02  0.51100000000E-03 0.  1.
         12    1    3    3    0    0  0.75724668090E+01  0.98759639542E+01 -0.31935457929E+02  0.34274631884E+02  0.00000000000E+00 0. -1.
</event>
<event>
 7    1  0.1075153E-010  0.4778726E+02  0.7816164E-02  0.1312668E+00
        -11   -1    0    0    0    0  0.00000000000E+00  0.00000000000E+00  0.45593999997E+02  0.45594000000E+02  0.51100000000E-03 0. -1.
         11   -1    0    0    0    0 -0.00000000000E+00 -0.00000000000E+00 -0.45593999997E+02  0.45594000000E+02  0.51100000000E-03 0.  1.
    9900012    2    1    2    0    0  0.23975579913E+02  0.10062250673E+02 -0.34749773603E+02  0.47787261685E+02  0.19999957328E+02 0.  0.
         12    1    1    2    0    0 -0.23975579913E+02 -0.10062250673E+02  0.34749773603E+02  0.43400738315E+02  0.00000000000E+00 0. -1.
         11    1    3    3    0    0 -0.20387041787E+01  0.10398225664E+01 -0.75341321416E+01  0.78740518849E+01  0.51100000000E-03 0. -1.
        -11    1    3    3    0    0  0.48381468860E+01 -0.10277786453E+01 -0.88374670407E+01  0.10127429002E+02  0.51100000000E-03 0.  1.
         12    1    3    3    0    0  0.21176137206E+02  0.10050206752E+02 -0.18378174421E+02  0.29785780798E+02  0.00000000000E+00 0. -1.
</event>
<event>
 7    1  0.1019486E-010  0.4778727E+02  0.7816164E-02  0.1312668E+00
        -11   -1    0    0    0    0  0.00000000000E+00  0.00000000000E+00  0.45593999997E+02  0.45594000000E+02  0.51100000000E-03 0. -1.
         11   -1    0    0    0    0 -0.00000000000E+00 -0.00000000000E+00 -0.45593999997E+02  0.45594000000E+02  0.51100000000E-03 0.  1.
    9900012    2    1    2    0    0 -0.16265135484E+02  0.21984366696E+01 -0.40177549473E+02  0.47787271461E+02  0.20000001898E+02 0.  0.
         12    1    1    2    0    0  0.16265135484E+02 -0.21984366696E+01  0.40177549473E+02  0.43400728539E+02  0.00000000000E+00 0. -1.
         11    1    3    3    0    0 -0.27153365522E+00 -0.15633070805E+01  0.15603633319E+01  0.22253973898E+01  0.51100000000E-03 0. -1.
        -11    1    3    3    0    0 -0.35052892499E+01  0.17288192896E+01 -0.33671718433E+01  0.51588482576E+01  0.51100000000E-03 0.  1.
         12    1    3    3    0    0 -0.12488312579E+02  0.20329244605E+01 -0.38370740961E+02  0.40403025813E+02  0.00000000000E+00 0. -1.
</event>
<event>
 7    1  0.1019486E-010  0.4778727E+02  0.7816164E-02  0.1312668E+00
        -11   -1    0    0    0    0  0.00000000000E+00  0.00000000000E+00  0.45593999997E+02  0.45594000000E+02  0.51100000000E-03 0. -1.
         11   -1    0    0    0    0 -0.00000000000E+00 -0.00000000000E+00 -0.45593999997E+02  0.45594000000E+02  0.51100000000E-03 0.  1.
    9900012    2    1    2    0    0  0.29114079524E+02 -0.17620008481E+01 -0.32138589346E+02  0.47787271911E+02  0.20000003949E+02 0.  0.
         12    1    1    2    0    0 -0.29114079524E+02  0.17620008481E+01  0.32138589346E+02  0.43400728089E+02  0.00000000000E+00 0. -1.
         11    1    3    3    0    0  0.48075497279E+01 -0.30271130613E+01 -0.12783978000E+01  0.58232507303E+01  0.51100000000E-03 0. -1.
        -11    1    3    3    0    0  0.22780666674E+02 -0.78806426046E+00 -0.31896359910E+02  0.39204050750E+02  0.51100000000E-03 0.  1.
        -12    1    3    3    0    0  0.15258631218E+01  0.20531764736E+01  0.10361683641E+01  0.27599704305E+01  0.00000000000E+00 0.  1.
</event>
<event>
 7    1  0.1019486E-010  0.4778727E+02  0.7816164E-02  0.1312668E+00
        -11   -1    0    0    0    0  0.00000000000E+00  0.00000000000E+00  0.45593999997E+02  0.45594000000E+02  0.51100000000E-03 0. -1.
         11   -1    0    0    0    0 -0.00000000000E+00 -0.00000000000E+00 -0.45593999997E+02  0.45594000000E+02  0.51100000000E-03 0.  1.
    9900012    2    1    2    0    0 -0.14073463069E+02  0.34923252611E+02 -0.21585349685E+02  0.47787271242E+02  0.20000000901E+02 0.  0.
         12    1    1    2    0    0  0.14073463069E+02 -0.34923252611E+02  0.21585349685E+02  0.43400728758E+02  0.00000000000E+00 0. -1.
         11    1    3    3    0    0  0.10826226782E+01  0.51846518063E+01  0.11205690018E+01  0.54137197346E+01  0.51100000000E-03 0. -1.
        -11    1    3    3    0    0 -0.16815707250E+02  0.25471839311E+02 -0.22253639707E+02  0.37773100067E+02  0.51100000000E-03 0.  1.
        -12    1    3    3    0    0  0.16596215028E+01  0.42667614938E+01 -0.45227897964E+00  0.46004514401E+01  0.00000000000E+00 0.  1.
</event>
<event>
 7    1  0.1019486E-010  0.4778725E+02  0.7816164E-02  0.1312668E+00
        -11   -1    0    0    0    0  0.00000000000E+00  0.00000000000E+00  0.45593999997E+02  0.45594000000E+02  0.51100000000E-03 0. -1.
         11   -1    0    0    0    0 -0.00000000000E+00 -0.00000000000E+00 -0.45593999997E+02  0.45594000000E+02  0.51100000000E-03 0.  1.
    9900012    2    1    2    0    0  0.13235119190E+02 -0.18056912817E+02  0.37180700400E+02  0.47787251588E+02  0.19999911289E+02 0.  0.
        -12    1    1    2    0    0 -0.13235119190E+02  0.18056912817E+02 -0.37180700400E+02  0.43400748412E+02  0.00000000000E+00 0.  1.
         11    1    3    3    0    0  0.28716180042E+01 -0.14066429003E+02  0.26092547275E+02  0.29781397523E+02  0.51100000000E-03 0. -1.
        -11    1    3    3    0    0  0.58960883230E+01  0.23324338872E+01  0.39168371275E+01  0.74529000191E+01  0.51100000000E-03 0.  1.
         12    1    3    3    0    0  0.44674128631E+01 -0.63229177017E+01  0.71713159984E+01  0.10552954046E+02  0.00000000000E+00 0. -1.
</event>
<event>
 7    1  0.1019486E-010  0.4778727E+02  0.7816164E-02  0.1312668E+00
        -11   -1    0    0    0    0  0.00000000000E+00  0.00000000000E+00  0.45593999997E+02  0.45594000000E+02  0.51100000000E-03 0.  1.
         11   -1    0    0    0    0 -0.00000000000E+00 -0.00000000000E+00 -0.45593999997E+02  0.45594000000E+02  0.51100000000E-03 0. -1.
    9900012    2    1    2    0    0 -0.29099341731E+02  0.27895474939E+02 -0.16083977698E+02  0.47787267865E+02  0.19999985505E+02 0.  0.
         12    1    1    2    0    0  0.29099341731E+02 -0.27895474939E+02  0.16083977698E+02  0.43400732135E+02  0.00000000000E+00 0. -1.
         11    1    3    3    0    0 -0.46053426961E+01  0.11720310086E+02  0.63841489097E+00  0.12608823248E+02  0.51100000000E-03 0. -1.
        -11    1    3    3    0    0 -0.80569085030E+01  0.18456808359E+01 -0.85472150607E+01  0.11890130274E+02  0.51100000000E-03 0.  1.
        -12    1    3    3    0    0 -0.16437090532E+02  0.14329484017E+02 -0.81751775278E+01  0.23288314343E+02  0.00000000000E+00 0.  1.
</event>
<event>
 7    1  0.1019486E-010  0.4778727E+02  0.7816164E-02  0.1312668E+00
        -11   -1    0    0    0    0  0.00000000000E+00  0.00000000000E+00  0.45593999997E+02  0.45594000000E+02  0.51100000000E-03 0. -1.
         11   -1    0    0    0    0 -0.00000000000E+00 -0.00000000000E+00 -0.45593999997E+02  0.45594000000E+02  0.51100000000E-03 0.  1.
    9900012    2    1    2    0    0  0.34077390382E+02  0.24802563594E+02 -0.10353138654E+02  0.47787272171E+02  0.20000005136E+02 0.  0.
         12    1    1    2    0    0 -0.34077390382E+02 -0.24802563594E+02  0.10353138654E+02  0.43400727829E+02  0.00000000000E+00 0. -1.
         11    1    3    3    0    0  0.41265973573E+01  0.11066612983E+02 -0.14463347962E+01  0.11899185404E+02  0.51100000000E-03 0. -1.
        -11    1    3    3    0    0  0.28781428176E+02  0.15239761138E+02 -0.72522047425E+01  0.33364882755E+02  0.51100000000E-03 0.  1.
         12    1    3    3    0    0  0.11693648490E+01 -0.15038105272E+01 -0.16545991155E+01  0.25232040117E+01  0.00000000000E+00 0. -1.
</event>
<event>
 7    1  0.1019486E-010  0.4778728E+02  0.7816164E-02  0.1312668E+00
        -11   -1    0    0    0    0  0.00000000000E+00  0.00000000000E+00  0.45593999997E+02  0.45594000000E+02  0.51100000000E-03 0. -1.
         11   -1    0    0    0    0 -0.00000000000E+00 -0.00000000000E+00 -0.45593999997E+02  0.45594000000E+02  0.51100000000E-03 0.  1.
    9900012    2    1    2    0    0  0.11185978357E+02  0.16387183044E+02  0.38599960071E+02  0.47787276534E+02  0.20000025028E+02 0.  0.
        -12    1    1    2    0    0 -0.11185978357E+02 -0.16387183044E+02 -0.38599960071E+02  0.43400723466E+02  0.00000000000E+00 0.  1.
         11    1    3    3    0    0  0.10897831385E+02  0.17199921101E+02  0.31032694130E+02  0.37116413081E+02  0.51100000000E-03 0. -1.
        -11    1    3    3    0    0  0.21727603985E+01 -0.12825539299E+01 -0.32427660210E+00  0.25438136544E+01  0.51100000000E-03 0.  1.
         12    1    3    3    0    0 -0.18846134260E+01  0.46981587264E+00  0.78915425427E+01  0.81270497983E+01  0.00000000000E+00 0. -1.
</event>
<event>
 7    1  0.1019486E-010  0.4778727E+02  0.7816164E-02  0.1312668E+00
        -11   -1    0    0    0    0  0.00000000000E+00  0.00000000000E+00  0.45593999997E+02  0.45594000000E+02  0.51100000000E-03 0. -1.
         11   -1    0    0    0    0 -0.00000000000E+00 -0.00000000000E+00 -0.45593999997E+02  0.45594000000E+02  0.51100000000E-03 0.  1.
    9900012    2    1    2    0    0 -0.25491998387E+01  0.33757607967E+02  0.27157851552E+02  0.47787269403E+02  0.19999992515E+02 0.  0.
        -12    1    1    2    0    0  0.25491998387E+01 -0.33757607967E+02 -0.27157851552E+02  0.43400730597E+02  0.00000000000E+00 0.  1.
         11    1    3    3    0    0 -0.51929206374E+01  0.11822596602E+02  0.99180667940E+01  0.16282145570E+02  0.51100000000E-03 0. -1.
        -11    1    3    3    0    0 -0.36298308793E+00  0.10695048750E+02  0.16728837526E+02  0.19858746932E+02  0.51100000000E-03 0.  1.
        -12    1    3    3    0    0  0.30067038867E+01  0.11239962615E+02  0.51094723170E+00  0.11646376901E+02  0.00000000000E+00 0.  1.
</event>
<event>
 7    1  0.1019486E-010  0.4778727E+02  0.7816164E-02  0.1312668E+00
        -11   -1    0    0    0    0  0.00000000000E+00  0.00000000000E+00  0.45593999997E+02  0.45594000000E+02  0.51100000000E-03 0.  1.
         11   -1    0    0    0    0 -0.00000000000E+00 -0.00000000000E+00 -0.45593999997E+02  0.45594000000E+02  0.51100000000E-03 0. -1.
    9900012    2    1    2    0    0 -0.42346942602E+02  0.28590512994E+01  0.90656351793E+01  0.47787268863E+02  0.19999990052E+02 0.  0.
        -12    1    1    2    0    0  0.42346942602E+02 -0.28590512994E+01 -0.90656351793E+01  0.43400731137E+02  0.00000000000E+00 0.  1.
         11    1    3    3    0    0 -0.24014250764E+01 -0.12900333433E+01  0.67911427678E+00  0.28093103934E+01  0.51100000000E-03 0. -1.
        -11    1    3    3    0    0  0.17839060314E+01  0.35764837439E+00  0.18050915797E+01  0.25629258594E+01  0.51100000000E-03 0.  1.
        -12    1    3    3    0    0 -0.41729423557E+02  0.37914362682E+01  0.65814293228E+01  0.42415032610E+02  0.00000000000E+00 0.  1.
</event>
<event>
 7    1  0.1019486E-010  0.4778727E+02  0.7816164E-02  0.1312668E+00
        -11   -1    0    0    0    0  0.00000000000E+00  0.00000000000E+00  0.45593999997E+02  0.45594000000E+02  0.51100000000E-03 0. -1.
         11   -1    0    0    0    0 -0.00000000000E+00 -0.00000000000E+00 -0.45593999997E+02  0.45594000000E+02  0.51100000000E-03 0.  1.
    9900012    2    1    2    0    0  0.25145629885E+02 -0.90363958064E+01  0.34200352246E+02  0.47787271374E+02  0.20000001502E+02 0.  0.
        -12    1    1    2    0    0 -0.25145629885E+02  0.90363958064E+01 -0.34200352246E+02  0.43400728626E+02  0.00000000000E+00 0.  1.
         11    1    3    3    0    0  0.66729612242E+01 -0.30768430609E+01  0.83535836299E+01  0.11125544231E+02  0.51100000000E-03 0. -1.
        -11    1    3    3    0    0  0.20680053074E+02 -0.54111708704E+01  0.16393473440E+02  0.26938658783E+02  0.51100000000E-03 0.  1.
        -12    1    3    3    0    0 -0.22073844131E+01 -0.54838187508E+00  0.94532951763E+01  0.97230683593E+01  0.00000000000E+00 0.  1.
</event>
<event>
 7    1  0.1019486E-010  0.4778727E+02  0.7816164E-02  0.1312668E+00
        -11   -1    0    0    0    0  0.00000000000E+00  0.00000000000E+00  0.45593999997E+02  0.45594000000E+02  0.51100000000E-03 0. -1.
         11   -1    0    0    0    0 -0.00000000000E+00 -0.00000000000E+00 -0.45593999997E+02  0.45594000000E+02  0.51100000000E-03 0.  1.
    9900012    2    1    2    0    0 -0.93639200368E+01  0.22908085283E+02 -0.35653332765E+02  0.47787268358E+02  0.19999987752E+02 0.  0.
         12    1    1    2    0    0  0.93639200368E+01 -0.22908085283E+02  0.35653332765E+02  0.43400731642E+02  0.00000000000E+00 0. -1.
         11    1    3    3    0    0 -0.67954082724E+01  0.29740475988E+01 -0.14155150971E+01  0.75515704300E+01  0.51100000000E-03 0. -1.
        -11    1    3    3    0    0 -0.18069954448E+01  0.15552483768E+02 -0.20495372196E+02  0.25791573539E+02  0.51100000000E-03 0.  1.
        -12    1    3    3    0    0 -0.76151631962E+00  0.43815539157E+01 -0.13742445472E+02  0.14444124389E+02  0.00000000000E+00 0.  1.
</event>
<event>
 7    1  0.1019486E-010  0.4778726E+02  0.7816164E-02  0.1312668E+00
        -11   -1    0    0    0    0  0.00000000000E+00  0.00000000000E+00  0.45593999997E+02  0.45594000000E+02  0.51100000000E-03 0. -1.
         11   -1    0    0    0    0 -0.00000000000E+00 -0.00000000000E+00 -0.45593999997E+02  0.45594000000E+02  0.51100000000E-03 0.  1.
    9900012    2    1    2    0    0 -0.12483485826E+02  0.12226421258E+02  0.39727839278E+02  0.47787262577E+02  0.19999961393E+02 0.  0.
        -12    1    1    2    0    0  0.12483485826E+02 -0.12226421258E+02 -0.39727839278E+02  0.43400737423E+02  0.00000000000E+00 0.  1.
         11    1    3    3    0    0  0.14883482421E+01  0.49721854480E+01  0.84809240770E+01  0.99430318354E+01  0.51100000000E-03 0. -1.
        -11    1    3    3    0    0 -0.74284346016E+01  0.12367197819E+01  0.27896518257E+01  0.80307704499E+01  0.51100000000E-03 0.  1.
        -12    1    3    3    0    0 -0.65433994661E+01  0.60175160285E+01  0.28457263376E+02  0.29813460292E+02  0.00000000000E+00 0.  1.
</event>
<event>
 7    1  0.1019486E-010  0.4778727E+02  0.7816164E-02  0.1312668E+00
        -11   -1    0    0    0    0  0.00000000000E+00  0.00000000000E+00  0.45593999997E+02  0.45594000000E+02  0.51100000000E-03 0. -1.
         11   -1    0    0    0    0 -0.00000000000E+00 -0.00000000000E+00 -0.45593999997E+02  0.45594000000E+02  0.51100000000E-03 0.  1.
    9900012    2    1    2    0    0  0.79170788099E+01 -0.33879201418E+02  0.25945004339E+02  0.47787266414E+02  0.19999978889E+02 0.  0.
        -12    1    1    2    0    0 -0.79170788099E+01  0.33879201418E+02 -0.25945004339E+02  0.43400733586E+02  0.00000000000E+00 0.  1.
         11    1    3    3    0    0  0.73987509621E+01 -0.24001467131E+02  0.21713735791E+02  0.33200877436E+02  0.51100000000E-03 0. -1.
        -11    1    3    3    0    0 -0.34454220802E+00  0.18970640845E+01 -0.27831930108E+00  0.19480819716E+01  0.51100000000E-03 0.  1.
         12    1    3    3    0    0  0.86287005580E+00 -0.11774798372E+02  0.45095878493E+01  0.12638307007E+02  0.00000000000E+00 0. -1.
</event>
<event>
 7    1  0.1019486E-010  0.4778727E+02  0.7816164E-02  0.1312668E+00
        -11   -1    0    0    0    0  0.00000000000E+00  0.00000000000E+00  0.45593999997E+02  0.45594000000E+02  0.51100000000E-03 0. -1.
         11   -1    0    0    0    0 -0.00000000000E+00 -0.00000000000E+00 -0.45593999997E+02  0.45594000000E+02  0.51100000000E-03 0.  1.
    9900012    2    1    2    0    0  0.15908331329E+02  0.14742390415E+02  0.37592694671E+02  0.47787265289E+02  0.19999973757E+02 0.  0.
        -12    1    1    2    0    0 -0.15908331329E+02 -0.14742390415E+02 -0.37592694671E+02  0.43400734711E+02  0.00000000000E+00 0.  1.
         11    1    3    3    0    0  0.11524459129E+02  0.35402629517E+01  0.62542824236E+01  0.13581703460E+02  0.51100000000E-03 0. -1.
        -11    1    3    3    0    0 -0.11670960325E+00  0.91459130918E+00  0.10447296712E+02  0.10487902900E+02  0.51100000000E-03 0.  1.
         12    1    3    3    0    0  0.45005818031E+01  0.10287536154E+02  0.20891115535E+02  0.23717658928E+02  0.00000000000E+00 0. -1.
</event>
<event>
 7    1  0.1019486E-010  0.4778727E+02  0.7816164E-02  0.1312668E+00
        -11   -1    0    0    0    0  0.00000000000E+00  0.00000000000E+00  0.45593999997E+02  0.45594000000E+02  0.51100000000E-03 0. -1.
         11   -1    0    0    0    0 -0.00000000000E+00 -0.00000000000E+00 -0.45593999997E+02  0.45594000000E+02  0.51100000000E-03 0.  1.
    9900012    2    1    2    0    0 -0.22268464424E+01 -0.16262993575E+02 -0.40176854338E+02  0.47787269251E+02  0.19999991823E+02 0.  0.
         12    1    1    2    0    0  0.22268464424E+01  0.16262993575E+02  0.40176854338E+02  0.43400730749E+02  0.00000000000E+00 0. -1.
         11    1    3    3    0    0 -0.33198213477E+01  0.31170785092E+01 -0.23381817109E+01  0.51190317627E+01  0.51100000000E-03 0. -1.
        -11    1    3    3    0    0 -0.11600559595E+01 -0.84161742715E+01 -0.17492910779E+02  0.19446841569E+02  0.51100000000E-03 0.  1.
         12    1    3    3    0    0  0.22530308648E+01 -0.10963897812E+02 -0.20345761847E+02  0.23221395920E+02  0.00000000000E+00 0. -1.
</event>
<event>
 7    1  0.1019486E-010  0.4778727E+02  0.7816164E-02  0.1312668E+00
        -11   -1    0    0    0    0  0.00000000000E+00  0.00000000000E+00  0.45593999997E+02  0.45594000000E+02  0.51100000000E-03 0. -1.
         11   -1    0    0    0    0 -0.00000000000E+00 -0.00000000000E+00 -0.45593999997E+02  0.45594000000E+02  0.51100000000E-03 0.  1.
    9900012    2    1    2    0    0  0.24403535558E+02  0.97643122422E+01 -0.34536197096E+02  0.47787271306E+02  0.20000001192E+02 0.  0.
         12    1    1    2    0    0 -0.24403535558E+02 -0.97643122422E+01  0.34536197096E+02  0.43400728694E+02  0.00000000000E+00 0. -1.
         11    1    3    3    0    0 -0.20587205843E+00  0.70853647954E-01  0.24138886636E+00  0.32507289920E+00  0.51100000000E-03 0. -1.
        -11    1    3    3    0    0  0.22674220096E+02  0.10988306484E+01 -0.19982508751E+02  0.30242822984E+02  0.51100000000E-03 0.  1.
        -12    1    3    3    0    0  0.19351875202E+01  0.85946279459E+01 -0.14795077212E+02  0.17219375423E+02  0.00000000000E+00 0.  1.
</event>
<event>
 7    1  0.1019486E-010  0.4778727E+02  0.7816164E-02  0.1312668E+00
        -11   -1    0    0    0    0  0.00000000000E+00  0.00000000000E+00  0.45593999997E+02  0.45594000000E+02  0.51100000000E-03 0. -1.
         11   -1    0    0    0    0 -0.00000000000E+00 -0.00000000000E+00 -0.45593999997E+02  0.45594000000E+02  0.51100000000E-03 0.  1.
    9900012    2    1    2    0    0  0.22599561939E+02 -0.32643299660E+02  0.17529918618E+02  0.47787271213E+02  0.20000000770E+02 0.  0.
        -12    1    1    2    0    0 -0.22599561939E+02  0.32643299660E+02 -0.17529918618E+02  0.43400728787E+02  0.00000000000E+00 0.  1.
         11    1    3    3    0    0  0.82187010401E+01 -0.13592980605E+02  0.11246016288E+02  0.19462503722E+02  0.51100000000E-03 0. -1.
        -11    1    3    3    0    0 -0.27348790666E+01 -0.15659338844E+01  0.69387573009E+00  0.32269453403E+01  0.51100000000E-03 0.  1.
        -12    1    3    3    0    0  0.17115739965E+02 -0.17484385170E+02  0.55900265992E+01  0.25097822151E+02  0.00000000000E+00 0.  1.
</event>
<event>
 7    1  0.1019486E-010  0.4778727E+02  0.7816164E-02  0.1312668E+00
        -11   -1    0    0    0    0  0.00000000000E+00  0.00000000000E+00  0.45593999997E+02  0.45594000000E+02  0.51100000000E-03 0. -1.
         11   -1    0    0    0    0 -0.00000000000E+00 -0.00000000000E+00 -0.45593999997E+02  0.45594000000E+02  0.51100000000E-03 0.  1.
    9900012    2    1    2    0    0 -0.15005526258E+02 -0.24595841633E+02 -0.32457690781E+02  0.47787274951E+02  0.20000017813E+02 0.  0.
         12    1    1    2    0    0  0.15005526258E+02  0.24595841633E+02  0.32457690781E+02  0.43400725049E+02  0.00000000000E+00 0. -1.
         11    1    3    3    0    0 -0.35739406851E+00 -0.10204855775E+02 -0.41518804340E+01  0.11022927166E+02  0.51100000000E-03 0. -1.
        -11    1    3    3    0    0 -0.13895107235E+02 -0.72540124385E+01 -0.15266716307E+02  0.21880752468E+02  0.51100000000E-03 0.  1.
        -12    1    3    3    0    0 -0.75302495479E+00 -0.71369734194E+01 -0.13039094040E+02  0.14883595317E+02  0.00000000000E+00 0.  1.
</event>
<event>
 7    1  0.1019486E-010  0.4778727E+02  0.7816164E-02  0.1312668E+00
        -11   -1    0    0    0    0  0.00000000000E+00  0.00000000000E+00  0.45593999997E+02  0.45594000000E+02  0.51100000000E-03 0. -1.
         11   -1    0    0    0    0 -0.00000000000E+00 -0.00000000000E+00 -0.45593999997E+02  0.45594000000E+02  0.51100000000E-03 0.  1.
    9900012    2    1    2    0    0 -0.58243251273E+01  0.25088272346E+02 -0.34932494191E+02  0.47787270479E+02  0.19999997423E+02 0.  0.
         12    1    1    2    0    0  0.58243251273E+01 -0.25088272346E+02  0.34932494191E+02  0.43400729521E+02  0.00000000000E+00 0. -1.
         11    1    3    3    0    0 -0.20389403160E+01  0.70977864435E+01  0.40363975271E+00  0.73958620404E+01  0.51100000000E-03 0. -1.
        -11    1    3    3    0    0  0.14318491302E+01  0.11797314614E+01 -0.22651371992E+01  0.29279352870E+01  0.51100000000E-03 0.  1.
         12    1    3    3    0    0 -0.52172339416E+01  0.16810754441E+02 -0.33070996745E+02  0.37463473152E+02  0.00000000000E+00 0. -1.
</event>
<event>
 7    1  0.1019486E-010  0.4778727E+02  0.7816164E-02  0.1312668E+00
        -11   -1    0    0    0    0  0.00000000000E+00  0.00000000000E+00  0.45593999997E+02  0.45594000000E+02  0.51100000000E-03 0.  1.
         11   -1    0    0    0    0 -0.00000000000E+00 -0.00000000000E+00 -0.45593999997E+02  0.45594000000E+02  0.51100000000E-03 0. -1.
    9900012    2    1    2    0    0 -0.20923061238E+02  0.72867318747E+01 -0.37319595551E+02  0.47787272298E+02  0.20000005714E+02 0.  0.
         12    1    1    2    0    0  0.20923061238E+02 -0.72867318747E+01  0.37319595551E+02  0.43400727702E+02  0.00000000000E+00 0. -1.
         11    1    3    3    0    0  0.83351447561E+00  0.30177340198E+00 -0.12086023954E+01  0.14988440808E+01  0.51100000000E-03 0. -1.
        -11    1    3    3    0    0 -0.15757267401E+02  0.12528877742E+02 -0.29815254489E+02  0.35975181083E+02  0.51100000000E-03 0.  1.
        -12    1    3    3    0    0 -0.59993083129E+01 -0.55439192691E+01 -0.62957386665E+01  0.10313247134E+02  0.00000000000E+00 0.  1.
</event>
<event>
 7    1  0.1019486E-010  0.4778726E+02  0.7816164E-02  0.1312668E+00
        -11   -1    0    0    0    0  0.00000000000E+00  0.00000000000E+00  0.45593999997E+02  0.45594000000E+02  0.51100000000E-03 0. -1.
         11   -1    0    0    0    0 -0.00000000000E+00 -0.00000000000E+00 -0.45593999997E+02  0.45594000000E+02  0.51100000000E-03 0.  1.
    9900012    2    1    2    0    0  0.14285150426E+02  0.23373592080E+01  0.40915708114E+02  0.47787263356E+02  0.19999964944E+02 0.  0.
        -12    1    1    2    0    0 -0.14285150426E+02 -0.23373592080E+01 -0.40915708114E+02  0.43400736644E+02  0.00000000000E+00 0.  1.
         11    1    3    3    0    0  0.80750315337E+01  0.68483850242E+01  0.17310811456E+02  0.20292134073E+02  0.51100000000E-03 0. -1.
        -11    1    3    3    0    0 -0.28105975043E+01 -0.37872243443E+01  0.11088856508E+02  0.12050114750E+02  0.51100000000E-03 0.  1.
         12    1    3    3    0    0  0.90207163964E+01 -0.72380147197E+00  0.12516040150E+02  0.15445014533E+02  0.00000000000E+00 0. -1.
</event>
<event>
 7    1  0.1019486E-010  0.4778727E+02  0.7816164E-02  0.1312668E+00
        -11   -1    0    0    0    0  0.00000000000E+00  0.00000000000E+00  0.45593999997E+02  0.45594000000E+02  0.51100000000E-03 0. -1.
         11   -1    0    0    0    0 -0.00000000000E+00 -0.00000000000E+00 -0.45593999997E+02  0.45594000000E+02  0.51100000000E-03 0.  1.
    9900012    2    1    2    0    0  0.26392075054E+02  0.14257133030E+01  0.34424544766E+02  0.47787267674E+02  0.19999984633E+02 0.  0.
        -12    1    1    2    0    0 -0.26392075054E+02 -0.14257133030E+01 -0.34424544766E+02  0.43400732326E+02  0.00000000000E+00 0.  1.
         11    1    3    3    0    0  0.12243199890E+02  0.23157269734E+01  0.71932829219E+01  0.14387559015E+02  0.51100000000E-03 0. -1.
        -11    1    3    3    0    0  0.71982408101E+01  0.27954763867E+01  0.23415436610E+02  0.24655872138E+02  0.51100000000E-03 0.  1.
        -12    1    3    3    0    0  0.69506343546E+01 -0.36854900571E+01  0.38158252337E+01  0.87438365210E+01  0.00000000000E+00 0.  1.
</event>
<event>
 7    1  0.1019486E-010  0.4778727E+02  0.7816164E-02  0.1312668E+00
        -11   -1    0    0    0    0  0.00000000000E+00  0.00000000000E+00  0.45593999997E+02  0.45594000000E+02  0.51100000000E-03 0. -1.
         11   -1    0    0    0    0 -0.00000000000E+00 -0.00000000000E+00 -0.45593999997E+02  0.45594000000E+02  0.51100000000E-03 0.  1.
    9900012    2    1    2    0    0  0.22843962874E+02  0.32907493940E+01  0.36755240888E+02  0.47787269544E+02  0.19999993161E+02 0.  0.
        -12    1    1    2    0    0 -0.22843962874E+02 -0.32907493940E+01 -0.36755240888E+02  0.43400730456E+02  0.00000000000E+00 0.  1.
         11    1    3    3    0    0  0.18885136452E+02  0.75989631737E+01  0.31297707846E+02  0.37335494329E+02  0.51100000000E-03 0. -1.
        -11    1    3    3    0    0  0.51216981740E+01 -0.46921198911E+01  0.27324621447E+01  0.74641899019E+01  0.51100000000E-03 0.  1.
         12    1    3    3    0    0 -0.11628717513E+01  0.38390611144E+00  0.27250708973E+01  0.29875853138E+01  0.00000000000E+00 0. -1.
</event>
<event>
 7    1  0.1019486E-010  0.4778728E+02  0.7816164E-02  0.1312668E+00
        -11   -1    0    0    0    0  0.00000000000E+00  0.00000000000E+00  0.45593999997E+02  0.45594000000E+02  0.51100000000E-03 0. -1.
         11   -1    0    0    0    0 -0.00000000000E+00 -0.00000000000E+00 -0.45593999997E+02  0.45594000000E+02  0.51100000000E-03 0.  1.
    9900012    2    1    2    0    0  0.63248967607E+01  0.58736635246E+01 -0.42533735612E+02  0.47787275267E+02  0.20000019252E+02 0.  0.
         12    1    1    2    0    0 -0.63248967607E+01 -0.58736635246E+01  0.42533735612E+02  0.43400724733E+02  0.00000000000E+00 0. -1.
         11    1    3    3    0    0  0.21186702275E+01  0.21424191706E+01 -0.31085577765E+02  0.31231264282E+02  0.51100000000E-03 0. -1.
        -11    1    3    3    0    0 -0.18058025065E+01  0.29771449149E+01 -0.96143330205E+01  0.10225444451E+02  0.51100000000E-03 0.  1.
         12    1    3    3    0    0  0.60120290397E+01  0.75409943911E+00 -0.18338248266E+01  0.63305665333E+01  0.00000000000E+00 0. -1.
</event>
<event>
 7    1  0.1019486E-010  0.4778727E+02  0.7816164E-02  0.1312668E+00
        -11   -1    0    0    0    0  0.00000000000E+00  0.00000000000E+00  0.45593999997E+02  0.45594000000E+02  0.51100000000E-03 0. -1.
         11   -1    0    0    0    0 -0.00000000000E+00 -0.00000000000E+00 -0.45593999997E+02  0.45594000000E+02  0.51100000000E-03 0.  1.
    9900012    2    1    2    0    0 -0.30193030421E+02  0.29057222730E+01 -0.31041279469E+02  0.47787270294E+02  0.19999996577E+02 0.  0.
         12    1    1    2    0    0  0.30193030421E+02 -0.29057222730E+01  0.31041279469E+02  0.43400729706E+02  0.00000000000E+00 0. -1.
         11    1    3    3    0    0 -0.48958560540E+01  0.19240817401E+01 -0.13646778292E+01  0.54345048425E+01  0.51100000000E-03 0. -1.
        -11    1    3    3    0    0 -0.19391905653E+02  0.21380881703E+01 -0.10296196211E+02  0.22059670953E+02  0.51100000000E-03 0.  1.
        -12    1    3    3    0    0 -0.59052687145E+01 -0.11564476374E+01 -0.19380405429E+02  0.20293094498E+02  0.00000000000E+00 0.  1.
</event>
<event>
 7    1  0.1019486E-010  0.4778727E+02  0.7816164E-02  0.1312668E+00
        -11   -1    0    0    0    0  0.00000000000E+00  0.00000000000E+00  0.45593999997E+02  0.45594000000E+02  0.51100000000E-03 0.  1.
         11   -1    0    0    0    0 -0.00000000000E+00 -0.00000000000E+00 -0.45593999997E+02  0.45594000000E+02  0.51100000000E-03 0. -1.
    9900012    2    1    2    0    0 -0.21131220594E+02  0.31732581381E+02 -0.20739767081E+02  0.47787272547E+02  0.20000006852E+02 0.  0.
         12    1    1    2    0    0  0.21131220594E+02 -0.31732581381E+02  0.20739767081E+02  0.43400727453E+02  0.00000000000E+00 0. -1.
         11    1    3    3    0    0 -0.17826006654E+02  0.99553383627E+01 -0.81752094476E+01  0.21993392756E+02  0.51100000000E-03 0. -1.
        -11    1    3    3    0    0 -0.28647423033E+01  0.12916703591E+02 -0.99205214840E+01  0.16536768938E+02  0.51100000000E-03 0.  1.
         12    1    3    3    0    0 -0.44047163654E+00  0.88605394269E+01 -0.26440361497E+01  0.92571108537E+01  0.00000000000E+00 0. -1.
</event>
<event>
 7    1  0.1019486E-010  0.4778727E+02  0.7816164E-02  0.1312668E+00
        -11   -1    0    0    0    0  0.00000000000E+00  0.00000000000E+00  0.45593999997E+02  0.45594000000E+02  0.51100000000E-03 0. -1.
         11   -1    0    0    0    0 -0.00000000000E+00 -0.00000000000E+00 -0.45593999997E+02  0.45594000000E+02  0.51100000000E-03 0.  1.
    9900012    2    1    2    0    0 -0.18725904272E+02  0.28539219898E+02  0.26804413855E+02  0.47787272295E+02  0.20000005701E+02 0.  0.
        -12    1    1    2    0    0  0.18725904272E+02 -0.28539219898E+02 -0.26804413855E+02  0.43400727705E+02  0.00000000000E+00 0.  1.
         11    1    3    3    0    0 -0.46061547616E+00  0.15047911354E+02  0.13474977821E+02  0.20204623982E+02  0.51100000000E-03 0. -1.
        -11    1    3    3    0    0 -0.37535456204E+01  0.73396890703E+01  0.31803444628E+01  0.88359906936E+01  0.51100000000E-03 0.  1.
         12    1    3    3    0    0 -0.14511743176E+02  0.61516194740E+01  0.10149091571E+02  0.18746657619E+02  0.00000000000E+00 0. -1.
</event>
<event>
 7    1  0.1019486E-010  0.4778727E+02  0.7816164E-02  0.1312668E+00
        -11   -1    0    0    0    0  0.00000000000E+00  0.00000000000E+00  0.45593999997E+02  0.45594000000E+02  0.51100000000E-03 0.  1.
         11   -1    0    0    0    0 -0.00000000000E+00 -0.00000000000E+00 -0.45593999997E+02  0.45594000000E+02  0.51100000000E-03 0. -1.
    9900012    2    1    2    0    0  0.18739483739E+02 -0.24351303947E+02  0.30650763806E+02  0.47787267556E+02  0.19999984095E+02 0.  0.
        -12    1    1    2    0    0 -0.18739483739E+02  0.24351303947E+02 -0.30650763806E+02  0.43400732444E+02  0.00000000000E+00 0.  1.
         11    1    3    3    0    0  0.10734762388E+02 -0.19652744317E+02  0.15884847301E+02  0.27455306532E+02  0.51100000000E-03 0. -1.
        -11    1    3    3    0    0  0.56899245994E+01  0.45241133471E+00  0.14814367774E+01  0.58969969603E+01  0.51100000000E-03 0.  1.
        -12    1    3    3    0    0  0.23147967517E+01 -0.51509709655E+01  0.13284479728E+02  0.14434964064E+02  0.00000000000E+00 0.  1.
</event>
<event>
 7    1  0.1019486E-010  0.4778727E+02  0.7816164E-02  0.1312668E+00
        -11   -1    0    0    0    0  0.00000000000E+00  0.00000000000E+00  0.45593999997E+02  0.45594000000E+02  0.51100000000E-03 0. -1.
         11   -1    0    0    0    0 -0.00000000000E+00 -0.00000000000E+00 -0.45593999997E+02  0.45594000000E+02  0.51100000000E-03 0.  1.
    9900012    2    1    2    0    0  0.11473235579E+02 -0.26982842167E+02  0.31998667233E+02  0.47787267163E+02  0.19999982305E+02 0.  0.
        -12    1    1    2    0    0 -0.11473235579E+02  0.26982842167E+02 -0.31998667233E+02  0.43400732837E+02  0.00000000000E+00 0.  1.
         11    1    3    3    0    0 -0.26075496364E+01 -0.11785615375E+02  0.20619370550E+02  0.23892645040E+02  0.51100000000E-03 0. -1.
        -11    1    3    3    0    0  0.11849347250E+02 -0.10595536699E+02  0.87187270535E+01  0.18129771920E+02  0.51100000000E-03 0.  1.
         12    1    3    3    0    0  0.22314379656E+01 -0.46016900936E+01  0.26605696295E+01  0.57648502032E+01  0.00000000000E+00 0. -1.
</event>
<event>
 7    1  0.1019486E-010  0.4778727E+02  0.7816164E-02  0.1312668E+00
        -11   -1    0    0    0    0  0.00000000000E+00  0.00000000000E+00  0.45593999997E+02  0.45594000000E+02  0.51100000000E-03 0. -1.
         11   -1    0    0    0    0 -0.00000000000E+00 -0.00000000000E+00 -0.45593999997E+02  0.45594000000E+02  0.51100000000E-03 0.  1.
    9900012    2    1    2    0    0 -0.38336146316E+02  0.18816096558E+02  0.77406541594E+01  0.47787270388E+02  0.19999997007E+02 0.  0.
        -12    1    1    2    0    0  0.38336146316E+02 -0.18816096558E+02 -0.77406541594E+01  0.43400729612E+02  0.00000000000E+00 0.  1.
         11    1    3    3    0    0 -0.21244691088E+02  0.11690520678E+02  0.66263791425E+01  0.25137901144E+02  0.51100000000E-03 0. -1.
        -11    1    3    3    0    0 -0.57683968380E+00  0.51547343307E+01 -0.22946473007E+01  0.56718106930E+01  0.51100000000E-03 0.  1.
        -12    1    3    3    0    0 -0.16514615544E+02  0.19708415499E+01  0.34089223176E+01  0.16977558551E+02  0.00000000000E+00 0.  1.
</event>
<event>
 7    1  0.1019486E-010  0.4778727E+02  0.7816164E-02  0.1312668E+00
        -11   -1    0    0    0    0  0.00000000000E+00  0.00000000000E+00  0.45593999997E+02  0.45594000000E+02  0.51100000000E-03 0. -1.
         11   -1    0    0    0    0 -0.00000000000E+00 -0.00000000000E+00 -0.45593999997E+02  0.45594000000E+02  0.51100000000E-03 0.  1.
    9900012    2    1    2    0    0 -0.34770786890E+02 -0.25788395093E+02  0.30942344223E+01  0.47787271560E+02  0.20000002350E+02 0.  0.
        -12    1    1    2    0    0  0.34770786890E+02  0.25788395093E+02 -0.30942344223E+01  0.43400728440E+02  0.00000000000E+00 0.  1.
         11    1    3    3    0    0 -0.16875505546E+02 -0.82926570818E+01 -0.68401571380E+01  0.20008463181E+02  0.51100000000E-03 0. -1.
        -11    1    3    3    0    0 -0.12486692515E+02 -0.97547661908E+01  0.91633737101E+01  0.18304108047E+02  0.51100000000E-03 0.  1.
        -12    1    3    3    0    0 -0.54085888297E+01 -0.77409718207E+01  0.77101785021E+00  0.94747003321E+01  0.00000000000E+00 0.  1.
</event>
<event>
 7    1  0.1019486E-010  0.4778727E+02  0.7816164E-02  0.1312668E+00
        -11   -1    0    0    0    0  0.00000000000E+00  0.00000000000E+00  0.45593999997E+02  0.45594000000E+02  0.51100000000E-03 0. -1.
         11   -1    0    0    0    0 -0.00000000000E+00 -0.00000000000E+00 -0.45593999997E+02  0.45594000000E+02  0.51100000000E-03 0.  1.
    9900012    2    1    2    0    0  0.25754457899E+02  0.16348112317E+02  0.30871834067E+02  0.47787274008E+02  0.20000013510E+02 0.  0.
        -12    1    1    2    0    0 -0.25754457899E+02 -0.16348112317E+02 -0.30871834067E+02  0.43400725992E+02  0.00000000000E+00 0.  1.
         11    1    3    3    0    0  0.13250906939E+02  0.81496603475E+01  0.99186707234E+01  0.18449485837E+02  0.51100000000E-03 0. -1.
        -11    1    3    3    0    0  0.11537493845E+02  0.65841900934E+01  0.22998218754E+02  0.26559054756E+02  0.51100000000E-03 0.  1.
        -12    1    3    3    0    0  0.96605711488E+00  0.16142618759E+01 -0.20450554106E+01  0.27787334139E+01  0.00000000000E+00 0.  1.
</event>
<event>
 7    1  0.1019486E-010  0.4778727E+02  0.7816164E-02  0.1312668E+00
        -11   -1    0    0    0    0  0.00000000000E+00  0.00000000000E+00  0.45593999997E+02  0.45594000000E+02  0.51100000000E-03 0. -1.
         11   -1    0    0    0    0 -0.00000000000E+00 -0.00000000000E+00 -0.45593999997E+02  0.45594000000E+02  0.51100000000E-03 0.  1.
    9900012    2    1    2    0    0  0.28626211684E+02 -0.30198212146E+01  0.32481439731E+02  0.47787271405E+02  0.20000001644E+02 0.  0.
        -12    1    1    2    0    0 -0.28626211684E+02  0.30198212146E+01 -0.32481439731E+02  0.43400728595E+02  0.00000000000E+00 0.  1.
         11    1    3    3    0    0  0.13632908690E+02 -0.26977069832E+01  0.52340020425E+01  0.14850205385E+02  0.51100000000E-03 0. -1.
        -11    1    3    3    0    0  0.93499519459E+00 -0.93660130251E+00  0.12438468547E+02  0.12508674512E+02  0.51100000000E-03 0.  1.
        -12    1    3    3    0    0  0.14058307800E+02  0.61448707116E+00  0.14808969142E+02  0.20428391508E+02  0.00000000000E+00 0.  1.
</event>
<event>
 7    1  0.1019486E-010  0.4778727E+02  0.7816164E-02  0.1312668E+00
        -11   -1    0    0    0    0  0.00000000000E+00  0.00000000000E+00  0.45593999997E+02  0.45594000000E+02  0.51100000000E-03 0. -1.
         11   -1    0    0    0    0 -0.00000000000E+00 -0.00000000000E+00 -0.45593999997E+02  0.45594000000E+02  0.51100000000E-03 0.  1.
    9900012    2    1    2    0    0 -0.33665072940E+02  0.72447517170E+01  0.26415897432E+02  0.47787271888E+02  0.20000003848E+02 0.  0.
        -12    1    1    2    0    0  0.33665072940E+02 -0.72447517170E+01 -0.26415897432E+02  0.43400728112E+02  0.00000000000E+00 0.  1.
         11    1    3    3    0    0 -0.39720937673E+01  0.55341718671E+01  0.94935137748E+01  0.11684664788E+02  0.51100000000E-03 0.  1.
        -11    1    3    3    0    0 -0.13897441129E+02 -0.49435782406E+01  0.77278006823E+01  0.16652229262E+02  0.51100000000E-03 0. -1.
         12    1    3    3    0    0 -0.15795538043E+02  0.66541580905E+01  0.91945829749E+01  0.19450377838E+02  0.00000000000E+00 0. -1.
</event>
<event>
 7    1  0.1019486E-010  0.4778727E+02  0.7816164E-02  0.1312668E+00
        -11   -1    0    0    0    0  0.00000000000E+00  0.00000000000E+00  0.45593999997E+02  0.45594000000E+02  0.51100000000E-03 0.  1.
         11   -1    0    0    0    0 -0.00000000000E+00 -0.00000000000E+00 -0.45593999997E+02  0.45594000000E+02  0.51100000000E-03 0. -1.
    9900012    2    1    2    0    0  0.14341251325E+02  0.36086444239E+02 -0.19383500959E+02  0.47787273545E+02  0.20000011403E+02 0.  0.
        -12    1    1    2    0    0 -0.14341251325E+02 -0.36086444239E+02  0.19383500959E+02  0.43400726455E+02  0.00000000000E+00 0.  1.
         11    1    3    3    0    0  0.80811380433E+01  0.28260626312E+02 -0.13113614679E+02  0.32185939194E+02  0.51100000000E-03 0.  1.
        -11    1    3    3    0    0  0.52706968165E+01  0.35260505889E+01 -0.85419716827E+01  0.10638541168E+02  0.51100000000E-03 0. -1.
        -12    1    3    3    0    0  0.98941646553E+00  0.42997673379E+01  0.22720854029E+01  0.49627931834E+01  0.00000000000E+00 0.  1.
</event>
<event>
 7    1  0.1019486E-010  0.4778727E+02  0.7816164E-02  0.1312668E+00
        -11   -1    0    0    0    0  0.00000000000E+00  0.00000000000E+00  0.45593999997E+02  0.45594000000E+02  0.51100000000E-03 0. -1.
         11   -1    0    0    0    0 -0.00000000000E+00 -0.00000000000E+00 -0.45593999997E+02  0.45594000000E+02  0.51100000000E-03 0.  1.
    9900012    2    1    2    0    0  0.27100634874E+02  0.11703074140E+02  0.31815352515E+02  0.47787274078E+02  0.20000013833E+02 0.  0.
        -12    1    1    2    0    0 -0.27100634874E+02 -0.11703074140E+02 -0.31815352515E+02  0.43400725922E+02  0.00000000000E+00 0.  1.
         11    1    3    3    0    0  0.21062505082E+02  0.11516281344E+01  0.15339888689E+02  0.26081939210E+02  0.51100000000E-03 0. -1.
        -11    1    3    3    0    0  0.54084592208E+01  0.75449580346E+01  0.66725843324E+01  0.11432462763E+02  0.51100000000E-03 0.  1.
         12    1    3    3    0    0  0.62967057121E+00  0.30064879708E+01  0.98028794930E+01  0.10272872106E+02  0.00000000000E+00 0. -1.
</event>
<event>
 7    1  0.1019486E-010  0.4778727E+02  0.7816164E-02  0.1312668E+00
        -11   -1    0    0    0    0  0.00000000000E+00  0.00000000000E+00  0.45593999997E+02  0.45594000000E+02  0.51100000000E-03 0. -1.
         11   -1    0    0    0    0 -0.00000000000E+00 -0.00000000000E+00 -0.45593999997E+02  0.45594000000E+02  0.51100000000E-03 0.  1.
    9900012    2    1    2    0    0 -0.16559439559E+02 -0.11824096263E+02 -0.38335348924E+02  0.47787271112E+02  0.20000000306E+02 0.  0.
         12    1    1    2    0    0  0.16559439559E+02  0.11824096263E+02  0.38335348924E+02  0.43400728888E+02  0.00000000000E+00 0. -1.
         11    1    3    3    0    0 -0.90814600955E+01 -0.12835389321E+02 -0.17316666824E+02  0.23389892831E+02  0.51100000000E-03 0. -1.
        -11    1    3    3    0    0 -0.47697996929E+01  0.53852992127E+01 -0.11172903603E+02  0.13288574487E+02  0.51100000000E-03 0.  1.
        -12    1    3    3    0    0 -0.27081797705E+01 -0.43740061549E+01 -0.98457784970E+01  0.11108803794E+02  0.00000000000E+00 0.  1.
</event>
<event>
 7    1  0.1019486E-010  0.4778727E+02  0.7816164E-02  0.1312668E+00
        -11   -1    0    0    0    0  0.00000000000E+00  0.00000000000E+00  0.45593999997E+02  0.45594000000E+02  0.51100000000E-03 0. -1.
         11   -1    0    0    0    0 -0.00000000000E+00 -0.00000000000E+00 -0.45593999997E+02  0.45594000000E+02  0.51100000000E-03 0.  1.
    9900012    2    1    2    0    0 -0.26445216885E+02  0.26435141377E+02  0.22033091765E+02  0.47787270416E+02  0.19999997136E+02 0.  0.
        -12    1    1    2    0    0  0.26445216885E+02 -0.26435141377E+02 -0.22033091765E+02  0.43400729584E+02  0.00000000000E+00 0.  1.
         11    1    3    3    0    0 -0.17401886573E+01  0.12864067090E+02  0.69172898991E+01  0.14709227664E+02  0.51100000000E-03 0. -1.
        -11    1    3    3    0    0 -0.41838186337E+01  0.37442993705E+01 -0.25421299553E+00  0.56203861651E+01  0.51100000000E-03 0.  1.
         12    1    3    3    0    0 -0.20521209594E+02  0.98267749163E+01  0.15370014861E+02  0.27457656588E+02  0.00000000000E+00 0. -1.
</event>
<event>
 7    1  0.1019486E-010  0.4778727E+02  0.7816164E-02  0.1312668E+00
        -11   -1    0    0    0    0  0.00000000000E+00  0.00000000000E+00  0.45593999997E+02  0.45594000000E+02  0.51100000000E-03 0. -1.
         11   -1    0    0    0    0 -0.00000000000E+00 -0.00000000000E+00 -0.45593999997E+02  0.45594000000E+02  0.51100000000E-03 0.  1.
    9900012    2    1    2    0    0 -0.24776277733E+02  0.35901139243E+01  0.35452367614E+02  0.47787271599E+02  0.20000002528E+02 0.  0.
        -12    1    1    2    0    0  0.24776277733E+02 -0.35901139243E+01 -0.35452367614E+02  0.43400728401E+02  0.00000000000E+00 0.  1.
         11    1    3    3    0    0 -0.42371011785E+01 -0.21491807933E+01  0.14403500912E+01  0.49645355398E+01  0.51100000000E-03 0. -1.
        -11    1    3    3    0    0  0.10269057163E+01  0.11226787583E+01 -0.71746586689E+00  0.16821713575E+01  0.51100000000E-03 0.  1.
         12    1    3    3    0    0 -0.21566082271E+02  0.46166159594E+01  0.34729483390E+02  0.41140564702E+02  0.00000000000E+00 0. -1.
</event>
<event>
 7    1  0.1019486E-010  0.4778728E+02  0.7816164E-02  0.1312668E+00
        -11   -1    0    0    0    0  0.00000000000E+00  0.00000000000E+00  0.45593999997E+02  0.45594000000E+02  0.51100000000E-03 0. -1.
         11   -1    0    0    0    0 -0.00000000000E+00 -0.00000000000E+00 -0.45593999997E+02  0.45594000000E+02  0.51100000000E-03 0.  1.
    9900012    2    1    2    0    0  0.18732488615E+02  0.10089674141E+02  0.37827429459E+02  0.47787284874E+02  0.20000063054E+02 0.  0.
        -12    1    1    2    0    0 -0.18732488615E+02 -0.10089674141E+02 -0.37827429459E+02  0.43400715126E+02  0.00000000000E+00 0.  1.
         11    1    3    3    0    0  0.55186620470E+01 -0.10226820711E+01  0.68326060363E+01  0.88422856161E+01  0.51100000000E-03 0. -1.
        -11    1    3    3    0    0  0.11267185575E+02  0.10726837514E+02  0.11491220460E+02  0.19340699619E+02  0.51100000000E-03 0.  1.
        -12    1    3    3    0    0  0.19466409933E+01  0.38551869810E+00  0.19503602962E+02  0.19604299639E+02  0.00000000000E+00 0.  1.
</event>
<event>
 7    1  0.1019486E-010  0.4778727E+02  0.7816164E-02  0.1312668E+00
        -11   -1    0    0    0    0  0.00000000000E+00  0.00000000000E+00  0.45593999997E+02  0.45594000000E+02  0.51100000000E-03 0. -1.
         11   -1    0    0    0    0 -0.00000000000E+00 -0.00000000000E+00 -0.45593999997E+02  0.45594000000E+02  0.51100000000E-03 0.  1.
    9900012    2    1    2    0    0 -0.17015682512E+02 -0.14171302765E+02 -0.37326453260E+02  0.47787269749E+02  0.19999994093E+02 0.  0.
         12    1    1    2    0    0  0.17015682512E+02  0.14171302765E+02  0.37326453260E+02  0.43400730251E+02  0.00000000000E+00 0. -1.
         11    1    3    3    0    0  0.21187966559E+01 -0.85944422333E+01 -0.64467396289E+01  0.10950533716E+02  0.51100000000E-03 0. -1.
        -11    1    3    3    0    0 -0.96156449350E+01 -0.29221164481E+01 -0.13301865494E+02  0.16671503170E+02  0.51100000000E-03 0.  1.
         12    1    3    3    0    0 -0.95188342325E+01 -0.26547440834E+01 -0.17577848137E+02  0.20165232863E+02  0.00000000000E+00 0. -1.
</event>
<event>
 7    1  0.1019486E-010  0.4778727E+02  0.7816164E-02  0.1312668E+00
        -11   -1    0    0    0    0  0.00000000000E+00  0.00000000000E+00  0.45593999997E+02  0.45594000000E+02  0.51100000000E-03 0. -1.
         11   -1    0    0    0    0 -0.00000000000E+00 -0.00000000000E+00 -0.45593999997E+02  0.45594000000E+02  0.51100000000E-03 0.  1.
    9900012    2    1    2    0    0 -0.22995652038E+01  0.24682596213E+02 -0.35624500378E+02  0.47787267482E+02  0.19999983757E+02 0.  0.
         12    1    1    2    0    0  0.22995652038E+01 -0.24682596213E+02  0.35624500378E+02  0.43400732518E+02  0.00000000000E+00 0. -1.
         11    1    3    3    0    0 -0.73015211815E+01  0.75827597587E+01 -0.23080084908E+02  0.25367317098E+02  0.51100000000E-03 0. -1.
        -11    1    3    3    0    0  0.37188096509E+01  0.11988027018E+02 -0.11548897489E+02  0.17056358652E+02  0.51100000000E-03 0.  1.
         12    1    3    3    0    0  0.12831463268E+01  0.51118094367E+01 -0.99551797981E+00  0.53635917314E+01  0.00000000000E+00 0. -1.
</event>
<event>
 7    1  0.1019486E-010  0.4778727E+02  0.7816164E-02  0.1312668E+00
        -11   -1    0    0    0    0  0.00000000000E+00  0.00000000000E+00  0.45593999997E+02  0.45594000000E+02  0.51100000000E-03 0. -1.
         11   -1    0    0    0    0 -0.00000000000E+00 -0.00000000000E+00 -0.45593999997E+02  0.45594000000E+02  0.51100000000E-03 0.  1.
    9900012    2    1    2    0    0 -0.97607518416E+01  0.14458383394E+02  0.39740481375E+02  0.47787274352E+02  0.20000015080E+02 0.  0.
        -12    1    1    2    0    0  0.97607518416E+01 -0.14458383394E+02 -0.39740481375E+02  0.43400725648E+02  0.00000000000E+00 0.  1.
         11    1    3    3    0    0  0.92673625164E+00  0.48820450372E+01  0.25342155680E+02  0.25824756699E+02  0.51100000000E-03 0. -1.
        -11    1    3    3    0    0 -0.48328238010E+01  0.38853639602E+01  0.10125276124E+01  0.62831084203E+01  0.51100000000E-03 0.  1.
         12    1    3    3    0    0 -0.58546642922E+01  0.56909743970E+01  0.13385798083E+02  0.15679409232E+02  0.00000000000E+00 0. -1.
</event>
<event>
 7    1  0.1019486E-010  0.4778728E+02  0.7816164E-02  0.1312668E+00
        -11   -1    0    0    0    0  0.00000000000E+00  0.00000000000E+00  0.45593999997E+02  0.45594000000E+02  0.51100000000E-03 0. -1.
         11   -1    0    0    0    0 -0.00000000000E+00 -0.00000000000E+00 -0.45593999997E+02  0.45594000000E+02  0.51100000000E-03 0.  1.
    9900012    2    1    2    0    0 -0.33056115402E+02  0.11356761836E+02 -0.25728196552E+02  0.47787275321E+02  0.20000019497E+02 0.  0.
         12    1    1    2    0    0  0.33056115402E+02 -0.11356761836E+02  0.25728196552E+02  0.43400724679E+02  0.00000000000E+00 0. -1.
         11    1    3    3    0    0 -0.18814882530E+02  0.30985287365E+01 -0.39684487081E+01  0.19476890675E+02  0.51100000000E-03 0. -1.
        -11    1    3    3    0    0 -0.31538937049E+00  0.29226817993E+01 -0.55752132339E+01  0.63027408497E+01  0.51100000000E-03 0.  1.
         12    1    3    3    0    0 -0.13925843502E+02  0.53355512999E+01 -0.16184534610E+02  0.22007643796E+02  0.00000000000E+00 0. -1.
</event>
<event>
 7    1  0.1019486E-010  0.4778727E+02  0.7816164E-02  0.1312668E+00
        -11   -1    0    0    0    0  0.00000000000E+00  0.00000000000E+00  0.45593999997E+02  0.45594000000E+02  0.51100000000E-03 0. -1.
         11   -1    0    0    0    0 -0.00000000000E+00 -0.00000000000E+00 -0.45593999997E+02  0.45594000000E+02  0.51100000000E-03 0.  1.
    9900012    2    1    2    0    0  0.30822344903E+02  0.48252112674E+01  0.30171569821E+02  0.47787271497E+02  0.20000002063E+02 0.  0.
        -12    1    1    2    0    0 -0.30822344903E+02 -0.48252112674E+01 -0.30171569821E+02  0.43400728503E+02  0.00000000000E+00 0.  1.
         11    1    3    3    0    0  0.66691301512E+01  0.14024845731E+00  0.75131054817E+01  0.10047075238E+02  0.51100000000E-03 0.  1.
        -11    1    3    3    0    0  0.22660562142E+02  0.25593342251E+01  0.25282644493E+02  0.34047957077E+02  0.51100000000E-03 0. -1.
        -12    1    3    3    0    0  0.14926526102E+01  0.21256285850E+01 -0.26241801538E+01  0.36922391819E+01  0.00000000000E+00 0.  1.
</event>
<event>
 7    1  0.1019486E-010  0.4778722E+02  0.7816164E-02  0.1312668E+00
        -11   -1    0    0    0    0  0.00000000000E+00  0.00000000000E+00  0.45593999997E+02  0.45594000000E+02  0.51100000000E-03 0.  1.
         11   -1    0    0    0    0 -0.00000000000E+00 -0.00000000000E+00 -0.45593999997E+02  0.45594000000E+02  0.51100000000E-03 0. -1.
    9900012    2    1    2    0    0  0.15531507307E+01 -0.39199283732E+02  0.18564260947E+02  0.47787217670E+02  0.19999756644E+02 0.  0.
        -12    1    1    2    0    0 -0.15531507307E+01  0.39199283732E+02 -0.18564260947E+02  0.43400782330E+02  0.00000000000E+00 0.  1.
         11    1    3    3    0    0 -0.27835936349E+00 -0.22551130247E+02  0.31009185475E+01  0.22765031418E+02  0.51100000000E-03 0. -1.
        -11    1    3    3    0    0  0.56819566403E+01 -0.89439949163E+01  0.11178042770E+02  0.15402217917E+02  0.51100000000E-03 0.  1.
        -12    1    3    3    0    0 -0.38504465462E+01 -0.77041585686E+01  0.42852996293E+01  0.96199683350E+01  0.00000000000E+00 0.  1.
</event>
<event>
 7    1  0.1019486E-010  0.4778726E+02  0.7816164E-02  0.1312668E+00
        -11   -1    0    0    0    0  0.00000000000E+00  0.00000000000E+00  0.45593999997E+02  0.45594000000E+02  0.51100000000E-03 0. -1.
         11   -1    0    0    0    0 -0.00000000000E+00 -0.00000000000E+00 -0.45593999997E+02  0.45594000000E+02  0.51100000000E-03 0.  1.
    9900012    2    1    2    0    0 -0.92976417977E+01 -0.23509720031E+02 -0.35277057199E+02  0.47787264482E+02  0.19999970079E+02 0.  0.
         12    1    1    2    0    0  0.92976417977E+01  0.23509720031E+02  0.35277057199E+02  0.43400735518E+02  0.00000000000E+00 0. -1.
         11    1    3    3    0    0 -0.17269403313E+01 -0.17539413733E+01 -0.74113376163E+00  0.25705860737E+01  0.51100000000E-03 0. -1.
        -11    1    3    3    0    0 -0.35528996471E+01 -0.35491279209E+01  0.96851573511E+00  0.51144332914E+01  0.51100000000E-03 0.  1.
        -12    1    3    3    0    0 -0.40178018194E+01 -0.18206650736E+02 -0.35504439172E+02  0.40102245117E+02  0.00000000000E+00 0.  1.
</event>
<event>
 7    1  0.1019486E-010  0.4778728E+02  0.7816164E-02  0.1312668E+00
        -11   -1    0    0    0    0  0.00000000000E+00  0.00000000000E+00  0.45593999997E+02  0.45594000000E+02  0.51100000000E-03 0. -1.
         11   -1    0    0    0    0 -0.00000000000E+00 -0.00000000000E+00 -0.45593999997E+02  0.45594000000E+02  0.51100000000E-03 0.  1.
    9900012    2    1    2    0    0  0.88874322698E+01 -0.16764676551E+02  0.39033084815E+02  0.47787279471E+02  0.20000038422E+02 0.  0.
        -12    1    1    2    0    0 -0.88874322698E+01  0.16764676551E+02 -0.39033084815E+02  0.43400720529E+02  0.00000000000E+00 0.  1.
         11    1    3    3    0    0  0.48195203480E+01 -0.16614065861E+01  0.46756556846E+00  0.51192446759E+01  0.51100000000E-03 0. -1.
        -11    1    3    3    0    0  0.64181679169E+01 -0.14441987216E+02  0.33871077032E+02  0.37376646903E+02  0.51100000000E-03 0.  1.
        -12    1    3    3    0    0 -0.23502559951E+01 -0.66128274824E+00  0.46944422150E+01  0.52913878922E+01  0.00000000000E+00 0.  1.
</event>
<event>
 7    1  0.1019486E-010  0.4778727E+02  0.7816164E-02  0.1312668E+00
        -11   -1    0    0    0    0  0.00000000000E+00  0.00000000000E+00  0.45593999997E+02  0.45594000000E+02  0.51100000000E-03 0. -1.
         11   -1    0    0    0    0 -0.00000000000E+00 -0.00000000000E+00 -0.45593999997E+02  0.45594000000E+02  0.51100000000E-03 0.  1.
    9900012    2    1    2    0    0  0.14403706603E+01 -0.96059588383E+01 -0.42299813647E+02  0.47787270197E+02  0.19999996137E+02 0.  0.
         12    1    1    2    0    0 -0.14403706603E+01  0.96059588383E+01  0.42299813647E+02  0.43400729803E+02  0.00000000000E+00 0. -1.
         11    1    3    3    0    0 -0.48295279162E+00 -0.59363278247E+01 -0.52090497499E+01  0.79124857661E+01  0.51100000000E-03 0. -1.
        -11    1    3    3    0    0 -0.38013379672E+01 -0.10625899515E+00 -0.29406690642E+02  0.29651558409E+02  0.51100000000E-03 0.  1.
        -12    1    3    3    0    0  0.57246614192E+01 -0.35633720184E+01 -0.76840732553E+01  0.10223226022E+02  0.00000000000E+00 0.  1.
</event>
<event>
 7    1  0.1019486E-010  0.4778727E+02  0.7816164E-02  0.1312668E+00
        -11   -1    0    0    0    0  0.00000000000E+00  0.00000000000E+00  0.45593999997E+02  0.45594000000E+02  0.51100000000E-03 0. -1.
         11   -1    0    0    0    0 -0.00000000000E+00 -0.00000000000E+00 -0.45593999997E+02  0.45594000000E+02  0.51100000000E-03 0.  1.
    9900012    2    1    2    0    0  0.14209023434E+02  0.26565548260E+02  0.31240974786E+02  0.47787271816E+02  0.20000003518E+02 0.  0.
        -12    1    1    2    0    0 -0.14209023434E+02 -0.26565548260E+02 -0.31240974786E+02  0.43400728184E+02  0.00000000000E+00 0.  1.
         11    1    3    3    0    0  0.15399798125E+02  0.24483500958E+02  0.28380741554E+02  0.40522365342E+02  0.51100000000E-03 0. -1.
        -11    1    3    3    0    0 -0.30782995422E+01  0.13810776368E+01 -0.43639774379E+00  0.34020209820E+01  0.51100000000E-03 0.  1.
         12    1    3    3    0    0  0.18875248510E+01  0.70096966458E+00  0.32966309759E+01  0.38628854921E+01  0.00000000000E+00 0. -1.
</event>
<event>
 7    1  0.1019486E-010  0.4778727E+02  0.7816164E-02  0.1312668E+00
        -11   -1    0    0    0    0  0.00000000000E+00  0.00000000000E+00  0.45593999997E+02  0.45594000000E+02  0.51100000000E-03 0. -1.
         11   -1    0    0    0    0 -0.00000000000E+00 -0.00000000000E+00 -0.45593999997E+02  0.45594000000E+02  0.51100000000E-03 0.  1.
    9900012    2    1    2    0    0 -0.16917730015E+02 -0.34405804594E+01  0.39819291949E+02  0.47787271963E+02  0.20000004190E+02 0.  0.
        -12    1    1    2    0    0  0.16917730015E+02  0.34405804594E+01 -0.39819291949E+02  0.43400728037E+02  0.00000000000E+00 0.  1.
         11    1    3    3    0    0 -0.10300991672E+02 -0.50075348421E+01  0.15673508050E+02  0.19412487977E+02  0.51100000000E-03 0. -1.
        -11    1    3    3    0    0 -0.11266200481E+01  0.44647637354E+01  0.20837740764E+02  0.21340450519E+02  0.51100000000E-03 0.  1.
        -12    1    3    3    0    0 -0.54901182954E+01 -0.28978093528E+01  0.33080431359E+01  0.70343334674E+01  0.00000000000E+00 0.  1.
</event>
<event>
 7    1  0.1019486E-010  0.4778727E+02  0.7816164E-02  0.1312668E+00
        -11   -1    0    0    0    0  0.00000000000E+00  0.00000000000E+00  0.45593999997E+02  0.45594000000E+02  0.51100000000E-03 0. -1.
         11   -1    0    0    0    0 -0.00000000000E+00 -0.00000000000E+00 -0.45593999997E+02  0.45594000000E+02  0.51100000000E-03 0.  1.
    9900012    2    1    2    0    0 -0.24696035049E+02  0.32999316844E+02  0.13593166343E+02  0.47787271544E+02  0.20000002277E+02 0.  0.
        -12    1    1    2    0    0  0.24696035049E+02 -0.32999316844E+02 -0.13593166343E+02  0.43400728456E+02  0.00000000000E+00 0.  1.
         11    1    3    3    0    0 -0.14964775636E+02  0.72212232931E+01  0.52447757510E+01  0.17424070955E+02  0.51100000000E-03 0. -1.
        -11    1    3    3    0    0 -0.76714927291E+01  0.23767545266E+02  0.42177229194E+01  0.25328584555E+02  0.51100000000E-03 0.  1.
        -12    1    3    3    0    0 -0.20597666831E+01  0.20105482852E+01  0.41306676724E+01  0.50346160346E+01  0.00000000000E+00 0.  1.
</event>
<event>
 7    1  0.1019486E-010  0.4778727E+02  0.7816164E-02  0.1312668E+00
        -11   -1    0    0    0    0  0.00000000000E+00  0.00000000000E+00  0.45593999997E+02  0.45594000000E+02  0.51100000000E-03 0.  1.
         11   -1    0    0    0    0 -0.00000000000E+00 -0.00000000000E+00 -0.45593999997E+02  0.45594000000E+02  0.51100000000E-03 0. -1.
    9900012    2    1    2    0    0 -0.33019080631E+02 -0.95286384487E+01 -0.26506007521E+02  0.47787273380E+02  0.20000010651E+02 0.  0.
         12    1    1    2    0    0  0.33019080631E+02  0.95286384487E+01  0.26506007521E+02  0.43400726620E+02  0.00000000000E+00 0. -1.
         11    1    3    3    0    0 -0.51481292612E+01 -0.10074433236E+02 -0.94481342872E+01  0.14739901006E+02  0.51100000000E-03 0. -1.
        -11    1    3    3    0    0 -0.23123016239E+02  0.42624960530E+00 -0.16160811665E+02  0.28213957586E+02  0.51100000000E-03 0.  1.
         12    1    3    3    0    0 -0.47479351308E+01  0.11954518162E+00 -0.89706156849E+00  0.48334147882E+01  0.00000000000E+00 0. -1.
</event>
<event>
 7    1  0.1019486E-010  0.4778727E+02  0.7816164E-02  0.1312668E+00
        -11   -1    0    0    0    0  0.00000000000E+00  0.00000000000E+00  0.45593999997E+02  0.45594000000E+02  0.51100000000E-03 0. -1.
         11   -1    0    0    0    0 -0.00000000000E+00 -0.00000000000E+00 -0.45593999997E+02  0.45594000000E+02  0.51100000000E-03 0.  1.
    9900012    2    1    2    0    0  0.18760597821E+02  0.28378007898E+02 -0.26950916886E+02  0.47787270930E+02  0.19999999476E+02 0.  0.
         12    1    1    2    0    0 -0.18760597821E+02 -0.28378007898E+02  0.26950916886E+02  0.43400729070E+02  0.00000000000E+00 0. -1.
         11    1    3    3    0    0 -0.88207179481E+00  0.14498492837E+01 -0.10245197336E+02  0.10384805357E+02  0.51100000000E-03 0. -1.
        -11    1    3    3    0    0  0.13995623459E+02  0.16846090694E+02 -0.11303477856E+02  0.24646234187E+02  0.51100000000E-03 0.  1.
         12    1    3    3    0    0  0.56470461569E+01  0.10082067920E+02 -0.54022416935E+01  0.12756231385E+02  0.00000000000E+00 0. -1.
</event>
<event>
 7    1  0.1019486E-010  0.4778729E+02  0.7816164E-02  0.1312668E+00
        -11   -1    0    0    0    0  0.00000000000E+00  0.00000000000E+00  0.45593999997E+02  0.45594000000E+02  0.51100000000E-03 0. -1.
         11   -1    0    0    0    0 -0.00000000000E+00 -0.00000000000E+00 -0.45593999997E+02  0.45594000000E+02  0.51100000000E-03 0.  1.
    9900012    2    1    2    0    0  0.29420932686E+02 -0.95270980740E+01 -0.30451015567E+02  0.47787294627E+02  0.20000107520E+02 0.  0.
         12    1    1    2    0    0 -0.29420932686E+02  0.95270980740E+01  0.30451015567E+02  0.43400705373E+02  0.00000000000E+00 0. -1.
         11    1    3    3    0    0  0.68067494258E+01 -0.93023669979E+01 -0.13653496595E+02  0.17868515300E+02  0.51100000000E-03 0. -1.
        -11    1    3    3    0    0  0.14482242106E+02  0.99498659122E+00 -0.16082266701E+02  0.21664824883E+02  0.51100000000E-03 0.  1.
         12    1    3    3    0    0  0.81319411547E+01 -0.12197176674E+01 -0.71525227134E+00  0.82539544428E+01  0.00000000000E+00 0. -1.
</event>
<event>
 7    1  0.1019486E-010  0.4778722E+02  0.7816164E-02  0.1312668E+00
        -11   -1    0    0    0    0  0.00000000000E+00  0.00000000000E+00  0.45593999997E+02  0.45594000000E+02  0.51100000000E-03 0. -1.
         11   -1    0    0    0    0 -0.00000000000E+00 -0.00000000000E+00 -0.45593999997E+02  0.45594000000E+02  0.51100000000E-03 0.  1.
    9900012    2    1    2    0    0  0.57600972263E+01  0.16760195054E+02  0.39617483920E+02  0.47787217859E+02  0.19999757505E+02 0.  0.
        -12    1    1    2    0    0 -0.57600972263E+01 -0.16760195054E+02 -0.39617483920E+02  0.43400782141E+02  0.00000000000E+00 0.  1.
         11    1    3    3    0    0  0.18293126678E+01  0.42429235657E+01  0.26390611514E+02  0.26792035413E+02  0.51100000000E-03 0. -1.
        -11    1    3    3    0    0 -0.31279601332E+01  0.43393276244E+01  0.30714992589E+01  0.61683066384E+01  0.51100000000E-03 0.  1.
         12    1    3    3    0    0  0.70587446917E+01  0.81779438642E+01  0.10155373147E+02  0.14826875808E+02  0.00000000000E+00 0. -1.
</event>
<event>
 7    1  0.1019486E-010  0.4778727E+02  0.7816164E-02  0.1312668E+00
        -11   -1    0    0    0    0  0.00000000000E+00  0.00000000000E+00  0.45593999997E+02  0.45594000000E+02  0.51100000000E-03 0. -1.
         11   -1    0    0    0    0 -0.00000000000E+00 -0.00000000000E+00 -0.45593999997E+02  0.45594000000E+02  0.51100000000E-03 0.  1.
    9900012    2    1    2    0    0  0.31263623524E+01  0.36574623353E+02 -0.23154826828E+02  0.47787271660E+02  0.20000002807E+02 0.  0.
         12    1    1    2    0    0 -0.31263623524E+01 -0.36574623353E+02  0.23154826828E+02  0.43400728340E+02  0.00000000000E+00 0. -1.
         11    1    3    3    0    0 -0.23683503836E+01  0.60396378851E+01 -0.10140869794E+02  0.12038419737E+02  0.51100000000E-03 0. -1.
        -11    1    3    3    0    0  0.80630722123E+01  0.29322118792E+02 -0.11366559517E+02  0.32465342436E+02  0.51100000000E-03 0.  1.
        -12    1    3    3    0    0 -0.25683594763E+01  0.12128666759E+01 -0.16473975169E+01  0.32835094871E+01  0.00000000000E+00 0.  1.
</event>
<event>
 7    1  0.1019486E-010  0.4778727E+02  0.7816164E-02  0.1312668E+00
        -11   -1    0    0    0    0  0.00000000000E+00  0.00000000000E+00  0.45593999997E+02  0.45594000000E+02  0.51100000000E-03 0. -1.
         11   -1    0    0    0    0 -0.00000000000E+00 -0.00000000000E+00 -0.45593999997E+02  0.45594000000E+02  0.51100000000E-03 0.  1.
    9900012    2    1    2    0    0 -0.17498797456E+02  0.12743269696E+02 -0.37616810038E+02  0.47787271522E+02  0.20000002179E+02 0.  0.
         12    1    1    2    0    0  0.17498797456E+02 -0.12743269696E+02  0.37616810038E+02  0.43400728478E+02  0.00000000000E+00 0. -1.
         11    1    3    3    0    0 -0.79667105548E+01  0.41639285544E+01 -0.33589329660E+01  0.95963122605E+01  0.51100000000E-03 0. -1.
        -11    1    3    3    0    0 -0.89193796807E+01  0.10592125801E+02 -0.23901297580E+02  0.27622825509E+02  0.51100000000E-03 0.  1.
         12    1    3    3    0    0 -0.61270722011E+00 -0.20127846590E+01 -0.10356579493E+02  0.10568133752E+02  0.00000000000E+00 0. -1.
</event>
<event>
 7    1  0.1019486E-010  0.4778727E+02  0.7816164E-02  0.1312668E+00
        -11   -1    0    0    0    0  0.00000000000E+00  0.00000000000E+00  0.45593999997E+02  0.45594000000E+02  0.51100000000E-03 0. -1.
         11   -1    0    0    0    0 -0.00000000000E+00 -0.00000000000E+00 -0.45593999997E+02  0.45594000000E+02  0.51100000000E-03 0.  1.
    9900012    2    1    2    0    0  0.25450731389E+02 -0.10338683444E+02  0.33600523566E+02  0.47787270887E+02  0.19999999283E+02 0.  0.
        -12    1    1    2    0    0 -0.25450731389E+02  0.10338683444E+02 -0.33600523566E+02  0.43400729113E+02  0.00000000000E+00 0.  1.
         11    1    3    3    0    0  0.13849620622E+02  0.23781978458E+01  0.15096639702E+02  0.20624653862E+02  0.51100000000E-03 0. -1.
        -11    1    3    3    0    0  0.12676059862E+02 -0.12949308825E+02  0.15106987406E+02  0.23592120749E+02  0.51100000000E-03 0.  1.
         12    1    3    3    0    0 -0.10749490948E+01  0.23242753536E+00  0.33968964582E+01  0.35704962769E+01  0.00000000000E+00 0. -1.
</event>
<event>
 7    1  0.1019486E-010  0.4778726E+02  0.7816164E-02  0.1312668E+00
        -11   -1    0    0    0    0  0.00000000000E+00  0.00000000000E+00  0.45593999997E+02  0.45594000000E+02  0.51100000000E-03 0. -1.
         11   -1    0    0    0    0 -0.00000000000E+00 -0.00000000000E+00 -0.45593999997E+02  0.45594000000E+02  0.51100000000E-03 0.  1.
    9900012    2    1    2    0    0 -0.92428023605E+01  0.30513241045E+02 -0.29447192012E+02  0.47787258164E+02  0.19999941274E+02 0.  0.
         12    1    1    2    0    0  0.92428023605E+01 -0.30513241045E+02  0.29447192012E+02  0.43400741836E+02  0.00000000000E+00 0. -1.
         11    1    3    3    0    0 -0.20464644986E+01  0.12280274092E+02 -0.23405571942E+02  0.26510638372E+02  0.51100000000E-03 0. -1.
        -11    1    3    3    0    0 -0.30981096765E+01  0.52340807893E+01 -0.44877944569E+01  0.75587158053E+01  0.51100000000E-03 0.  1.
         12    1    3    3    0    0 -0.40982281854E+01  0.12998886163E+02 -0.15538256127E+01  0.13717903987E+02  0.00000000000E+00 0. -1.
</event>
<event>
 7    1  0.1019486E-010  0.4778727E+02  0.7816164E-02  0.1312668E+00
        -11   -1    0    0    0    0  0.00000000000E+00  0.00000000000E+00  0.45593999997E+02  0.45594000000E+02  0.51100000000E-03 0. -1.
         11   -1    0    0    0    0 -0.00000000000E+00 -0.00000000000E+00 -0.45593999997E+02  0.45594000000E+02  0.51100000000E-03 0.  1.
    9900012    2    1    2    0    0 -0.35687654273E+02  0.24570895913E+02 -0.25070732518E+01  0.47787274087E+02  0.20000013873E+02 0.  0.
         12    1    1    2    0    0  0.35687654273E+02 -0.24570895913E+02  0.25070732518E+01  0.43400725913E+02  0.00000000000E+00 0. -1.
         11    1    3    3    0    0  0.11351649548E+01  0.11386898408E+01  0.64609959852E+00  0.17328182191E+01  0.51100000000E-03 0. -1.
        -11    1    3    3    0    0 -0.29172391841E+02  0.24277963120E+02 -0.45724045722E+01  0.38227670905E+02  0.51100000000E-03 0.  1.
        -12    1    3    3    0    0 -0.76504273866E+01 -0.84575704763E+00  0.14192317219E+01  0.78267849633E+01  0.00000000000E+00 0.  1.
</event>
<event>
 7    1  0.1096199E-010  0.4778727E+02  0.7816164E-02  0.1312668E+00
        -11   -1    0    0    0    0  0.00000000000E+00  0.00000000000E+00  0.45593999997E+02  0.45594000000E+02  0.51100000000E-03 0. -1.
         11   -1    0    0    0    0 -0.00000000000E+00 -0.00000000000E+00 -0.45593999997E+02  0.45594000000E+02  0.51100000000E-03 0.  1.
    9900012    2    1    2    0    0 -0.79875228064E+01  0.82347729434E+01 -0.41857036766E+02  0.47787268061E+02  0.19999986398E+02 0.  0.
         12    1    1    2    0    0  0.79875228064E+01 -0.82347729434E+01  0.41857036766E+02  0.43400731939E+02  0.00000000000E+00 0. -1.
         11    1    3    3    0    0 -0.98301975003E+00 -0.53650972840E+01 -0.14004938459E+02  0.15029600733E+02  0.51100000000E-03 0. -1.
        -11    1    3    3    0    0 -0.20464227555E+01  0.56506643986E+00 -0.93521267557E+01  0.95900688887E+01  0.51100000000E-03 0.  1.
         12    1    3    3    0    0 -0.49580803008E+01  0.13034803788E+02 -0.18499971552E+02  0.23167598440E+02  0.00000000000E+00 0. -1.
</event>
<event>
 7    1  0.1019486E-010  0.4778727E+02  0.7816164E-02  0.1312668E+00
        -11   -1    0    0    0    0  0.00000000000E+00  0.00000000000E+00  0.45593999997E+02  0.45594000000E+02  0.51100000000E-03 0. -1.
         11   -1    0    0    0    0 -0.00000000000E+00 -0.00000000000E+00 -0.45593999997E+02  0.45594000000E+02  0.51100000000E-03 0.  1.
    9900012    2    1    2    0    0  0.33023982925E+02 -0.14099174294E+02 -0.24377307054E+02  0.47787271168E+02  0.20000000562E+02 0.  0.
         12    1    1    2    0    0 -0.33023982925E+02  0.14099174294E+02  0.24377307054E+02  0.43400728832E+02  0.00000000000E+00 0. -1.
         11    1    3    3    0    0  0.24458437481E+02 -0.43552188438E+01 -0.14955474405E+02  0.28997401782E+02  0.51100000000E-03 0. -1.
        -11    1    3    3    0    0  0.78661081969E+01 -0.46680670469E+01 -0.13743007141E+01  0.92496059826E+01  0.51100000000E-03 0.  1.
         12    1    3    3    0    0  0.69943724667E+00 -0.50758884034E+01 -0.80475319351E+01  0.95402634027E+01  0.00000000000E+00 0. -1.
</event>
<event>
 7    1  0.1019486E-010  0.4778727E+02  0.7816164E-02  0.1312668E+00
        -11   -1    0    0    0    0  0.00000000000E+00  0.00000000000E+00  0.45593999997E+02  0.45594000000E+02  0.51100000000E-03 0.  1.
         11   -1    0    0    0    0 -0.00000000000E+00 -0.00000000000E+00 -0.45593999997E+02  0.45594000000E+02  0.51100000000E-03 0. -1.
    9900012    2    1    2    0    0 -0.34424537839E+02  0.25443277728E+02 -0.71564138605E+01  0.47787269058E+02  0.19999990941E+02 0.  0.
        -12    1    1    2    0    0  0.34424537839E+02 -0.25443277728E+02  0.71564138605E+01  0.43400730942E+02  0.00000000000E+00 0.  1.
         11    1    3    3    0    0 -0.17489483639E+02  0.13682138783E+02  0.20798499196E+00  0.22206445408E+02  0.51100000000E-03 0. -1.
        -11    1    3    3    0    0  0.19205064995E+01  0.26247432621E+01  0.31007510205E+00  0.32670734973E+01  0.51100000000E-03 0.  1.
        -12    1    3    3    0    0 -0.18855560700E+02  0.91363956821E+01 -0.76744739545E+01  0.22313750152E+02  0.00000000000E+00 0.  1.
</event>
<event>
 7    1  0.1019486E-010  0.4778728E+02  0.7816164E-02  0.1312668E+00
        -11   -1    0    0    0    0  0.00000000000E+00  0.00000000000E+00  0.45593999997E+02  0.45594000000E+02  0.51100000000E-03 0. -1.
         11   -1    0    0    0    0 -0.00000000000E+00 -0.00000000000E+00 -0.45593999997E+02  0.45594000000E+02  0.51100000000E-03 0.  1.
    9900012    2    1    2    0    0 -0.89917153849E+01  0.21174457890E+02 -0.36802363976E+02  0.47787278731E+02  0.20000035044E+02 0.  0.
         12    1    1    2    0    0  0.89917153849E+01 -0.21174457890E+02  0.36802363976E+02  0.43400721269E+02  0.00000000000E+00 0. -1.
         11    1    3    3    0    0 -0.11783359051E+02  0.16165581208E+02 -0.24464348195E+02  0.31601865438E+02  0.51100000000E-03 0. -1.
        -11    1    3    3    0    0 -0.25605582118E+01 -0.69381378300E+00 -0.32610765588E+01  0.42038620940E+01  0.51100000000E-03 0.  1.
         12    1    3    3    0    0  0.53522018777E+01  0.57026904656E+01 -0.90769392214E+01  0.11981551198E+02  0.00000000000E+00 0. -1.
</event>
<event>
 7    1  0.1019486E-010  0.4778727E+02  0.7816164E-02  0.1312668E+00
        -11   -1    0    0    0    0  0.00000000000E+00  0.00000000000E+00  0.45593999997E+02  0.45594000000E+02  0.51100000000E-03 0. -1.
         11   -1    0    0    0    0 -0.00000000000E+00 -0.00000000000E+00 -0.45593999997E+02  0.45594000000E+02  0.51100000000E-03 0.  1.
    9900012    2    1    2    0    0 -0.39717906891E+02  0.79424058100E+01  0.15589403011E+02  0.47787269314E+02  0.19999992110E+02 0.  0.
        -12    1    1    2    0    0  0.39717906891E+02 -0.79424058100E+01 -0.15589403011E+02  0.43400730686E+02  0.00000000000E+00 0.  1.
         11    1    3    3    0    0 -0.52191176337E+01  0.69668892567E+01 -0.69928275232E+00  0.87330253303E+01  0.51100000000E-03 0. -1.
        -11    1    3    3    0    0 -0.29775402055E+02  0.26419569748E+01  0.11221138105E+02  0.31929115941E+02  0.51100000000E-03 0.  1.
         12    1    3    3    0    0 -0.47233872022E+01 -0.16664404215E+01  0.50675476593E+01  0.71251280423E+01  0.00000000000E+00 0. -1.
</event>
<event>
 7    1  0.1019486E-010  0.4778723E+02  0.7816164E-02  0.1312668E+00
        -11   -1    0    0    0    0  0.00000000000E+00  0.00000000000E+00  0.45593999997E+02  0.45594000000E+02  0.51100000000E-03 0. -1.
         11   -1    0    0    0    0 -0.00000000000E+00 -0.00000000000E+00 -0.45593999997E+02  0.45594000000E+02  0.51100000000E-03 0.  1.
    9900012    2    1    2    0    0  0.50252788559E+01 -0.10601014931E+02  0.41785068163E+02  0.47787229655E+02  0.19999811287E+02 0.  0.
        -12    1    1    2    0    0 -0.50252788559E+01  0.10601014931E+02 -0.41785068163E+02  0.43400770345E+02  0.00000000000E+00 0.  1.
         11    1    3    3    0    0  0.33430563179E+01 -0.62589822017E+01  0.42207185519E+02  0.42799502257E+02  0.51100000000E-03 0. -1.
        -11    1    3    3    0    0  0.35655027912E+00 -0.31774190258E+01 -0.40635528695E+00  0.32230799940E+01  0.51100000000E-03 0.  1.
         12    1    3    3    0    0  0.13256722589E+01 -0.11646137034E+01 -0.15762068950E-01  0.17646474036E+01  0.00000000000E+00 0. -1.
</event>
<event>
 7    1  0.1019486E-010  0.4778727E+02  0.7816164E-02  0.1312668E+00
        -11   -1    0    0    0    0  0.00000000000E+00  0.00000000000E+00  0.45593999997E+02  0.45594000000E+02  0.51100000000E-03 0. -1.
         11   -1    0    0    0    0 -0.00000000000E+00 -0.00000000000E+00 -0.45593999997E+02  0.45594000000E+02  0.51100000000E-03 0.  1.
    9900012    2    1    2    0    0  0.54107257170E+01 -0.37603447040E+02  0.20984002503E+02  0.47787267943E+02  0.19999985857E+02 0.  0.
        -12    1    1    2    0    0 -0.54107257170E+01  0.37603447040E+02 -0.20984002503E+02  0.43400732057E+02  0.00000000000E+00 0.  1.
         11    1    3    3    0    0  0.16052314859E+01 -0.14822870413E+01  0.79859918452E+01  0.82794932821E+01  0.51100000000E-03 0. -1.
        -11    1    3    3    0    0 -0.83006796211E+00 -0.25336676429E+02  0.68636882684E+01  0.26263023478E+02  0.51100000000E-03 0.  1.
         12    1    3    3    0    0  0.46355621933E+01 -0.10784483569E+02  0.61343223897E+01  0.13244751183E+02  0.00000000000E+00 0. -1.
</event>
<event>
 7    1  0.1019486E-010  0.4778727E+02  0.7816164E-02  0.1312668E+00
        -11   -1    0    0    0    0  0.00000000000E+00  0.00000000000E+00  0.45593999997E+02  0.45594000000E+02  0.51100000000E-03 0. -1.
         11   -1    0    0    0    0 -0.00000000000E+00 -0.00000000000E+00 -0.45593999997E+02  0.45594000000E+02  0.51100000000E-03 0.  1.
    9900012    2    1    2    0    0  0.19042162219E+02 -0.77622239841E+01  0.38219984894E+02  0.47787270646E+02  0.19999998183E+02 0.  0.
        -12    1    1    2    0    0 -0.19042162219E+02  0.77622239841E+01 -0.38219984894E+02  0.43400729354E+02  0.00000000000E+00 0.  1.
         11    1    3    3    0    0  0.38635039106E+01 -0.47202566205E+00  0.34914991150E+01  0.52287701254E+01  0.51100000000E-03 0. -1.
        -11    1    3    3    0    0  0.14258691426E+02  0.25978687519E+01  0.23057028157E+02  0.27233908110E+02  0.51100000000E-03 0.  1.
        -12    1    3    3    0    0  0.91996688211E+00 -0.98880670739E+01  0.11671457622E+02  0.15324592411E+02  0.00000000000E+00 0.  1.
</event>
<event>
 7    1  0.1019486E-010  0.4778726E+02  0.7816164E-02  0.1312668E+00
        -11   -1    0    0    0    0  0.00000000000E+00  0.00000000000E+00  0.45593999997E+02  0.45594000000E+02  0.51100000000E-03 0. -1.
         11   -1    0    0    0    0 -0.00000000000E+00 -0.00000000000E+00 -0.45593999997E+02  0.45594000000E+02  0.51100000000E-03 0.  1.
    9900012    2    1    2    0    0 -0.25430571607E+01  0.25966783955E+02 -0.34682601363E+02  0.47787264453E+02  0.19999969946E+02 0.  0.
         12    1    1    2    0    0  0.25430571607E+01 -0.25966783955E+02  0.34682601363E+02  0.43400735547E+02  0.00000000000E+00 0. -1.
         11    1    3    3    0    0 -0.72467842627E+01  0.18365850759E+02 -0.27645903302E+02  0.33972287617E+02  0.51100000000E-03 0. -1.
        -11    1    3    3    0    0 -0.66592169301E+00  0.36910302710E+01 -0.60235992854E+01  0.70958371440E+01  0.51100000000E-03 0.  1.
         12    1    3    3    0    0  0.53696487950E+01  0.39099029257E+01 -0.10130987756E+01  0.67191396919E+01  0.00000000000E+00 0. -1.
</event>
<event>
 7    1  0.1019486E-010  0.4778728E+02  0.7816164E-02  0.1312668E+00
        -11   -1    0    0    0    0  0.00000000000E+00  0.00000000000E+00  0.45593999997E+02  0.45594000000E+02  0.51100000000E-03 0. -1.
         11   -1    0    0    0    0 -0.00000000000E+00 -0.00000000000E+00 -0.45593999997E+02  0.45594000000E+02  0.51100000000E-03 0.  1.
    9900012    2    1    2    0    0  0.78664275010E+01  0.15058380891E+02  0.39937287391E+02  0.47787280642E+02  0.20000043758E+02 0.  0.
        -12    1    1    2    0    0 -0.78664275010E+01 -0.15058380891E+02 -0.39937287391E+02  0.43400719358E+02  0.00000000000E+00 0.  1.
         11    1    3    3    0    0  0.19706738936E+01  0.68574774773E+01  0.15219140359E+02  0.16808652131E+02  0.51100000000E-03 0. -1.
        -11    1    3    3    0    0 -0.24171186761E+01  0.11023690666E+01  0.17898328925E+02  0.18094415128E+02  0.51100000000E-03 0.  1.
        -12    1    3    3    0    0  0.83128722835E+01  0.70985343467E+01  0.68198181067E+01  0.12884213382E+02  0.00000000000E+00 0.  1.
</event>
<event>
 7    1  0.1019486E-010  0.4778727E+02  0.7816164E-02  0.1312668E+00
        -11   -1    0    0    0    0  0.00000000000E+00  0.00000000000E+00  0.45593999997E+02  0.45594000000E+02  0.51100000000E-03 0. -1.
         11   -1    0    0    0    0 -0.00000000000E+00 -0.00000000000E+00 -0.45593999997E+02  0.45594000000E+02  0.51100000000E-03 0.  1.
    9900012    2    1    2    0    0  0.13162421680E+02  0.37976781847E+01 -0.41181928859E+02  0.47787274561E+02  0.20000016033E+02 0.  0.
         12    1    1    2    0    0 -0.13162421680E+02 -0.37976781847E+01  0.41181928859E+02  0.43400725439E+02  0.00000000000E+00 0. -1.
         11    1    3    3    0    0 -0.35691507067E+01  0.24349097925E+01 -0.41472452885E+01  0.59889286362E+01  0.51100000000E-03 0. -1.
        -11    1    3    3    0    0  0.80435928916E+01 -0.41154613377E+01 -0.19143247070E+02  0.21168380128E+02  0.51100000000E-03 0.  1.
        -12    1    3    3    0    0  0.86879794953E+01  0.54782297300E+01 -0.17891436501E+02  0.20629965796E+02  0.00000000000E+00 0.  1.
</event>
<event>
 7    1  0.1019486E-010  0.4778727E+02  0.7816164E-02  0.1312668E+00
        -11   -1    0    0    0    0  0.00000000000E+00  0.00000000000E+00  0.45593999997E+02  0.45594000000E+02  0.51100000000E-03 0. -1.
         11   -1    0    0    0    0 -0.00000000000E+00 -0.00000000000E+00 -0.45593999997E+02  0.45594000000E+02  0.51100000000E-03 0.  1.
    9900012    2    1    2    0    0 -0.72062975443E+01  0.27170681767E+01  0.42711943192E+02  0.47787271032E+02  0.19999999941E+02 0.  0.
        -12    1    1    2    0    0  0.72062975443E+01 -0.27170681767E+01 -0.42711943192E+02  0.43400728968E+02  0.00000000000E+00 0.  1.
         11    1    3    3    0    0  0.10292337891E+01 -0.29032018306E+01  0.32850020886E+02  0.32994117287E+02  0.51100000000E-03 0. -1.
        -11    1    3    3    0    0 -0.78694704993E+01  0.42560885413E+01  0.62462537828E+01  0.10911395062E+02  0.51100000000E-03 0.  1.
         12    1    3    3    0    0 -0.36606083412E+00  0.13641814661E+01  0.36156685231E+01  0.38817586833E+01  0.00000000000E+00 0. -1.
</event>
<event>
 7    1  0.1019486E-010  0.4778725E+02  0.7816164E-02  0.1312668E+00
        -11   -1    0    0    0    0  0.00000000000E+00  0.00000000000E+00  0.45593999997E+02  0.45594000000E+02  0.51100000000E-03 0. -1.
         11   -1    0    0    0    0 -0.00000000000E+00 -0.00000000000E+00 -0.45593999997E+02  0.45594000000E+02  0.51100000000E-03 0.  1.
    9900012    2    1    2    0    0 -0.25188548539E+02  0.32556155069E+02  0.13757125025E+02  0.47787254622E+02  0.19999925125E+02 0.  0.
        -12    1    1    2    0    0  0.25188548539E+02 -0.32556155069E+02 -0.13757125025E+02  0.43400745378E+02  0.00000000000E+00 0.  1.
         11    1    3    3    0    0 -0.22938312285E+02  0.26700770356E+02  0.32399418017E+01  0.35349604400E+02  0.51100000000E-03 0.  1.
        -11    1    3    3    0    0 -0.10734715120E+01  0.39396130597E+01  0.84436773465E+01  0.93791566540E+01  0.51100000000E-03 0. -1.
        -12    1    3    3    0    0 -0.11767647420E+01  0.19157716526E+01  0.20735058773E+01  0.30584935681E+01  0.00000000000E+00 0.  1.
</event>
<event>
 7    1  0.1019486E-010  0.4778727E+02  0.7816164E-02  0.1312668E+00
        -11   -1    0    0    0    0  0.00000000000E+00  0.00000000000E+00  0.45593999997E+02  0.45594000000E+02  0.51100000000E-03 0. -1.
         11   -1    0    0    0    0 -0.00000000000E+00 -0.00000000000E+00 -0.45593999997E+02  0.45594000000E+02  0.51100000000E-03 0.  1.
    9900012    2    1    2    0    0 -0.13318517352E+02  0.28493604762E+02  0.29905766272E+02  0.47787271053E+02  0.20000000039E+02 0.  0.
        -12    1    1    2    0    0  0.13318517352E+02 -0.28493604762E+02 -0.29905766272E+02  0.43400728947E+02  0.00000000000E+00 0.  1.
         11    1    3    3    0    0 -0.24488831709E+00  0.11288628911E+02  0.41735355683E+01  0.12037919770E+02  0.51100000000E-03 0. -1.
        -11    1    3    3    0    0 -0.10702881378E+02  0.78111610290E+01  0.21323778046E+02  0.25105167134E+02  0.51100000000E-03 0.  1.
        -12    1    3    3    0    0 -0.23707476567E+01  0.93938148221E+01  0.44084526584E+01  0.10644184149E+02  0.00000000000E+00 0.  1.
</event>
<event>
 7    1  0.1019486E-010  0.4778727E+02  0.7816164E-02  0.1312668E+00
        -11   -1    0    0    0    0  0.00000000000E+00  0.00000000000E+00  0.45593999997E+02  0.45594000000E+02  0.51100000000E-03 0. -1.
         11   -1    0    0    0    0 -0.00000000000E+00 -0.00000000000E+00 -0.45593999997E+02  0.45594000000E+02  0.51100000000E-03 0.  1.
    9900012    2    1    2    0    0  0.22427993836E+02  0.35783687522E+02 -0.10006786358E+02  0.47787274506E+02  0.20000015785E+02 0.  0.
         12    1    1    2    0    0 -0.22427993836E+02 -0.35783687522E+02  0.10006786358E+02  0.43400725494E+02  0.00000000000E+00 0. -1.
         11    1    3    3    0    0  0.19292953646E+02  0.18138788170E+02  0.92127022966E-01  0.26480977782E+02  0.51100000000E-03 0. -1.
        -11    1    3    3    0    0  0.39120887490E+01  0.16141949136E+02 -0.10387422634E+02  0.19589933883E+02  0.51100000000E-03 0.  1.
         12    1    3    3    0    0 -0.77704855870E+00  0.15029502160E+01  0.28850925377E+00  0.17163628416E+01  0.00000000000E+00 0. -1.
</event>
<event>
 7    1  0.1019486E-010  0.4778727E+02  0.7816164E-02  0.1312668E+00
        -11   -1    0    0    0    0  0.00000000000E+00  0.00000000000E+00  0.45593999997E+02  0.45594000000E+02  0.51100000000E-03 0. -1.
         11   -1    0    0    0    0 -0.00000000000E+00 -0.00000000000E+00 -0.45593999997E+02  0.45594000000E+02  0.51100000000E-03 0.  1.
    9900012    2    1    2    0    0 -0.31388343623E+02  0.17185409823E+02  0.24557209264E+02  0.47787274742E+02  0.20000016857E+02 0.  0.
        -12    1    1    2    0    0  0.31388343623E+02 -0.17185409823E+02 -0.24557209264E+02  0.43400725258E+02  0.00000000000E+00 0.  1.
         11    1    3    3    0    0 -0.75518003180E+01  0.33013709553E+01  0.88150398725E+01  0.12067877462E+02  0.51100000000E-03 0. -1.
        -11    1    3    3    0    0 -0.74406203319E+01  0.12376450528E+02  0.12137826054E+02  0.18864415713E+02  0.51100000000E-03 0.  1.
        -12    1    3    3    0    0 -0.16395922973E+02  0.15075883389E+01  0.36043433376E+01  0.16854981567E+02  0.00000000000E+00 0.  1.
</event>
<event>
 7    1  0.1113387E-010  0.4778727E+02  0.7816164E-02  0.1312668E+00
        -11   -1    0    0    0    0  0.00000000000E+00  0.00000000000E+00  0.45593999997E+02  0.45594000000E+02  0.51100000000E-03 0. -1.
         11   -1    0    0    0    0 -0.00000000000E+00 -0.00000000000E+00 -0.45593999997E+02  0.45594000000E+02  0.51100000000E-03 0.  1.
    9900012    2    1    2    0    0  0.26197178627E+01 -0.16005703021E+02 -0.40256400892E+02  0.47787271162E+02  0.20000000538E+02 0.  0.
         12    1    1    2    0    0 -0.26197178627E+01  0.16005703021E+02  0.40256400892E+02  0.43400728838E+02  0.00000000000E+00 0. -1.
         11    1    3    3    0    0  0.38967392887E+01  0.16329621732E+01 -0.10394816035E+01  0.43510532987E+01  0.51100000000E-03 0. -1.
        -11    1    3    3    0    0 -0.10208255019E+01 -0.15442026886E+02 -0.27894745236E+02  0.31900079798E+02  0.51100000000E-03 0.  1.
         12    1    3    3    0    0 -0.25619592411E+00 -0.21966383078E+01 -0.11322174053E+02  0.11536138066E+02  0.00000000000E+00 0. -1.
</event>
<event>
 7    1  0.1019486E-010  0.4778727E+02  0.7816164E-02  0.1312668E+00
        -11   -1    0    0    0    0  0.00000000000E+00  0.00000000000E+00  0.45593999997E+02  0.45594000000E+02  0.51100000000E-03 0. -1.
         11   -1    0    0    0    0 -0.00000000000E+00 -0.00000000000E+00 -0.45593999997E+02  0.45594000000E+02  0.51100000000E-03 0.  1.
    9900012    2    1    2    0    0 -0.29664921354E+01 -0.72283906144E+00 -0.43293192328E+02  0.47787273348E+02  0.20000010505E+02 0.  0.
         12    1    1    2    0    0  0.29664921354E+01  0.72283906144E+00  0.43293192328E+02  0.43400726652E+02  0.00000000000E+00 0. -1.
         11    1    3    3    0    0 -0.61453422728E+01  0.22698743696E+01 -0.41814707222E+01  0.77718890217E+01  0.51100000000E-03 0. -1.
        -11    1    3    3    0    0 -0.17731008230E+00 -0.46078484055E+00 -0.29737597576E+02  0.29741695839E+02  0.51100000000E-03 0.  1.
        -12    1    3    3    0    0  0.33561602197E+01 -0.25319285904E+01 -0.93741240302E+01  0.10273688488E+02  0.00000000000E+00 0.  1.
</event>
<event>
 7    1  0.1019486E-010  0.4778727E+02  0.7816164E-02  0.1312668E+00
        -11   -1    0    0    0    0  0.00000000000E+00  0.00000000000E+00  0.45593999997E+02  0.45594000000E+02  0.51100000000E-03 0. -1.
         11   -1    0    0    0    0 -0.00000000000E+00 -0.00000000000E+00 -0.45593999997E+02  0.45594000000E+02  0.51100000000E-03 0.  1.
    9900012    2    1    2    0    0  0.40234795488E+02 -0.25642696892E+01  0.16068885299E+02  0.47787270493E+02  0.19999997488E+02 0.  0.
        -12    1    1    2    0    0 -0.40234795488E+02  0.25642696892E+01 -0.16068885299E+02  0.43400729507E+02  0.00000000000E+00 0.  1.
         11    1    3    3    0    0  0.15251484636E+02 -0.52817877611E+00  0.62534347922E+01  0.16492186131E+02  0.51100000000E-03 0. -1.
        -11    1    3    3    0    0  0.12114520051E+02  0.53786627969E+01 -0.41354175722E+00  0.13261320696E+02  0.51100000000E-03 0.  1.
        -12    1    3    3    0    0  0.12868790800E+02 -0.74147537100E+01  0.10228992264E+02  0.18033763666E+02  0.00000000000E+00 0.  1.
</event>
<event>
 7    1  0.1019486E-010  0.4778727E+02  0.7816164E-02  0.1312668E+00
        -11   -1    0    0    0    0  0.00000000000E+00  0.00000000000E+00  0.45593999997E+02  0.45594000000E+02  0.51100000000E-03 0.  1.
         11   -1    0    0    0    0 -0.00000000000E+00 -0.00000000000E+00 -0.45593999997E+02  0.45594000000E+02  0.51100000000E-03 0. -1.
    9900012    2    1    2    0    0  0.32932822233E+02 -0.40435402765E+01 -0.27976815016E+02  0.47787272165E+02  0.20000005108E+02 0.  0.
         12    1    1    2    0    0 -0.32932822233E+02  0.40435402765E+01  0.27976815016E+02  0.43400727835E+02  0.00000000000E+00 0. -1.
         11    1    3    3    0    0 -0.14022534680E+00 -0.17587873076E+01 -0.19428546097E+01  0.26244390327E+01  0.51100000000E-03 0. -1.
        -11    1    3    3    0    0  0.15510317396E+02 -0.39903768210E+00 -0.22205557526E+02  0.27089037674E+02  0.51100000000E-03 0.  1.
        -12    1    3    3    0    0  0.17562730184E+02 -0.18857152869E+01 -0.38284028805E+01  0.18073795458E+02  0.00000000000E+00 0.  1.
</event>
<event>
 7    1  0.1019486E-010  0.4778727E+02  0.7816164E-02  0.1312668E+00
        -11   -1    0    0    0    0  0.00000000000E+00  0.00000000000E+00  0.45593999997E+02  0.45594000000E+02  0.51100000000E-03 0. -1.
         11   -1    0    0    0    0 -0.00000000000E+00 -0.00000000000E+00 -0.45593999997E+02  0.45594000000E+02  0.51100000000E-03 0.  1.
    9900012    2    1    2    0    0 -0.24447494130E+02 -0.22320902138E+02  0.28066358035E+02  0.47787273107E+02  0.20000009403E+02 0.  0.
        -12    1    1    2    0    0  0.24447494130E+02  0.22320902138E+02 -0.28066358035E+02  0.43400726893E+02  0.00000000000E+00 0.  1.
         11    1    3    3    0    0 -0.16937483234E+02 -0.10966415633E+02  0.52093915050E+01  0.20839346685E+02  0.51100000000E-03 0. -1.
        -11    1    3    3    0    0 -0.49365729412E+01 -0.87416113906E+01  0.19693174035E+02  0.22104448103E+02  0.51100000000E-03 0.  1.
         12    1    3    3    0    0 -0.25734379552E+01 -0.26128751141E+01  0.31637924957E+01  0.48434783190E+01  0.00000000000E+00 0. -1.
</event>
<event>
 7    1  0.1019486E-010  0.4778726E+02  0.7816164E-02  0.1312668E+00
        -11   -1    0    0    0    0  0.00000000000E+00  0.00000000000E+00  0.45593999997E+02  0.45594000000E+02  0.51100000000E-03 0. -1.
         11   -1    0    0    0    0 -0.00000000000E+00 -0.00000000000E+00 -0.45593999997E+02  0.45594000000E+02  0.51100000000E-03 0.  1.
    9900012    2    1    2    0    0  0.24235921594E+02  0.16518252401E+02  0.31990489589E+02  0.47787262886E+02  0.19999962801E+02 0.  0.
        -12    1    1    2    0    0 -0.24235921594E+02 -0.16518252401E+02 -0.31990489589E+02  0.43400737114E+02  0.00000000000E+00 0.  1.
         11    1    3    3    0    0  0.18489289857E+02  0.16392348860E+02  0.19344443609E+02  0.31381052235E+02  0.51100000000E-03 0. -1.
        -11    1    3    3    0    0  0.41521236651E+01 -0.24854994493E+01  0.18430770587E+01  0.51782981517E+01  0.51100000000E-03 0.  1.
         12    1    3    3    0    0  0.15945080723E+01  0.26114029906E+01  0.10802968921E+02  0.11227912499E+02  0.00000000000E+00 0. -1.
</event>
<event>
 7    1  0.1019486E-010  0.4778727E+02  0.7816164E-02  0.1312668E+00
        -11   -1    0    0    0    0  0.00000000000E+00  0.00000000000E+00  0.45593999997E+02  0.45594000000E+02  0.51100000000E-03 0. -1.
         11   -1    0    0    0    0 -0.00000000000E+00 -0.00000000000E+00 -0.45593999997E+02  0.45594000000E+02  0.51100000000E-03 0.  1.
    9900012    2    1    2    0    0  0.17227511883E+02  0.23276971298E+02  0.32326749421E+02  0.47787270898E+02  0.19999999332E+02 0.  0.
        -12    1    1    2    0    0 -0.17227511883E+02 -0.23276971298E+02 -0.32326749421E+02  0.43400729102E+02  0.00000000000E+00 0.  1.
         11    1    3    3    0    0  0.10175030818E+02  0.14746618421E+02  0.26680248885E+02  0.32137667741E+02  0.51100000000E-03 0. -1.
        -11    1    3    3    0    0  0.85800967904E+01  0.84300139655E+01  0.26979223825E+01  0.12327286069E+02  0.51100000000E-03 0.  1.
        -12    1    3    3    0    0 -0.15276157260E+01  0.10033891154E+00  0.29485781537E+01  0.33223170878E+01  0.00000000000E+00 0.  1.
</event>
<event>
 7    1  0.1019486E-010  0.4778728E+02  0.7816164E-02  0.1312668E+00
        -11   -1    0    0    0    0  0.00000000000E+00  0.00000000000E+00  0.45593999997E+02  0.45594000000E+02  0.51100000000E-03 0. -1.
         11   -1    0    0    0    0 -0.00000000000E+00 -0.00000000000E+00 -0.45593999997E+02  0.45594000000E+02  0.51100000000E-03 0.  1.
    9900012    2    1    2    0    0 -0.27667793986E+02 -0.19937198976E+02  0.26844436386E+02  0.47787280053E+02  0.20000041072E+02 0.  0.
        -12    1    1    2    0    0  0.27667793986E+02  0.19937198976E+02 -0.26844436386E+02  0.43400719947E+02  0.00000000000E+00 0.  1.
         11    1    3    3    0    0 -0.18670104721E+02 -0.40714747248E+01  0.10924801017E+02  0.22011383288E+02  0.51100000000E-03 0. -1.
        -11    1    3    3    0    0  0.93318806879E+00 -0.16648781427E+01  0.48530877971E+01  0.52148941149E+01  0.51100000000E-03 0.  1.
         12    1    3    3    0    0 -0.99308773339E+01 -0.14200846108E+02  0.11066547572E+02  0.20561002650E+02  0.00000000000E+00 0. -1.
</event>
<event>
 7    1  0.1019486E-010  0.4778727E+02  0.7816164E-02  0.1312668E+00
        -11   -1    0    0    0    0  0.00000000000E+00  0.00000000000E+00  0.45593999997E+02  0.45594000000E+02  0.51100000000E-03 0.  1.
         11   -1    0    0    0    0 -0.00000000000E+00 -0.00000000000E+00 -0.45593999997E+02  0.45594000000E+02  0.51100000000E-03 0. -1.
    9900012    2    1    2    0    0 -0.43116750209E+02 -0.44805339935E+01  0.21199120280E+01  0.47787270047E+02  0.19999995451E+02 0.  0.
        -12    1    1    2    0    0  0.43116750209E+02  0.44805339935E+01 -0.21199120280E+01  0.43400729953E+02  0.00000000000E+00 0.  1.
         11    1    3    3    0    0 -0.22288613925E+02 -0.94855373094E+01  0.42993308658E+01  0.24601666100E+02  0.51100000000E-03 0. -1.
        -11    1    3    3    0    0 -0.14820114777E+02  0.32325444751E+01  0.24914891373E+01  0.15371813952E+02  0.51100000000E-03 0.  1.
         12    1    3    3    0    0 -0.60080215073E+01  0.17724588408E+01 -0.46709079751E+01  0.78137899950E+01  0.00000000000E+00 0. -1.
</event>
<event>
 7    1  0.1019486E-010  0.4778727E+02  0.7816164E-02  0.1312668E+00
        -11   -1    0    0    0    0  0.00000000000E+00  0.00000000000E+00  0.45593999997E+02  0.45594000000E+02  0.51100000000E-03 0. -1.
         11   -1    0    0    0    0 -0.00000000000E+00 -0.00000000000E+00 -0.45593999997E+02  0.45594000000E+02  0.51100000000E-03 0.  1.
    9900012    2    1    2    0    0  0.23252177758E+02 -0.69000245970E+01  0.35990963661E+02  0.47787267573E+02  0.19999984173E+02 0.  0.
        -12    1    1    2    0    0 -0.23252177758E+02  0.69000245970E+01 -0.35990963661E+02  0.43400732427E+02  0.00000000000E+00 0.  1.
         11    1    3    3    0    0  0.11909422860E+02 -0.47809114030E+01  0.28033568036E+02  0.30831354232E+02  0.51100000000E-03 0. -1.
        -11    1    3    3    0    0  0.74884001754E+01  0.30592211034E+01  0.23993741410E+01  0.84375332578E+01  0.51100000000E-03 0.  1.
        -12    1    3    3    0    0  0.38543547227E+01 -0.51783342974E+01  0.55580214839E+01  0.85183800831E+01  0.00000000000E+00 0.  1.
</event>
<event>
 7    1  0.1019486E-010  0.4778727E+02  0.7816164E-02  0.1312668E+00
        -11   -1    0    0    0    0  0.00000000000E+00  0.00000000000E+00  0.45593999997E+02  0.45594000000E+02  0.51100000000E-03 0.  1.
         11   -1    0    0    0    0 -0.00000000000E+00 -0.00000000000E+00 -0.45593999997E+02  0.45594000000E+02  0.51100000000E-03 0. -1.
    9900012    2    1    2    0    0 -0.15436060247E+02  0.37152034120E+02 -0.16281214156E+02  0.47787268099E+02  0.19999986569E+02 0.  0.
         12    1    1    2    0    0  0.15436060247E+02 -0.37152034120E+02  0.16281214156E+02  0.43400731901E+02  0.00000000000E+00 0. -1.
         11    1    3    3    0    0 -0.24145224554E+01  0.22322523432E+02 -0.17894569614E+01  0.22523923449E+02  0.51100000000E-03 0. -1.
        -11    1    3    3    0    0 -0.76288856636E+01  0.42613603237E+01 -0.73241058590E+01  0.11401825081E+02  0.51100000000E-03 0.  1.
         12    1    3    3    0    0 -0.53926521280E+01  0.10568150364E+02 -0.71676513359E+01  0.13861519569E+02  0.00000000000E+00 0. -1.
</event>
<event>
 7    1  0.1019486E-010  0.4778727E+02  0.7816164E-02  0.1312668E+00
        -11   -1    0    0    0    0  0.00000000000E+00  0.00000000000E+00  0.45593999997E+02  0.45594000000E+02  0.51100000000E-03 0.  1.
         11   -1    0    0    0    0 -0.00000000000E+00 -0.00000000000E+00 -0.45593999997E+02  0.45594000000E+02  0.51100000000E-03 0. -1.
    9900012    2    1    2    0    0 -0.20725275776E+02 -0.36788843353E+02  0.10033301055E+02  0.47787272111E+02  0.20000004864E+02 0.  0.
        -12    1    1    2    0    0  0.20725275776E+02  0.36788843353E+02 -0.10033301055E+02  0.43400727889E+02  0.00000000000E+00 0.  1.
         11    1    3    3    0    0 -0.11209058165E+02 -0.18957746047E+02 -0.39084909300E+01  0.22367731707E+02  0.51100000000E-03 0. -1.
        -11    1    3    3    0    0 -0.93789975293E+01 -0.11156769753E+02  0.93301058550E+01  0.17305778847E+02  0.51100000000E-03 0.  1.
         12    1    3    3    0    0 -0.13722008116E+00 -0.66743275532E+01  0.46116861304E+01  0.81137615569E+01  0.00000000000E+00 0. -1.
</event>
<event>
 7    1  0.1019486E-010  0.4778727E+02  0.7816164E-02  0.1312668E+00
        -11   -1    0    0    0    0  0.00000000000E+00  0.00000000000E+00  0.45593999997E+02  0.45594000000E+02  0.51100000000E-03 0. -1.
         11   -1    0    0    0    0 -0.00000000000E+00 -0.00000000000E+00 -0.45593999997E+02  0.45594000000E+02  0.51100000000E-03 0.  1.
    9900012    2    1    2    0    0  0.25956661718E+02 -0.55114647535E+01 -0.34343832701E+02  0.47787269869E+02  0.19999994642E+02 0.  0.
         12    1    1    2    0    0 -0.25956661718E+02  0.55114647535E+01  0.34343832701E+02  0.43400730131E+02  0.00000000000E+00 0. -1.
         11    1    3    3    0    0  0.91072997539E+01 -0.19187604834E+01 -0.27943529206E+01  0.97176622244E+01  0.51100000000E-03 0. -1.
        -11    1    3    3    0    0  0.35572860911E+01  0.16051992671E+01 -0.17901879548E+02  0.18322342662E+02  0.51100000000E-03 0.  1.
        -12    1    3    3    0    0  0.13292075873E+02 -0.51979035372E+01 -0.13647600233E+02  0.19747264983E+02  0.00000000000E+00 0.  1.
</event>
<event>
 7    1  0.1019486E-010  0.4778727E+02  0.7816164E-02  0.1312668E+00
        -11   -1    0    0    0    0  0.00000000000E+00  0.00000000000E+00  0.45593999997E+02  0.45594000000E+02  0.51100000000E-03 0. -1.
         11   -1    0    0    0    0 -0.00000000000E+00 -0.00000000000E+00 -0.45593999997E+02  0.45594000000E+02  0.51100000000E-03 0.  1.
    9900012    2    1    2    0    0 -0.16335725648E+02  0.37298262891E+02  0.15020206515E+02  0.47787274766E+02  0.20000016967E+02 0.  0.
        -12    1    1    2    0    0  0.16335725648E+02 -0.37298262891E+02 -0.15020206515E+02  0.43400725234E+02  0.00000000000E+00 0.  1.
         11    1    3    3    0    0 -0.61633705668E+01  0.23214112376E+02  0.21407598748E+01  0.24113585450E+02  0.51100000000E-03 0. -1.
        -11    1    3    3    0    0 -0.85115858898E+01  0.37227935916E+01  0.71097368532E+01  0.11698488999E+02  0.51100000000E-03 0.  1.
         12    1    3    3    0    0 -0.16607691911E+01  0.10361356923E+02  0.57697097867E+01  0.11975200316E+02  0.00000000000E+00 0. -1.
</event>
<event>
 7    1  0.1019486E-010  0.4778727E+02  0.7816164E-02  0.1312668E+00
        -11   -1    0    0    0    0  0.00000000000E+00  0.00000000000E+00  0.45593999997E+02  0.45594000000E+02  0.51100000000E-03 0. -1.
         11   -1    0    0    0    0 -0.00000000000E+00 -0.00000000000E+00 -0.45593999997E+02  0.45594000000E+02  0.51100000000E-03 0.  1.
    9900012    2    1    2    0    0  0.32401522718E+01  0.34088174250E+02 -0.26666854137E+02  0.47787270514E+02  0.19999997580E+02 0.  0.
         12    1    1    2    0    0 -0.32401522718E+01 -0.34088174250E+02  0.26666854137E+02  0.43400729486E+02  0.00000000000E+00 0. -1.
         11    1    3    3    0    0  0.97297611204E+00  0.70416104056E+01 -0.91077269178E+01  0.11553425877E+02  0.51100000000E-03 0.  1.
        -11    1    3    3    0    0  0.34258353707E+01  0.50647705661E+01 -0.12096124553E+02  0.13553762516E+02  0.51100000000E-03 0. -1.
        -12    1    3    3    0    0 -0.11586592109E+01  0.21981793278E+02 -0.54630026653E+01  0.22680082121E+02  0.00000000000E+00 0.  1.
</event>
<event>
 7    1  0.1019486E-010  0.4778727E+02  0.7816164E-02  0.1312668E+00
        -11   -1    0    0    0    0  0.00000000000E+00  0.00000000000E+00  0.45593999997E+02  0.45594000000E+02  0.51100000000E-03 0. -1.
         11   -1    0    0    0    0 -0.00000000000E+00 -0.00000000000E+00 -0.45593999997E+02  0.45594000000E+02  0.51100000000E-03 0.  1.
    9900012    2    1    2    0    0 -0.20830514830E+02 -0.31605606526E+02  0.21232014613E+02  0.47787272397E+02  0.20000006165E+02 0.  0.
        -12    1    1    2    0    0  0.20830514830E+02  0.31605606526E+02 -0.21232014613E+02  0.43400727603E+02  0.00000000000E+00 0.  1.
         11    1    3    3    0    0 -0.61136439066E+01  0.28921703141E+00  0.34646074489E+01  0.70330500740E+01  0.51100000000E-03 0. -1.
        -11    1    3    3    0    0 -0.48488865013E+01 -0.19471827937E+02  0.13941339871E+02  0.24434089735E+02  0.51100000000E-03 0.  1.
         12    1    3    3    0    0 -0.98679844223E+01 -0.12422995620E+02  0.38260672931E+01  0.16320132587E+02  0.00000000000E+00 0. -1.
</event>
<event>
 7    1  0.1019486E-010  0.4778727E+02  0.7816164E-02  0.1312668E+00
        -11   -1    0    0    0    0  0.00000000000E+00  0.00000000000E+00  0.45593999997E+02  0.45594000000E+02  0.51100000000E-03 0. -1.
         11   -1    0    0    0    0 -0.00000000000E+00 -0.00000000000E+00 -0.45593999997E+02  0.45594000000E+02  0.51100000000E-03 0.  1.
    9900012    2    1    2    0    0 -0.43097869154E+02 -0.11671903744E-02 -0.51183239981E+01  0.47787267661E+02  0.19999984575E+02 0.  0.
        -12    1    1    2    0    0  0.43097869154E+02  0.11671903744E-02  0.51183239981E+01  0.43400732339E+02  0.00000000000E+00 0.  1.
         11    1    3    3    0    0 -0.35030425884E+01 -0.42134710412E+01 -0.46108667271E+01  0.71613363158E+01  0.51100000000E-03 0. -1.
        -11    1    3    3    0    0 -0.16409583735E+02  0.53602429966E+01 -0.19202206291E+01  0.17369337663E+02  0.51100000000E-03 0.  1.
         12    1    3    3    0    0 -0.23185242831E+02 -0.11479391457E+01  0.14127633582E+01  0.23256593682E+02  0.00000000000E+00 0. -1.
</event>
<event>
 7    1  0.1019486E-010  0.4778728E+02  0.7816164E-02  0.1312668E+00
        -11   -1    0    0    0    0  0.00000000000E+00  0.00000000000E+00  0.45593999997E+02  0.45594000000E+02  0.51100000000E-03 0. -1.
         11   -1    0    0    0    0 -0.00000000000E+00 -0.00000000000E+00 -0.45593999997E+02  0.45594000000E+02  0.51100000000E-03 0.  1.
    9900012    2    1    2    0    0  0.29576054140E+02 -0.29866039363E+02 -0.10812011220E+02  0.47787275670E+02  0.20000021091E+02 0.  0.
         12    1    1    2    0    0 -0.29576054140E+02  0.29866039363E+02  0.10812011220E+02  0.43400724330E+02  0.00000000000E+00 0. -1.
         11    1    3    3    0    0  0.16862157034E+02 -0.11001927904E+02 -0.76299678043E+01  0.21531167325E+02  0.51100000000E-03 0. -1.
        -11    1    3    3    0    0  0.44797553846E+01  0.40085326143E+00 -0.28072868293E+01  0.53018629977E+01  0.51100000000E-03 0.  1.
         12    1    3    3    0    0  0.82341417214E+01 -0.19264964721E+02 -0.37475658658E+00  0.20954245347E+02  0.00000000000E+00 0. -1.
</event>
<event>
 7    1  0.1019486E-010  0.4778727E+02  0.7816164E-02  0.1312668E+00
        -11   -1    0    0    0    0  0.00000000000E+00  0.00000000000E+00  0.45593999997E+02  0.45594000000E+02  0.51100000000E-03 0. -1.
         11   -1    0    0    0    0 -0.00000000000E+00 -0.00000000000E+00 -0.45593999997E+02  0.45594000000E+02  0.51100000000E-03 0.  1.
    9900012    2    1    2    0    0  0.15653789722E+02 -0.77200202061E+00  0.40472042557E+02  0.47787270185E+02  0.19999996080E+02 0.  0.
        -12    1    1    2    0    0 -0.15653789722E+02  0.77200202061E+00 -0.40472042557E+02  0.43400729815E+02  0.00000000000E+00 0.  1.
         11    1    3    3    0    0 -0.32000921756E+01  0.17867072229E+01  0.61485072887E+01  0.71580063406E+01  0.51100000000E-03 0. -1.
        -11    1    3    3    0    0  0.10334402828E+02  0.90343137196E+00  0.91640703712E+01  0.13841829940E+02  0.51100000000E-03 0.  1.
         12    1    3    3    0    0  0.85194790691E+01 -0.34621406154E+01  0.25159464897E+02  0.26787433904E+02  0.00000000000E+00 0. -1.
</event>
<event>
 7    1  0.1019486E-010  0.4778727E+02  0.7816164E-02  0.1312668E+00
        -11   -1    0    0    0    0  0.00000000000E+00  0.00000000000E+00  0.45593999997E+02  0.45594000000E+02  0.51100000000E-03 0. -1.
         11   -1    0    0    0    0 -0.00000000000E+00 -0.00000000000E+00 -0.45593999997E+02  0.45594000000E+02  0.51100000000E-03 0.  1.
    9900012    2    1    2    0    0  0.28380086933E+02  0.13688897746E+02 -0.29846402976E+02  0.47787273895E+02  0.20000012995E+02 0.  0.
         12    1    1    2    0    0 -0.28380086933E+02 -0.13688897746E+02  0.29846402976E+02  0.43400726105E+02  0.00000000000E+00 0. -1.
         11    1    3    3    0    0  0.86518183089E+01 -0.18883435520E+01 -0.17373197340E+02  0.19499943269E+02  0.51100000000E-03 0. -1.
        -11    1    3    3    0    0  0.15776954700E+02  0.12974892459E+02 -0.11552023829E+02  0.23467198144E+02  0.51100000000E-03 0.  1.
         12    1    3    3    0    0  0.39513139243E+01  0.26023488396E+01 -0.92118180671E+00  0.48201324808E+01  0.00000000000E+00 0. -1.
</event>
<event>
 7    1  0.1019486E-010  0.4778727E+02  0.7816164E-02  0.1312668E+00
        -11   -1    0    0    0    0  0.00000000000E+00  0.00000000000E+00  0.45593999997E+02  0.45594000000E+02  0.51100000000E-03 0. -1.
         11   -1    0    0    0    0 -0.00000000000E+00 -0.00000000000E+00 -0.45593999997E+02  0.45594000000E+02  0.51100000000E-03 0.  1.
    9900012    2    1    2    0    0 -0.21685359963E+02  0.10203586444E+02  0.36183633538E+02  0.47787270178E+02  0.19999996051E+02 0.  0.
        -12    1    1    2    0    0  0.21685359963E+02 -0.10203586444E+02 -0.36183633538E+02  0.43400729822E+02  0.00000000000E+00 0.  1.
         11    1    3    3    0    0 -0.97007667836E+01  0.35603724561E+01  0.21729995441E+02  0.24061875038E+02  0.51100000000E-03 0. -1.
        -11    1    3    3    0    0 -0.13362519357E+02  0.40800323815E+01  0.68025520597E+01  0.15539572149E+02  0.51100000000E-03 0.  1.
        -12    1    3    3    0    0  0.13779261770E+01  0.25631816066E+01  0.76510860374E+01  0.81858229916E+01  0.00000000000E+00 0.  1.
</event>
<event>
 7    1  0.1019486E-010  0.4778727E+02  0.7816164E-02  0.1312668E+00
        -11   -1    0    0    0    0  0.00000000000E+00  0.00000000000E+00  0.45593999997E+02  0.45594000000E+02  0.51100000000E-03 0. -1.
         11   -1    0    0    0    0 -0.00000000000E+00 -0.00000000000E+00 -0.45593999997E+02  0.45594000000E+02  0.51100000000E-03 0.  1.
    9900012    2    1    2    0    0 -0.15983843818E+02 -0.35341584848E+02  0.19470816313E+02  0.47787267625E+02  0.19999984411E+02 0.  0.
        -12    1    1    2    0    0  0.15983843818E+02  0.35341584848E+02 -0.19470816313E+02  0.43400732375E+02  0.00000000000E+00 0.  1.
         11    1    3    3    0    0 -0.14971258160E+02 -0.16039794690E+02  0.15296607039E+02  0.26746958177E+02  0.51100000000E-03 0. -1.
        -11    1    3    3    0    0  0.10911718576E+01 -0.14858163503E+02  0.56085259929E+01  0.15918895778E+02  0.51100000000E-03 0.  1.
         12    1    3    3    0    0 -0.21037575163E+01 -0.44436266548E+01 -0.14343167184E+01  0.51214136704E+01  0.00000000000E+00 0. -1.
</event>
<event>
 7    1  0.1019486E-010  0.4778727E+02  0.7816164E-02  0.1312668E+00
        -11   -1    0    0    0    0  0.00000000000E+00  0.00000000000E+00  0.45593999997E+02  0.45594000000E+02  0.51100000000E-03 0. -1.
         11   -1    0    0    0    0 -0.00000000000E+00 -0.00000000000E+00 -0.45593999997E+02  0.45594000000E+02  0.51100000000E-03 0.  1.
    9900012    2    1    2    0    0 -0.23892465651E+02  0.24439403883E+02  0.26748626138E+02  0.47787269853E+02  0.19999994568E+02 0.  0.
        -12    1    1    2    0    0  0.23892465651E+02 -0.24439403883E+02 -0.26748626138E+02  0.43400730147E+02  0.00000000000E+00 0.  1.
         11    1    3    3    0    0 -0.12505747076E+02  0.11806876759E+02  0.23192771675E+02  0.28873875856E+02  0.51100000000E-03 0. -1.
        -11    1    3    3    0    0 -0.30519677481E+01  0.84047079295E+01  0.79428314218E-01  0.89420317397E+01  0.51100000000E-03 0.  1.
         12    1    3    3    0    0 -0.83347508274E+01  0.42278191947E+01  0.34764261481E+01  0.99713622571E+01  0.00000000000E+00 0. -1.
</event>
<event>
 7    1  0.1019486E-010  0.4778727E+02  0.7816164E-02  0.1312668E+00
        -11   -1    0    0    0    0  0.00000000000E+00  0.00000000000E+00  0.45593999997E+02  0.45594000000E+02  0.51100000000E-03 0. -1.
         11   -1    0    0    0    0 -0.00000000000E+00 -0.00000000000E+00 -0.45593999997E+02  0.45594000000E+02  0.51100000000E-03 0.  1.
    9900012    2    1    2    0    0  0.18185988588E+02  0.33474628809E+02  0.20792837503E+02  0.47787273667E+02  0.20000011956E+02 0.  0.
        -12    1    1    2    0    0 -0.18185988588E+02 -0.33474628809E+02 -0.20792837503E+02  0.43400726333E+02  0.00000000000E+00 0.  1.
         11    1    3    3    0    0  0.20736223654E+01  0.16519446618E+02  0.94335721550E+01  0.19135942887E+02  0.51100000000E-03 0. -1.
        -11    1    3    3    0    0  0.16847322909E+02  0.17428133188E+02  0.12452759469E+02  0.27251483157E+02  0.51100000000E-03 0.  1.
        -12    1    3    3    0    0 -0.73495668557E+00 -0.47295099832E+00 -0.10934941203E+01  0.13998476230E+01  0.00000000000E+00 0.  1.
</event>
<event>
 7    1  0.1019486E-010  0.4778727E+02  0.7816164E-02  0.1312668E+00
        -11   -1    0    0    0    0  0.00000000000E+00  0.00000000000E+00  0.45593999997E+02  0.45594000000E+02  0.51100000000E-03 0. -1.
         11   -1    0    0    0    0 -0.00000000000E+00 -0.00000000000E+00 -0.45593999997E+02  0.45594000000E+02  0.51100000000E-03 0.  1.
    9900012    2    1    2    0    0 -0.24853904592E+02 -0.18198860770E+02 -0.30572993792E+02  0.47787273552E+02  0.20000011434E+02 0.  0.
         12    1    1    2    0    0  0.24853904592E+02  0.18198860770E+02  0.30572993792E+02  0.43400726448E+02  0.00000000000E+00 0. -1.
         11    1    3    3    0    0 -0.26359011377E+02 -0.15226496998E+02 -0.24605364515E+02  0.39141635822E+02  0.51100000000E-03 0.  1.
        -11    1    3    3    0    0  0.27212758512E+01 -0.10419111296E+00 -0.12602517026E+01  0.30007386860E+01  0.51100000000E-03 0. -1.
        -12    1    3    3    0    0 -0.12161690661E+01 -0.28681726594E+01 -0.47073775739E+01  0.56448990447E+01  0.00000000000E+00 0.  1.
</event>
<event>
 7    1  0.1019486E-010  0.4778723E+02  0.7816164E-02  0.1312668E+00
        -11   -1    0    0    0    0  0.00000000000E+00  0.00000000000E+00  0.45593999997E+02  0.45594000000E+02  0.51100000000E-03 0. -1.
         11   -1    0    0    0    0 -0.00000000000E+00 -0.00000000000E+00 -0.45593999997E+02  0.45594000000E+02  0.51100000000E-03 0.  1.
    9900012    2    1    2    0    0  0.12974897739E+02  0.35865481432E+02 -0.20711010206E+02  0.47787231880E+02  0.19999821433E+02 0.  0.
         12    1    1    2    0    0 -0.12974897739E+02 -0.35865481432E+02  0.20711010206E+02  0.43400768120E+02  0.00000000000E+00 0. -1.
         11    1    3    3    0    0 -0.11753050057E+01  0.18238061018E+02 -0.60648305030E+01  0.19255918073E+02  0.51100000000E-03 0. -1.
        -11    1    3    3    0    0  0.10189725173E+02  0.17713719739E+02 -0.13128232225E+02  0.24289027311E+02  0.51100000000E-03 0.  1.
        -12    1    3    3    0    0  0.39604775714E+01 -0.86299325177E-01 -0.15179474776E+01  0.42422864957E+01  0.00000000000E+00 0.  1.
</event>
<event>
 7    1  0.1019486E-010  0.4778727E+02  0.7816164E-02  0.1312668E+00
        -11   -1    0    0    0    0  0.00000000000E+00  0.00000000000E+00  0.45593999997E+02  0.45594000000E+02  0.51100000000E-03 0. -1.
         11   -1    0    0    0    0 -0.00000000000E+00 -0.00000000000E+00 -0.45593999997E+02  0.45594000000E+02  0.51100000000E-03 0.  1.
    9900012    2    1    2    0    0 -0.12688161914E+02 -0.35715124135E+02 -0.21143887876E+02  0.47787267987E+02  0.19999986062E+02 0.  0.
         12    1    1    2    0    0  0.12688161914E+02  0.35715124135E+02  0.21143887876E+02  0.43400732013E+02  0.00000000000E+00 0. -1.
         11    1    3    3    0    0 -0.27183074205E+01 -0.57633782210E+01 -0.11211268461E+02  0.12895668440E+02  0.51100000000E-03 0. -1.
        -11    1    3    3    0    0 -0.92456787906E+01 -0.29768495943E+02 -0.11444084404E+02  0.33205616922E+02  0.51100000000E-03 0.  1.
        -12    1    3    3    0    0 -0.72417570298E+00 -0.18324997028E+00  0.15114649893E+01  0.16859826257E+01  0.00000000000E+00 0.  1.
</event>
<event>
 7    1  0.1019486E-010  0.4778727E+02  0.7816164E-02  0.1312668E+00
        -11   -1    0    0    0    0  0.00000000000E+00  0.00000000000E+00  0.45593999997E+02  0.45594000000E+02  0.51100000000E-03 0. -1.
         11   -1    0    0    0    0 -0.00000000000E+00 -0.00000000000E+00 -0.45593999997E+02  0.45594000000E+02  0.51100000000E-03 0.  1.
    9900012    2    1    2    0    0  0.16531737535E+02  0.11076195048E+02 -0.38569976130E+02  0.47787268423E+02  0.19999988049E+02 0.  0.
         12    1    1    2    0    0 -0.16531737535E+02 -0.11076195048E+02  0.38569976130E+02  0.43400731577E+02  0.00000000000E+00 0. -1.
         11    1    3    3    0    0 -0.23437736301E+01 -0.38167162681E+00  0.43152166392E+00  0.24135366721E+01  0.51100000000E-03 0. -1.
        -11    1    3    3    0    0  0.17372115275E+02  0.12421086056E+02 -0.35159997926E+02  0.41137564614E+02  0.51100000000E-03 0.  1.
        -12    1    3    3    0    0  0.15033958907E+01 -0.96321938055E+00 -0.38414998684E+01  0.42361671376E+01  0.00000000000E+00 0.  1.
</event>
<event>
 7    1  0.1019486E-010  0.4778727E+02  0.7816164E-02  0.1312668E+00
        -11   -1    0    0    0    0  0.00000000000E+00  0.00000000000E+00  0.45593999997E+02  0.45594000000E+02  0.51100000000E-03 0. -1.
         11   -1    0    0    0    0 -0.00000000000E+00 -0.00000000000E+00 -0.45593999997E+02  0.45594000000E+02  0.51100000000E-03 0.  1.
    9900012    2    1    2    0    0  0.33170713305E+02  0.17254132351E+01  0.27934743415E+02  0.47787272337E+02  0.20000005894E+02 0.  0.
        -12    1    1    2    0    0 -0.33170713305E+02 -0.17254132351E+01 -0.27934743415E+02  0.43400727663E+02  0.00000000000E+00 0.  1.
         11    1    3    3    0    0  0.88589013739E+01  0.44700638573E+01  0.16184644494E+02  0.18984317794E+02  0.51100000000E-03 0. -1.
        -11    1    3    3    0    0 -0.80601963848E+00  0.17963537149E+00  0.10724929747E+01  0.13535796859E+01  0.51100000000E-03 0.  1.
        -12    1    3    3    0    0  0.25117831569E+02 -0.29242859937E+01  0.10677605947E+02  0.27449374857E+02  0.00000000000E+00 0.  1.
</event>
<event>
 7    1  0.1019486E-010  0.4778727E+02  0.7816164E-02  0.1312668E+00
        -11   -1    0    0    0    0  0.00000000000E+00  0.00000000000E+00  0.45593999997E+02  0.45594000000E+02  0.51100000000E-03 0. -1.
         11   -1    0    0    0    0 -0.00000000000E+00 -0.00000000000E+00 -0.45593999997E+02  0.45594000000E+02  0.51100000000E-03 0.  1.
    9900012    2    1    2    0    0  0.66079784032E+01  0.17930023146E+01  0.42857241637E+02  0.47787269631E+02  0.19999993554E+02 0.  0.
        -12    1    1    2    0    0 -0.66079784032E+01 -0.17930023146E+01 -0.42857241637E+02  0.43400730369E+02  0.00000000000E+00 0.  1.
         11    1    3    3    0    0 -0.39141537736E+01 -0.44276315256E+01  0.69575835530E+01  0.91286630921E+01  0.51100000000E-03 0. -1.
        -11    1    3    3    0    0  0.88762360096E+01  0.40823074143E+01  0.17332929608E+02  0.19896815036E+02  0.51100000000E-03 0.  1.
         12    1    3    3    0    0  0.16458961671E+01  0.21383264259E+01  0.18566728475E+02  0.18761791502E+02  0.00000000000E+00 0. -1.
</event>
<event>
 7    1  0.1019486E-010  0.4778727E+02  0.7816164E-02  0.1312668E+00
        -11   -1    0    0    0    0  0.00000000000E+00  0.00000000000E+00  0.45593999997E+02  0.45594000000E+02  0.51100000000E-03 0. -1.
         11   -1    0    0    0    0 -0.00000000000E+00 -0.00000000000E+00 -0.45593999997E+02  0.45594000000E+02  0.51100000000E-03 0.  1.
    9900012    2    1    2    0    0 -0.20916434189E+02  0.87744677099E+01  0.37001821950E+02  0.47787270393E+02  0.19999997032E+02 0.  0.
        -12    1    1    2    0    0  0.20916434189E+02 -0.87744677099E+01 -0.37001821950E+02  0.43400729607E+02  0.00000000000E+00 0.  1.
         11    1    3    3    0    0 -0.88105137394E+01  0.11594075405E+02  0.21155746244E+02  0.25682938622E+02  0.51100000000E-03 0. -1.
        -11    1    3    3    0    0 -0.11147722314E+02 -0.52314061028E+00  0.76281021587E+01  0.13517889321E+02  0.51100000000E-03 0.  1.
         12    1    3    3    0    0 -0.95819813587E+00 -0.22964670852E+01  0.82179735475E+01  0.85864424512E+01  0.00000000000E+00 0. -1.
</event>
<event>
 7    1  0.1019486E-010  0.4778727E+02  0.7816164E-02  0.1312668E+00
        -11   -1    0    0    0    0  0.00000000000E+00  0.00000000000E+00  0.45593999997E+02  0.45594000000E+02  0.51100000000E-03 0. -1.
         11   -1    0    0    0    0 -0.00000000000E+00 -0.00000000000E+00 -0.45593999997E+02  0.45594000000E+02  0.51100000000E-03 0.  1.
    9900012    2    1    2    0    0  0.33265508488E+02 -0.16005170183E+02  0.22822442882E+02  0.47787269284E+02  0.19999991974E+02 0.  0.
        -12    1    1    2    0    0 -0.33265508488E+02  0.16005170183E+02 -0.22822442882E+02  0.43400730716E+02  0.00000000000E+00 0.  1.
         11    1    3    3    0    0  0.29722377063E+02 -0.13897419222E+02  0.19238895300E+02  0.38035418388E+02  0.51100000000E-03 0. -1.
        -11    1    3    3    0    0  0.29327342886E+01  0.15186311609E+01 -0.13759142659E+01  0.35777522747E+01  0.51100000000E-03 0.  1.
         12    1    3    3    0    0  0.61039713582E+00 -0.36263821223E+01  0.49594618486E+01  0.61740986215E+01  0.00000000000E+00 0. -1.
</event>
<event>
 7    1  0.1019486E-010  0.4778727E+02  0.7816164E-02  0.1312668E+00
        -11   -1    0    0    0    0  0.00000000000E+00  0.00000000000E+00  0.45593999997E+02  0.45594000000E+02  0.51100000000E-03 0. -1.
         11   -1    0    0    0    0 -0.00000000000E+00 -0.00000000000E+00 -0.45593999997E+02  0.45594000000E+02  0.51100000000E-03 0.  1.
    9900012    2    1    2    0    0  0.63994642354E+01 -0.16878081902E+02  0.39468977598E+02  0.47787274386E+02  0.20000015235E+02 0.  0.
        -12    1    1    2    0    0 -0.63994642354E+01  0.16878081902E+02 -0.39468977598E+02  0.43400725614E+02  0.00000000000E+00 0.  1.
         11    1    3    3    0    0 -0.91378348808E+00 -0.29088438853E+01  0.62309404656E+01  0.69369296060E+01  0.51100000000E-03 0. -1.
        -11    1    3    3    0    0  0.79398146484E+01  0.16228791741E+01  0.12498373787E+02  0.14895762520E+02  0.51100000000E-03 0.  1.
        -12    1    3    3    0    0 -0.62656692496E+00 -0.15592117191E+02  0.20739663345E+02  0.25954582260E+02  0.00000000000E+00 0.  1.
</event>
<event>
 7    1  0.1019486E-010  0.4778727E+02  0.7816164E-02  0.1312668E+00
        -11   -1    0    0    0    0  0.00000000000E+00  0.00000000000E+00  0.45593999997E+02  0.45594000000E+02  0.51100000000E-03 0. -1.
         11   -1    0    0    0    0 -0.00000000000E+00 -0.00000000000E+00 -0.45593999997E+02  0.45594000000E+02  0.51100000000E-03 0.  1.
    9900012    2    1    2    0    0  0.16272080984E+02  0.85588969177E+01  0.39313965238E+02  0.47787271911E+02  0.20000003949E+02 0.  0.
        -12    1    1    2    0    0 -0.16272080984E+02 -0.85588969177E+01 -0.39313965238E+02  0.43400728089E+02  0.00000000000E+00 0.  1.
         11    1    3    3    0    0  0.12581228432E+02  0.35895222439E+01  0.14079025414E+02  0.19219545668E+02  0.51100000000E-03 0. -1.
        -11    1    3    3    0    0 -0.39395723239E+01 -0.46071263388E+00  0.87788067024E+01  0.96332722170E+01  0.51100000000E-03 0.  1.
         12    1    3    3    0    0  0.76304248754E+01  0.54300873076E+01  0.16456133122E+02  0.18934454026E+02  0.00000000000E+00 0. -1.
</event>
<event>
 7    1  0.1019486E-010  0.4778727E+02  0.7816164E-02  0.1312668E+00
        -11   -1    0    0    0    0  0.00000000000E+00  0.00000000000E+00  0.45593999997E+02  0.45594000000E+02  0.51100000000E-03 0. -1.
         11   -1    0    0    0    0 -0.00000000000E+00 -0.00000000000E+00 -0.45593999997E+02  0.45594000000E+02  0.51100000000E-03 0.  1.
    9900012    2    1    2    0    0 -0.30534096863E+02 -0.12069813707E+02  0.28383305012E+02  0.47787268697E+02  0.19999989299E+02 0.  0.
        -12    1    1    2    0    0  0.30534096863E+02  0.12069813707E+02 -0.28383305012E+02  0.43400731303E+02  0.00000000000E+00 0.  1.
         11    1    3    3    0    0 -0.18418245745E+02 -0.47831308007E-01  0.94825373918E+01  0.20715998161E+02  0.51100000000E-03 0. -1.
        -11    1    3    3    0    0 -0.43648025199E+01 -0.77500005661E+01  0.14912828006E+02  0.17363941062E+02  0.51100000000E-03 0.  1.
        -12    1    3    3    0    0 -0.77510485989E+01 -0.42719818331E+01  0.39879396144E+01  0.97073294749E+01  0.00000000000E+00 0.  1.
</event>
<event>
 7    1  0.1019486E-010  0.4778727E+02  0.7816164E-02  0.1312668E+00
        -11   -1    0    0    0    0  0.00000000000E+00  0.00000000000E+00  0.45593999997E+02  0.45594000000E+02  0.51100000000E-03 0.  1.
         11   -1    0    0    0    0 -0.00000000000E+00 -0.00000000000E+00 -0.45593999997E+02  0.45594000000E+02  0.51100000000E-03 0. -1.
    9900012    2    1    2    0    0 -0.21723728143E+01 -0.25752835385E+02 -0.34866825529E+02  0.47787271244E+02  0.20000000912E+02 0.  0.
         12    1    1    2    0    0  0.21723728143E+01  0.25752835385E+02  0.34866825529E+02  0.43400728756E+02  0.00000000000E+00 0. -1.
         11    1    3    3    0    0 -0.76969989532E+00 -0.10299909213E+02 -0.98652511579E+00  0.10375634910E+02  0.51100000000E-03 0.  1.
        -11    1    3    3    0    0 -0.12288021394E+00 -0.63194727922E+01 -0.17599422437E+02  0.18700013537E+02  0.51100000000E-03 0. -1.
        -12    1    3    3    0    0 -0.12797927051E+01 -0.91334533802E+01 -0.16280877977E+02  0.18711622797E+02  0.00000000000E+00 0.  1.
</event>
<event>
 7    1  0.1019486E-010  0.4778727E+02  0.7816164E-02  0.1312668E+00
        -11   -1    0    0    0    0  0.00000000000E+00  0.00000000000E+00  0.45593999997E+02  0.45594000000E+02  0.51100000000E-03 0. -1.
         11   -1    0    0    0    0 -0.00000000000E+00 -0.00000000000E+00 -0.45593999997E+02  0.45594000000E+02  0.51100000000E-03 0.  1.
    9900012    2    1    2    0    0  0.97236187023E+01 -0.20828655559E+01  0.42246140126E+02  0.47787269071E+02  0.19999991003E+02 0.  0.
        -12    1    1    2    0    0 -0.97236187023E+01  0.20828655559E+01 -0.42246140126E+02  0.43400730929E+02  0.00000000000E+00 0.  1.
         11    1    3    3    0    0  0.49673298144E+01  0.64263599299E+01  0.83041161109E+01  0.11615972283E+02  0.51100000000E-03 0. -1.
        -11    1    3    3    0    0  0.12133738243E+01 -0.50305144794E+01  0.27779454830E+02  0.28257325826E+02  0.51100000000E-03 0.  1.
        -12    1    3    3    0    0  0.35429150636E+01 -0.34787110064E+01  0.61625691857E+01  0.79139709617E+01  0.00000000000E+00 0.  1.
</event>
<event>
 7    1  0.1019486E-010  0.4778727E+02  0.7816164E-02  0.1312668E+00
        -11   -1    0    0    0    0  0.00000000000E+00  0.00000000000E+00  0.45593999997E+02  0.45594000000E+02  0.51100000000E-03 0. -1.
         11   -1    0    0    0    0 -0.00000000000E+00 -0.00000000000E+00 -0.45593999997E+02  0.45594000000E+02  0.51100000000E-03 0.  1.
    9900012    2    1    2    0    0  0.33543267830E+01 -0.43109121024E+02 -0.37383357818E+01  0.47787274453E+02  0.20000015540E+02 0.  0.
         12    1    1    2    0    0 -0.33543267830E+01  0.43109121024E+02  0.37383357818E+01  0.43400725547E+02  0.00000000000E+00 0. -1.
         11    1    3    3    0    0 -0.76161029085E+01 -0.19263811244E+02 -0.52910282325E+01  0.21379766771E+02  0.51100000000E-03 0. -1.
        -11    1    3    3    0    0  0.55137089563E+01 -0.14368534788E+02  0.22552611619E+00  0.15391771851E+02  0.51100000000E-03 0.  1.
         12    1    3    3    0    0  0.54567207352E+01 -0.94767749916E+01  0.13271663346E+01  0.11015735831E+02  0.00000000000E+00 0. -1.
</event>
<event>
 7    1  0.1019486E-010  0.4778727E+02  0.7816164E-02  0.1312668E+00
        -11   -1    0    0    0    0  0.00000000000E+00  0.00000000000E+00  0.45593999997E+02  0.45594000000E+02  0.51100000000E-03 0. -1.
         11   -1    0    0    0    0 -0.00000000000E+00 -0.00000000000E+00 -0.45593999997E+02  0.45594000000E+02  0.51100000000E-03 0.  1.
    9900012    2    1    2    0    0 -0.25730522657E+02  0.29421106568E+02  0.18866951527E+02  0.47787272266E+02  0.20000005571E+02 0.  0.
        -12    1    1    2    0    0  0.25730522657E+02 -0.29421106568E+02 -0.18866951527E+02  0.43400727734E+02  0.00000000000E+00 0.  1.
         11    1    3    3    0    0 -0.52652131328E+01  0.10179185739E+02  0.30977917438E+01  0.11871588166E+02  0.51100000000E-03 0. -1.
        -11    1    3    3    0    0  0.17176116770E+01  0.39021927782E+01  0.57201323058E+01  0.71342282139E+01  0.51100000000E-03 0.  1.
        -12    1    3    3    0    0 -0.22182921201E+02  0.15339728051E+02  0.10049027477E+02  0.28781455886E+02  0.00000000000E+00 0.  1.
</event>
<event>
 7    1  0.1019486E-010  0.4778727E+02  0.7816164E-02  0.1312668E+00
        -11   -1    0    0    0    0  0.00000000000E+00  0.00000000000E+00  0.45593999997E+02  0.45594000000E+02  0.51100000000E-03 0. -1.
         11   -1    0    0    0    0 -0.00000000000E+00 -0.00000000000E+00 -0.45593999997E+02  0.45594000000E+02  0.51100000000E-03 0.  1.
    9900012    2    1    2    0    0 -0.91913952618E+01  0.32410998138E+02  0.27361816094E+02  0.47787268127E+02  0.19999986700E+02 0.  0.
        -12    1    1    2    0    0  0.91913952618E+01 -0.32410998138E+02 -0.27361816094E+02  0.43400731873E+02  0.00000000000E+00 0.  1.
         11    1    3    3    0    0 -0.11477551493E+02  0.23697346036E+02  0.13366214220E+02  0.29528868591E+02  0.51100000000E-03 0. -1.
        -11    1    3    3    0    0  0.32508188042E+01  0.30998877150E+00  0.40205167990E+01  0.51796207900E+01  0.51100000000E-03 0.  1.
         12    1    3    3    0    0 -0.96466257339E+00  0.84036633297E+01  0.99750850751E+01  0.13078778746E+02  0.00000000000E+00 0. -1.
</event>
<event>
 7    1  0.1019486E-010  0.4778728E+02  0.7816164E-02  0.1312668E+00
        -11   -1    0    0    0    0  0.00000000000E+00  0.00000000000E+00  0.45593999997E+02  0.45594000000E+02  0.51100000000E-03 0. -1.
         11   -1    0    0    0    0 -0.00000000000E+00 -0.00000000000E+00 -0.45593999997E+02  0.45594000000E+02  0.51100000000E-03 0.  1.
    9900012    2    1    2    0    0  0.56339946806E+00  0.19476495509E+02  0.38781072705E+02  0.47787275393E+02  0.20000019825E+02 0.  0.
        -12    1    1    2    0    0 -0.56339946806E+00 -0.19476495509E+02 -0.38781072705E+02  0.43400724607E+02  0.00000000000E+00 0.  1.
         11    1    3    3    0    0 -0.23641689233E+01  0.71718619398E+01  0.19536316034E+01  0.78001009663E+01  0.51100000000E-03 0. -1.
        -11    1    3    3    0    0  0.41966613822E+01  0.28768881969E+01  0.20199019765E+02  0.20829998852E+02  0.51100000000E-03 0.  1.
        -12    1    3    3    0    0 -0.12690929908E+01  0.94277453724E+01  0.16628421337E+02  0.19157175574E+02  0.00000000000E+00 0.  1.
</event>
<event>
 7    1  0.1019486E-010  0.4778727E+02  0.7816164E-02  0.1312668E+00
        -11   -1    0    0    0    0  0.00000000000E+00  0.00000000000E+00  0.45593999997E+02  0.45594000000E+02  0.51100000000E-03 0. -1.
         11   -1    0    0    0    0 -0.00000000000E+00 -0.00000000000E+00 -0.45593999997E+02  0.45594000000E+02  0.51100000000E-03 0.  1.
    9900012    2    1    2    0    0 -0.51471548651E+01  0.37332462004E+02  0.21527135166E+02  0.47787268774E+02  0.19999989649E+02 0.  0.
        -12    1    1    2    0    0  0.51471548651E+01 -0.37332462004E+02 -0.21527135166E+02  0.43400731226E+02  0.00000000000E+00 0.  1.
         11    1    3    3    0    0 -0.21152237304E+00  0.17040754916E+02  0.17344030995E+02  0.24315581039E+02  0.51100000000E-03 0. -1.
        -11    1    3    3    0    0 -0.44223317222E+01  0.21319514465E+02  0.45918691940E+01  0.22252280284E+02  0.51100000000E-03 0.  1.
         12    1    3    3    0    0 -0.51330076992E+00 -0.10278073780E+01 -0.40876502321E+00  0.12194074508E+01  0.00000000000E+00 0. -1.
</event>
<event>
 7    1  0.1019486E-010  0.4778727E+02  0.7816164E-02  0.1312668E+00
        -11   -1    0    0    0    0  0.00000000000E+00  0.00000000000E+00  0.45593999997E+02  0.45594000000E+02  0.51100000000E-03 0. -1.
         11   -1    0    0    0    0 -0.00000000000E+00 -0.00000000000E+00 -0.45593999997E+02  0.45594000000E+02  0.51100000000E-03 0.  1.
    9900012    2    1    2    0    0 -0.32652123406E+02  0.34419725232E+01 -0.28383352511E+02  0.47787273767E+02  0.20000012415E+02 0.  0.
         12    1    1    2    0    0  0.32652123406E+02 -0.34419725232E+01  0.28383352511E+02  0.43400726233E+02  0.00000000000E+00 0. -1.
         11    1    3    3    0    0 -0.16567021811E+02  0.29181623965E+01 -0.51856738660E+01  0.17603212695E+02  0.51100000000E-03 0. -1.
        -11    1    3    3    0    0 -0.22029668563E+00  0.17027803986E+01 -0.80024972087E+01  0.81846168849E+01  0.51100000000E-03 0.  1.
        -12    1    3    3    0    0 -0.15864804909E+02 -0.11789702718E+01 -0.15195181436E+02  0.21999444188E+02  0.00000000000E+00 0.  1.
</event>
<event>
 7    1  0.1019486E-010  0.4778727E+02  0.7816164E-02  0.1312668E+00
        -11   -1    0    0    0    0  0.00000000000E+00  0.00000000000E+00  0.45593999997E+02  0.45594000000E+02  0.51100000000E-03 0. -1.
         11   -1    0    0    0    0 -0.00000000000E+00 -0.00000000000E+00 -0.45593999997E+02  0.45594000000E+02  0.51100000000E-03 0.  1.
    9900012    2    1    2    0    0  0.10296666433E+02  0.39799745543E+02  0.13913386381E+02  0.47787269527E+02  0.19999993083E+02 0.  0.
        -12    1    1    2    0    0 -0.10296666433E+02 -0.39799745543E+02 -0.13913386381E+02  0.43400730473E+02  0.00000000000E+00 0.  1.
         11    1    3    3    0    0  0.56351954021E+01  0.11136441943E+02  0.43161803919E+01  0.13206255328E+02  0.51100000000E-03 0. -1.
        -11    1    3    3    0    0  0.73196554770E+01  0.73376918602E+01 -0.13686828280E+01  0.10454299167E+02  0.51100000000E-03 0.  1.
        -12    1    3    3    0    0 -0.26581844461E+01  0.21325611741E+02  0.10965888817E+02  0.24126715032E+02  0.00000000000E+00 0.  1.
</event>
<event>
 7    1  0.1019486E-010  0.4778727E+02  0.7816164E-02  0.1312668E+00
        -11   -1    0    0    0    0  0.00000000000E+00  0.00000000000E+00  0.45593999997E+02  0.45594000000E+02  0.51100000000E-03 0. -1.
         11   -1    0    0    0    0 -0.00000000000E+00 -0.00000000000E+00 -0.45593999997E+02  0.45594000000E+02  0.51100000000E-03 0.  1.
    9900012    2    1    2    0    0 -0.80802903494E+01 -0.81473407922E+01  0.41856338461E+02  0.47787270473E+02  0.19999997393E+02 0.  0.
        -12    1    1    2    0    0  0.80802903494E+01  0.81473407922E+01 -0.41856338461E+02  0.43400729527E+02  0.00000000000E+00 0.  1.
         11    1    3    3    0    0 -0.10510631167E+02 -0.10980868764E+02  0.21584719107E+02  0.26399866392E+02  0.51100000000E-03 0. -1.
        -11    1    3    3    0    0 -0.66607593873E+00  0.30482746056E+01  0.14522702738E+02  0.14854108196E+02  0.51100000000E-03 0.  1.
         12    1    3    3    0    0  0.30964167565E+01 -0.21474663424E+00  0.57489166164E+01  0.65332958841E+01  0.00000000000E+00 0. -1.
</event>
<event>
 7    1  0.1019486E-010  0.4778726E+02  0.7816164E-02  0.1312668E+00
        -11   -1    0    0    0    0  0.00000000000E+00  0.00000000000E+00  0.45593999997E+02  0.45594000000E+02  0.51100000000E-03 0. -1.
         11   -1    0    0    0    0 -0.00000000000E+00 -0.00000000000E+00 -0.45593999997E+02  0.45594000000E+02  0.51100000000E-03 0.  1.
    9900012    2    1    2    0    0  0.64391795765E+01 -0.13587543749E+02  0.40712892563E+02  0.47787262684E+02  0.19999961882E+02 0.  0.
        -12    1    1    2    0    0 -0.64391795765E+01  0.13587543749E+02 -0.40712892563E+02  0.43400737316E+02  0.00000000000E+00 0.  1.
         11    1    3    3    0    0  0.64265083952E+01 -0.13177824287E+02  0.29549785713E+02  0.32987041380E+02  0.51100000000E-03 0. -1.
        -11    1    3    3    0    0  0.11082338807E+01 -0.77173593428E+00 -0.15380335032E+01  0.20467794226E+01  0.51100000000E-03 0.  1.
        -12    1    3    3    0    0 -0.10955626994E+01  0.36201647192E+00  0.12701140353E+02  0.12753441881E+02  0.00000000000E+00 0.  1.
</event>
<event>
 7    1  0.1019486E-010  0.4778727E+02  0.7816164E-02  0.1312668E+00
        -11   -1    0    0    0    0  0.00000000000E+00  0.00000000000E+00  0.45593999997E+02  0.45594000000E+02  0.51100000000E-03 0. -1.
         11   -1    0    0    0    0 -0.00000000000E+00 -0.00000000000E+00 -0.45593999997E+02  0.45594000000E+02  0.51100000000E-03 0.  1.
    9900012    2    1    2    0    0  0.50938888856E+01 -0.99649938840E+01  0.41932976078E+02  0.47787270861E+02  0.19999999162E+02 0.  0.
        -12    1    1    2    0    0 -0.50938888856E+01  0.99649938840E+01 -0.41932976078E+02  0.43400729139E+02  0.00000000000E+00 0.  1.
         11    1    3    3    0    0  0.40470618040E+01 -0.26887096352E+01  0.12414622635E+02  0.13331568707E+02  0.51100000000E-03 0. -1.
        -11    1    3    3    0    0  0.34639796895E+01  0.43020429635E+01  0.61613052468E+01  0.82745641308E+01  0.51100000000E-03 0.  1.
        -12    1    3    3    0    0 -0.24171526078E+01 -0.11578327212E+02  0.23357048196E+02  0.26181138023E+02  0.00000000000E+00 0.  1.
</event>
<event>
 7    1  0.1019486E-010  0.4778727E+02  0.7816164E-02  0.1312668E+00
        -11   -1    0    0    0    0  0.00000000000E+00  0.00000000000E+00  0.45593999997E+02  0.45594000000E+02  0.51100000000E-03 0. -1.
         11   -1    0    0    0    0 -0.00000000000E+00 -0.00000000000E+00 -0.45593999997E+02  0.45594000000E+02  0.51100000000E-03 0.  1.
    9900012    2    1    2    0    0 -0.12891625566E+02 -0.23913222117E+01  0.41372827873E+02  0.47787270538E+02  0.19999997690E+02 0.  0.
        -12    1    1    2    0    0  0.12891625566E+02  0.23913222117E+01 -0.41372827873E+02  0.43400729462E+02  0.00000000000E+00 0.  1.
         11    1    3    3    0    0 -0.23342360225E+01 -0.29040956684E+01  0.76984895295E+01  0.85527288485E+01  0.51100000000E-03 0. -1.
        -11    1    3    3    0    0  0.16380152078E+01 -0.55441740044E+01  0.56815935210E+01  0.81056439850E+01  0.51100000000E-03 0.  1.
        -12    1    3    3    0    0 -0.12195404751E+02  0.60569474611E+01  0.27992744822E+02  0.31128897704E+02  0.00000000000E+00 0.  1.
</event>
<event>
 7    1  0.1019486E-010  0.4778727E+02  0.7816164E-02  0.1312668E+00
        -11   -1    0    0    0    0  0.00000000000E+00  0.00000000000E+00  0.45593999997E+02  0.45594000000E+02  0.51100000000E-03 0. -1.
         11   -1    0    0    0    0 -0.00000000000E+00 -0.00000000000E+00 -0.45593999997E+02  0.45594000000E+02  0.51100000000E-03 0.  1.
    9900012    2    1    2    0    0 -0.51409967741E+01  0.34617797070E+02 -0.25667131656E+02  0.47787269946E+02  0.19999994992E+02 0.  0.
         12    1    1    2    0    0  0.51409967741E+01 -0.34617797070E+02  0.25667131656E+02  0.43400730054E+02  0.00000000000E+00 0. -1.
         11    1    3    3    0    0 -0.82474219368E+01  0.10246013737E+02 -0.40231155711E+01  0.13754498365E+02  0.51100000000E-03 0. -1.
        -11    1    3    3    0    0  0.49167617644E+01  0.22128255113E+02 -0.16164152025E+02  0.27840869806E+02  0.51100000000E-03 0.  1.
        -12    1    3    3    0    0 -0.18103366017E+01  0.22435282195E+01 -0.54798640600E+01  0.61919017757E+01  0.00000000000E+00 0.  1.
</event>
<event>
 7    1  0.1019486E-010  0.4778727E+02  0.7816164E-02  0.1312668E+00
        -11   -1    0    0    0    0  0.00000000000E+00  0.00000000000E+00  0.45593999997E+02  0.45594000000E+02  0.51100000000E-03 0. -1.
         11   -1    0    0    0    0 -0.00000000000E+00 -0.00000000000E+00 -0.45593999997E+02  0.45594000000E+02  0.51100000000E-03 0.  1.
    9900012    2    1    2    0    0  0.17639716545E+01  0.18346675402E+02 -0.39292634744E+02  0.47787271441E+02  0.20000001808E+02 0.  0.
         12    1    1    2    0    0 -0.17639716545E+01 -0.18346675402E+02  0.39292634744E+02  0.43400728559E+02  0.00000000000E+00 0. -1.
         11    1    3    3    0    0  0.64229045386E+01  0.14728258604E+02 -0.20104548771E+02  0.25736514639E+02  0.51100000000E-03 0. -1.
        -11    1    3    3    0    0 -0.47526669126E+01  0.34443860114E+01 -0.45895421392E+01  0.74508747867E+01  0.51100000000E-03 0.  1.
         12    1    3    3    0    0  0.93734028523E-01  0.17403078633E+00 -0.14598543834E+02  0.14599882015E+02  0.00000000000E+00 0. -1.
</event>
<event>
 7    1  0.1019486E-010  0.4778727E+02  0.7816164E-02  0.1312668E+00
        -11   -1    0    0    0    0  0.00000000000E+00  0.00000000000E+00  0.45593999997E+02  0.45594000000E+02  0.51100000000E-03 0.  1.
         11   -1    0    0    0    0 -0.00000000000E+00 -0.00000000000E+00 -0.45593999997E+02  0.45594000000E+02  0.51100000000E-03 0. -1.
    9900012    2    1    2    0    0  0.44076621370E+01  0.36077138481E+02 -0.23719952065E+02  0.47787268065E+02  0.19999986417E+02 0.  0.
         12    1    1    2    0    0 -0.44076621370E+01 -0.36077138481E+02  0.23719952065E+02  0.43400731935E+02  0.00000000000E+00 0. -1.
         11    1    3    3    0    0 -0.25091596520E+01  0.54093768662E+01 -0.67556406964E+01  0.90108779661E+01  0.51100000000E-03 0. -1.
        -11    1    3    3    0    0  0.44417625590E+01  0.51139079593E+01 -0.10169783343E+02  0.12219075364E+02  0.51100000000E-03 0.  1.
        -12    1    3    3    0    0  0.24750592300E+01  0.25553853656E+02 -0.67945280257E+01  0.26557314735E+02  0.00000000000E+00 0.  1.
</event>
<event>
 7    1  0.1093546E-010  0.4778727E+02  0.7816164E-02  0.1312668E+00
        -11   -1    0    0    0    0  0.00000000000E+00  0.00000000000E+00  0.45593999997E+02  0.45594000000E+02  0.51100000000E-03 0. -1.
         11   -1    0    0    0    0 -0.00000000000E+00 -0.00000000000E+00 -0.45593999997E+02  0.45594000000E+02  0.51100000000E-03 0.  1.
    9900012    2    1    2    0    0  0.79068846213E+01  0.11736666936E+01  0.42658255894E+02  0.47787272888E+02  0.20000008407E+02 0.  0.
        -12    1    1    2    0    0 -0.79068846213E+01 -0.11736666936E+01 -0.42658255894E+02  0.43400727112E+02  0.00000000000E+00 0.  1.
         11    1    3    3    0    0  0.37717087562E+01  0.31073194971E+01  0.16277262150E+02  0.16995013526E+02  0.51100000000E-03 0. -1.
        -11    1    3    3    0    0 -0.46004970531E+01  0.32629366907E+01  0.80050523415E+01  0.97924558837E+01  0.51100000000E-03 0.  1.
        -12    1    3    3    0    0  0.87356729182E+01 -0.51965894942E+01  0.18375941403E+02  0.20999803479E+02  0.00000000000E+00 0.  1.
</event>
<event>
 7    1  0.1019486E-010  0.4778728E+02  0.7816164E-02  0.1312668E+00
        -11   -1    0    0    0    0  0.00000000000E+00  0.00000000000E+00  0.45593999997E+02  0.45594000000E+02  0.51100000000E-03 0. -1.
         11   -1    0    0    0    0 -0.00000000000E+00 -0.00000000000E+00 -0.45593999997E+02  0.45594000000E+02  0.51100000000E-03 0.  1.
    9900012    2    1    2    0    0 -0.33423483632E+02 -0.27683128748E+02 -0.37104904747E+00  0.47787279352E+02  0.20000037878E+02 0.  0.
         12    1    1    2    0    0  0.33423483632E+02  0.27683128748E+02  0.37104904747E+00  0.43400720648E+02  0.00000000000E+00 0. -1.
         11    1    3    3    0    0 -0.17454901652E+02 -0.22039903683E+02  0.11687454773E+00  0.28114846718E+02  0.51100000000E-03 0. -1.
        -11    1    3    3    0    0 -0.16409836915E+02 -0.37620831530E+01 -0.23382449985E+01  0.16997158796E+02  0.51100000000E-03 0.  1.
         12    1    3    3    0    0  0.44125493541E+00 -0.18811419125E+01  0.18503214033E+01  0.26752738380E+01  0.00000000000E+00 0. -1.
</event>
<event>
 7    1  0.1019486E-010  0.4778727E+02  0.7816164E-02  0.1312668E+00
        -11   -1    0    0    0    0  0.00000000000E+00  0.00000000000E+00  0.45593999997E+02  0.45594000000E+02  0.51100000000E-03 0. -1.
         11   -1    0    0    0    0 -0.00000000000E+00 -0.00000000000E+00 -0.45593999997E+02  0.45594000000E+02  0.51100000000E-03 0.  1.
    9900012    2    1    2    0    0  0.56605640037E+01  0.74529883583E+01 -0.42379645039E+02  0.47787270352E+02  0.19999996843E+02 0.  0.
         12    1    1    2    0    0 -0.56605640037E+01 -0.74529883583E+01  0.42379645039E+02  0.43400729648E+02  0.00000000000E+00 0. -1.
         11    1    3    3    0    0  0.21761846435E+01  0.77233657029E+00  0.23855009213E+00  0.23214628552E+01  0.51100000000E-03 0. -1.
        -11    1    3    3    0    0  0.19016071191E+00  0.10664713527E+02 -0.29006258522E+02  0.30905263458E+02  0.51100000000E-03 0.  1.
        -12    1    3    3    0    0  0.32942186483E+01 -0.39840617389E+01 -0.13611936609E+02  0.14560544038E+02  0.00000000000E+00 0.  1.
</event>
<event>
 7    1  0.1019486E-010  0.4778727E+02  0.7816164E-02  0.1312668E+00
        -11   -1    0    0    0    0  0.00000000000E+00  0.00000000000E+00  0.45593999997E+02  0.45594000000E+02  0.51100000000E-03 0. -1.
         11   -1    0    0    0    0 -0.00000000000E+00 -0.00000000000E+00 -0.45593999997E+02  0.45594000000E+02  0.51100000000E-03 0.  1.
    9900012    2    1    2    0    0  0.15481788440E+02  0.13571819420E+02  0.38206585636E+02  0.47787271416E+02  0.20000001693E+02 0.  0.
        -12    1    1    2    0    0 -0.15481788440E+02 -0.13571819420E+02 -0.38206585636E+02  0.43400728584E+02  0.00000000000E+00 0.  1.
         11    1    3    3    0    0  0.40071837054E+01  0.12245837161E+02  0.13428185232E+02  0.18610056634E+02  0.51100000000E-03 0. -1.
        -11    1    3    3    0    0  0.65841662683E+01 -0.45367135197E+00  0.22585257338E+02  0.23529787768E+02  0.51100000000E-03 0.  1.
        -12    1    3    3    0    0  0.48904384665E+01  0.17796536112E+01  0.21931430664E+01  0.56474270141E+01  0.00000000000E+00 0.  1.
</event>
<event>
 7    1  0.1019486E-010  0.4778726E+02  0.7816164E-02  0.1312668E+00
        -11   -1    0    0    0    0  0.00000000000E+00  0.00000000000E+00  0.45593999997E+02  0.45594000000E+02  0.51100000000E-03 0. -1.
         11   -1    0    0    0    0 -0.00000000000E+00 -0.00000000000E+00 -0.45593999997E+02  0.45594000000E+02  0.51100000000E-03 0.  1.
    9900012    2    1    2    0    0  0.11775059505E+02 -0.38337895169E+02 -0.16588478269E+02  0.47787264481E+02  0.19999970072E+02 0.  0.
         12    1    1    2    0    0 -0.11775059505E+02  0.38337895169E+02  0.16588478269E+02  0.43400735519E+02  0.00000000000E+00 0. -1.
         11    1    3    3    0    0  0.29375449910E+00 -0.20304483181E+02 -0.14619888391E+02  0.25021979654E+02  0.51100000000E-03 0. -1.
        -11    1    3    3    0    0  0.12046795752E+02 -0.18185303365E+02 -0.25229480794E+01  0.21958957481E+02  0.51100000000E-03 0.  1.
         12    1    3    3    0    0 -0.56549074532E+00  0.15189137752E+00  0.55435820140E+00  0.80632734610E+00  0.00000000000E+00 0. -1.
</event>
<event>
 7    1  0.1019486E-010  0.4778727E+02  0.7816164E-02  0.1312668E+00
        -11   -1    0    0    0    0  0.00000000000E+00  0.00000000000E+00  0.45593999997E+02  0.45594000000E+02  0.51100000000E-03 0. -1.
         11   -1    0    0    0    0 -0.00000000000E+00 -0.00000000000E+00 -0.45593999997E+02  0.45594000000E+02  0.51100000000E-03 0.  1.
    9900012    2    1    2    0    0  0.98768031202E+01  0.80647591061E+00  0.42254250821E+02  0.47787270101E+02  0.19999995699E+02 0.  0.
        -12    1    1    2    0    0 -0.98768031202E+01 -0.80647591061E+00 -0.42254250821E+02  0.43400729899E+02  0.00000000000E+00 0.  1.
         11    1    3    3    0    0 -0.18879838961E+00  0.61868943306E+01  0.74570131759E+01  0.96912513153E+01  0.51100000000E-03 0.  1.
        -11    1    3    3    0    0  0.64597331603E+01 -0.83560482266E+01  0.20615517633E+02  0.23163576192E+02  0.51100000000E-03 0. -1.
         12    1    3    3    0    0  0.36058683495E+01  0.29756298067E+01  0.14181720013E+02  0.14932442594E+02  0.00000000000E+00 0. -1.
</event>
<event>
 7    1  0.1019486E-010  0.4778726E+02  0.7816164E-02  0.1312668E+00
        -11   -1    0    0    0    0  0.00000000000E+00  0.00000000000E+00  0.45593999997E+02  0.45594000000E+02  0.51100000000E-03 0. -1.
         11   -1    0    0    0    0 -0.00000000000E+00 -0.00000000000E+00 -0.45593999997E+02  0.45594000000E+02  0.51100000000E-03 0.  1.
    9900012    2    1    2    0    0 -0.12539199332E+02  0.96186603135E+01  0.40421208962E+02  0.47787259453E+02  0.19999947148E+02 0.  0.
        -12    1    1    2    0    0  0.12539199332E+02 -0.96186603135E+01 -0.40421208962E+02  0.43400740547E+02  0.00000000000E+00 0.  1.
         11    1    3    3    0    0 -0.82428946373E+01  0.40093499316E+01  0.11448241401E+02  0.14665688880E+02  0.51100000000E-03 0. -1.
        -11    1    3    3    0    0  0.52538278953E+01  0.28600599872E+01  0.89041165811E+01  0.10726879464E+02  0.51100000000E-03 0.  1.
        -12    1    3    3    0    0 -0.95501325904E+01  0.27492503948E+01  0.20068850980E+02  0.22394691109E+02  0.00000000000E+00 0.  1.
</event>
<event>
 7    1  0.1019486E-010  0.4778727E+02  0.7816164E-02  0.1312668E+00
        -11   -1    0    0    0    0  0.00000000000E+00  0.00000000000E+00  0.45593999997E+02  0.45594000000E+02  0.51100000000E-03 0. -1.
         11   -1    0    0    0    0 -0.00000000000E+00 -0.00000000000E+00 -0.45593999997E+02  0.45594000000E+02  0.51100000000E-03 0.  1.
    9900012    2    1    2    0    0  0.27474598708E+02  0.18150167233E+02  0.28272623900E+02  0.47787269511E+02  0.19999993010E+02 0.  0.
        -12    1    1    2    0    0 -0.27474598708E+02 -0.18150167233E+02 -0.28272623900E+02  0.43400730489E+02  0.00000000000E+00 0.  1.
         11    1    3    3    0    0  0.83070258982E+01  0.47257625588E+01  0.17075976044E+02  0.19568558177E+02  0.51100000000E-03 0. -1.
        -11    1    3    3    0    0  0.19212901330E+02  0.87425611770E+01  0.10145717627E+02  0.23420152430E+02  0.51100000000E-03 0.  1.
         12    1    3    3    0    0 -0.45328519443E-01  0.46818434970E+01  0.10509302290E+01  0.47985589036E+01  0.00000000000E+00 0. -1.
</event>
<event>
 7    1  0.1019486E-010  0.4778727E+02  0.7816164E-02  0.1312668E+00
        -11   -1    0    0    0    0  0.00000000000E+00  0.00000000000E+00  0.45593999997E+02  0.45594000000E+02  0.51100000000E-03 0. -1.
         11   -1    0    0    0    0 -0.00000000000E+00 -0.00000000000E+00 -0.45593999997E+02  0.45594000000E+02  0.51100000000E-03 0.  1.
    9900012    2    1    2    0    0  0.10004997489E+02 -0.21638683048E+01  0.42176305081E+02  0.47787274072E+02  0.20000013803E+02 0.  0.
        -12    1    1    2    0    0 -0.10004997489E+02  0.21638683048E+01 -0.42176305081E+02  0.43400725928E+02  0.00000000000E+00 0.  1.
         11    1    3    3    0    0  0.15863085152E+02 -0.33558505067E+01  0.30725321067E+02  0.34741107612E+02  0.51100000000E-03 0. -1.
        -11    1    3    3    0    0 -0.33863874706E+01  0.11146394412E+01  0.50287714486E+01  0.61642991271E+01  0.51100000000E-03 0.  1.
         12    1    3    3    0    0 -0.24717001930E+01  0.77342760672E-01  0.64222125659E+01  0.68818673329E+01  0.00000000000E+00 0. -1.
</event>
<event>
 7    1  0.1019486E-010  0.4778728E+02  0.7816164E-02  0.1312668E+00
        -11   -1    0    0    0    0  0.00000000000E+00  0.00000000000E+00  0.45593999997E+02  0.45594000000E+02  0.51100000000E-03 0.  1.
         11   -1    0    0    0    0 -0.00000000000E+00 -0.00000000000E+00 -0.45593999997E+02  0.45594000000E+02  0.51100000000E-03 0. -1.
    9900012    2    1    2    0    0  0.34994099720E+02  0.24715475961E+02 -0.69412404585E+01  0.47787278966E+02  0.20000036116E+02 0.  0.
        -12    1    1    2    0    0 -0.34994099720E+02 -0.24715475961E+02  0.69412404585E+01  0.43400721034E+02  0.00000000000E+00 0.  1.
         11    1    3    3    0    0  0.10407661412E+02  0.10342051422E+02  0.55092790264E+01  0.15672574751E+02  0.51100000000E-03 0. -1.
        -11    1    3    3    0    0  0.20291296941E+02  0.13169426187E+02 -0.13252337992E+02  0.27582512216E+02  0.51100000000E-03 0.  1.
         12    1    3    3    0    0  0.42951413670E+01  0.12039983530E+01  0.80181850657E+00  0.45321919988E+01  0.00000000000E+00 0. -1.
</event>
<event>
 7    1  0.1019486E-010  0.4778721E+02  0.7816164E-02  0.1312668E+00
        -11   -1    0    0    0    0  0.00000000000E+00  0.00000000000E+00  0.45593999997E+02  0.45594000000E+02  0.51100000000E-03 0. -1.
         11   -1    0    0    0    0 -0.00000000000E+00 -0.00000000000E+00 -0.45593999997E+02  0.45594000000E+02  0.51100000000E-03 0.  1.
    9900012    2    1    2    0    0 -0.10409943026E+02 -0.16047457103E+02 -0.38958191383E+02  0.47787211192E+02  0.19999727106E+02 0.  0.
         12    1    1    2    0    0  0.10409943026E+02  0.16047457103E+02  0.38958191383E+02  0.43400788808E+02  0.00000000000E+00 0. -1.
         11    1    3    3    0    0 -0.96482737016E+00 -0.55452093765E+01 -0.17951034380E+01  0.59078452500E+01  0.51100000000E-03 0. -1.
        -11    1    3    3    0    0 -0.24578321817E+01 -0.30825886104E+01 -0.27675834626E+02  0.27955234109E+02  0.51100000000E-03 0.  1.
         12    1    3    3    0    0 -0.69872834746E+01 -0.74196591165E+01 -0.94872533197E+01  0.13924131833E+02  0.00000000000E+00 0. -1.
</event>
<event>
 7    1  0.1019486E-010  0.4778727E+02  0.7816164E-02  0.1312668E+00
        -11   -1    0    0    0    0  0.00000000000E+00  0.00000000000E+00  0.45593999997E+02  0.45594000000E+02  0.51100000000E-03 0. -1.
         11   -1    0    0    0    0 -0.00000000000E+00 -0.00000000000E+00 -0.45593999997E+02  0.45594000000E+02  0.51100000000E-03 0.  1.
    9900012    2    1    2    0    0  0.10131112546E+02  0.21130874678E+02 -0.36530404907E+02  0.47787265113E+02  0.19999972955E+02 0.  0.
         12    1    1    2    0    0 -0.10131112546E+02 -0.21130874678E+02  0.36530404907E+02  0.43400734887E+02  0.00000000000E+00 0. -1.
         11    1    3    3    0    0 -0.30639310307E+01  0.37970304781E+00 -0.11391546287E+02  0.11802507142E+02  0.51100000000E-03 0. -1.
        -11    1    3    3    0    0  0.98281594151E+01  0.19730337195E+02 -0.20044792338E+02  0.29793835326E+02  0.51100000000E-03 0.  1.
        -12    1    3    3    0    0  0.33668841620E+01  0.10208344353E+01 -0.50940662817E+01  0.61909226442E+01  0.00000000000E+00 0.  1.
</event>
<event>
 7    1  0.1019486E-010  0.4778727E+02  0.7816164E-02  0.1312668E+00
        -11   -1    0    0    0    0  0.00000000000E+00  0.00000000000E+00  0.45593999997E+02  0.45594000000E+02  0.51100000000E-03 0.  1.
         11   -1    0    0    0    0 -0.00000000000E+00 -0.00000000000E+00 -0.45593999997E+02  0.45594000000E+02  0.51100000000E-03 0. -1.
    9900012    2    1    2    0    0  0.41414750740E+02 -0.13312568592E+01  0.12910065352E+02  0.47787267159E+02  0.19999982286E+02 0.  0.
         12    1    1    2    0    0 -0.41414750740E+02  0.13312568592E+01 -0.12910065352E+02  0.43400732841E+02  0.00000000000E+00 0. -1.
         11    1    3    3    0    0  0.51867863847E+01  0.11481640575E+01 -0.27469857392E+01  0.59805488558E+01  0.51100000000E-03 0. -1.
        -11    1    3    3    0    0  0.31141940960E+02  0.30012744338E+01  0.12749223600E+02  0.33784180287E+02  0.51100000000E-03 0.  1.
        -12    1    3    3    0    0  0.50860233953E+01 -0.54806953505E+01  0.29078274912E+01  0.80225380162E+01  0.00000000000E+00 0.  1.
</event>
<event>
 7    1  0.1019486E-010  0.4778727E+02  0.7816164E-02  0.1312668E+00
        -11   -1    0    0    0    0  0.00000000000E+00  0.00000000000E+00  0.45593999997E+02  0.45594000000E+02  0.51100000000E-03 0.  1.
         11   -1    0    0    0    0 -0.00000000000E+00 -0.00000000000E+00 -0.45593999997E+02  0.45594000000E+02  0.51100000000E-03 0. -1.
    9900012    2    1    2    0    0  0.16482345697E+02 -0.40135194939E+02  0.10592340412E+01  0.47787267642E+02  0.19999984485E+02 0.  0.
        -12    1    1    2    0    0 -0.16482345697E+02  0.40135194939E+02 -0.10592340412E+01  0.43400732358E+02  0.00000000000E+00 0.  1.
         11    1    3    3    0    0  0.16170310628E+02 -0.37094669713E+02  0.66577175494E+01  0.41009982567E+02  0.51100000000E-03 0. -1.
        -11    1    3    3    0    0 -0.42395100099E+00 -0.63311046866E+00 -0.15172022474E+00  0.77690578869E+00  0.51100000000E-03 0.  1.
         12    1    3    3    0    0  0.73598606997E+00 -0.24074147578E+01 -0.54467632834E+01  0.60003792861E+01  0.00000000000E+00 0. -1.
</event>
<event>
 7    1  0.1019486E-010  0.4778727E+02  0.7816164E-02  0.1312668E+00
        -11   -1    0    0    0    0  0.00000000000E+00  0.00000000000E+00  0.45593999997E+02  0.45594000000E+02  0.51100000000E-03 0.  1.
         11   -1    0    0    0    0 -0.00000000000E+00 -0.00000000000E+00 -0.45593999997E+02  0.45594000000E+02  0.51100000000E-03 0. -1.
    9900012    2    1    2    0    0 -0.41888661550E+02 -0.11343028869E+02  0.54690174158E+00  0.47787269916E+02  0.19999994853E+02 0.  0.
        -12    1    1    2    0    0  0.41888661550E+02  0.11343028869E+02 -0.54690174158E+00  0.43400730084E+02  0.00000000000E+00 0.  1.
         11    1    3    3    0    0 -0.39786543254E-01 -0.20361377253E+01  0.13387262954E+01  0.24371352364E+01  0.51100000000E-03 0. -1.
        -11    1    3    3    0    0 -0.41163202410E+02 -0.11746047271E+02 -0.87185193608E+00  0.42815172371E+02  0.51100000000E-03 0.  1.
        -12    1    3    3    0    0 -0.68567259670E+00  0.24391561268E+01  0.80027382205E-01  0.25349623079E+01  0.00000000000E+00 0.  1.
</event>
<event>
 7    1  0.1019486E-010  0.4778727E+02  0.7816164E-02  0.1312668E+00
        -11   -1    0    0    0    0  0.00000000000E+00  0.00000000000E+00  0.45593999997E+02  0.45594000000E+02  0.51100000000E-03 0. -1.
         11   -1    0    0    0    0 -0.00000000000E+00 -0.00000000000E+00 -0.45593999997E+02  0.45594000000E+02  0.51100000000E-03 0.  1.
    9900012    2    1    2    0    0  0.35004552345E+02  0.11730488021E+02 -0.22818863151E+02  0.47787267868E+02  0.19999985519E+02 0.  0.
         12    1    1    2    0    0 -0.35004552345E+02 -0.11730488021E+02  0.22818863151E+02  0.43400732132E+02  0.00000000000E+00 0. -1.
         11    1    3    3    0    0  0.80997660017E+01  0.52672300660E+01 -0.91814664932E+00  0.97053034667E+01  0.51100000000E-03 0. -1.
        -11    1    3    3    0    0  0.21325457910E+02  0.84894549871E+01 -0.22467553243E+02  0.32119105685E+02  0.51100000000E-03 0.  1.
        -12    1    3    3    0    0  0.55793284334E+01 -0.20261970324E+01  0.56683674130E+00  0.59628587165E+01  0.00000000000E+00 0.  1.
</event>
<event>
 7    1  0.1019486E-010  0.4778727E+02  0.7816164E-02  0.1312668E+00
        -11   -1    0    0    0    0  0.00000000000E+00  0.00000000000E+00  0.45593999997E+02  0.45594000000E+02  0.51100000000E-03 0. -1.
         11   -1    0    0    0    0 -0.00000000000E+00 -0.00000000000E+00 -0.45593999997E+02  0.45594000000E+02  0.51100000000E-03 0.  1.
    9900012    2    1    2    0    0 -0.19343388178E+02 -0.21524612405E+02 -0.32344208129E+02  0.47787269535E+02  0.19999993118E+02 0.  0.
         12    1    1    2    0    0  0.19343388178E+02  0.21524612405E+02  0.32344208129E+02  0.43400730465E+02  0.00000000000E+00 0. -1.
         11    1    3    3    0    0 -0.85543379607E+01 -0.21325734560E+02 -0.22129316647E+02  0.31900945252E+02  0.51100000000E-03 0. -1.
        -11    1    3    3    0    0 -0.88478249569E+01 -0.22519526673E+01 -0.64470574872E+01  0.11176754797E+02  0.51100000000E-03 0.  1.
         12    1    3    3    0    0 -0.19412252606E+01  0.20530748214E+01 -0.37678339950E+01  0.47095694865E+01  0.00000000000E+00 0. -1.
</event>
<event>
 7    1  0.1019486E-010  0.4778727E+02  0.7816164E-02  0.1312668E+00
        -11   -1    0    0    0    0  0.00000000000E+00  0.00000000000E+00  0.45593999997E+02  0.45594000000E+02  0.51100000000E-03 0. -1.
         11   -1    0    0    0    0 -0.00000000000E+00 -0.00000000000E+00 -0.45593999997E+02  0.45594000000E+02  0.51100000000E-03 0.  1.
    9900012    2    1    2    0    0  0.12161448484E+02  0.17442297457E+02  0.37835020185E+02  0.47787270488E+02  0.19999997461E+02 0.  0.
        -12    1    1    2    0    0 -0.12161448484E+02 -0.17442297457E+02 -0.37835020185E+02  0.43400729512E+02  0.00000000000E+00 0.  1.
         11    1    3    3    0    0  0.11483397851E+01  0.24020071089E+01  0.20913563196E+02  0.21082349210E+02  0.51100000000E-03 0. -1.
        -11    1    3    3    0    0  0.12375511952E+02  0.13555793370E+02  0.16421720156E+02  0.24628961064E+02  0.51100000000E-03 0.  1.
        -12    1    3    3    0    0 -0.13624032536E+01  0.14844969785E+01  0.49973683340E+00  0.20759602133E+01  0.00000000000E+00 0.  1.
</event>
<event>
 7    1  0.1019486E-010  0.4778727E+02  0.7816164E-02  0.1312668E+00
        -11   -1    0    0    0    0  0.00000000000E+00  0.00000000000E+00  0.45593999997E+02  0.45594000000E+02  0.51100000000E-03 0. -1.
         11   -1    0    0    0    0 -0.00000000000E+00 -0.00000000000E+00 -0.45593999997E+02  0.45594000000E+02  0.51100000000E-03 0.  1.
    9900012    2    1    2    0    0  0.28240334640E+02  0.19846589372E+02  0.26310064891E+02  0.47787272761E+02  0.20000007828E+02 0.  0.
        -12    1    1    2    0    0 -0.28240334640E+02 -0.19846589372E+02 -0.26310064891E+02  0.43400727239E+02  0.00000000000E+00 0.  1.
         11    1    3    3    0    0  0.75699629201E+01  0.88534452008E+01  0.11465352559E+02  0.16344483476E+02  0.51100000000E-03 0. -1.
        -11    1    3    3    0    0  0.21753082018E+02  0.69644449452E+01  0.14899504745E+02  0.27270777630E+02  0.51100000000E-03 0.  1.
        -12    1    3    3    0    0 -0.10827102974E+01  0.40286992257E+01 -0.54792413091E-01  0.41720116548E+01  0.00000000000E+00 0.  1.
</event>
<event>
 7    1  0.1019486E-010  0.4778727E+02  0.7816164E-02  0.1312668E+00
        -11   -1    0    0    0    0  0.00000000000E+00  0.00000000000E+00  0.45593999997E+02  0.45594000000E+02  0.51100000000E-03 0. -1.
         11   -1    0    0    0    0 -0.00000000000E+00 -0.00000000000E+00 -0.45593999997E+02  0.45594000000E+02  0.51100000000E-03 0.  1.
    9900012    2    1    2    0    0 -0.15456546602E+01 -0.93961901846E+01  0.42343194686E+02  0.47787267580E+02  0.19999984206E+02 0.  0.
        -12    1    1    2    0    0  0.15456546602E+01  0.93961901846E+01 -0.42343194686E+02  0.43400732420E+02  0.00000000000E+00 0.  1.
         11    1    3    3    0    0  0.18838266569E+01 -0.11054712648E+02  0.12357765287E+02  0.16687415550E+02  0.51100000000E-03 0. -1.
        -11    1    3    3    0    0  0.15141955371E+01 -0.11201660340E+00  0.17355276349E+02  0.17421565752E+02  0.51100000000E-03 0.  1.
         12    1    3    3    0    0 -0.49436768543E+01  0.17705390665E+01  0.12630153050E+02  0.13678286277E+02  0.00000000000E+00 0. -1.
</event>
<event>
 7    1  0.1019486E-010  0.4778727E+02  0.7816164E-02  0.1312668E+00
        -11   -1    0    0    0    0  0.00000000000E+00  0.00000000000E+00  0.45593999997E+02  0.45594000000E+02  0.51100000000E-03 0. -1.
         11   -1    0    0    0    0 -0.00000000000E+00 -0.00000000000E+00 -0.45593999997E+02  0.45594000000E+02  0.51100000000E-03 0.  1.
    9900012    2    1    2    0    0  0.20815581009E+02 -0.36600204421E+02 -0.10524266613E+02  0.47787267701E+02  0.19999984754E+02 0.  0.
         12    1    1    2    0    0 -0.20815581009E+02  0.36600204421E+02  0.10524266613E+02  0.43400732299E+02  0.00000000000E+00 0. -1.
         11    1    3    3    0    0  0.15268326884E+02 -0.16800366004E+02 -0.12789704512E+00  0.22702212703E+02  0.51100000000E-03 0. -1.
        -11    1    3    3    0    0  0.21465714748E+01 -0.18997762127E+02 -0.74653419413E+01  0.20524474793E+02  0.51100000000E-03 0.  1.
         12    1    3    3    0    0  0.34006826493E+01 -0.80207628984E+00 -0.29310276271E+01  0.45605802050E+01  0.00000000000E+00 0. -1.
</event>
<event>
 7    1  0.1019486E-010  0.4778727E+02  0.7816164E-02  0.1312668E+00
        -11   -1    0    0    0    0  0.00000000000E+00  0.00000000000E+00  0.45593999997E+02  0.45594000000E+02  0.51100000000E-03 0. -1.
         11   -1    0    0    0    0 -0.00000000000E+00 -0.00000000000E+00 -0.45593999997E+02  0.45594000000E+02  0.51100000000E-03 0.  1.
    9900012    2    1    2    0    0 -0.29823919799E+00 -0.29092868523E+02 -0.32204647745E+02  0.47787270952E+02  0.19999999577E+02 0.  0.
         12    1    1    2    0    0  0.29823919799E+00  0.29092868523E+02  0.32204647745E+02  0.43400729048E+02  0.00000000000E+00 0. -1.
         11    1    3    3    0    0  0.18190448522E+01  0.79951744697E+00 -0.24071035467E+00  0.20015229347E+01  0.51100000000E-03 0.  1.
        -11    1    3    3    0    0  0.46436073219E+01 -0.64697983178E+01 -0.11319036995E+02  0.13839869146E+02  0.51100000000E-03 0. -1.
        -12    1    3    3    0    0 -0.67608913721E+01 -0.23422587653E+02 -0.20644900396E+02  0.31945878871E+02  0.00000000000E+00 0.  1.
</event>
<event>
 7    1  0.1019486E-010  0.4778727E+02  0.7816164E-02  0.1312668E+00
        -11   -1    0    0    0    0  0.00000000000E+00  0.00000000000E+00  0.45593999997E+02  0.45594000000E+02  0.51100000000E-03 0. -1.
         11   -1    0    0    0    0 -0.00000000000E+00 -0.00000000000E+00 -0.45593999997E+02  0.45594000000E+02  0.51100000000E-03 0.  1.
    9900012    2    1    2    0    0 -0.35500736640E+01  0.25085996897E+02 -0.35237955767E+02  0.47787265099E+02  0.19999972891E+02 0.  0.
         12    1    1    2    0    0  0.35500736640E+01 -0.25085996897E+02  0.35237955767E+02  0.43400734901E+02  0.00000000000E+00 0. -1.
         11    1    3    3    0    0 -0.54851370331E+01  0.65037962335E+01 -0.23667881992E+01  0.88310690384E+01  0.51100000000E-03 0. -1.
        -11    1    3    3    0    0  0.55989874917E+01  0.13665170596E+02 -0.23665749377E+02  0.27895398226E+02  0.51100000000E-03 0.  1.
        -12    1    3    3    0    0 -0.36639241226E+01  0.49170300675E+01 -0.92054181909E+01  0.11060797834E+02  0.00000000000E+00 0.  1.
</event>
<event>
 7    1  0.1019486E-010  0.4778726E+02  0.7816164E-02  0.1312668E+00
        -11   -1    0    0    0    0  0.00000000000E+00  0.00000000000E+00  0.45593999997E+02  0.45594000000E+02  0.51100000000E-03 0. -1.
         11   -1    0    0    0    0 -0.00000000000E+00 -0.00000000000E+00 -0.45593999997E+02  0.45594000000E+02  0.51100000000E-03 0.  1.
    9900012    2    1    2    0    0 -0.16563526803E+02  0.31982724156E+02 -0.24215262043E+02  0.47787262904E+02  0.19999962887E+02 0.  0.
         12    1    1    2    0    0  0.16563526803E+02 -0.31982724156E+02  0.24215262043E+02  0.43400737096E+02  0.00000000000E+00 0. -1.
         11    1    3    3    0    0 -0.11984480874E+02  0.27338281938E+02 -0.11283713782E+02  0.31911308937E+02  0.51100000000E-03 0. -1.
        -11    1    3    3    0    0 -0.58260918032E+01  0.52267327679E+01 -0.10778046101E+02  0.13320223689E+02  0.51100000000E-03 0.  1.
         12    1    3    3    0    0  0.12470458741E+01 -0.58229054943E+00 -0.21535021607E+01  0.25557302777E+01  0.00000000000E+00 0. -1.
</event>
<event>
 7    1  0.1019486E-010  0.4778728E+02  0.7816164E-02  0.1312668E+00
        -11   -1    0    0    0    0  0.00000000000E+00  0.00000000000E+00  0.45593999997E+02  0.45594000000E+02  0.51100000000E-03 0. -1.
         11   -1    0    0    0    0 -0.00000000000E+00 -0.00000000000E+00 -0.45593999997E+02  0.45594000000E+02  0.51100000000E-03 0.  1.
    9900012    2    1    2    0    0 -0.72055104774E+01 -0.28388988996E+02  0.32027626000E+02  0.47787275298E+02  0.20000019395E+02 0.  0.
        -12    1    1    2    0    0  0.72055104774E+01  0.28388988996E+02 -0.32027626000E+02  0.43400724702E+02  0.00000000000E+00 0.  1.
         11    1    3    3    0    0 -0.36142422228E+01 -0.15774500106E+02  0.22245095368E+02  0.27508941612E+02  0.51100000000E-03 0. -1.
        -11    1    3    3    0    0 -0.96614974360E+00 -0.13111227892E+02  0.37351665020E+01  0.13667084957E+02  0.51100000000E-03 0.  1.
        -12    1    3    3    0    0 -0.26251185109E+01  0.49673900221E+00  0.60473641301E+01  0.66112487288E+01  0.00000000000E+00 0.  1.
</event>
<event>
 7    1  0.1019486E-010  0.4778728E+02  0.7816164E-02  0.1312668E+00
        -11   -1    0    0    0    0  0.00000000000E+00  0.00000000000E+00  0.45593999997E+02  0.45594000000E+02  0.51100000000E-03 0. -1.
         11   -1    0    0    0    0 -0.00000000000E+00 -0.00000000000E+00 -0.45593999997E+02  0.45594000000E+02  0.51100000000E-03 0.  1.
    9900012    2    1    2    0    0 -0.39122717231E+01 -0.12010642123E+02 -0.41521809551E+02  0.47787284999E+02  0.20000063623E+02 0.  0.
         12    1    1    2    0    0  0.39122717231E+01  0.12010642123E+02  0.41521809551E+02  0.43400715001E+02  0.00000000000E+00 0. -1.
         11    1    3    3    0    0 -0.28709696073E+01 -0.10101986756E+01 -0.76577045729E+01  0.82403523855E+01  0.51100000000E-03 0. -1.
        -11    1    3    3    0    0  0.74268374245E+01 -0.37954250383E+01 -0.20691412103E+02  0.22309139393E+02  0.51100000000E-03 0.  1.
        -12    1    3    3    0    0 -0.84681395402E+01 -0.72050184086E+01 -0.13172692875E+02  0.17237793221E+02  0.00000000000E+00 0.  1.
</event>
<event>
 7    1  0.1019486E-010  0.4778727E+02  0.7816164E-02  0.1312668E+00
        -11   -1    0    0    0    0  0.00000000000E+00  0.00000000000E+00  0.45593999997E+02  0.45594000000E+02  0.51100000000E-03 0. -1.
         11   -1    0    0    0    0 -0.00000000000E+00 -0.00000000000E+00 -0.45593999997E+02  0.45594000000E+02  0.51100000000E-03 0.  1.
    9900012    2    1    2    0    0  0.21155626652E+02  0.32275742252E+02 -0.19857973111E+02  0.47787272206E+02  0.20000005298E+02 0.  0.
         12    1    1    2    0    0 -0.21155626652E+02 -0.32275742252E+02  0.19857973111E+02  0.43400727794E+02  0.00000000000E+00 0. -1.
         11    1    3    3    0    0  0.18343967268E+02  0.10507784424E+02 -0.88443576501E+01  0.22915875090E+02  0.51100000000E-03 0. -1.
        -11    1    3    3    0    0 -0.46089680242E+00  0.72580775289E+01 -0.22759075477E+01  0.76204901879E+01  0.51100000000E-03 0.  1.
         12    1    3    3    0    0  0.32725561858E+01  0.14509880298E+02 -0.87377079137E+01  0.17250906928E+02  0.00000000000E+00 0. -1.
</event>
<event>
 7    1  0.1019486E-010  0.4778727E+02  0.7816164E-02  0.1312668E+00
        -11   -1    0    0    0    0  0.00000000000E+00  0.00000000000E+00  0.45593999997E+02  0.45594000000E+02  0.51100000000E-03 0. -1.
         11   -1    0    0    0    0 -0.00000000000E+00 -0.00000000000E+00 -0.45593999997E+02  0.45594000000E+02  0.51100000000E-03 0.  1.
    9900012    2    1    2    0    0 -0.37692643623E+02 -0.89286284342E+01 -0.19574661802E+02  0.47787272198E+02  0.20000005262E+02 0.  0.
         12    1    1    2    0    0  0.37692643623E+02  0.89286284342E+01  0.19574661802E+02  0.43400727802E+02  0.00000000000E+00 0. -1.
         11    1    3    3    0    0 -0.17562891018E+01 -0.31987677876E+01  0.29718126405E+01  0.47062020144E+01  0.51100000000E-03 0. -1.
        -11    1    3    3    0    0 -0.24820730846E+02 -0.50953990171E+01 -0.17865524873E+02  0.31003366755E+02  0.51100000000E-03 0.  1.
         12    1    3    3    0    0 -0.11115623675E+02 -0.63446162948E+00 -0.46809495695E+01  0.12077703429E+02  0.00000000000E+00 0. -1.
</event>
<event>
 7    1  0.1019486E-010  0.4778727E+02  0.7816164E-02  0.1312668E+00
        -11   -1    0    0    0    0  0.00000000000E+00  0.00000000000E+00  0.45593999997E+02  0.45594000000E+02  0.51100000000E-03 0. -1.
         11   -1    0    0    0    0 -0.00000000000E+00 -0.00000000000E+00 -0.45593999997E+02  0.45594000000E+02  0.51100000000E-03 0.  1.
    9900012    2    1    2    0    0 -0.19073135313E+01 -0.18333859085E+02 -0.39291921000E+02  0.47787270862E+02  0.19999999168E+02 0.  0.
         12    1    1    2    0    0  0.19073135313E+01  0.18333859085E+02  0.39291921000E+02  0.43400729138E+02  0.00000000000E+00 0. -1.
         11    1    3    3    0    0 -0.63085740222E+01 -0.72039642726E+01 -0.60373516214E+01  0.11320106991E+02  0.51100000000E-03 0. -1.
        -11    1    3    3    0    0  0.27699719742E+01 -0.48318534587E+01 -0.50372796536E+01  0.75095764963E+01  0.51100000000E-03 0.  1.
         12    1    3    3    0    0  0.16312885167E+01 -0.62980413540E+01 -0.28217289725E+02  0.28957587374E+02  0.00000000000E+00 0. -1.
</event>
<event>
 7    1  0.1019486E-010  0.4778724E+02  0.7816164E-02  0.1312668E+00
        -11   -1    0    0    0    0  0.00000000000E+00  0.00000000000E+00  0.45593999997E+02  0.45594000000E+02  0.51100000000E-03 0. -1.
         11   -1    0    0    0    0 -0.00000000000E+00 -0.00000000000E+00 -0.45593999997E+02  0.45594000000E+02  0.51100000000E-03 0.  1.
    9900012    2    1    2    0    0  0.26311863424E+02  0.10911626672E+00  0.34515211557E+02  0.47787240882E+02  0.19999862475E+02 0.  0.
        -12    1    1    2    0    0 -0.26311863424E+02 -0.10911626672E+00 -0.34515211557E+02  0.43400759118E+02  0.00000000000E+00 0.  1.
         11    1    3    3    0    0  0.80370539922E+01  0.45108151119E+01  0.12775272206E+02  0.15752754364E+02  0.51100000000E-03 0. -1.
        -11    1    3    3    0    0  0.11885731623E+02 -0.96102581205E+01  0.14203556668E+02  0.20865490640E+02  0.51100000000E-03 0.  1.
        -12    1    3    3    0    0  0.63890778088E+01  0.52085592754E+01  0.75363826830E+01  0.11168995878E+02  0.00000000000E+00 0.  1.
</event>
<event>
 7    1  0.1019486E-010  0.4778727E+02  0.7816164E-02  0.1312668E+00
        -11   -1    0    0    0    0  0.00000000000E+00  0.00000000000E+00  0.45593999997E+02  0.45594000000E+02  0.51100000000E-03 0. -1.
         11   -1    0    0    0    0 -0.00000000000E+00 -0.00000000000E+00 -0.45593999997E+02  0.45594000000E+02  0.51100000000E-03 0.  1.
    9900012    2    1    2    0    0 -0.38388855434E+02  0.16429368656E+02  0.11831934440E+02  0.47787273640E+02  0.20000011833E+02 0.  0.
        -12    1    1    2    0    0  0.38388855434E+02 -0.16429368656E+02 -0.11831934440E+02  0.43400726360E+02  0.00000000000E+00 0.  1.
         11    1    3    3    0    0 -0.19496576714E+02  0.99151589288E+00  0.92792712290E+00  0.19543813761E+02  0.51100000000E-03 0. -1.
        -11    1    3    3    0    0 -0.10035412640E+02  0.11988187035E+02  0.10294348460E+02  0.18718967539E+02  0.51100000000E-03 0.  1.
        -12    1    3    3    0    0 -0.88568660807E+01  0.34496657282E+01  0.60965885743E+00  0.95244923398E+01  0.00000000000E+00 0.  1.
</event>
<event>
 7    1  0.1019486E-010  0.4778727E+02  0.7816164E-02  0.1312668E+00
        -11   -1    0    0    0    0  0.00000000000E+00  0.00000000000E+00  0.45593999997E+02  0.45594000000E+02  0.51100000000E-03 0. -1.
         11   -1    0    0    0    0 -0.00000000000E+00 -0.00000000000E+00 -0.45593999997E+02  0.45594000000E+02  0.51100000000E-03 0.  1.
    9900012    2    1    2    0    0  0.34983515779E+02 -0.48657284392E+01  0.25221061167E+02  0.47787267104E+02  0.19999982036E+02 0.  0.
        -12    1    1    2    0    0 -0.34983515779E+02  0.48657284392E+01 -0.25221061167E+02  0.43400732896E+02  0.00000000000E+00 0.  1.
         11    1    3    3    0    0  0.80897918612E+01  0.43619133930E+01  0.13157607714E+02  0.16049724665E+02  0.51100000000E-03 0. -1.
        -11    1    3    3    0    0  0.61795165042E+01 -0.54054308310E+01  0.23354007348E+01  0.85357602794E+01  0.51100000000E-03 0.  1.
         12    1    3    3    0    0  0.20714207414E+02 -0.38222110012E+01  0.97280527175E+01  0.23201782160E+02  0.00000000000E+00 0. -1.
</event>
<event>
 7    1  0.1019486E-010  0.4778727E+02  0.7816164E-02  0.1312668E+00
        -11   -1    0    0    0    0  0.00000000000E+00  0.00000000000E+00  0.45593999997E+02  0.45594000000E+02  0.51100000000E-03 0. -1.
         11   -1    0    0    0    0 -0.00000000000E+00 -0.00000000000E+00 -0.45593999997E+02  0.45594000000E+02  0.51100000000E-03 0.  1.
    9900012    2    1    2    0    0  0.19298429280E+01  0.16676161035E+02  0.40022553368E+02  0.47787269376E+02  0.19999992392E+02 0.  0.
        -12    1    1    2    0    0 -0.19298429280E+01 -0.16676161035E+02 -0.40022553368E+02  0.43400730624E+02  0.00000000000E+00 0.  1.
         11    1    3    3    0    0  0.49195318688E+01  0.12297021867E+02  0.12975840657E+02  0.18541601377E+02  0.51100000000E-03 0. -1.
        -11    1    3    3    0    0 -0.64254563025E+01  0.32536763720E+01  0.20997648863E+02  0.22198516992E+02  0.51100000000E-03 0.  1.
        -12    1    3    3    0    0  0.34357673618E+01  0.11254627965E+01  0.60490638485E+01  0.70471510068E+01  0.00000000000E+00 0.  1.
</event>
<event>
 7    1  0.1019486E-010  0.4778728E+02  0.7816164E-02  0.1312668E+00
        -11   -1    0    0    0    0  0.00000000000E+00  0.00000000000E+00  0.45593999997E+02  0.45594000000E+02  0.51100000000E-03 0. -1.
         11   -1    0    0    0    0 -0.00000000000E+00 -0.00000000000E+00 -0.45593999997E+02  0.45594000000E+02  0.51100000000E-03 0.  1.
    9900012    2    1    2    0    0 -0.41370434942E+00  0.18807303895E+02  0.39111851699E+02  0.47787276798E+02  0.20000026235E+02 0.  0.
        -12    1    1    2    0    0  0.41370434942E+00 -0.18807303895E+02 -0.39111851699E+02  0.43400723202E+02  0.00000000000E+00 0.  1.
         11    1    3    3    0    0 -0.65558620951E+01  0.13143211639E+01  0.65561811562E+01  0.93643088131E+01  0.51100000000E-03 0. -1.
        -11    1    3    3    0    0  0.10272995430E+01  0.14365682134E+02  0.22442102373E+02  0.26666010701E+02  0.51100000000E-03 0.  1.
        -12    1    3    3    0    0  0.51148582028E+01  0.31273005974E+01  0.10113568170E+02  0.11756957284E+02  0.00000000000E+00 0.  1.
</event>
<event>
 7    1  0.1019486E-010  0.4778727E+02  0.7816164E-02  0.1312668E+00
        -11   -1    0    0    0    0  0.00000000000E+00  0.00000000000E+00  0.45593999997E+02  0.45594000000E+02  0.51100000000E-03 0.  1.
         11   -1    0    0    0    0 -0.00000000000E+00 -0.00000000000E+00 -0.45593999997E+02  0.45594000000E+02  0.51100000000E-03 0. -1.
    9900012    2    1    2    0    0  0.41340438320E+02 -0.26981158029E+01  0.12934904210E+02  0.47787269404E+02  0.19999992518E+02 0.  0.
        -12    1    1    2    0    0 -0.41340438320E+02  0.26981158029E+01 -0.12934904210E+02  0.43400730596E+02  0.00000000000E+00 0.  1.
         11    1    3    3    0    0  0.18659757049E+02 -0.35925123515E+01  0.12481394429E+02  0.22734948543E+02  0.51100000000E-03 0. -1.
        -11    1    3    3    0    0  0.50937747667E+01  0.41887680809E+01 -0.22251181619E+01  0.69601343740E+01  0.51100000000E-03 0.  1.
         12    1    3    3    0    0  0.17586906505E+02 -0.32943715322E+01  0.26786279430E+01  0.18092186486E+02  0.00000000000E+00 0. -1.
</event>
<event>
 7    1  0.1019486E-010  0.4778727E+02  0.7816164E-02  0.1312668E+00
        -11   -1    0    0    0    0  0.00000000000E+00  0.00000000000E+00  0.45593999997E+02  0.45594000000E+02  0.51100000000E-03 0.  1.
         11   -1    0    0    0    0 -0.00000000000E+00 -0.00000000000E+00 -0.45593999997E+02  0.45594000000E+02  0.51100000000E-03 0. -1.
    9900012    2    1    2    0    0 -0.84289735472E+01  0.37525046965E+02  0.20110857953E+02  0.47787270140E+02  0.19999995875E+02 0.  0.
        -12    1    1    2    0    0  0.84289735472E+01 -0.37525046965E+02 -0.20110857953E+02  0.43400729860E+02  0.00000000000E+00 0.  1.
         11    1    3    3    0    0  0.31708296730E+00  0.95584426097E+01  0.39415761103E+01  0.10344099247E+02  0.51100000000E-03 0. -1.
        -11    1    3    3    0    0 -0.11813830947E+02  0.27829292873E+02  0.16342711260E+02  0.34367431604E+02  0.51100000000E-03 0.  1.
        -12    1    3    3    0    0  0.30677744325E+01  0.13731148238E+00 -0.17342941772E+00  0.30757392891E+01  0.00000000000E+00 0.  1.
</event>
<event>
 7    1  0.1019486E-010  0.4778727E+02  0.7816164E-02  0.1312668E+00
        -11   -1    0    0    0    0  0.00000000000E+00  0.00000000000E+00  0.45593999997E+02  0.45594000000E+02  0.51100000000E-03 0. -1.
         11   -1    0    0    0    0 -0.00000000000E+00 -0.00000000000E+00 -0.45593999997E+02  0.45594000000E+02  0.51100000000E-03 0.  1.
    9900012    2    1    2    0    0 -0.16361981408E+02  0.24327213359E+02 -0.32001494873E+02  0.47787269366E+02  0.19999992349E+02 0.  0.
         12    1    1    2    0    0  0.16361981408E+02 -0.24327213359E+02  0.32001494873E+02  0.43400730634E+02  0.00000000000E+00 0. -1.
         11    1    3    3    0    0  0.21913989792E+01  0.10723933159E+02 -0.10766737984E+02  0.15353423689E+02  0.51100000000E-03 0. -1.
        -11    1    3    3    0    0 -0.28877781281E+01  0.39366629980E+01 -0.92759615203E+01  0.10482368075E+02  0.51100000000E-03 0.  1.
         12    1    3    3    0    0 -0.15665602259E+02  0.96666172019E+01 -0.11958795369E+02  0.21951477602E+02  0.00000000000E+00 0. -1.
</event>
<event>
 7    1  0.1019486E-010  0.4778727E+02  0.7816164E-02  0.1312668E+00
        -11   -1    0    0    0    0  0.00000000000E+00  0.00000000000E+00  0.45593999997E+02  0.45594000000E+02  0.51100000000E-03 0. -1.
         11   -1    0    0    0    0 -0.00000000000E+00 -0.00000000000E+00 -0.45593999997E+02  0.45594000000E+02  0.51100000000E-03 0.  1.
    9900012    2    1    2    0    0  0.25524337819E+01 -0.10421882928E+02 -0.42053450535E+02  0.47787271159E+02  0.20000000524E+02 0.  0.
         12    1    1    2    0    0 -0.25524337819E+01  0.10421882928E+02  0.42053450535E+02  0.43400728841E+02  0.00000000000E+00 0. -1.
         11    1    3    3    0    0 -0.15416499755E+01 -0.12813567862E+02 -0.17736278724E+02  0.21934898889E+02  0.51100000000E-03 0. -1.
        -11    1    3    3    0    0  0.30312116655E+00  0.35190456340E+01 -0.49228031337E+01  0.60588411079E+01  0.51100000000E-03 0.  1.
         12    1    3    3    0    0  0.37909625909E+01 -0.11273606993E+01 -0.19394368677E+02  0.19793531163E+02  0.00000000000E+00 0. -1.
</event>
<event>
 7    1  0.1019486E-010  0.4778727E+02  0.7816164E-02  0.1312668E+00
        -11   -1    0    0    0    0  0.00000000000E+00  0.00000000000E+00  0.45593999997E+02  0.45594000000E+02  0.51100000000E-03 0. -1.
         11   -1    0    0    0    0 -0.00000000000E+00 -0.00000000000E+00 -0.45593999997E+02  0.45594000000E+02  0.51100000000E-03 0.  1.
    9900012    2    1    2    0    0  0.21718294206E+02  0.81370748963E+01 -0.36684154632E+02  0.47787268530E+02  0.19999988535E+02 0.  0.
         12    1    1    2    0    0 -0.21718294206E+02 -0.81370748963E+01  0.36684154632E+02  0.43400731470E+02  0.00000000000E+00 0. -1.
         11    1    3    3    0    0  0.30914320650E+00 -0.40278392348E+01 -0.29903283245E+01  0.50260443863E+01  0.51100000000E-03 0. -1.
        -11    1    3    3    0    0  0.14300750660E+02  0.12027506209E+02 -0.27950819808E+02  0.33621729629E+02  0.51100000000E-03 0.  1.
         12    1    3    3    0    0  0.71084003401E+01  0.13740792201E+00 -0.57430064991E+01  0.91394945145E+01  0.00000000000E+00 0. -1.
</event>
<event>
 7    1  0.1019486E-010  0.4778727E+02  0.7816164E-02  0.1312668E+00
        -11   -1    0    0    0    0  0.00000000000E+00  0.00000000000E+00  0.45593999997E+02  0.45594000000E+02  0.51100000000E-03 0. -1.
         11   -1    0    0    0    0 -0.00000000000E+00 -0.00000000000E+00 -0.45593999997E+02  0.45594000000E+02  0.51100000000E-03 0.  1.
    9900012    2    1    2    0    0 -0.99931551446E+00 -0.43377725528E+02  0.99892427775E+00  0.47787267826E+02  0.19999985327E+02 0.  0.
         12    1    1    2    0    0  0.99931551446E+00  0.43377725528E+02 -0.99892427775E+00  0.43400732174E+02  0.00000000000E+00 0. -1.
         11    1    3    3    0    0  0.40696124895E+01 -0.33500679283E+02 -0.12485337420E+01  0.33770047305E+02  0.51100000000E-03 0. -1.
        -11    1    3    3    0    0 -0.81156556321E+00  0.33181410853E+00  0.28083128321E+01  0.29419994035E+01  0.51100000000E-03 0.  1.
        -12    1    3    3    0    0 -0.42573624408E+01 -0.10208860354E+02 -0.56085481236E+00  0.11075221117E+02  0.00000000000E+00 0.  1.
</event>
<event>
 7    1  0.1019486E-010  0.4778727E+02  0.7816164E-02  0.1312668E+00
        -11   -1    0    0    0    0  0.00000000000E+00  0.00000000000E+00  0.45593999997E+02  0.45594000000E+02  0.51100000000E-03 0. -1.
         11   -1    0    0    0    0 -0.00000000000E+00 -0.00000000000E+00 -0.45593999997E+02  0.45594000000E+02  0.51100000000E-03 0.  1.
    9900012    2    1    2    0    0 -0.35162820794E+02  0.58574118160E+01 -0.24756613590E+02  0.47787272404E+02  0.20000006201E+02 0.  0.
         12    1    1    2    0    0  0.35162820794E+02 -0.58574118160E+01  0.24756613590E+02  0.43400727596E+02  0.00000000000E+00 0. -1.
         11    1    3    3    0    0 -0.31485104773E+02  0.94001625640E+01 -0.26234858536E+02  0.42046910487E+02  0.51100000000E-03 0. -1.
        -11    1    3    3    0    0 -0.12534585895E+01 -0.12351872404E+01  0.16179538103E+01  0.23905272949E+01  0.51100000000E-03 0.  1.
         12    1    3    3    0    0 -0.24242574311E+01 -0.23075635075E+01 -0.13970886486E+00  0.33498346228E+01  0.00000000000E+00 0. -1.
</event>
<event>
 7    1  0.1019486E-010  0.4778727E+02  0.7816164E-02  0.1312668E+00
        -11   -1    0    0    0    0  0.00000000000E+00  0.00000000000E+00  0.45593999997E+02  0.45594000000E+02  0.51100000000E-03 0. -1.
         11   -1    0    0    0    0 -0.00000000000E+00 -0.00000000000E+00 -0.45593999997E+02  0.45594000000E+02  0.51100000000E-03 0.  1.
    9900012    2    1    2    0    0  0.15973451645E+02  0.31604775698E+02 -0.25092033777E+02  0.47787272317E+02  0.20000005801E+02 0.  0.
         12    1    1    2    0    0 -0.15973451645E+02 -0.31604775698E+02  0.25092033777E+02  0.43400727683E+02  0.00000000000E+00 0. -1.
         11    1    3    3    0    0  0.44197439641E+00  0.14006340147E+01 -0.70656325934E+01  0.72166669049E+01  0.51100000000E-03 0. -1.
        -11    1    3    3    0    0  0.98002557131E+01  0.27345948353E+02 -0.17985428534E+02  0.34166087619E+02  0.51100000000E-03 0.  1.
        -12    1    3    3    0    0  0.57312215353E+01  0.28581933308E+01 -0.40972649259E-01  0.64045177930E+01  0.00000000000E+00 0.  1.
</event>
<event>
 7    1  0.1019486E-010  0.4778727E+02  0.7816164E-02  0.1312668E+00
        -11   -1    0    0    0    0  0.00000000000E+00  0.00000000000E+00  0.45593999997E+02  0.45594000000E+02  0.51100000000E-03 0. -1.
         11   -1    0    0    0    0 -0.00000000000E+00 -0.00000000000E+00 -0.45593999997E+02  0.45594000000E+02  0.51100000000E-03 0.  1.
    9900012    2    1    2    0    0  0.15216654869E+02 -0.34875410627E+02 -0.20875405230E+02  0.47787269645E+02  0.19999993621E+02 0.  0.
         12    1    1    2    0    0 -0.15216654869E+02  0.34875410627E+02  0.20875405230E+02  0.43400730355E+02  0.00000000000E+00 0. -1.
         11    1    3    3    0    0  0.14270536425E+01 -0.73378764300E+01  0.10832052989E+01  0.75534261485E+01  0.51100000000E-03 0. -1.
        -11    1    3    3    0    0  0.14472990893E+02 -0.14384856204E+02 -0.11555641255E+02  0.23450466914E+02  0.51100000000E-03 0.  1.
        -12    1    3    3    0    0 -0.68338966659E+00 -0.13152677993E+02 -0.10402969273E+02  0.16783376583E+02  0.00000000000E+00 0.  1.
</event>
<event>
 7    1  0.1019486E-010  0.4778726E+02  0.7816164E-02  0.1312668E+00
        -11   -1    0    0    0    0  0.00000000000E+00  0.00000000000E+00  0.45593999997E+02  0.45594000000E+02  0.51100000000E-03 0. -1.
         11   -1    0    0    0    0 -0.00000000000E+00 -0.00000000000E+00 -0.45593999997E+02  0.45594000000E+02  0.51100000000E-03 0.  1.
    9900012    2    1    2    0    0 -0.10962415781E+01 -0.61883080878E+00  0.43382482400E+02  0.47787257191E+02  0.19999936839E+02 0.  0.
        -12    1    1    2    0    0  0.10962415781E+01  0.61883080878E+00 -0.43382482400E+02  0.43400742809E+02  0.00000000000E+00 0.  1.
         11    1    3    3    0    0 -0.18719531707E+01  0.38633980196E+01  0.48205582779E+00  0.43200035895E+01  0.51100000000E-03 0.  1.
        -11    1    3    3    0    0  0.28013728746E+01 -0.37799811373E+01  0.33273264539E+02  0.33604256884E+02  0.51100000000E-03 0. -1.
         12    1    3    3    0    0 -0.20256612820E+01 -0.70224769114E+00  0.96271620330E+01  0.98629967180E+01  0.00000000000E+00 0. -1.
</event>
<event>
 7    1  0.1019486E-010  0.4778727E+02  0.7816164E-02  0.1312668E+00
        -11   -1    0    0    0    0  0.00000000000E+00  0.00000000000E+00  0.45593999997E+02  0.45594000000E+02  0.51100000000E-03 0. -1.
         11   -1    0    0    0    0 -0.00000000000E+00 -0.00000000000E+00 -0.45593999997E+02  0.45594000000E+02  0.51100000000E-03 0.  1.
    9900012    2    1    2    0    0 -0.14449276609E+02 -0.18953313782E+00 -0.40924387867E+02  0.47787273743E+02  0.20000012304E+02 0.  0.
         12    1    1    2    0    0  0.14449276609E+02  0.18953313782E+00  0.40924387867E+02  0.43400726257E+02  0.00000000000E+00 0. -1.
         11    1    3    3    0    0 -0.26964730944E+01 -0.87439854203E+01 -0.97687945557E+01  0.13384976485E+02  0.51100000000E-03 0. -1.
        -11    1    3    3    0    0 -0.88732559875E+01  0.70714029307E+01 -0.23900491920E+02  0.26457001446E+02  0.51100000000E-03 0.  1.
         12    1    3    3    0    0 -0.28795475267E+01  0.14830493517E+01 -0.72551013919E+01  0.79452958123E+01  0.00000000000E+00 0. -1.
</event>
<event>
 7    1  0.1019486E-010  0.4778727E+02  0.7816164E-02  0.1312668E+00
        -11   -1    0    0    0    0  0.00000000000E+00  0.00000000000E+00  0.45593999997E+02  0.45594000000E+02  0.51100000000E-03 0. -1.
         11   -1    0    0    0    0 -0.00000000000E+00 -0.00000000000E+00 -0.45593999997E+02  0.45594000000E+02  0.51100000000E-03 0.  1.
    9900012    2    1    2    0    0 -0.19322144205E+02  0.36139705208E+01 -0.38693888876E+02  0.47787273325E+02  0.20000010399E+02 0.  0.
         12    1    1    2    0    0  0.19322144205E+02 -0.36139705208E+01  0.38693888876E+02  0.43400726675E+02  0.00000000000E+00 0. -1.
         11    1    3    3    0    0 -0.47324963327E+01  0.36374961398E+01 -0.19593592528E+01  0.62822757539E+01  0.51100000000E-03 0. -1.
        -11    1    3    3    0    0 -0.73219963931E+01  0.28581127502E+01 -0.62735732546E+01  0.10056747054E+02  0.51100000000E-03 0.  1.
         12    1    3    3    0    0 -0.72676514789E+01 -0.28816383692E+01 -0.30460956368E+02  0.31448250517E+02  0.00000000000E+00 0. -1.
</event>
<event>
 7    1  0.1019486E-010  0.4778727E+02  0.7816164E-02  0.1312668E+00
        -11   -1    0    0    0    0  0.00000000000E+00  0.00000000000E+00  0.45593999997E+02  0.45594000000E+02  0.51100000000E-03 0. -1.
         11   -1    0    0    0    0 -0.00000000000E+00 -0.00000000000E+00 -0.45593999997E+02  0.45594000000E+02  0.51100000000E-03 0.  1.
    9900012    2    1    2    0    0 -0.39575193856E+02  0.13228136841E+02  0.11934981926E+02  0.47787269976E+02  0.19999995129E+02 0.  0.
        -12    1    1    2    0    0  0.39575193856E+02 -0.13228136841E+02 -0.11934981926E+02  0.43400730024E+02  0.00000000000E+00 0.  1.
         11    1    3    3    0    0 -0.31759040926E+02  0.13055516622E+02  0.41013230678E+01  0.34581845613E+02  0.51100000000E-03 0. -1.
        -11    1    3    3    0    0 -0.73160227927E+01 -0.26309820685E+01  0.54985688328E+01  0.95226317591E+01  0.51100000000E-03 0.  1.
        -12    1    3    3    0    0 -0.50013013740E+00  0.28036022873E+01  0.23350900251E+01  0.36827926041E+01  0.00000000000E+00 0.  1.
</event>
<event>
 7    1  0.1019486E-010  0.4778727E+02  0.7816164E-02  0.1312668E+00
        -11   -1    0    0    0    0  0.00000000000E+00  0.00000000000E+00  0.45593999997E+02  0.45594000000E+02  0.51100000000E-03 0. -1.
         11   -1    0    0    0    0 -0.00000000000E+00 -0.00000000000E+00 -0.45593999997E+02  0.45594000000E+02  0.51100000000E-03 0.  1.
    9900012    2    1    2    0    0  0.20571608268E+02  0.34607656949E+02  0.16209330089E+02  0.47787269958E+02  0.19999995049E+02 0.  0.
        -12    1    1    2    0    0 -0.20571608268E+02 -0.34607656949E+02 -0.16209330089E+02  0.43400730042E+02  0.00000000000E+00 0.  1.
         11    1    3    3    0    0  0.16033994518E+02  0.12164244890E+02  0.10383819811E+02  0.22646888265E+02  0.51100000000E-03 0. -1.
        -11    1    3    3    0    0  0.16594806827E+01  0.20095837782E+02  0.28158112094E+01  0.20359896005E+02  0.51100000000E-03 0.  1.
        -12    1    3    3    0    0  0.28781330672E+01  0.23475742761E+01  0.30096990687E+01  0.47804856886E+01  0.00000000000E+00 0.  1.
</event>
<event>
 7    1  0.1019486E-010  0.4778727E+02  0.7816164E-02  0.1312668E+00
        -11   -1    0    0    0    0  0.00000000000E+00  0.00000000000E+00  0.45593999997E+02  0.45594000000E+02  0.51100000000E-03 0. -1.
         11   -1    0    0    0    0 -0.00000000000E+00 -0.00000000000E+00 -0.45593999997E+02  0.45594000000E+02  0.51100000000E-03 0.  1.
    9900012    2    1    2    0    0  0.14336499879E+02  0.40559885461E+01  0.40763183295E+02  0.47787269774E+02  0.19999994206E+02 0.  0.
        -12    1    1    2    0    0 -0.14336499879E+02 -0.40559885461E+01 -0.40763183295E+02  0.43400730226E+02  0.00000000000E+00 0.  1.
         11    1    3    3    0    0  0.83217413046E+01  0.84139735978E+00  0.17683865910E+02  0.19562168633E+02  0.51100000000E-03 0. -1.
        -11    1    3    3    0    0  0.64428271374E+01  0.76625590683E+01  0.90292203672E+01  0.13481530095E+02  0.51100000000E-03 0.  1.
        -12    1    3    3    0    0 -0.42806856271E+00 -0.44479678821E+01  0.14050097018E+02  0.14743571046E+02  0.00000000000E+00 0.  1.
</event>
<event>
 7    1  0.1019486E-010  0.4778726E+02  0.7816164E-02  0.1312668E+00
        -11   -1    0    0    0    0  0.00000000000E+00  0.00000000000E+00  0.45593999997E+02  0.45594000000E+02  0.51100000000E-03 0. -1.
         11   -1    0    0    0    0 -0.00000000000E+00 -0.00000000000E+00 -0.45593999997E+02  0.45594000000E+02  0.51100000000E-03 0.  1.
    9900012    2    1    2    0    0  0.13979838471E+02 -0.11397576560E+01 -0.41071755563E+02  0.47787262262E+02  0.19999959955E+02 0.  0.
         12    1    1    2    0    0 -0.13979838471E+02  0.11397576560E+01  0.41071755563E+02  0.43400737738E+02  0.00000000000E+00 0. -1.
         11    1    3    3    0    0  0.10500964861E+02  0.67450929832E+01 -0.35078924739E+02  0.37233016309E+02  0.51100000000E-03 0. -1.
        -11    1    3    3    0    0  0.22376897167E+01 -0.37369078064E+01 -0.31318555777E+01  0.53647231841E+01  0.51100000000E-03 0.  1.
         12    1    3    3    0    0  0.12411838929E+01 -0.41479428328E+01 -0.28609752465E+01  0.51895227682E+01  0.00000000000E+00 0. -1.
</event>
<event>
 7    1  0.1019486E-010  0.4778727E+02  0.7816164E-02  0.1312668E+00
        -11   -1    0    0    0    0  0.00000000000E+00  0.00000000000E+00  0.45593999997E+02  0.45594000000E+02  0.51100000000E-03 0.  1.
         11   -1    0    0    0    0 -0.00000000000E+00 -0.00000000000E+00 -0.45593999997E+02  0.45594000000E+02  0.51100000000E-03 0. -1.
    9900012    2    1    2    0    0 -0.19533665050E+02  0.36792739075E+02  0.12180055814E+02  0.47787268686E+02  0.19999989247E+02 0.  0.
         12    1    1    2    0    0  0.19533665050E+02 -0.36792739075E+02 -0.12180055814E+02  0.43400731314E+02  0.00000000000E+00 0. -1.
         11    1    3    3    0    0  0.12718080661E+01  0.81200863428E+01 -0.26503527933E+01  0.86358362746E+01  0.51100000000E-03 0. -1.
        -11    1    3    3    0    0 -0.14971520294E+02  0.24641926461E+02  0.13868881008E+02  0.31995575011E+02  0.51100000000E-03 0.  1.
         12    1    3    3    0    0 -0.58339528224E+01  0.40307262717E+01  0.96152759879E+00  0.71558574003E+01  0.00000000000E+00 0. -1.
</event>
<event>
 7    1  0.1019486E-010  0.4778727E+02  0.7816164E-02  0.1312668E+00
        -11   -1    0    0    0    0  0.00000000000E+00  0.00000000000E+00  0.45593999997E+02  0.45594000000E+02  0.51100000000E-03 0. -1.
         11   -1    0    0    0    0 -0.00000000000E+00 -0.00000000000E+00 -0.45593999997E+02  0.45594000000E+02  0.51100000000E-03 0.  1.
    9900012    2    1    2    0    0 -0.79483707027E+01 -0.34340040948E+02 -0.25322096186E+02  0.47787267698E+02  0.19999984741E+02 0.  0.
         12    1    1    2    0    0  0.79483707027E+01  0.34340040948E+02  0.25322096186E+02  0.43400732302E+02  0.00000000000E+00 0. -1.
         11    1    3    3    0    0 -0.22257876392E+01 -0.18209299946E+02 -0.23568418339E+02  0.29866420583E+02  0.51100000000E-03 0. -1.
        -11    1    3    3    0    0 -0.19911024410E+01 -0.28081117140E+01 -0.21876696045E+01  0.40787104443E+01  0.51100000000E-03 0.  1.
         12    1    3    3    0    0 -0.37314806225E+01 -0.13322629288E+02  0.43399175780E+00  0.13842136671E+02  0.00000000000E+00 0. -1.
</event>
<event>
 7    1  0.1019486E-010  0.4778726E+02  0.7816164E-02  0.1312668E+00
        -11   -1    0    0    0    0  0.00000000000E+00  0.00000000000E+00  0.45593999997E+02  0.45594000000E+02  0.51100000000E-03 0.  1.
         11   -1    0    0    0    0 -0.00000000000E+00 -0.00000000000E+00 -0.45593999997E+02  0.45594000000E+02  0.51100000000E-03 0. -1.
    9900012    2    1    2    0    0 -0.24629961689E+02 -0.35392249355E+02 -0.49373795430E+01  0.47787262173E+02  0.19999959551E+02 0.  0.
        -12    1    1    2    0    0  0.24629961689E+02  0.35392249355E+02  0.49373795430E+01  0.43400737827E+02  0.00000000000E+00 0.  1.
         11    1    3    3    0    0  0.10278336387E+00 -0.61359483002E+01 -0.43570306808E+01  0.75262303032E+01  0.51100000000E-03 0. -1.
        -11    1    3    3    0    0 -0.24036752958E+02 -0.21454232975E+02 -0.20794850936E+01  0.32285815211E+02  0.51100000000E-03 0.  1.
        -12    1    3    3    0    0 -0.69599209518E+00 -0.78020680798E+01  0.14991362314E+01  0.79752166591E+01  0.00000000000E+00 0.  1.
</event>
<event>
 7    1  0.1019486E-010  0.4778728E+02  0.7816164E-02  0.1312668E+00
        -11   -1    0    0    0    0  0.00000000000E+00  0.00000000000E+00  0.45593999997E+02  0.45594000000E+02  0.51100000000E-03 0. -1.
         11   -1    0    0    0    0 -0.00000000000E+00 -0.00000000000E+00 -0.45593999997E+02  0.45594000000E+02  0.51100000000E-03 0.  1.
    9900012    2    1    2    0    0 -0.66888797707E+01  0.23728642708E+02  0.35718808492E+02  0.47787275612E+02  0.20000020825E+02 0.  0.
        -12    1    1    2    0    0  0.66888797707E+01 -0.23728642708E+02 -0.35718808492E+02  0.43400724388E+02  0.00000000000E+00 0.  1.
         11    1    3    3    0    0 -0.29688061500E+00  0.21073411906E+02  0.17094186222E+02  0.27136470484E+02  0.51100000000E-03 0. -1.
        -11    1    3    3    0    0 -0.77873693433E+00 -0.39072918180E+00  0.93471957313E+01  0.93877137156E+01  0.51100000000E-03 0.  1.
         12    1    3    3    0    0 -0.56132622213E+01  0.30459599835E+01  0.92774265385E+01  0.11263091412E+02  0.00000000000E+00 0. -1.
</event>
<event>
 7    1  0.1019486E-010  0.4778727E+02  0.7816164E-02  0.1312668E+00
        -11   -1    0    0    0    0  0.00000000000E+00  0.00000000000E+00  0.45593999997E+02  0.45594000000E+02  0.51100000000E-03 0. -1.
         11   -1    0    0    0    0 -0.00000000000E+00 -0.00000000000E+00 -0.45593999997E+02  0.45594000000E+02  0.51100000000E-03 0.  1.
    9900012    2    1    2    0    0 -0.21564896554E+01  0.39486486542E+02  0.17882680810E+02  0.47787270282E+02  0.19999996526E+02 0.  0.
        -12    1    1    2    0    0  0.21564896554E+01 -0.39486486542E+02 -0.17882680810E+02  0.43400729718E+02  0.00000000000E+00 0.  1.
         11    1    3    3    0    0 -0.59166345532E+01  0.33477481257E+02  0.68727177234E+01  0.34684039051E+02  0.51100000000E-03 0. -1.
        -11    1    3    3    0    0  0.19627821429E+01  0.33321766909E+01  0.56071119285E+01  0.68114330122E+01  0.51100000000E-03 0.  1.
         12    1    3    3    0    0  0.17973627550E+01  0.26768285944E+01  0.54028511579E+01  0.62917982192E+01  0.00000000000E+00 0. -1.
</event>
<event>
 7    1  0.1019486E-010  0.4778727E+02  0.7816164E-02  0.1312668E+00
        -11   -1    0    0    0    0  0.00000000000E+00  0.00000000000E+00  0.45593999997E+02  0.45594000000E+02  0.51100000000E-03 0. -1.
         11   -1    0    0    0    0 -0.00000000000E+00 -0.00000000000E+00 -0.45593999997E+02  0.45594000000E+02  0.51100000000E-03 0.  1.
    9900012    2    1    2    0    0 -0.22772177711E+02 -0.12704597163E+02 -0.34693580069E+02  0.47787269997E+02  0.19999995224E+02 0.  0.
         12    1    1    2    0    0  0.22772177711E+02  0.12704597163E+02  0.34693580069E+02  0.43400730003E+02  0.00000000000E+00 0. -1.
         11    1    3    3    0    0  0.17161589048E+01  0.17483635613E+01 -0.56053397596E+01  0.61173368888E+01  0.51100000000E-03 0. -1.
        -11    1    3    3    0    0 -0.16743193798E+02 -0.84212581131E+01 -0.12950337852E+02  0.22780767711E+02  0.51100000000E-03 0.  1.
        -12    1    3    3    0    0 -0.77451428170E+01 -0.60317026114E+01 -0.16137902458E+02  0.18889165397E+02  0.00000000000E+00 0.  1.
</event>
<event>
 7    1  0.1019486E-010  0.4778727E+02  0.7816164E-02  0.1312668E+00
        -11   -1    0    0    0    0  0.00000000000E+00  0.00000000000E+00  0.45593999997E+02  0.45594000000E+02  0.51100000000E-03 0. -1.
         11   -1    0    0    0    0 -0.00000000000E+00 -0.00000000000E+00 -0.45593999997E+02  0.45594000000E+02  0.51100000000E-03 0.  1.
    9900012    2    1    2    0    0 -0.13388618598E+02 -0.14430473773E+02  0.38679834983E+02  0.47787270564E+02  0.19999997808E+02 0.  0.
        -12    1    1    2    0    0  0.13388618598E+02  0.14430473773E+02 -0.38679834983E+02  0.43400729436E+02  0.00000000000E+00 0.  1.
         11    1    3    3    0    0 -0.12033622147E+02 -0.14286105251E+02  0.32998856534E+02  0.37918668200E+02  0.51100000000E-03 0. -1.
        -11    1    3    3    0    0  0.29270386491E+01  0.15431460282E+01  0.33530373852E+01  0.47108083049E+01  0.51100000000E-03 0.  1.
         12    1    3    3    0    0 -0.42820351008E+01 -0.16875145498E+01  0.23279410639E+01  0.51577940592E+01  0.00000000000E+00 0. -1.
</event>
<event>
 7    1  0.1019486E-010  0.4778727E+02  0.7816164E-02  0.1312668E+00
        -11   -1    0    0    0    0  0.00000000000E+00  0.00000000000E+00  0.45593999997E+02  0.45594000000E+02  0.51100000000E-03 0. -1.
         11   -1    0    0    0    0 -0.00000000000E+00 -0.00000000000E+00 -0.45593999997E+02  0.45594000000E+02  0.51100000000E-03 0.  1.
    9900012    2    1    2    0    0 -0.12695355914E+02 -0.32167735107E+02  0.26223808908E+02  0.47787269622E+02  0.19999993514E+02 0.  0.
        -12    1    1    2    0    0  0.12695355914E+02  0.32167735107E+02 -0.26223808908E+02  0.43400730378E+02  0.00000000000E+00 0.  1.
         11    1    3    3    0    0 -0.26325213380E+01 -0.75285690071E+01 -0.62789627154E-01  0.79758048301E+01  0.51100000000E-03 0. -1.
        -11    1    3    3    0    0 -0.12715470004E+01 -0.13219288106E+02  0.51818962571E+01  0.14255471192E+02  0.51100000000E-03 0.  1.
         12    1    3    3    0    0 -0.87912875754E+01 -0.11419877993E+02  0.21104702279E+02  0.25555993600E+02  0.00000000000E+00 0. -1.
</event>
<event>
 7    1  0.1019486E-010  0.4778727E+02  0.7816164E-02  0.1312668E+00
        -11   -1    0    0    0    0  0.00000000000E+00  0.00000000000E+00  0.45593999997E+02  0.45594000000E+02  0.51100000000E-03 0.  1.
         11   -1    0    0    0    0 -0.00000000000E+00 -0.00000000000E+00 -0.45593999997E+02  0.45594000000E+02  0.51100000000E-03 0. -1.
    9900012    2    1    2    0    0  0.42866285822E+02 -0.57573842254E+01  0.35996230529E+01  0.47787271672E+02  0.20000002860E+02 0.  0.
        -12    1    1    2    0    0 -0.42866285822E+02  0.57573842254E+01 -0.35996230529E+01  0.43400728328E+02  0.00000000000E+00 0.  1.
         11    1    3    3    0    0  0.20792908232E+02 -0.39451064154E+01 -0.51487982810E+01  0.21781162076E+02  0.51100000000E-03 0. -1.
        -11    1    3    3    0    0  0.26401543524E+01 -0.83885988985E+00  0.56645540856E+01  0.63056541428E+01  0.51100000000E-03 0.  1.
        -12    1    3    3    0    0  0.19433223238E+02 -0.97341792013E+00  0.30838672483E+01  0.19700455453E+02  0.00000000000E+00 0.  1.
</event>
<event>
 7    1  0.1019486E-010  0.4778727E+02  0.7816164E-02  0.1312668E+00
        -11   -1    0    0    0    0  0.00000000000E+00  0.00000000000E+00  0.45593999997E+02  0.45594000000E+02  0.51100000000E-03 0. -1.
         11   -1    0    0    0    0 -0.00000000000E+00 -0.00000000000E+00 -0.45593999997E+02  0.45594000000E+02  0.51100000000E-03 0.  1.
    9900012    2    1    2    0    0 -0.19262221057E+02  0.11237514184E+02 -0.37233165640E+02  0.47787268340E+02  0.19999987669E+02 0.  0.
         12    1    1    2    0    0  0.19262221057E+02 -0.11237514184E+02  0.37233165640E+02  0.43400731660E+02  0.00000000000E+00 0. -1.
         11    1    3    3    0    0 -0.54978026672E+01  0.63081049380E+01 -0.13054374154E+02  0.15505957142E+02  0.51100000000E-03 0.  1.
        -11    1    3    3    0    0  0.23056825496E+01  0.34360760419E+01 -0.14079708366E+01  0.43709464333E+01  0.51100000000E-03 0. -1.
        -12    1    3    3    0    0 -0.16070100939E+02  0.14933332041E+01 -0.22770820649E+02  0.27910364764E+02  0.00000000000E+00 0.  1.
</event>
<event>
 7    1  0.1019486E-010  0.4778727E+02  0.7816164E-02  0.1312668E+00
        -11   -1    0    0    0    0  0.00000000000E+00  0.00000000000E+00  0.45593999997E+02  0.45594000000E+02  0.51100000000E-03 0. -1.
         11   -1    0    0    0    0 -0.00000000000E+00 -0.00000000000E+00 -0.45593999997E+02  0.45594000000E+02  0.51100000000E-03 0.  1.
    9900012    2    1    2    0    0  0.13432234875E+02  0.10357789613E+02 -0.39948895694E+02  0.47787274124E+02  0.20000014040E+02 0.  0.
         12    1    1    2    0    0 -0.13432234875E+02 -0.10357789613E+02  0.39948895694E+02  0.43400725876E+02  0.00000000000E+00 0. -1.
         11    1    3    3    0    0 -0.14293378796E+01  0.88845106602E+01 -0.20823647151E+02  0.22684836728E+02  0.51100000000E-03 0.  1.
        -11    1    3    3    0    0  0.13275058798E+02  0.19270478998E+01 -0.19232924285E+02  0.23448796910E+02  0.51100000000E-03 0. -1.
        -12    1    3    3    0    0  0.15865139562E+01 -0.45376894670E+00  0.10767574230E+00  0.16536404857E+01  0.00000000000E+00 0.  1.
</event>
<event>
 7    1  0.1019486E-010  0.4778727E+02  0.7816164E-02  0.1312668E+00
        -11   -1    0    0    0    0  0.00000000000E+00  0.00000000000E+00  0.45593999997E+02  0.45594000000E+02  0.51100000000E-03 0.  1.
         11   -1    0    0    0    0 -0.00000000000E+00 -0.00000000000E+00 -0.45593999997E+02  0.45594000000E+02  0.51100000000E-03 0. -1.
    9900012    2    1    2    0    0 -0.41153108105E+02 -0.12387991985E+02  0.60483500342E+01  0.47787272008E+02  0.20000004394E+02 0.  0.
        -12    1    1    2    0    0  0.41153108105E+02  0.12387991985E+02 -0.60483500342E+01  0.43400727992E+02  0.00000000000E+00 0.  1.
         11    1    3    3    0    0 -0.17015251772E+02 -0.11781120129E+02 -0.66357192526E-01  0.20695844701E+02  0.51100000000E-03 0. -1.
        -11    1    3    3    0    0 -0.35730734173E+01  0.10751573224E+01  0.52486422370E+01  0.64398029867E+01  0.51100000000E-03 0.  1.
        -12    1    3    3    0    0 -0.20564782916E+02 -0.16820291785E+01  0.86606498970E+00  0.20651624321E+02  0.00000000000E+00 0.  1.
</event>
<event>
 7    1  0.1019486E-010  0.4778727E+02  0.7816164E-02  0.1312668E+00
        -11   -1    0    0    0    0  0.00000000000E+00  0.00000000000E+00  0.45593999997E+02  0.45594000000E+02  0.51100000000E-03 0. -1.
         11   -1    0    0    0    0 -0.00000000000E+00 -0.00000000000E+00 -0.45593999997E+02  0.45594000000E+02  0.51100000000E-03 0.  1.
    9900012    2    1    2    0    0 -0.35366449978E+02 -0.47504328569E+01  0.24703661258E+02  0.47787271021E+02  0.19999999891E+02 0.  0.
        -12    1    1    2    0    0  0.35366449978E+02  0.47504328569E+01 -0.24703661258E+02  0.43400728979E+02  0.00000000000E+00 0.  1.
         11    1    3    3    0    0  0.47762017267E+00 -0.36217532823E+01  0.27618220703E+01  0.45796156254E+01  0.51100000000E-03 0.  1.
        -11    1    3    3    0    0 -0.19495209779E+02 -0.45688821094E+01  0.84505858520E+01  0.21733621179E+02  0.51100000000E-03 0. -1.
         12    1    3    3    0    0 -0.16348860372E+02  0.34402025347E+01  0.13491253336E+02  0.21474034216E+02  0.00000000000E+00 0. -1.
</event>
<event>
 7    1  0.1019486E-010  0.4778727E+02  0.7816164E-02  0.1312668E+00
        -11   -1    0    0    0    0  0.00000000000E+00  0.00000000000E+00  0.45593999997E+02  0.45594000000E+02  0.51100000000E-03 0. -1.
         11   -1    0    0    0    0 -0.00000000000E+00 -0.00000000000E+00 -0.45593999997E+02  0.45594000000E+02  0.51100000000E-03 0.  1.
    9900012    2    1    2    0    0 -0.65194791790E+01  0.62424174804E+01  0.42451760717E+02  0.47787269905E+02  0.19999994805E+02 0.  0.
        -12    1    1    2    0    0  0.65194791790E+01 -0.62424174804E+01 -0.42451760717E+02  0.43400730095E+02  0.00000000000E+00 0.  1.
         11    1    3    3    0    0 -0.10754544868E+01 -0.24609654683E+01  0.30885603990E+01  0.40929401400E+01  0.51100000000E-03 0. -1.
        -11    1    3    3    0    0 -0.13559943499E+01 -0.47220286013E+01  0.93527704608E+01  0.10564591348E+02  0.51100000000E-03 0.  1.
        -12    1    3    3    0    0 -0.40880303423E+01  0.13425411550E+02  0.30010429858E+02  0.33129738417E+02  0.00000000000E+00 0.  1.
</event>
<event>
 7    1  0.1019486E-010  0.4778724E+02  0.7816164E-02  0.1312668E+00
        -11   -1    0    0    0    0  0.00000000000E+00  0.00000000000E+00  0.45593999997E+02  0.45594000000E+02  0.51100000000E-03 0. -1.
         11   -1    0    0    0    0 -0.00000000000E+00 -0.00000000000E+00 -0.45593999997E+02  0.45594000000E+02  0.51100000000E-03 0.  1.
    9900012    2    1    2    0    0  0.27985965172E+02  0.33109663901E+02 -0.20401579532E+01  0.47787235782E+02  0.19999839224E+02 0.  0.
        -12    1    1    2    0    0 -0.27985965172E+02 -0.33109663901E+02  0.20401579532E+01  0.43400764218E+02  0.00000000000E+00 0.  1.
         11    1    3    3    0    0  0.60495827729E+01  0.14476836943E+02  0.53465182512E+01  0.16575931867E+02  0.51100000000E-03 0. -1.
        -11    1    3    3    0    0  0.22472931624E+02  0.16320057440E+02 -0.76879424944E+01  0.28818074028E+02  0.51100000000E-03 0.  1.
        -12    1    3    3    0    0 -0.53654922495E+00  0.23127695179E+01  0.30126629005E+00  0.23932298868E+01  0.00000000000E+00 0.  1.
</event>
<event>
 7    1  0.1247814E-010  0.4778727E+02  0.7816164E-02  0.1312668E+00
        -11   -1    0    0    0    0  0.00000000000E+00  0.00000000000E+00  0.45593999997E+02  0.45594000000E+02  0.51100000000E-03 0. -1.
         11   -1    0    0    0    0 -0.00000000000E+00 -0.00000000000E+00 -0.45593999997E+02  0.45594000000E+02  0.51100000000E-03 0.  1.
    9900012    2    1    2    0    0 -0.33847760555E+02 -0.19864774077E+02 -0.18529526204E+02  0.47787268611E+02  0.19999988906E+02 0.  0.
         12    1    1    2    0    0  0.33847760555E+02  0.19864774077E+02  0.18529526204E+02  0.43400731389E+02  0.00000000000E+00 0. -1.
         11    1    3    3    0    0 -0.69860397032E+01 -0.10626033195E+02 -0.91138200224E-02  0.12716816249E+02  0.51100000000E-03 0. -1.
        -11    1    3    3    0    0 -0.20305552720E+02 -0.10641274232E+02 -0.12794358620E+02  0.26253529311E+02  0.51100000000E-03 0.  1.
         12    1    3    3    0    0 -0.65561681323E+01  0.14025333501E+01 -0.57260537638E+01  0.88169230508E+01  0.00000000000E+00 0. -1.
</event>
<event>
 7    1  0.1019486E-010  0.4778725E+02  0.7816164E-02  0.1312668E+00
        -11   -1    0    0    0    0  0.00000000000E+00  0.00000000000E+00  0.45593999997E+02  0.45594000000E+02  0.51100000000E-03 0. -1.
         11   -1    0    0    0    0 -0.00000000000E+00 -0.00000000000E+00 -0.45593999997E+02  0.45594000000E+02  0.51100000000E-03 0.  1.
    9900012    2    1    2    0    0  0.15264865836E+02  0.13440078294E+02 -0.38340229485E+02  0.47787250807E+02  0.19999907730E+02 0.  0.
         12    1    1    2    0    0 -0.15264865836E+02 -0.13440078294E+02  0.38340229485E+02  0.43400749193E+02  0.00000000000E+00 0. -1.
         11    1    3    3    0    0  0.31328134496E+01  0.16884437251E+00  0.60716413586E+00  0.31955714796E+01  0.51100000000E-03 0. -1.
        -11    1    3    3    0    0  0.14525613577E+02  0.10261283412E+02 -0.33431114650E+02  0.37867226120E+02  0.51100000000E-03 0.  1.
        -12    1    3    3    0    0 -0.23935611912E+01  0.30099505099E+01 -0.55162789712E+01  0.67244532073E+01  0.00000000000E+00 0.  1.
</event>
<event>
 7    1  0.1019486E-010  0.4778727E+02  0.7816164E-02  0.1312668E+00
        -11   -1    0    0    0    0  0.00000000000E+00  0.00000000000E+00  0.45593999997E+02  0.45594000000E+02  0.51100000000E-03 0.  1.
         11   -1    0    0    0    0 -0.00000000000E+00 -0.00000000000E+00 -0.45593999997E+02  0.45594000000E+02  0.51100000000E-03 0. -1.
    9900012    2    1    2    0    0  0.67098463151E+01 -0.30404292292E+02  0.30235414757E+02  0.47787270364E+02  0.19999996898E+02 0.  0.
        -12    1    1    2    0    0 -0.67098463151E+01  0.30404292292E+02 -0.30235414757E+02  0.43400729636E+02  0.00000000000E+00 0.  1.
         11    1    3    3    0    0  0.23040952568E+01 -0.25635148100E+02  0.13662999455E+02  0.29140130875E+02  0.51100000000E-03 0. -1.
        -11    1    3    3    0    0  0.11806651907E+01  0.12435533994E+01  0.29724729478E+01  0.34316163883E+01  0.51100000000E-03 0.  1.
         12    1    3    3    0    0  0.32250858675E+01 -0.60126975922E+01  0.13599942354E+02  0.15215523101E+02  0.00000000000E+00 0. -1.
</event>
<event>
 7    1  0.1019486E-010  0.4778727E+02  0.7816164E-02  0.1312668E+00
        -11   -1    0    0    0    0  0.00000000000E+00  0.00000000000E+00  0.45593999997E+02  0.45594000000E+02  0.51100000000E-03 0. -1.
         11   -1    0    0    0    0 -0.00000000000E+00 -0.00000000000E+00 -0.45593999997E+02  0.45594000000E+02  0.51100000000E-03 0.  1.
    9900012    2    1    2    0    0 -0.70707696241E+01  0.22260306169E+02  0.36580136807E+02  0.47787269330E+02  0.19999992185E+02 0.  0.
        -12    1    1    2    0    0  0.70707696241E+01 -0.22260306169E+02 -0.36580136807E+02  0.43400730670E+02  0.00000000000E+00 0.  1.
         11    1    3    3    0    0 -0.11540983472E+02  0.91517610922E+01  0.17592169309E+02  0.22944137636E+02  0.51100000000E-03 0. -1.
        -11    1    3    3    0    0  0.27880842004E+01  0.13037768424E+02  0.12994070057E+02  0.18617268218E+02  0.51100000000E-03 0.  1.
        -12    1    3    3    0    0  0.16821296480E+01  0.70776652569E-01  0.59938974419E+01  0.62258634768E+01  0.00000000000E+00 0.  1.
</event>
<event>
 7    1  0.1019486E-010  0.4778727E+02  0.7816164E-02  0.1312668E+00
        -11   -1    0    0    0    0  0.00000000000E+00  0.00000000000E+00  0.45593999997E+02  0.45594000000E+02  0.51100000000E-03 0. -1.
         11   -1    0    0    0    0 -0.00000000000E+00 -0.00000000000E+00 -0.45593999997E+02  0.45594000000E+02  0.51100000000E-03 0.  1.
    9900012    2    1    2    0    0  0.71728216908E+01  0.26455624025E+02  0.33649280062E+02  0.47787268874E+02  0.19999990106E+02 0.  0.
        -12    1    1    2    0    0 -0.71728216908E+01 -0.26455624025E+02 -0.33649280062E+02  0.43400731126E+02  0.00000000000E+00 0.  1.
         11    1    3    3    0    0  0.13875849730E+01  0.14536255721E+02  0.27545584364E+02  0.31176711511E+02  0.51100000000E-03 0. -1.
        -11    1    3    3    0    0 -0.12914264393E+01  0.16837022349E+01 -0.92963848530E+00  0.23166491833E+01  0.51100000000E-03 0.  1.
         12    1    3    3    0    0  0.70766631570E+01  0.10235666069E+02  0.70333341830E+01  0.14293908180E+02  0.00000000000E+00 0. -1.
</event>
<event>
 7    1  0.1019486E-010  0.4778729E+02  0.7816164E-02  0.1312668E+00
        -11   -1    0    0    0    0  0.00000000000E+00  0.00000000000E+00  0.45593999997E+02  0.45594000000E+02  0.51100000000E-03 0. -1.
         11   -1    0    0    0    0 -0.00000000000E+00 -0.00000000000E+00 -0.45593999997E+02  0.45594000000E+02  0.51100000000E-03 0.  1.
    9900012    2    1    2    0    0 -0.23001749119E+02 -0.18977626817E+02 -0.31533959025E+02  0.47787293163E+02  0.20000100848E+02 0.  0.
         12    1    1    2    0    0  0.23001749119E+02  0.18977626817E+02  0.31533959025E+02  0.43400706837E+02  0.00000000000E+00 0. -1.
         11    1    3    3    0    0 -0.11735515784E+01 -0.28308814777E+01 -0.95366299985E+01  0.10016906970E+02  0.51100000000E-03 0. -1.
        -11    1    3    3    0    0 -0.19559243807E+02 -0.17162155980E+02 -0.14321335262E+02  0.29701923509E+02  0.51100000000E-03 0.  1.
        -12    1    3    3    0    0 -0.22689537327E+01  0.10154106405E+01 -0.76759937647E+01  0.80684626842E+01  0.00000000000E+00 0.  1.
</event>
<event>
 7    1  0.1019486E-010  0.4778727E+02  0.7816164E-02  0.1312668E+00
        -11   -1    0    0    0    0  0.00000000000E+00  0.00000000000E+00  0.45593999997E+02  0.45594000000E+02  0.51100000000E-03 0. -1.
         11   -1    0    0    0    0 -0.00000000000E+00 -0.00000000000E+00 -0.45593999997E+02  0.45594000000E+02  0.51100000000E-03 0.  1.
    9900012    2    1    2    0    0 -0.19311870556E+02 -0.17008405885E+01 -0.38830172725E+02  0.47787268245E+02  0.19999987234E+02 0.  0.
         12    1    1    2    0    0  0.19311870556E+02  0.17008405885E+01  0.38830172725E+02  0.43400731755E+02  0.00000000000E+00 0. -1.
         11    1    3    3    0    0  0.18285248617E+01 -0.64251313287E+00 -0.60075082086E+01  0.63124069446E+01  0.51100000000E-03 0. -1.
        -11    1    3    3    0    0 -0.17153229387E+02 -0.67075268723E+01 -0.23087604239E+02  0.29534076334E+02  0.51100000000E-03 0.  1.
        -12    1    3    3    0    0 -0.39871660303E+01  0.56491994166E+01 -0.97350602770E+01  0.11940784966E+02  0.00000000000E+00 0.  1.
</event>
<event>
 7    1  0.1019486E-010  0.4778727E+02  0.7816164E-02  0.1312668E+00
        -11   -1    0    0    0    0  0.00000000000E+00  0.00000000000E+00  0.45593999997E+02  0.45594000000E+02  0.51100000000E-03 0. -1.
         11   -1    0    0    0    0 -0.00000000000E+00 -0.00000000000E+00 -0.45593999997E+02  0.45594000000E+02  0.51100000000E-03 0.  1.
    9900012    2    1    2    0    0  0.23687197130E+02  0.29687762138E+02  0.21004209883E+02  0.47787270035E+02  0.19999995399E+02 0.  0.
        -12    1    1    2    0    0 -0.23687197130E+02 -0.29687762138E+02 -0.21004209883E+02  0.43400729965E+02  0.00000000000E+00 0.  1.
         11    1    3    3    0    0  0.15419042995E+02  0.17632461913E+02  0.17580102089E+02  0.29286696462E+02  0.51100000000E-03 0. -1.
        -11    1    3    3    0    0  0.83405224945E+01  0.48331665834E+01 -0.15048942970E+01  0.97564605165E+01  0.51100000000E-03 0.  1.
        -12    1    3    3    0    0 -0.72368359018E-01  0.72221336423E+01  0.49290020914E+01  0.87441130565E+01  0.00000000000E+00 0.  1.
</event>
<event>
 7    1  0.1019486E-010  0.4778728E+02  0.7816164E-02  0.1312668E+00
        -11   -1    0    0    0    0  0.00000000000E+00  0.00000000000E+00  0.45593999997E+02  0.45594000000E+02  0.51100000000E-03 0.  1.
         11   -1    0    0    0    0 -0.00000000000E+00 -0.00000000000E+00 -0.45593999997E+02  0.45594000000E+02  0.51100000000E-03 0. -1.
    9900012    2    1    2    0    0  0.32658219727E+01 -0.25840855524E+02  0.34716091602E+02  0.47787280842E+02  0.20000044669E+02 0.  0.
        -12    1    1    2    0    0 -0.32658219727E+01  0.25840855524E+02 -0.34716091602E+02  0.43400719158E+02  0.00000000000E+00 0.  1.
         11    1    3    3    0    0  0.35931521324E+01 -0.15213764715E+02  0.19350616239E+02  0.24876007077E+02  0.51100000000E-03 0. -1.
        -11    1    3    3    0    0 -0.49438521228E+01 -0.44275675865E+00  0.83407955957E+01  0.97060073557E+01  0.51100000000E-03 0.  1.
        -12    1    3    3    0    0  0.46165219630E+01 -0.10184334050E+02  0.70246797677E+01  0.13205266408E+02  0.00000000000E+00 0.  1.
</event>
<event>
 7    1  0.1019486E-010  0.4778727E+02  0.7816164E-02  0.1312668E+00
        -11   -1    0    0    0    0  0.00000000000E+00  0.00000000000E+00  0.45593999997E+02  0.45594000000E+02  0.51100000000E-03 0. -1.
         11   -1    0    0    0    0 -0.00000000000E+00 -0.00000000000E+00 -0.45593999997E+02  0.45594000000E+02  0.51100000000E-03 0.  1.
    9900012    2    1    2    0    0 -0.10562362209E+02 -0.95577726108E+01 -0.40996448801E+02  0.47787270432E+02  0.19999997208E+02 0.  0.
         12    1    1    2    0    0  0.10562362209E+02  0.95577726108E+01  0.40996448801E+02  0.43400729568E+02  0.00000000000E+00 0. -1.
         11    1    3    3    0    0 -0.64310553382E+00  0.30604307664E+01 -0.15164896147E+02  0.15483988395E+02  0.51100000000E-03 0. -1.
        -11    1    3    3    0    0 -0.75394680506E+01 -0.13655733765E+02 -0.25190623963E+02  0.29629211583E+02  0.51100000000E-03 0.  1.
        -12    1    3    3    0    0 -0.23797886246E+01  0.10375303881E+01 -0.64092869154E+00  0.26740704537E+01  0.00000000000E+00 0.  1.
</event>
<event>
 7    1  0.1019486E-010  0.4778728E+02  0.7816164E-02  0.1312668E+00
        -11   -1    0    0    0    0  0.00000000000E+00  0.00000000000E+00  0.45593999997E+02  0.45594000000E+02  0.51100000000E-03 0. -1.
         11   -1    0    0    0    0 -0.00000000000E+00 -0.00000000000E+00 -0.45593999997E+02  0.45594000000E+02  0.51100000000E-03 0.  1.
    9900012    2    1    2    0    0  0.23532557574E+02  0.20813661407E+02 -0.29943830567E+02  0.47787277009E+02  0.20000027193E+02 0.  0.
         12    1    1    2    0    0 -0.23532557574E+02 -0.20813661407E+02  0.29943830567E+02  0.43400722991E+02  0.00000000000E+00 0. -1.
         11    1    3    3    0    0  0.17459324637E+01  0.35184948965E+01 -0.30479490021E+00  0.39396683486E+01  0.51100000000E-03 0. -1.
        -11    1    3    3    0    0  0.11343687262E+01 -0.30522502567E+01 -0.21999221941E+01  0.39297177962E+01  0.51100000000E-03 0.  1.
        -12    1    3    3    0    0  0.20652256385E+02  0.20347416767E+02 -0.27439113472E+02  0.39917890864E+02  0.00000000000E+00 0.  1.
</event>
<event>
 7    1  0.1019486E-010  0.4778727E+02  0.7816164E-02  0.1312668E+00
        -11   -1    0    0    0    0  0.00000000000E+00  0.00000000000E+00  0.45593999997E+02  0.45594000000E+02  0.51100000000E-03 0. -1.
         11   -1    0    0    0    0 -0.00000000000E+00 -0.00000000000E+00 -0.45593999997E+02  0.45594000000E+02  0.51100000000E-03 0.  1.
    9900012    2    1    2    0    0 -0.35405210096E+02  0.15092795678E+02 -0.20057457360E+02  0.47787274441E+02  0.20000015486E+02 0.  0.
         12    1    1    2    0    0  0.35405210096E+02 -0.15092795678E+02  0.20057457360E+02  0.43400725559E+02  0.00000000000E+00 0. -1.
         11    1    3    3    0    0 -0.41897237436E+01 -0.45256834523E+01 -0.92088574402E+00  0.62356737064E+01  0.51100000000E-03 0. -1.
        -11    1    3    3    0    0 -0.26937938124E+02  0.16974479810E+02 -0.16912595015E+02  0.36053035178E+02  0.51100000000E-03 0.  1.
         12    1    3    3    0    0 -0.42775482285E+01  0.26439993196E+01 -0.22239766017E+01  0.54985655560E+01  0.00000000000E+00 0. -1.
</event>
<event>
 7    1  0.1019486E-010  0.4778727E+02  0.7816164E-02  0.1312668E+00
        -11   -1    0    0    0    0  0.00000000000E+00  0.00000000000E+00  0.45593999997E+02  0.45594000000E+02  0.51100000000E-03 0. -1.
         11   -1    0    0    0    0 -0.00000000000E+00 -0.00000000000E+00 -0.45593999997E+02  0.45594000000E+02  0.51100000000E-03 0.  1.
    9900012    2    1    2    0    0  0.15429731622E+02 -0.17263346345E+02  0.36708626390E+02  0.47787274241E+02  0.20000014573E+02 0.  0.
        -12    1    1    2    0    0 -0.15429731622E+02  0.17263346345E+02 -0.36708626390E+02  0.43400725759E+02  0.00000000000E+00 0.  1.
         11    1    3    3    0    0 -0.24460536388E+01 -0.49576468324E+01  0.83852314263E+01  0.10043582371E+02  0.51100000000E-03 0.  1.
        -11    1    3    3    0    0 -0.73309056077E+00 -0.40571487923E+01  0.23536196721E+01  0.47473575718E+01  0.51100000000E-03 0. -1.
         12    1    3    3    0    0  0.18608875822E+02 -0.82485507204E+01  0.25969775292E+02  0.32996334297E+02  0.00000000000E+00 0. -1.
</event>
<event>
 7    1  0.1019486E-010  0.4778724E+02  0.7816164E-02  0.1312668E+00
        -11   -1    0    0    0    0  0.00000000000E+00  0.00000000000E+00  0.45593999997E+02  0.45594000000E+02  0.51100000000E-03 0. -1.
         11   -1    0    0    0    0 -0.00000000000E+00 -0.00000000000E+00 -0.45593999997E+02  0.45594000000E+02  0.51100000000E-03 0.  1.
    9900012    2    1    2    0    0  0.21500960965E+02  0.28734845162E+02  0.24405802597E+02  0.47787241374E+02  0.19999864719E+02 0.  0.
        -12    1    1    2    0    0 -0.21500960965E+02 -0.28734845162E+02 -0.24405802597E+02  0.43400758626E+02  0.00000000000E+00 0.  1.
         11    1    3    3    0    0  0.47832981671E+01  0.43238106984E+01  0.31606866276E+01  0.71808927391E+01  0.51100000000E-03 0. -1.
        -11    1    3    3    0    0  0.19177140450E+02  0.14697738216E+02  0.17801303050E+02  0.30011208157E+02  0.51100000000E-03 0.  1.
        -12    1    3    3    0    0 -0.24594776520E+01  0.97132962482E+01  0.34438129199E+01  0.10595140478E+02  0.00000000000E+00 0.  1.
</event>
<event>
 7    1  0.1019486E-010  0.4778727E+02  0.7816164E-02  0.1312668E+00
        -11   -1    0    0    0    0  0.00000000000E+00  0.00000000000E+00  0.45593999997E+02  0.45594000000E+02  0.51100000000E-03 0. -1.
         11   -1    0    0    0    0 -0.00000000000E+00 -0.00000000000E+00 -0.45593999997E+02  0.45594000000E+02  0.51100000000E-03 0.  1.
    9900012    2    1    2    0    0  0.28211239479E+02 -0.25875948781E+02 -0.20449556142E+02  0.47787272994E+02  0.20000008889E+02 0.  0.
         12    1    1    2    0    0 -0.28211239479E+02  0.25875948781E+02  0.20449556142E+02  0.43400727006E+02  0.00000000000E+00 0. -1.
         11    1    3    3    0    0  0.36491237087E+01 -0.47068586079E+01 -0.10993972984E+02  0.12503522065E+02  0.51100000000E-03 0. -1.
        -11    1    3    3    0    0  0.24002014652E+02 -0.16781087271E+02 -0.66077595577E+01  0.30022726125E+02  0.51100000000E-03 0.  1.
        -12    1    3    3    0    0  0.56010111853E+00 -0.43880029020E+01 -0.28478235996E+01  0.52610248037E+01  0.00000000000E+00 0.  1.
</event>
<event>
 7    1  0.1019486E-010  0.4778727E+02  0.7816164E-02  0.1312668E+00
        -11   -1    0    0    0    0  0.00000000000E+00  0.00000000000E+00  0.45593999997E+02  0.45594000000E+02  0.51100000000E-03 0. -1.
         11   -1    0    0    0    0 -0.00000000000E+00 -0.00000000000E+00 -0.45593999997E+02  0.45594000000E+02  0.51100000000E-03 0.  1.
    9900012    2    1    2    0    0  0.60887291773E+00  0.13472465904E+02  0.41252213649E+02  0.47787271956E+02  0.20000004157E+02 0.  0.
        -12    1    1    2    0    0 -0.60887291773E+00 -0.13472465904E+02 -0.41252213649E+02  0.43400728044E+02  0.00000000000E+00 0.  1.
         11    1    3    3    0    0  0.76311261743E+01  0.64134664246E+01  0.16736274364E+02  0.19479977365E+02  0.51100000000E-03 0. -1.
        -11    1    3    3    0    0 -0.68856752935E+01  0.19081522335E+01  0.68240878414E+01  0.98803716692E+01  0.51100000000E-03 0.  1.
         12    1    3    3    0    0 -0.13657796307E+00  0.51508472458E+01  0.17691851443E+02  0.18426922922E+02  0.00000000000E+00 0. -1.
</event>
<event>
 7    1  0.1019486E-010  0.4778727E+02  0.7816164E-02  0.1312668E+00
        -11   -1    0    0    0    0  0.00000000000E+00  0.00000000000E+00  0.45593999997E+02  0.45594000000E+02  0.51100000000E-03 0. -1.
         11   -1    0    0    0    0 -0.00000000000E+00 -0.00000000000E+00 -0.45593999997E+02  0.45594000000E+02  0.51100000000E-03 0.  1.
    9900012    2    1    2    0    0  0.24018607342E+02 -0.57617481875E+01 -0.35686576632E+02  0.47787274286E+02  0.20000014779E+02 0.  0.
         12    1    1    2    0    0 -0.24018607342E+02  0.57617481875E+01  0.35686576632E+02  0.43400725714E+02  0.00000000000E+00 0. -1.
         11    1    3    3    0    0  0.23371563369E+02 -0.34660333619E+01 -0.33439795278E+02  0.40944636647E+02  0.51100000000E-03 0.  1.
        -11    1    3    3    0    0 -0.12761757817E+00 -0.39609193563E+01 -0.28934756683E-01  0.39630803517E+01  0.51100000000E-03 0. -1.
         12    1    3    3    0    0  0.77466155051E+00  0.16652045306E+01 -0.22178465966E+01  0.28795572876E+01  0.00000000000E+00 0. -1.
</event>
<event>
 7    1  0.1019486E-010  0.4778727E+02  0.7816164E-02  0.1312668E+00
        -11   -1    0    0    0    0  0.00000000000E+00  0.00000000000E+00  0.45593999997E+02  0.45594000000E+02  0.51100000000E-03 0. -1.
         11   -1    0    0    0    0 -0.00000000000E+00 -0.00000000000E+00 -0.45593999997E+02  0.45594000000E+02  0.51100000000E-03 0.  1.
    9900012    2    1    2    0    0 -0.31868591245E+02 -0.97605868311E+01 -0.27798329541E+02  0.47787270876E+02  0.19999999232E+02 0.  0.
         12    1    1    2    0    0  0.31868591245E+02  0.97605868311E+01  0.27798329541E+02  0.43400729124E+02  0.00000000000E+00 0. -1.
         11    1    3    3    0    0 -0.26696119260E+02 -0.52679485797E+01 -0.12627269604E+02  0.29998033330E+02  0.51100000000E-03 0. -1.
        -11    1    3    3    0    0 -0.25764934023E+01  0.33399758774E+00 -0.97131957779E+01  0.10054652909E+02  0.51100000000E-03 0.  1.
         12    1    3    3    0    0 -0.25959785833E+01 -0.48266358392E+01 -0.54578641588E+01  0.77345846369E+01  0.00000000000E+00 0. -1.
</event>
<event>
 7    1  0.1019486E-010  0.4778727E+02  0.7816164E-02  0.1312668E+00
        -11   -1    0    0    0    0  0.00000000000E+00  0.00000000000E+00  0.45593999997E+02  0.45594000000E+02  0.51100000000E-03 0. -1.
         11   -1    0    0    0    0 -0.00000000000E+00 -0.00000000000E+00 -0.45593999997E+02  0.45594000000E+02  0.51100000000E-03 0.  1.
    9900012    2    1    2    0    0 -0.19567311912E+02 -0.21566227228E+02  0.32181381117E+02  0.47787272554E+02  0.20000006881E+02 0.  0.
        -12    1    1    2    0    0  0.19567311912E+02  0.21566227228E+02 -0.32181381117E+02  0.43400727446E+02  0.00000000000E+00 0.  1.
         11    1    3    3    0    0 -0.57449370847E+01 -0.65575758983E+01  0.15956553387E+01  0.88629690279E+01  0.51100000000E-03 0.  1.
        -11    1    3    3    0    0 -0.14818149926E+02 -0.16565796538E+02  0.28315378544E+02  0.35996719913E+02  0.51100000000E-03 0. -1.
        -12    1    3    3    0    0  0.99577509810E+00  0.15571452084E+01  0.22703472339E+01  0.29275836126E+01  0.00000000000E+00 0.  1.
</event>
<event>
 7    1  0.1019486E-010  0.4778727E+02  0.7816164E-02  0.1312668E+00
        -11   -1    0    0    0    0  0.00000000000E+00  0.00000000000E+00  0.45593999997E+02  0.45594000000E+02  0.51100000000E-03 0. -1.
         11   -1    0    0    0    0 -0.00000000000E+00 -0.00000000000E+00 -0.45593999997E+02  0.45594000000E+02  0.51100000000E-03 0.  1.
    9900012    2    1    2    0    0 -0.26034189321E+02 -0.70334321022E+01  0.34005517208E+02  0.47787269807E+02  0.19999994356E+02 0.  0.
        -12    1    1    2    0    0  0.26034189321E+02  0.70334321022E+01 -0.34005517208E+02  0.43400730193E+02  0.00000000000E+00 0.  1.
         11    1    3    3    0    0  0.15726239711E+01 -0.12275051100E+01  0.11347613212E+02  0.11521642280E+02  0.51100000000E-03 0. -1.
        -11    1    3    3    0    0 -0.22473362414E+02 -0.42260257135E+01  0.19367235733E+02  0.29966667010E+02  0.51100000000E-03 0.  1.
         12    1    3    3    0    0 -0.51334508781E+01 -0.15799012788E+01  0.32906682634E+01  0.62989605165E+01  0.00000000000E+00 0. -1.
</event>
<event>
 7    1  0.1019486E-010  0.4778727E+02  0.7816164E-02  0.1312668E+00
        -11   -1    0    0    0    0  0.00000000000E+00  0.00000000000E+00  0.45593999997E+02  0.45594000000E+02  0.51100000000E-03 0. -1.
         11   -1    0    0    0    0 -0.00000000000E+00 -0.00000000000E+00 -0.45593999997E+02  0.45594000000E+02  0.51100000000E-03 0.  1.
    9900012    2    1    2    0    0  0.14930902705E+02 -0.27822361646E+02  0.29775955070E+02  0.47787272316E+02  0.20000005799E+02 0.  0.
        -12    1    1    2    0    0 -0.14930902705E+02  0.27822361646E+02 -0.29775955070E+02  0.43400727684E+02  0.00000000000E+00 0.  1.
         11    1    3    3    0    0  0.14241959052E+02 -0.10590151583E+02  0.14557747949E+02  0.22954579800E+02  0.51100000000E-03 0. -1.
        -11    1    3    3    0    0  0.78869250692E+00 -0.13867440731E+02  0.62077153437E+01  0.15213930404E+02  0.51100000000E-03 0.  1.
        -12    1    3    3    0    0 -0.99748854157E-01 -0.33647693324E+01  0.90104917776E+01  0.96187621121E+01  0.00000000000E+00 0.  1.
</event>
<event>
 7    1  0.1019486E-010  0.4778728E+02  0.7816164E-02  0.1312668E+00
        -11   -1    0    0    0    0  0.00000000000E+00  0.00000000000E+00  0.45593999997E+02  0.45594000000E+02  0.51100000000E-03 0. -1.
         11   -1    0    0    0    0 -0.00000000000E+00 -0.00000000000E+00 -0.45593999997E+02  0.45594000000E+02  0.51100000000E-03 0.  1.
    9900012    2    1    2    0    0  0.15940686912E+02  0.37302156388E+02  0.15429402095E+02  0.47787276280E+02  0.20000023870E+02 0.  0.
        -12    1    1    2    0    0 -0.15940686912E+02 -0.37302156388E+02 -0.15429402095E+02  0.43400723720E+02  0.00000000000E+00 0.  1.
         11    1    3    3    0    0  0.98457133928E+01  0.30887900639E+02  0.59530866108E+01  0.32961185029E+02  0.51100000000E-03 0. -1.
        -11    1    3    3    0    0  0.64680869569E+01  0.17225821283E+01  0.57095307350E+01  0.87978508482E+01  0.51100000000E-03 0.  1.
        -12    1    3    3    0    0 -0.37311343765E+00  0.46916736210E+01  0.37667847491E+01  0.60282404025E+01  0.00000000000E+00 0.  1.
</event>
<event>
 7    1  0.1019486E-010  0.4778728E+02  0.7816164E-02  0.1312668E+00
        -11   -1    0    0    0    0  0.00000000000E+00  0.00000000000E+00  0.45593999997E+02  0.45594000000E+02  0.51100000000E-03 0. -1.
         11   -1    0    0    0    0 -0.00000000000E+00 -0.00000000000E+00 -0.45593999997E+02  0.45594000000E+02  0.51100000000E-03 0.  1.
    9900012    2    1    2    0    0  0.78766769297E+01 -0.12601785652E+02  0.40777147909E+02  0.47787276128E+02  0.20000023178E+02 0.  0.
        -12    1    1    2    0    0 -0.78766769297E+01  0.12601785652E+02 -0.40777147909E+02  0.43400723872E+02  0.00000000000E+00 0.  1.
         11    1    3    3    0    0  0.19584671166E+01 -0.83978215990E+01  0.46098290100E+01  0.97780123143E+01  0.51100000000E-03 0.  1.
        -11    1    3    3    0    0 -0.22434298597E+01 -0.74124268673E+00  0.12807023663E+02  0.13023143769E+02  0.51100000000E-03 0. -1.
         12    1    3    3    0    0  0.81616396729E+01 -0.34627213658E+01  0.23360295236E+02  0.24986120045E+02  0.00000000000E+00 0. -1.
</event>
<event>
 7    1  0.1019486E-010  0.4778727E+02  0.7816164E-02  0.1312668E+00
        -11   -1    0    0    0    0  0.00000000000E+00  0.00000000000E+00  0.45593999997E+02  0.45594000000E+02  0.51100000000E-03 0. -1.
         11   -1    0    0    0    0 -0.00000000000E+00 -0.00000000000E+00 -0.45593999997E+02  0.45594000000E+02  0.51100000000E-03 0.  1.
    9900012    2    1    2    0    0 -0.24545030137E+02  0.27244218304E+01  0.35689529455E+02  0.47787268538E+02  0.19999988570E+02 0.  0.
        -12    1    1    2    0    0  0.24545030137E+02 -0.27244218304E+01 -0.35689529455E+02  0.43400731462E+02  0.00000000000E+00 0.  1.
         11    1    3    3    0    0 -0.89039528421E+01  0.83608543636E+01  0.74736797717E+01  0.14319223146E+02  0.51100000000E-03 0.  1.
        -11    1    3    3    0    0 -0.14559840319E+02 -0.69307189172E+01  0.26745865891E+02  0.31230836642E+02  0.51100000000E-03 0. -1.
         12    1    3    3    0    0 -0.10812369767E+01  0.12942863840E+01  0.14699837923E+01  0.22372087505E+01  0.00000000000E+00 0. -1.
</event>
<event>
 7    1  0.1019486E-010  0.4778726E+02  0.7816164E-02  0.1312668E+00
        -11   -1    0    0    0    0  0.00000000000E+00  0.00000000000E+00  0.45593999997E+02  0.45594000000E+02  0.51100000000E-03 0. -1.
         11   -1    0    0    0    0 -0.00000000000E+00 -0.00000000000E+00 -0.45593999997E+02  0.45594000000E+02  0.51100000000E-03 0.  1.
    9900012    2    1    2    0    0 -0.26380963575E+02 -0.61863078233E+01 -0.33902779764E+02  0.47787261304E+02  0.19999955588E+02 0.  0.
         12    1    1    2    0    0  0.26380963575E+02  0.61863078233E+01  0.33902779764E+02  0.43400738696E+02  0.00000000000E+00 0. -1.
         11    1    3    3    0    0 -0.93142887447E+01 -0.17102164780E+01 -0.16485984855E+02  0.19012325269E+02  0.51100000000E-03 0. -1.
        -11    1    3    3    0    0 -0.52066368501E+01  0.32761222167E+01  0.21522800854E+00  0.61553527458E+01  0.51100000000E-03 0.  1.
        -12    1    3    3    0    0 -0.11860037980E+02 -0.77522135620E+01 -0.17632022918E+02  0.22619583289E+02  0.00000000000E+00 0.  1.
</event>
<event>
 7    1  0.1019486E-010  0.4778727E+02  0.7816164E-02  0.1312668E+00
        -11   -1    0    0    0    0  0.00000000000E+00  0.00000000000E+00  0.45593999997E+02  0.45594000000E+02  0.51100000000E-03 0. -1.
         11   -1    0    0    0    0 -0.00000000000E+00 -0.00000000000E+00 -0.45593999997E+02  0.45594000000E+02  0.51100000000E-03 0.  1.
    9900012    2    1    2    0    0 -0.34956795258E+02  0.25460637185E+02 -0.36608345864E+01  0.47787270854E+02  0.19999999132E+02 0.  0.
        -12    1    1    2    0    0  0.34956795258E+02 -0.25460637185E+02  0.36608345864E+01  0.43400729146E+02  0.00000000000E+00 0.  1.
         11    1    3    3    0    0 -0.70319135720E+01  0.87014201960E+01  0.47843719335E+01  0.12167692344E+02  0.51100000000E-03 0. -1.
        -11    1    3    3    0    0 -0.24428929368E+02  0.93334887932E+01 -0.45870115473E+01  0.26550466631E+02  0.51100000000E-03 0.  1.
        -12    1    3    3    0    0 -0.34959523179E+01  0.74257281954E+01 -0.38581949727E+01  0.90691118798E+01  0.00000000000E+00 0.  1.
</event>
<event>
 7    1  0.1019486E-010  0.4778729E+02  0.7816164E-02  0.1312668E+00
        -11   -1    0    0    0    0  0.00000000000E+00  0.00000000000E+00  0.45593999997E+02  0.45594000000E+02  0.51100000000E-03 0. -1.
         11   -1    0    0    0    0 -0.00000000000E+00 -0.00000000000E+00 -0.45593999997E+02  0.45594000000E+02  0.51100000000E-03 0.  1.
    9900012    2    1    2    0    0 -0.33594140769E+02  0.24425007883E+02 -0.12588656447E+02  0.47787290614E+02  0.20000089225E+02 0.  0.
         12    1    1    2    0    0  0.33594140769E+02 -0.24425007883E+02  0.12588656447E+02  0.43400709386E+02  0.00000000000E+00 0. -1.
         11    1    3    3    0    0 -0.49363250700E+01  0.21631714037E+01 -0.11467002132E+01  0.55101304303E+01  0.51100000000E-03 0. -1.
        -11    1    3    3    0    0 -0.24085979302E+02  0.22414688192E+02 -0.34681987348E+01  0.33084453274E+02  0.51100000000E-03 0.  1.
        -12    1    3    3    0    0 -0.45718363965E+01 -0.15285171246E+00 -0.79737574989E+01  0.91927069100E+01  0.00000000000E+00 0.  1.
</event>
<event>
 7    1  0.1019486E-010  0.4778725E+02  0.7816164E-02  0.1312668E+00
        -11   -1    0    0    0    0  0.00000000000E+00  0.00000000000E+00  0.45593999997E+02  0.45594000000E+02  0.51100000000E-03 0. -1.
         11   -1    0    0    0    0 -0.00000000000E+00 -0.00000000000E+00 -0.45593999997E+02  0.45594000000E+02  0.51100000000E-03 0.  1.
    9900012    2    1    2    0    0  0.10626596316E+02  0.12926875618E+02  0.40044932879E+02  0.47787247566E+02  0.19999892953E+02 0.  0.
        -12    1    1    2    0    0 -0.10626596316E+02 -0.12926875618E+02 -0.40044932879E+02  0.43400752434E+02  0.00000000000E+00 0.  1.
         11    1    3    3    0    0  0.91616039786E+01 -0.23523146256E+01  0.22818119937E+02  0.24700910292E+02  0.51100000000E-03 0. -1.
        -11    1    3    3    0    0  0.53702813466E+00  0.88336656968E+01  0.95700189520E+01  0.13034849898E+02  0.51100000000E-03 0.  1.
         12    1    3    3    0    0  0.92796420245E+00  0.64455245473E+01  0.76567939905E+01  0.10051487376E+02  0.00000000000E+00 0. -1.
</event>
<event>
 7    1  0.1019486E-010  0.4778727E+02  0.7816164E-02  0.1312668E+00
        -11   -1    0    0    0    0  0.00000000000E+00  0.00000000000E+00  0.45593999997E+02  0.45594000000E+02  0.51100000000E-03 0.  1.
         11   -1    0    0    0    0 -0.00000000000E+00 -0.00000000000E+00 -0.45593999997E+02  0.45594000000E+02  0.51100000000E-03 0. -1.
    9900012    2    1    2    0    0  0.15313918169E+02 -0.40590197670E+02  0.12420609183E+01  0.47787274754E+02  0.20000016913E+02 0.  0.
         12    1    1    2    0    0 -0.15313918169E+02  0.40590197670E+02 -0.12420609183E+01  0.43400725246E+02  0.00000000000E+00 0. -1.
         11    1    3    3    0    0  0.14951958471E+02 -0.18488815191E+02 -0.38520342349E+01  0.24088078323E+02  0.51100000000E-03 0. -1.
        -11    1    3    3    0    0  0.12225839807E+01 -0.82889522512E+01 -0.12567180799E+01  0.84723539590E+01  0.51100000000E-03 0.  1.
         12    1    3    3    0    0 -0.86062428267E+00 -0.13812430228E+02  0.63508132332E+01  0.15226842472E+02  0.00000000000E+00 0. -1.
</event>
<event>
 7    1  0.1019486E-010  0.4778728E+02  0.7816164E-02  0.1312668E+00
        -11   -1    0    0    0    0  0.00000000000E+00  0.00000000000E+00  0.45593999997E+02  0.45594000000E+02  0.51100000000E-03 0. -1.
         11   -1    0    0    0    0 -0.00000000000E+00 -0.00000000000E+00 -0.45593999997E+02  0.45594000000E+02  0.51100000000E-03 0.  1.
    9900012    2    1    2    0    0 -0.24961108043E+02  0.29421409145E+01 -0.35382335469E+02  0.47787276837E+02  0.20000026409E+02 0.  0.
         12    1    1    2    0    0  0.24961108043E+02 -0.29421409145E+01  0.35382335469E+02  0.43400723163E+02  0.00000000000E+00 0. -1.
         11    1    3    3    0    0 -0.21090147212E+02  0.72932631254E+01 -0.26030499137E+02  0.34286628327E+02  0.51100000000E-03 0.  1.
        -11    1    3    3    0    0 -0.19760374401E+01  0.18798837210E+01 -0.98945612537E+00  0.29013290841E+01  0.51100000000E-03 0. -1.
         12    1    3    3    0    0 -0.18949233911E+01 -0.62310059318E+01 -0.83623802061E+01  0.10599319426E+02  0.00000000000E+00 0. -1.
</event>
<event>
 7    1  0.1019486E-010  0.4778728E+02  0.7816164E-02  0.1312668E+00
        -11   -1    0    0    0    0  0.00000000000E+00  0.00000000000E+00  0.45593999997E+02  0.45594000000E+02  0.51100000000E-03 0. -1.
         11   -1    0    0    0    0 -0.00000000000E+00 -0.00000000000E+00 -0.45593999997E+02  0.45594000000E+02  0.51100000000E-03 0.  1.
    9900012    2    1    2    0    0  0.14085657167E+02 -0.32951451064E+02  0.24483031870E+02  0.47787277487E+02  0.20000029376E+02 0.  0.
        -12    1    1    2    0    0 -0.14085657167E+02  0.32951451064E+02 -0.24483031870E+02  0.43400722513E+02  0.00000000000E+00 0.  1.
         11    1    3    3    0    0  0.16201168083E+02 -0.21634343393E+02  0.19106439721E+02  0.33099527192E+02  0.51100000000E-03 0. -1.
        -11    1    3    3    0    0 -0.14037407339E+01 -0.10766262999E+02  0.69384923091E+01  0.12885091494E+02  0.51100000000E-03 0.  1.
         12    1    3    3    0    0 -0.71177018236E+00 -0.55084467235E+00 -0.15619001597E+01  0.18026588015E+01  0.00000000000E+00 0. -1.
</event>
<event>
 7    1  0.1019486E-010  0.4778727E+02  0.7816164E-02  0.1312668E+00
        -11   -1    0    0    0    0  0.00000000000E+00  0.00000000000E+00  0.45593999997E+02  0.45594000000E+02  0.51100000000E-03 0. -1.
         11   -1    0    0    0    0 -0.00000000000E+00 -0.00000000000E+00 -0.45593999997E+02  0.45594000000E+02  0.51100000000E-03 0.  1.
    9900012    2    1    2    0    0 -0.36672679121E+02 -0.23043111324E+02 -0.27843862057E+01  0.47787272127E+02  0.20000004934E+02 0.  0.
         12    1    1    2    0    0  0.36672679121E+02  0.23043111324E+02  0.27843862057E+01  0.43400727873E+02  0.00000000000E+00 0. -1.
         11    1    3    3    0    0 -0.55230286472E+01 -0.20970319236E+00 -0.55429228684E+01  0.78276315098E+01  0.51100000000E-03 0. -1.
        -11    1    3    3    0    0 -0.22739601660E+02 -0.12324832452E+02  0.49171445507E+01  0.26328108352E+02  0.51100000000E-03 0.  1.
        -12    1    3    3    0    0 -0.84100488138E+01 -0.10508575680E+02 -0.21586078880E+01  0.13631532265E+02  0.00000000000E+00 0.  1.
</event>
<event>
 7    1  0.1019486E-010  0.4778727E+02  0.7816164E-02  0.1312668E+00
        -11   -1    0    0    0    0  0.00000000000E+00  0.00000000000E+00  0.45593999997E+02  0.45594000000E+02  0.51100000000E-03 0. -1.
         11   -1    0    0    0    0 -0.00000000000E+00 -0.00000000000E+00 -0.45593999997E+02  0.45594000000E+02  0.51100000000E-03 0.  1.
    9900012    2    1    2    0    0 -0.26731129054E+02 -0.20942489422E+02  0.27027429807E+02  0.47787273212E+02  0.20000009883E+02 0.  0.
        -12    1    1    2    0    0  0.26731129054E+02  0.20942489422E+02 -0.27027429807E+02  0.43400726788E+02  0.00000000000E+00 0.  1.
         11    1    3    3    0    0 -0.15037182218E+02 -0.39733838931E+01  0.19544146134E+02  0.24977555464E+02  0.51100000000E-03 0. -1.
        -11    1    3    3    0    0 -0.11150871502E+02 -0.14600148755E+02  0.44130437226E+01  0.18893947022E+02  0.51100000000E-03 0.  1.
         12    1    3    3    0    0 -0.54307533419E+00 -0.23689567744E+01  0.30702399510E+01  0.39157707254E+01  0.00000000000E+00 0. -1.
</event>
<event>
 7    1  0.1019486E-010  0.4778727E+02  0.7816164E-02  0.1312668E+00
        -11   -1    0    0    0    0  0.00000000000E+00  0.00000000000E+00  0.45593999997E+02  0.45594000000E+02  0.51100000000E-03 0. -1.
         11   -1    0    0    0    0 -0.00000000000E+00 -0.00000000000E+00 -0.45593999997E+02  0.45594000000E+02  0.51100000000E-03 0.  1.
    9900012    2    1    2    0    0 -0.29859961892E+02  0.48664245486E+01  0.31117900976E+02  0.47787272204E+02  0.20000005285E+02 0.  0.
        -12    1    1    2    0    0  0.29859961892E+02 -0.48664245486E+01 -0.31117900976E+02  0.43400727796E+02  0.00000000000E+00 0.  1.
         11    1    3    3    0    0 -0.22116339701E+02 -0.80644391212E+00  0.18039063983E+02  0.28551543973E+02  0.51100000000E-03 0. -1.
        -11    1    3    3    0    0 -0.47043198618E+01  0.58866856107E+01  0.14129106617E+02  0.16012974331E+02  0.51100000000E-03 0.  1.
        -12    1    3    3    0    0 -0.30393023289E+01 -0.21381715000E+00 -0.10502696241E+01  0.32227539005E+01  0.00000000000E+00 0.  1.
</event>
<event>
 7    1  0.1019486E-010  0.4778727E+02  0.7816164E-02  0.1312668E+00
        -11   -1    0    0    0    0  0.00000000000E+00  0.00000000000E+00  0.45593999997E+02  0.45594000000E+02  0.51100000000E-03 0. -1.
         11   -1    0    0    0    0 -0.00000000000E+00 -0.00000000000E+00 -0.45593999997E+02  0.45594000000E+02  0.51100000000E-03 0.  1.
    9900012    2    1    2    0    0  0.80713986638E+00 -0.73722941691E+01  0.42762376638E+02  0.47787273603E+02  0.20000011665E+02 0.  0.
        -12    1    1    2    0    0 -0.80713986638E+00  0.73722941691E+01 -0.42762376638E+02  0.43400726397E+02  0.00000000000E+00 0.  1.
         11    1    3    3    0    0 -0.71102206708E+01 -0.14395290261E+01  0.10900104743E+02  0.13093500887E+02  0.51100000000E-03 0. -1.
        -11    1    3    3    0    0  0.62480762469E+01 -0.84628440782E+01  0.26838016739E+02  0.28825983581E+02  0.51100000000E-03 0.  1.
        -12    1    3    3    0    0  0.16692842904E+01  0.25300789352E+01  0.50242551554E+01  0.58677891345E+01  0.00000000000E+00 0.  1.
</event>
<event>
 7    1  0.1058479E-010  0.4778727E+02  0.7816164E-02  0.1312668E+00
        -11   -1    0    0    0    0  0.00000000000E+00  0.00000000000E+00  0.45593999997E+02  0.45594000000E+02  0.51100000000E-03 0. -1.
         11   -1    0    0    0    0 -0.00000000000E+00 -0.00000000000E+00 -0.45593999997E+02  0.45594000000E+02  0.51100000000E-03 0.  1.
    9900012    2    1    2    0    0  0.32785115211E+02 -0.28584640059E+01 -0.28294682433E+02  0.47787266713E+02  0.19999980251E+02 0.  0.
         12    1    1    2    0    0 -0.32785115211E+02  0.28584640059E+01  0.28294682433E+02  0.43400733287E+02  0.00000000000E+00 0. -1.
         11    1    3    3    0    0 -0.55342145397E-01 -0.38349043523E+01 -0.60307840696E+01  0.71470211207E+01  0.51100000000E-03 0. -1.
        -11    1    3    3    0    0  0.30163449550E+02 -0.11799812929E+01 -0.21651675940E+02  0.37148635452E+02  0.51100000000E-03 0.  1.
         12    1    3    3    0    0  0.26770078058E+01  0.21564216394E+01 -0.61222242334E+00  0.34916101407E+01  0.00000000000E+00 0. -1.
</event>
<event>
 7    1  0.1019486E-010  0.4778727E+02  0.7816164E-02  0.1312668E+00
        -11   -1    0    0    0    0  0.00000000000E+00  0.00000000000E+00  0.45593999997E+02  0.45594000000E+02  0.51100000000E-03 0. -1.
         11   -1    0    0    0    0 -0.00000000000E+00 -0.00000000000E+00 -0.45593999997E+02  0.45594000000E+02  0.51100000000E-03 0.  1.
    9900012    2    1    2    0    0 -0.72799074323E+01 -0.69898153983E+01  0.42211002047E+02  0.47787271142E+02  0.20000000446E+02 0.  0.
        -12    1    1    2    0    0  0.72799074323E+01  0.69898153983E+01 -0.42211002047E+02  0.43400728858E+02  0.00000000000E+00 0.  1.
         11    1    3    3    0    0 -0.46144671076E+01 -0.10446714451E+02  0.11737369777E+02  0.16376599129E+02  0.51100000000E-03 0. -1.
        -11    1    3    3    0    0 -0.22128131997E+00  0.36420659031E+01  0.26440664147E+02  0.26691240703E+02  0.51100000000E-03 0.  1.
        -12    1    3    3    0    0 -0.24441590047E+01 -0.18516685056E+00  0.40329681234E+01  0.47194313097E+01  0.00000000000E+00 0.  1.
</event>
<event>
 7    1  0.1019486E-010  0.4778727E+02  0.7816164E-02  0.1312668E+00
        -11   -1    0    0    0    0  0.00000000000E+00  0.00000000000E+00  0.45593999997E+02  0.45594000000E+02  0.51100000000E-03 0. -1.
         11   -1    0    0    0    0 -0.00000000000E+00 -0.00000000000E+00 -0.45593999997E+02  0.45594000000E+02  0.51100000000E-03 0.  1.
    9900012    2    1    2    0    0 -0.62271822760E+01 -0.71302228617E+00 -0.42945746912E+02  0.47787269848E+02  0.19999994544E+02 0.  0.
         12    1    1    2    0    0  0.62271822760E+01  0.71302228617E+00  0.42945746912E+02  0.43400730152E+02  0.00000000000E+00 0. -1.
         11    1    3    3    0    0 -0.62805505719E+01  0.17386769789E+01 -0.36316128374E+02  0.36896198902E+02  0.51100000000E-03 0.  1.
        -11    1    3    3    0    0 -0.46282267858E+00  0.25957394123E+01 -0.12230536640E+00  0.26395126050E+01  0.51100000000E-03 0. -1.
        -12    1    3    3    0    0  0.51619097451E+00 -0.50474386773E+01 -0.65073131725E+01  0.82515583406E+01  0.00000000000E+00 0.  1.
</event>
<event>
 7    1  0.1019486E-010  0.4778727E+02  0.7816164E-02  0.1312668E+00
        -11   -1    0    0    0    0  0.00000000000E+00  0.00000000000E+00  0.45593999997E+02  0.45594000000E+02  0.51100000000E-03 0.  1.
         11   -1    0    0    0    0 -0.00000000000E+00 -0.00000000000E+00 -0.45593999997E+02  0.45594000000E+02  0.51100000000E-03 0. -1.
    9900012    2    1    2    0    0  0.17857155003E+02 -0.27223012595E+02 -0.28699355477E+02  0.47787269541E+02  0.19999993147E+02 0.  0.
         12    1    1    2    0    0 -0.17857155003E+02  0.27223012595E+02  0.28699355477E+02  0.43400730459E+02  0.00000000000E+00 0. -1.
         11    1    3    3    0    0  0.84826778083E+00 -0.45490934412E+01 -0.86307475741E+00  0.47073036510E+01  0.51100000000E-03 0. -1.
        -11    1    3    3    0    0  0.73905000614E+01 -0.31350217398E+01 -0.38222748747E+00  0.80370361813E+01  0.51100000000E-03 0.  1.
        -12    1    3    3    0    0  0.96183871612E+01 -0.19538897414E+02 -0.27454053232E+02  0.35042929709E+02  0.00000000000E+00 0.  1.
</event>
<event>
 7    1  0.1019486E-010  0.4778727E+02  0.7816164E-02  0.1312668E+00
        -11   -1    0    0    0    0  0.00000000000E+00  0.00000000000E+00  0.45593999997E+02  0.45594000000E+02  0.51100000000E-03 0. -1.
         11   -1    0    0    0    0 -0.00000000000E+00 -0.00000000000E+00 -0.45593999997E+02  0.45594000000E+02  0.51100000000E-03 0.  1.
    9900012    2    1    2    0    0 -0.28895410780E+00 -0.10679415331E+02  0.42065308495E+02  0.47787267460E+02  0.19999983656E+02 0.  0.
        -12    1    1    2    0    0  0.28895410780E+00  0.10679415331E+02 -0.42065308495E+02  0.43400732540E+02  0.00000000000E+00 0.  1.
         11    1    3    3    0    0 -0.21193806317E+01 -0.72550255745E+01  0.28151714992E+01  0.80655043972E+01  0.51100000000E-03 0. -1.
        -11    1    3    3    0    0  0.20404140356E+01  0.55763447218E+00  0.13705080567E+02  0.13867353001E+02  0.51100000000E-03 0.  1.
         12    1    3    3    0    0 -0.20998751160E+00 -0.39820242285E+01  0.25545056428E+02  0.25854410061E+02  0.00000000000E+00 0. -1.
</event>
<event>
 7    1  0.1019486E-010  0.4778727E+02  0.7816164E-02  0.1312668E+00
        -11   -1    0    0    0    0  0.00000000000E+00  0.00000000000E+00  0.45593999997E+02  0.45594000000E+02  0.51100000000E-03 0. -1.
         11   -1    0    0    0    0 -0.00000000000E+00 -0.00000000000E+00 -0.45593999997E+02  0.45594000000E+02  0.51100000000E-03 0.  1.
    9900012    2    1    2    0    0  0.22712557998E+02  0.34646792426E+02 -0.12936887608E+02  0.47787267550E+02  0.19999984066E+02 0.  0.
         12    1    1    2    0    0 -0.22712557998E+02 -0.34646792426E+02  0.12936887608E+02  0.43400732450E+02  0.00000000000E+00 0. -1.
         11    1    3    3    0    0  0.20971283718E+02  0.17950944511E+02 -0.95489371757E+01  0.29209816005E+02  0.51100000000E-03 0. -1.
        -11    1    3    3    0    0  0.28917974431E+01  0.11823555847E+02  0.58523637478E+00  0.12186117806E+02  0.51100000000E-03 0.  1.
         12    1    3    3    0    0 -0.11505231628E+01  0.48722920682E+01 -0.39731868069E+01  0.63913337378E+01  0.00000000000E+00 0. -1.
</event>
<event>
 7    1  0.1019486E-010  0.4778726E+02  0.7816164E-02  0.1312668E+00
        -11   -1    0    0    0    0  0.00000000000E+00  0.00000000000E+00  0.45593999997E+02  0.45594000000E+02  0.51100000000E-03 0. -1.
         11   -1    0    0    0    0 -0.00000000000E+00 -0.00000000000E+00 -0.45593999997E+02  0.45594000000E+02  0.51100000000E-03 0.  1.
    9900012    2    1    2    0    0 -0.67726836691E+01 -0.15042848465E+02  0.40143093325E+02  0.47787257198E+02  0.19999936870E+02 0.  0.
        -12    1    1    2    0    0  0.67726836691E+01  0.15042848465E+02 -0.40143093325E+02  0.43400742802E+02  0.00000000000E+00 0.  1.
         11    1    3    3    0    0 -0.10882943123E+01  0.49011637947E+01  0.70875329021E+01  0.86855577801E+01  0.51100000000E-03 0.  1.
        -11    1    3    3    0    0 -0.49864251386E+01 -0.17007785577E+02  0.29718627907E+02  0.34602399496E+02  0.51100000000E-03 0. -1.
        -12    1    3    3    0    0 -0.69796421818E+00 -0.29362266820E+01  0.33369325157E+01  0.44992999225E+01  0.00000000000E+00 0.  1.
</event>
<event>
 7    1  0.1019486E-010  0.4778726E+02  0.7816164E-02  0.1312668E+00
        -11   -1    0    0    0    0  0.00000000000E+00  0.00000000000E+00  0.45593999997E+02  0.45594000000E+02  0.51100000000E-03 0. -1.
         11   -1    0    0    0    0 -0.00000000000E+00 -0.00000000000E+00 -0.45593999997E+02  0.45594000000E+02  0.51100000000E-03 0.  1.
    9900012    2    1    2    0    0  0.34014317728E+02  0.25600208906E+02  0.84427514244E+01  0.47787256249E+02  0.19999932542E+02 0.  0.
        -12    1    1    2    0    0 -0.34014317728E+02 -0.25600208906E+02 -0.84427514244E+01  0.43400743751E+02  0.00000000000E+00 0.  1.
         11    1    3    3    0    0  0.10563597336E+02  0.98583688054E+01 -0.50013143416E+01  0.15290198481E+02  0.51100000000E-03 0. -1.
        -11    1    3    3    0    0  0.20700693372E+02  0.16778605580E+02  0.12143153269E+02  0.29283040875E+02  0.51100000000E-03 0.  1.
        -12    1    3    3    0    0  0.27500270195E+01 -0.10367654792E+01  0.13009124975E+01  0.32140168937E+01  0.00000000000E+00 0.  1.
</event>
<event>
 7    1  0.1019486E-010  0.4778727E+02  0.7816164E-02  0.1312668E+00
        -11   -1    0    0    0    0  0.00000000000E+00  0.00000000000E+00  0.45593999997E+02  0.45594000000E+02  0.51100000000E-03 0. -1.
         11   -1    0    0    0    0 -0.00000000000E+00 -0.00000000000E+00 -0.45593999997E+02  0.45594000000E+02  0.51100000000E-03 0.  1.
    9900012    2    1    2    0    0 -0.32198932737E+01  0.15263193532E+02  0.40500497123E+02  0.47787273546E+02  0.20000011407E+02 0.  0.
        -12    1    1    2    0    0  0.32198932737E+01 -0.15263193532E+02 -0.40500497123E+02  0.43400726454E+02  0.00000000000E+00 0.  1.
         11    1    3    3    0    0  0.14405592898E+01  0.14916992039E+02  0.20208513641E+02  0.25159012031E+02  0.51100000000E-03 0. -1.
        -11    1    3    3    0    0  0.24299458969E+01 -0.54309763754E+00  0.28808764688E+01  0.38077607062E+01  0.51100000000E-03 0.  1.
         12    1    3    3    0    0 -0.70903984604E+01  0.88929913075E+00  0.17411107013E+02  0.18820500809E+02  0.00000000000E+00 0. -1.
</event>
<event>
 7    1  0.1019486E-010  0.4778728E+02  0.7816164E-02  0.1312668E+00
        -11   -1    0    0    0    0  0.00000000000E+00  0.00000000000E+00  0.45593999997E+02  0.45594000000E+02  0.51100000000E-03 0. -1.
         11   -1    0    0    0    0 -0.00000000000E+00 -0.00000000000E+00 -0.45593999997E+02  0.45594000000E+02  0.51100000000E-03 0.  1.
    9900012    2    1    2    0    0  0.13757157232E+02  0.12226571594E+02  0.39304881972E+02  0.47787283705E+02  0.20000057726E+02 0.  0.
        -12    1    1    2    0    0 -0.13757157232E+02 -0.12226571594E+02 -0.39304881972E+02  0.43400716295E+02  0.00000000000E+00 0.  1.
         11    1    3    3    0    0  0.14264141884E+02  0.88510978289E+01  0.24068838065E+02  0.29344789018E+02  0.51100000000E-03 0. -1.
        -11    1    3    3    0    0 -0.25073689076E+01  0.54211761986E+00 -0.24566076361E+00  0.25770409047E+01  0.51100000000E-03 0.  1.
         12    1    3    3    0    0  0.20003842561E+01  0.28333561448E+01  0.15481704671E+02  0.15865453783E+02  0.00000000000E+00 0. -1.
</event>
<event>
 7    1  0.1019486E-010  0.4778727E+02  0.7816164E-02  0.1312668E+00
        -11   -1    0    0    0    0  0.00000000000E+00  0.00000000000E+00  0.45593999997E+02  0.45594000000E+02  0.51100000000E-03 0. -1.
         11   -1    0    0    0    0 -0.00000000000E+00 -0.00000000000E+00 -0.45593999997E+02  0.45594000000E+02  0.51100000000E-03 0.  1.
    9900012    2    1    2    0    0  0.48604351742E+01 -0.94585907112E+01  0.42077725766E+02  0.47787265283E+02  0.19999973733E+02 0.  0.
        -12    1    1    2    0    0 -0.48604351742E+01  0.94585907112E+01 -0.42077725766E+02  0.43400734717E+02  0.00000000000E+00 0.  1.
         11    1    3    3    0    0 -0.10244307283E+01 -0.95332504320E+01  0.23520160080E+02  0.25399414414E+02  0.51100000000E-03 0. -1.
        -11    1    3    3    0    0  0.82565501495E+01  0.29238840428E+01  0.13982168582E+02  0.16499113818E+02  0.51100000000E-03 0.  1.
        -12    1    3    3    0    0 -0.23716842471E+01 -0.28492243221E+01  0.45753971044E+01  0.58887370520E+01  0.00000000000E+00 0.  1.
</event>
<event>
 7    1  0.1019486E-010  0.4778727E+02  0.7816164E-02  0.1312668E+00
        -11   -1    0    0    0    0  0.00000000000E+00  0.00000000000E+00  0.45593999997E+02  0.45594000000E+02  0.51100000000E-03 0. -1.
         11   -1    0    0    0    0 -0.00000000000E+00 -0.00000000000E+00 -0.45593999997E+02  0.45594000000E+02  0.51100000000E-03 0.  1.
    9900012    2    1    2    0    0  0.13853587029E+01  0.10087911790E+02  0.42189311098E+02  0.47787272427E+02  0.20000006302E+02 0.  0.
        -12    1    1    2    0    0 -0.13853587029E+01 -0.10087911790E+02 -0.42189311098E+02  0.43400727573E+02  0.00000000000E+00 0.  1.
         11    1    3    3    0    0 -0.24218074574E+01  0.18971325683E+01  0.19448644993E+02  0.19690455953E+02  0.51100000000E-03 0. -1.
        -11    1    3    3    0    0  0.89553685441E+01  0.46195693735E+01  0.15864374899E+02  0.18794079870E+02  0.51100000000E-03 0.  1.
        -12    1    3    3    0    0 -0.51482023837E+01  0.35712098481E+01  0.68762912062E+01  0.93027366035E+01  0.00000000000E+00 0.  1.
</event>
<event>
 7    1  0.1019486E-010  0.4778727E+02  0.7816164E-02  0.1312668E+00
        -11   -1    0    0    0    0  0.00000000000E+00  0.00000000000E+00  0.45593999997E+02  0.45594000000E+02  0.51100000000E-03 0.  1.
         11   -1    0    0    0    0 -0.00000000000E+00 -0.00000000000E+00 -0.45593999997E+02  0.45594000000E+02  0.51100000000E-03 0. -1.
    9900012    2    1    2    0    0  0.42249858283E+02 -0.73733757400E+01  0.66487449057E+01  0.47787274159E+02  0.20000014201E+02 0.  0.
        -12    1    1    2    0    0 -0.42249858283E+02  0.73733757400E+01 -0.66487449057E+01  0.43400725841E+02  0.00000000000E+00 0.  1.
         11    1    3    3    0    0  0.29803374192E+02  0.93403945953E+00 -0.21643844340E+00  0.29818792544E+02  0.51100000000E-03 0. -1.
        -11    1    3    3    0    0  0.13130222030E+02 -0.64581558777E+01  0.59809316387E+01  0.15807657999E+02  0.51100000000E-03 0.  1.
         12    1    3    3    0    0 -0.68373793945E+00 -0.18492593219E+01  0.88425171046E+00  0.21608236154E+01  0.00000000000E+00 0. -1.
</event>
<event>
 7    1  0.1019486E-010  0.4778724E+02  0.7816164E-02  0.1312668E+00
        -11   -1    0    0    0    0  0.00000000000E+00  0.00000000000E+00  0.45593999997E+02  0.45594000000E+02  0.51100000000E-03 0. -1.
         11   -1    0    0    0    0 -0.00000000000E+00 -0.00000000000E+00 -0.45593999997E+02  0.45594000000E+02  0.51100000000E-03 0.  1.
    9900012    2    1    2    0    0 -0.20281274688E+02 -0.69476856647E+01 -0.37736266517E+02  0.47787236761E+02  0.19999843688E+02 0.  0.
         12    1    1    2    0    0  0.20281274688E+02  0.69476856647E+01  0.37736266517E+02  0.43400763239E+02  0.00000000000E+00 0. -1.
         11    1    3    3    0    0 -0.14606445074E+02 -0.16000086172E+01 -0.99352180578E+01  0.17737441287E+02  0.51100000000E-03 0. -1.
        -11    1    3    3    0    0 -0.48053016764E+01 -0.46472241153E+01 -0.28107851165E+02  0.28891848566E+02  0.51100000000E-03 0.  1.
        -12    1    3    3    0    0 -0.86952793715E+00 -0.70045293215E+00  0.30680270514E+00  0.11579469088E+01  0.00000000000E+00 0.  1.
</event>
<event>
 7    1  0.1019486E-010  0.4778726E+02  0.7816164E-02  0.1312668E+00
        -11   -1    0    0    0    0  0.00000000000E+00  0.00000000000E+00  0.45593999997E+02  0.45594000000E+02  0.51100000000E-03 0. -1.
         11   -1    0    0    0    0 -0.00000000000E+00 -0.00000000000E+00 -0.45593999997E+02  0.45594000000E+02  0.51100000000E-03 0.  1.
    9900012    2    1    2    0    0 -0.12247445144E+02  0.10799734276E+02 -0.40211814786E+02  0.47787260129E+02  0.19999950231E+02 0.  0.
         12    1    1    2    0    0  0.12247445144E+02 -0.10799734276E+02  0.40211814786E+02  0.43400739871E+02  0.00000000000E+00 0. -1.
         11    1    3    3    0    0  0.12674655591E+01 -0.98506579090E+00 -0.22546732250E+00  0.16210056541E+01  0.51100000000E-03 0. -1.
        -11    1    3    3    0    0 -0.14284047189E+02  0.43927911685E+01 -0.20978070398E+02  0.25756747781E+02  0.51100000000E-03 0.  1.
        -12    1    3    3    0    0  0.76913648637E+00  0.73920088987E+01 -0.19008277065E+02  0.20409506694E+02  0.00000000000E+00 0.  1.
</event>
<event>
 7    1  0.1019486E-010  0.4778727E+02  0.7816164E-02  0.1312668E+00
        -11   -1    0    0    0    0  0.00000000000E+00  0.00000000000E+00  0.45593999997E+02  0.45594000000E+02  0.51100000000E-03 0. -1.
         11   -1    0    0    0    0 -0.00000000000E+00 -0.00000000000E+00 -0.45593999997E+02  0.45594000000E+02  0.51100000000E-03 0.  1.
    9900012    2    1    2    0    0 -0.15250210185E+01 -0.42703748277E+01  0.43163193316E+02  0.47787273652E+02  0.20000011888E+02 0.  0.
        -12    1    1    2    0    0  0.15250210185E+01  0.42703748277E+01 -0.43163193316E+02  0.43400726348E+02  0.00000000000E+00 0.  1.
         11    1    3    3    0    0 -0.10285242417E+02 -0.16108343132E+01  0.24369867956E+02  0.26500404963E+02  0.51100000000E-03 0. -1.
        -11    1    3    3    0    0  0.51779965953E+01 -0.14961328222E+01  0.65783213769E+01  0.85043738489E+01  0.51100000000E-03 0.  1.
         12    1    3    3    0    0  0.35822248037E+01 -0.11634076923E+01  0.12215003984E+02  0.12782494840E+02  0.00000000000E+00 0. -1.
</event>
<event>
 7    1  0.1019486E-010  0.4778727E+02  0.7816164E-02  0.1312668E+00
        -11   -1    0    0    0    0  0.00000000000E+00  0.00000000000E+00  0.45593999997E+02  0.45594000000E+02  0.51100000000E-03 0. -1.
         11   -1    0    0    0    0 -0.00000000000E+00 -0.00000000000E+00 -0.45593999997E+02  0.45594000000E+02  0.51100000000E-03 0.  1.
    9900012    2    1    2    0    0  0.32562333832E+02  0.24850176721E+02  0.14345250780E+02  0.47787273190E+02  0.20000009783E+02 0.  0.
        -12    1    1    2    0    0 -0.32562333832E+02 -0.24850176721E+02 -0.14345250780E+02  0.43400726810E+02  0.00000000000E+00 0.  1.
         11    1    3    3    0    0  0.23086071878E+00  0.20068182748E+01  0.68102454839E+01  0.71035244824E+01  0.51100000000E-03 0. -1.
        -11    1    3    3    0    0  0.13762013924E+02  0.10713073794E+02  0.62317025777E+00  0.17451398763E+02  0.51100000000E-03 0.  1.
         12    1    3    3    0    0  0.18569459189E+02  0.12130284653E+02  0.69118350378E+01  0.23232349944E+02  0.00000000000E+00 0. -1.
</event>
<event>
 7    1  0.1019486E-010  0.4778727E+02  0.7816164E-02  0.1312668E+00
        -11   -1    0    0    0    0  0.00000000000E+00  0.00000000000E+00  0.45593999997E+02  0.45594000000E+02  0.51100000000E-03 0. -1.
         11   -1    0    0    0    0 -0.00000000000E+00 -0.00000000000E+00 -0.45593999997E+02  0.45594000000E+02  0.51100000000E-03 0.  1.
    9900012    2    1    2    0    0  0.31426920811E+02 -0.25712369901E+02 -0.15324677840E+02  0.47787273411E+02  0.20000010789E+02 0.  0.
         12    1    1    2    0    0 -0.31426920811E+02  0.25712369901E+02  0.15324677840E+02  0.43400726589E+02  0.00000000000E+00 0. -1.
         11    1    3    3    0    0  0.80800447189E+01 -0.14329136936E+02 -0.12805081236E+02  0.20846615881E+02  0.51100000000E-03 0. -1.
        -11    1    3    3    0    0  0.15524176079E+02 -0.40841115152E+01 -0.24704017767E+01  0.16241394491E+02  0.51100000000E-03 0.  1.
         12    1    3    3    0    0  0.78227000123E+01 -0.72991214506E+01 -0.49194826919E-01  0.10699263038E+02  0.00000000000E+00 0. -1.
</event>
<event>
 7    1  0.2746256E-010  0.4778727E+02  0.7816164E-02  0.1312668E+00
        -11   -1    0    0    0    0  0.00000000000E+00  0.00000000000E+00  0.45593999997E+02  0.45594000000E+02  0.51100000000E-03 0. -1.
         11   -1    0    0    0    0 -0.00000000000E+00 -0.00000000000E+00 -0.45593999997E+02  0.45594000000E+02  0.51100000000E-03 0.  1.
    9900012    2    1    2    0    0  0.25039509370E+01 -0.13821429039E+02 -0.41064847962E+02  0.47787269487E+02  0.19999992897E+02 0.  0.
         12    1    1    2    0    0 -0.25039509370E+01  0.13821429039E+02  0.41064847962E+02  0.43400730513E+02  0.00000000000E+00 0. -1.
         11    1    3    3    0    0  0.61337252960E+01 -0.66786289983E+01 -0.51393958655E+01  0.10423054323E+02  0.51100000000E-03 0. -1.
        -11    1    3    3    0    0 -0.14905619531E+01 -0.77585361950E+01 -0.25168669269E+02  0.26379510455E+02  0.51100000000E-03 0.  1.
         12    1    3    3    0    0 -0.21392124059E+01  0.61573615447E+00 -0.10756782828E+02  0.10984704708E+02  0.00000000000E+00 0. -1.
</event>
<event>
 7    1  0.1019486E-010  0.4778730E+02  0.7816164E-02  0.1312668E+00
        -11   -1    0    0    0    0  0.00000000000E+00  0.00000000000E+00  0.45593999997E+02  0.45594000000E+02  0.51100000000E-03 0. -1.
         11   -1    0    0    0    0 -0.00000000000E+00 -0.00000000000E+00 -0.45593999997E+02  0.45594000000E+02  0.51100000000E-03 0.  1.
    9900012    2    1    2    0    0  0.10875004266E+02  0.11957056858E+02 -0.40278830046E+02  0.47787296361E+02  0.20000115426E+02 0.  0.
         12    1    1    2    0    0 -0.10875004266E+02 -0.11957056858E+02  0.40278830046E+02  0.43400703639E+02  0.00000000000E+00 0. -1.
         11    1    3    3    0    0  0.41853439201E+01  0.24870370818E+01 -0.69876716632E-01  0.48690184014E+01  0.51100000000E-03 0. -1.
        -11    1    3    3    0    0 -0.12950374576E+01  0.40754784195E+01 -0.20963103243E+02  0.21394820499E+02  0.51100000000E-03 0.  1.
        -12    1    3    3    0    0  0.79846978035E+01  0.53945413570E+01 -0.19245850087E+02  0.21523457460E+02  0.00000000000E+00 0.  1.
</event>
<event>
 7    1  0.1019486E-010  0.4778727E+02  0.7816164E-02  0.1312668E+00
        -11   -1    0    0    0    0  0.00000000000E+00  0.00000000000E+00  0.45593999997E+02  0.45594000000E+02  0.51100000000E-03 0. -1.
         11   -1    0    0    0    0 -0.00000000000E+00 -0.00000000000E+00 -0.45593999997E+02  0.45594000000E+02  0.51100000000E-03 0.  1.
    9900012    2    1    2    0    0  0.25264631721E+02  0.22907933251E+02  0.26843028838E+02  0.47787271676E+02  0.20000002879E+02 0.  0.
        -12    1    1    2    0    0 -0.25264631721E+02 -0.22907933251E+02 -0.26843028838E+02  0.43400728324E+02  0.00000000000E+00 0.  1.
         11    1    3    3    0    0  0.17425097125E+02  0.20674341445E+02  0.23343129449E+02  0.35720639646E+02  0.51100000000E-03 0. -1.
        -11    1    3    3    0    0  0.53611707601E+01 -0.25473494386E+01  0.64218381750E+00  0.59702212185E+01  0.51100000000E-03 0.  1.
        -12    1    3    3    0    0  0.24783638357E+01  0.47809412452E+01  0.28577155723E+01  0.60964108117E+01  0.00000000000E+00 0.  1.
</event>
<event>
 7    1  0.1019486E-010  0.4778725E+02  0.7816164E-02  0.1312668E+00
        -11   -1    0    0    0    0  0.00000000000E+00  0.00000000000E+00  0.45593999997E+02  0.45594000000E+02  0.51100000000E-03 0. -1.
         11   -1    0    0    0    0 -0.00000000000E+00 -0.00000000000E+00 -0.45593999997E+02  0.45594000000E+02  0.51100000000E-03 0.  1.
    9900012    2    1    2    0    0 -0.11974038129E+02 -0.11358028323E+02  0.40140286932E+02  0.47787250795E+02  0.19999907677E+02 0.  0.
        -12    1    1    2    0    0  0.11974038129E+02  0.11358028323E+02 -0.40140286932E+02  0.43400749205E+02  0.00000000000E+00 0.  1.
         11    1    3    3    0    0 -0.65727359399E+01 -0.43618013021E+01  0.10841983529E+02  0.13408011614E+02  0.51100000000E-03 0. -1.
        -11    1    3    3    0    0 -0.13636531274E+01 -0.11300041092E+02  0.14402690529E+02  0.18357232178E+02  0.51100000000E-03 0.  1.
        -12    1    3    3    0    0 -0.40376490618E+01  0.43038140705E+01  0.14895612874E+02  0.16022007003E+02  0.00000000000E+00 0.  1.
</event>
<event>
 7    1  0.1019486E-010  0.4778728E+02  0.7816164E-02  0.1312668E+00
        -11   -1    0    0    0    0  0.00000000000E+00  0.00000000000E+00  0.45593999997E+02  0.45594000000E+02  0.51100000000E-03 0. -1.
         11   -1    0    0    0    0 -0.00000000000E+00 -0.00000000000E+00 -0.45593999997E+02  0.45594000000E+02  0.51100000000E-03 0.  1.
    9900012    2    1    2    0    0 -0.23375847555E+01 -0.14418078945E+02  0.40869029891E+02  0.47787275269E+02  0.20000019263E+02 0.  0.
        -12    1    1    2    0    0  0.23375847555E+01  0.14418078945E+02 -0.40869029891E+02  0.43400724731E+02  0.00000000000E+00 0.  1.
         11    1    3    3    0    0 -0.39108408999E+01 -0.61623016692E+01  0.12862858193E+02  0.14789244726E+02  0.51100000000E-03 0.  1.
        -11    1    3    3    0    0  0.41168554371E+01 -0.11368855976E+02  0.25602651454E+02  0.28314221632E+02  0.51100000000E-03 0. -1.
        -12    1    3    3    0    0 -0.25435992926E+01  0.31130787007E+01  0.24035202437E+01  0.46838089116E+01  0.00000000000E+00 0.  1.
</event>
<event>
 7    1  0.1019486E-010  0.4778727E+02  0.7816164E-02  0.1312668E+00
        -11   -1    0    0    0    0  0.00000000000E+00  0.00000000000E+00  0.45593999997E+02  0.45594000000E+02  0.51100000000E-03 0. -1.
         11   -1    0    0    0    0 -0.00000000000E+00 -0.00000000000E+00 -0.45593999997E+02  0.45594000000E+02  0.51100000000E-03 0.  1.
    9900012    2    1    2    0    0  0.32139820958E+02  0.46452273346E+01  0.28793698457E+02  0.47787270754E+02  0.19999998677E+02 0.  0.
        -12    1    1    2    0    0 -0.32139820958E+02 -0.46452273346E+01 -0.28793698457E+02  0.43400729246E+02  0.00000000000E+00 0.  1.
         11    1    3    3    0    0  0.11208003580E+02  0.67724021443E+01  0.20796366127E+02  0.24575874744E+02  0.51100000000E-03 0. -1.
        -11    1    3    3    0    0  0.18123359512E+02 -0.35049686540E+01  0.79083656607E+01  0.20081912582E+02  0.51100000000E-03 0.  1.
         12    1    3    3    0    0  0.28084578659E+01  0.13777938443E+01  0.88966669453E-01  0.31294834286E+01  0.00000000000E+00 0. -1.
</event>
<event>
 7    1  0.1019486E-010  0.4778727E+02  0.7816164E-02  0.1312668E+00
        -11   -1    0    0    0    0  0.00000000000E+00  0.00000000000E+00  0.45593999997E+02  0.45594000000E+02  0.51100000000E-03 0.  1.
         11   -1    0    0    0    0 -0.00000000000E+00 -0.00000000000E+00 -0.45593999997E+02  0.45594000000E+02  0.51100000000E-03 0. -1.
    9900012    2    1    2    0    0 -0.40178385294E+02 -0.13799772644E+02  0.88818335526E+01  0.47787270316E+02  0.19999996677E+02 0.  0.
        -12    1    1    2    0    0  0.40178385294E+02  0.13799772644E+02 -0.88818335526E+01  0.43400729684E+02  0.00000000000E+00 0.  1.
         11    1    3    3    0    0 -0.29674379587E+02 -0.57224413202E+01  0.93944739593E+01  0.31647610965E+02  0.51100000000E-03 0. -1.
        -11    1    3    3    0    0 -0.28956944773E+01 -0.33976358063E+00  0.35131717726E+01  0.45653983355E+01  0.51100000000E-03 0.  1.
         12    1    3    3    0    0 -0.76083112300E+01 -0.77375677431E+01 -0.40258121793E+01  0.11574261015E+02  0.00000000000E+00 0. -1.
</event>
<event>
 7    1  0.1019486E-010  0.4778727E+02  0.7816164E-02  0.1312668E+00
        -11   -1    0    0    0    0  0.00000000000E+00  0.00000000000E+00  0.45593999997E+02  0.45594000000E+02  0.51100000000E-03 0. -1.
         11   -1    0    0    0    0 -0.00000000000E+00 -0.00000000000E+00 -0.45593999997E+02  0.45594000000E+02  0.51100000000E-03 0.  1.
    9900012    2    1    2    0    0 -0.15274966080E+02 -0.33857768609E+01  0.40482526247E+02  0.47787274141E+02  0.20000014120E+02 0.  0.
        -12    1    1    2    0    0  0.15274966080E+02  0.33857768609E+01 -0.40482526247E+02  0.43400725859E+02  0.00000000000E+00 0.  1.
         11    1    3    3    0    0 -0.80433378953E+01 -0.11032647564E+01  0.30155972090E+02  0.31229715505E+02  0.51100000000E-03 0. -1.
        -11    1    3    3    0    0 -0.13240988034E+01 -0.31185119303E+01 -0.11870206685E+01  0.35898986935E+01  0.51100000000E-03 0.  1.
         12    1    3    3    0    0 -0.59075293818E+01  0.83599982584E+00  0.11513574826E+02  0.12967659942E+02  0.00000000000E+00 0. -1.
</event>
<event>
 7    1  0.1019486E-010  0.4778726E+02  0.7816164E-02  0.1312668E+00
        -11   -1    0    0    0    0  0.00000000000E+00  0.00000000000E+00  0.45593999997E+02  0.45594000000E+02  0.51100000000E-03 0. -1.
         11   -1    0    0    0    0 -0.00000000000E+00 -0.00000000000E+00 -0.45593999997E+02  0.45594000000E+02  0.51100000000E-03 0.  1.
    9900012    2    1    2    0    0  0.44074374716E+00  0.28198059269E+02 -0.32989390007E+02  0.47787255137E+02  0.19999927472E+02 0.  0.
         12    1    1    2    0    0 -0.44074374716E+00 -0.28198059269E+02  0.32989390007E+02  0.43400744863E+02  0.00000000000E+00 0. -1.
         11    1    3    3    0    0  0.49773093295E+01  0.61249492840E+01 -0.33054118057E+01  0.85565389825E+01  0.51100000000E-03 0. -1.
        -11    1    3    3    0    0 -0.26185718360E+01  0.39980288819E+01 -0.15366297327E+02  0.16092366116E+02  0.51100000000E-03 0.  1.
        -12    1    3    3    0    0 -0.19179937463E+01  0.18075081103E+02 -0.14317680875E+02  0.23138350039E+02  0.00000000000E+00 0.  1.
</event>
<event>
 7    1  0.1019486E-010  0.4778727E+02  0.7816164E-02  0.1312668E+00
        -11   -1    0    0    0    0  0.00000000000E+00  0.00000000000E+00  0.45593999997E+02  0.45594000000E+02  0.51100000000E-03 0. -1.
         11   -1    0    0    0    0 -0.00000000000E+00 -0.00000000000E+00 -0.45593999997E+02  0.45594000000E+02  0.51100000000E-03 0.  1.
    9900012    2    1    2    0    0  0.24178625340E+02 -0.12991289948E+01 -0.36018461312E+02  0.47787271725E+02  0.20000003103E+02 0.  0.
         12    1    1    2    0    0 -0.24178625340E+02  0.12991289948E+01  0.36018461312E+02  0.43400728275E+02  0.00000000000E+00 0. -1.
         11    1    3    3    0    0  0.70703332830E+01 -0.69781444086E+01 -0.15504132565E+02  0.18413642741E+02  0.51100000000E-03 0. -1.
        -11    1    3    3    0    0  0.90240965021E+01  0.20879944153E+01 -0.29727689791E+01  0.97278668793E+01  0.51100000000E-03 0.  1.
         12    1    3    3    0    0  0.80841955554E+01  0.35910209985E+01 -0.17541559768E+02  0.19645762105E+02  0.00000000000E+00 0. -1.
</event>
<event>
 7    1  0.1019486E-010  0.4778727E+02  0.7816164E-02  0.1312668E+00
        -11   -1    0    0    0    0  0.00000000000E+00  0.00000000000E+00  0.45593999997E+02  0.45594000000E+02  0.51100000000E-03 0. -1.
         11   -1    0    0    0    0 -0.00000000000E+00 -0.00000000000E+00 -0.45593999997E+02  0.45594000000E+02  0.51100000000E-03 0.  1.
    9900012    2    1    2    0    0  0.41794795991E+02 -0.11331983965E+01 -0.11641911000E+02  0.47787271870E+02  0.20000003762E+02 0.  0.
         12    1    1    2    0    0 -0.41794795991E+02  0.11331983965E+01  0.11641911000E+02  0.43400728130E+02  0.00000000000E+00 0. -1.
         11    1    3    3    0    0  0.79871984777E+01  0.48540500155E+01 -0.81851342330E+01  0.12423910968E+02  0.51100000000E-03 0. -1.
        -11    1    3    3    0    0  0.23477705999E+02 -0.28280140868E+01  0.10219719589E+01  0.23669490269E+02  0.51100000000E-03 0.  1.
         12    1    3    3    0    0  0.10329891514E+02 -0.31592343252E+01 -0.44787487254E+01  0.11693870632E+02  0.00000000000E+00 0. -1.
</event>
<event>
 7    1  0.1019486E-010  0.4778727E+02  0.7816164E-02  0.1312668E+00
        -11   -1    0    0    0    0  0.00000000000E+00  0.00000000000E+00  0.45593999997E+02  0.45594000000E+02  0.51100000000E-03 0. -1.
         11   -1    0    0    0    0 -0.00000000000E+00 -0.00000000000E+00 -0.45593999997E+02  0.45594000000E+02  0.51100000000E-03 0.  1.
    9900012    2    1    2    0    0  0.22324464615E+02  0.95992763919E+01  0.35959637216E+02  0.47787270325E+02  0.19999996721E+02 0.  0.
        -12    1    1    2    0    0 -0.22324464615E+02 -0.95992763919E+01 -0.35959637216E+02  0.43400729675E+02  0.00000000000E+00 0.  1.
         11    1    3    3    0    0  0.19478900284E+01  0.21990244004E+01  0.12001212748E+01  0.31733696935E+01  0.51100000000E-03 0. -1.
        -11    1    3    3    0    0  0.16562591696E+02 -0.14065210624E+00  0.12340062077E+02  0.20654693390E+02  0.51100000000E-03 0.  1.
        -12    1    3    3    0    0  0.38139828911E+01  0.75409040977E+01  0.22419453864E+02  0.23959207242E+02  0.00000000000E+00 0.  1.
</event>
<event>
 7    1  0.1019486E-010  0.4778726E+02  0.7816164E-02  0.1312668E+00
        -11   -1    0    0    0    0  0.00000000000E+00  0.00000000000E+00  0.45593999997E+02  0.45594000000E+02  0.51100000000E-03 0. -1.
         11   -1    0    0    0    0 -0.00000000000E+00 -0.00000000000E+00 -0.45593999997E+02  0.45594000000E+02  0.51100000000E-03 0.  1.
    9900012    2    1    2    0    0  0.21464604507E+00 -0.13321416138E+02  0.41305179037E+02  0.47787262493E+02  0.19999961010E+02 0.  0.
        -12    1    1    2    0    0 -0.21464604507E+00  0.13321416138E+02 -0.41305179037E+02  0.43400737507E+02  0.00000000000E+00 0.  1.
         11    1    3    3    0    0 -0.10364592456E+01 -0.48562583128E+01  0.20927187472E+02  0.21508246518E+02  0.51100000000E-03 0. -1.
        -11    1    3    3    0    0  0.65843143471E+01 -0.51217288317E+01  0.51552814049E+01  0.98062341534E+01  0.51100000000E-03 0.  1.
        -12    1    3    3    0    0 -0.53332090564E+01 -0.33434289938E+01  0.15222710161E+02  0.16472781821E+02  0.00000000000E+00 0.  1.
</event>
<event>
 7    1  0.1019486E-010  0.4778727E+02  0.7816164E-02  0.1312668E+00
        -11   -1    0    0    0    0  0.00000000000E+00  0.00000000000E+00  0.45593999997E+02  0.45594000000E+02  0.51100000000E-03 0. -1.
         11   -1    0    0    0    0 -0.00000000000E+00 -0.00000000000E+00 -0.45593999997E+02  0.45594000000E+02  0.51100000000E-03 0.  1.
    9900012    2    1    2    0    0 -0.25632783944E+02  0.22100542169E+02 -0.27168917144E+02  0.47787266876E+02  0.19999980995E+02 0.  0.
         12    1    1    2    0    0  0.25632783944E+02 -0.22100542169E+02  0.27168917144E+02  0.43400733124E+02  0.00000000000E+00 0. -1.
         11    1    3    3    0    0 -0.21681012883E+02  0.10415954892E+02 -0.10009778392E+02  0.26052909620E+02  0.51100000000E-03 0. -1.
        -11    1    3    3    0    0 -0.49431704015E+01  0.91638504545E+01 -0.15053446165E+02  0.18303478644E+02  0.51100000000E-03 0.  1.
         12    1    3    3    0    0  0.99139934023E+00  0.25207368224E+01 -0.21056925871E+01  0.34308786121E+01  0.00000000000E+00 0. -1.
</event>
<event>
 7    1  0.1019486E-010  0.4778727E+02  0.7816164E-02  0.1312668E+00
        -11   -1    0    0    0    0  0.00000000000E+00  0.00000000000E+00  0.45593999997E+02  0.45594000000E+02  0.51100000000E-03 0.  1.
         11   -1    0    0    0    0 -0.00000000000E+00 -0.00000000000E+00 -0.45593999997E+02  0.45594000000E+02  0.51100000000E-03 0. -1.
    9900012    2    1    2    0    0  0.29928805407E+02 -0.31426583699E+02 -0.50962958423E+00  0.47787270992E+02  0.19999999761E+02 0.  0.
        -12    1    1    2    0    0 -0.29928805407E+02  0.31426583699E+02  0.50962958423E+00  0.43400729008E+02  0.00000000000E+00 0.  1.
         11    1    3    3    0    0  0.20893875863E+02 -0.10054155144E+02 -0.44564627413E+01  0.23611440969E+02  0.51100000000E-03 0. -1.
        -11    1    3    3    0    0  0.81136800726E+01 -0.20718097003E+02  0.47973927058E+01  0.22761509721E+02  0.51100000000E-03 0.  1.
        -12    1    3    3    0    0  0.92124947166E+00 -0.65433155282E+00 -0.85055954865E+00  0.14143203017E+01  0.00000000000E+00 0.  1.
</event>
<event>
 7    1  0.1019486E-010  0.4778727E+02  0.7816164E-02  0.1312668E+00
        -11   -1    0    0    0    0  0.00000000000E+00  0.00000000000E+00  0.45593999997E+02  0.45594000000E+02  0.51100000000E-03 0. -1.
         11   -1    0    0    0    0 -0.00000000000E+00 -0.00000000000E+00 -0.45593999997E+02  0.45594000000E+02  0.51100000000E-03 0.  1.
    9900012    2    1    2    0    0 -0.16346026477E+02  0.37159576610E+02 -0.15349154917E+02  0.47787271065E+02  0.20000000095E+02 0.  0.
         12    1    1    2    0    0  0.16346026477E+02 -0.37159576610E+02  0.15349154917E+02  0.43400728935E+02  0.00000000000E+00 0. -1.
         11    1    3    3    0    0 -0.79342289712E+01  0.97763357662E+01 -0.62322807297E+00  0.12606234326E+02  0.51100000000E-03 0. -1.
        -11    1    3    3    0    0 -0.67791175395E+01  0.18539280148E+02 -0.16834867222E+02  0.25943671630E+02  0.51100000000E-03 0.  1.
        -12    1    3    3    0    0 -0.16326799664E+01  0.88439606951E+01  0.21089403775E+01  0.92373651095E+01  0.00000000000E+00 0.  1.
</event>
<event>
 7    1  0.1019486E-010  0.4778727E+02  0.7816164E-02  0.1312668E+00
        -11   -1    0    0    0    0  0.00000000000E+00  0.00000000000E+00  0.45593999997E+02  0.45594000000E+02  0.51100000000E-03 0. -1.
         11   -1    0    0    0    0 -0.00000000000E+00 -0.00000000000E+00 -0.45593999997E+02  0.45594000000E+02  0.51100000000E-03 0.  1.
    9900012    2    1    2    0    0  0.62415116489E+01  0.18028615638E+02  0.38982510211E+02  0.47787267842E+02  0.19999985400E+02 0.  0.
        -12    1    1    2    0    0 -0.62415116489E+01 -0.18028615638E+02 -0.38982510211E+02  0.43400732158E+02  0.00000000000E+00 0.  1.
         11    1    3    3    0    0 -0.48850153330E+01  0.84561344130E+01  0.11752230206E+02  0.15280199576E+02  0.51100000000E-03 0. -1.
        -11    1    3    3    0    0  0.11220463737E+02  0.38691640937E+01  0.20468449651E+02  0.23660656556E+02  0.51100000000E-03 0.  1.
        -12    1    3    3    0    0 -0.93936755005E-01  0.57033171317E+01  0.67618303539E+01  0.88464117106E+01  0.00000000000E+00 0.  1.
</event>
<event>
 7    1  0.1019486E-010  0.4778727E+02  0.7816164E-02  0.1312668E+00
        -11   -1    0    0    0    0  0.00000000000E+00  0.00000000000E+00  0.45593999997E+02  0.45594000000E+02  0.51100000000E-03 0. -1.
         11   -1    0    0    0    0 -0.00000000000E+00 -0.00000000000E+00 -0.45593999997E+02  0.45594000000E+02  0.51100000000E-03 0.  1.
    9900012    2    1    2    0    0 -0.66423967793E+01 -0.64107700661E+01  0.42407592607E+02  0.47787270530E+02  0.19999997653E+02 0.  0.
        -12    1    1    2    0    0  0.66423967793E+01  0.64107700661E+01 -0.42407592607E+02  0.43400729470E+02  0.00000000000E+00 0.  1.
         11    1    3    3    0    0 -0.49266118441E+01 -0.54999516597E+01  0.31240887176E+02  0.32101619964E+02  0.51100000000E-03 0. -1.
        -11    1    3    3    0    0 -0.14773890397E+01  0.49078566261E+01  0.43717142210E+01  0.67365881964E+01  0.51100000000E-03 0.  1.
        -12    1    3    3    0    0 -0.23839589558E+00 -0.58186750324E+01  0.67949912102E+01  0.89490623689E+01  0.00000000000E+00 0.  1.
</event>
<event>
 7    1  0.1019486E-010  0.4778727E+02  0.7816164E-02  0.1312668E+00
        -11   -1    0    0    0    0  0.00000000000E+00  0.00000000000E+00  0.45593999997E+02  0.45594000000E+02  0.51100000000E-03 0. -1.
         11   -1    0    0    0    0 -0.00000000000E+00 -0.00000000000E+00 -0.45593999997E+02  0.45594000000E+02  0.51100000000E-03 0.  1.
    9900012    2    1    2    0    0  0.36067473679E+02 -0.23402525917E+02 -0.59230246194E+01  0.47787273076E+02  0.20000009263E+02 0.  0.
         12    1    1    2    0    0 -0.36067473679E+02  0.23402525917E+02  0.59230246194E+01  0.43400726924E+02  0.00000000000E+00 0. -1.
         11    1    3    3    0    0  0.91369787671E+01 -0.77263037776E+01  0.54062856818E+01  0.13130425591E+02  0.51100000000E-03 0. -1.
        -11    1    3    3    0    0  0.27478802264E+02 -0.16275756824E+02 -0.11121598890E+02  0.33818261282E+02  0.51100000000E-03 0.  1.
        -12    1    3    3    0    0 -0.54830735184E+00  0.59953468412E+00 -0.20771141160E+00  0.83858620311E+00  0.00000000000E+00 0.  1.
</event>
<event>
 7    1  0.1019486E-010  0.4778727E+02  0.7816164E-02  0.1312668E+00
        -11   -1    0    0    0    0  0.00000000000E+00  0.00000000000E+00  0.45593999997E+02  0.45594000000E+02  0.51100000000E-03 0.  1.
         11   -1    0    0    0    0 -0.00000000000E+00 -0.00000000000E+00 -0.45593999997E+02  0.45594000000E+02  0.51100000000E-03 0. -1.
    9900012    2    1    2    0    0  0.36439518278E+02  0.23566468451E+02  0.63753666043E+00  0.47787269815E+02  0.19999994394E+02 0.  0.
        -12    1    1    2    0    0 -0.36439518278E+02 -0.23566468451E+02 -0.63753666043E+00  0.43400730185E+02  0.00000000000E+00 0.  1.
         11    1    3    3    0    0  0.20846646296E+02  0.14287689177E+02  0.48558396470E+01  0.25735188026E+02  0.51100000000E-03 0. -1.
        -11    1    3    3    0    0  0.96675242822E+01  0.85926102628E+01 -0.77905969374E+01  0.15099250901E+02  0.51100000000E-03 0.  1.
        -12    1    3    3    0    0  0.59253477003E+01  0.68616901164E+00  0.35722939509E+01  0.69528308877E+01  0.00000000000E+00 0.  1.
</event>
<event>
 7    1  0.1019486E-010  0.4778727E+02  0.7816164E-02  0.1312668E+00
        -11   -1    0    0    0    0  0.00000000000E+00  0.00000000000E+00  0.45593999997E+02  0.45594000000E+02  0.51100000000E-03 0. -1.
         11   -1    0    0    0    0 -0.00000000000E+00 -0.00000000000E+00 -0.45593999997E+02  0.45594000000E+02  0.51100000000E-03 0.  1.
    9900012    2    1    2    0    0 -0.14385090575E+02  0.14937998023E+02 -0.38125428907E+02  0.47787274832E+02  0.20000017269E+02 0.  0.
         12    1    1    2    0    0  0.14385090575E+02 -0.14937998023E+02  0.38125428907E+02  0.43400725168E+02  0.00000000000E+00 0. -1.
         11    1    3    3    0    0 -0.13597376166E+02  0.15041419382E+02 -0.29937190235E+02  0.36157548245E+02  0.51100000000E-03 0.  1.
        -11    1    3    3    0    0  0.10520252397E+01  0.34742580595E+01 -0.60966160489E+01  0.70954882621E+01  0.51100000000E-03 0. -1.
         12    1    3    3    0    0 -0.18397396482E+01 -0.35776794186E+01 -0.20916226230E+01  0.45342383254E+01  0.00000000000E+00 0. -1.
</event>
<event>
 7    1  0.1019486E-010  0.4778729E+02  0.7816164E-02  0.1312668E+00
        -11   -1    0    0    0    0  0.00000000000E+00  0.00000000000E+00  0.45593999997E+02  0.45594000000E+02  0.51100000000E-03 0. -1.
         11   -1    0    0    0    0 -0.00000000000E+00 -0.00000000000E+00 -0.45593999997E+02  0.45594000000E+02  0.51100000000E-03 0.  1.
    9900012    2    1    2    0    0 -0.19045220487E+02 -0.26989817771E+02  0.28150500860E+02  0.47787292801E+02  0.20000099197E+02 0.  0.
        -12    1    1    2    0    0  0.19045220487E+02  0.26989817771E+02 -0.28150500860E+02  0.43400707199E+02  0.00000000000E+00 0.  1.
         11    1    3    3    0    0 -0.12154687665E+02 -0.22462772207E+02  0.13129896060E+02  0.28717707747E+02  0.51100000000E-03 0. -1.
        -11    1    3    3    0    0 -0.45496894395E+01 -0.24953288493E+01  0.18029411889E+01  0.54933539167E+01  0.51100000000E-03 0.  1.
         12    1    3    3    0    0 -0.23408433829E+01 -0.20317167146E+01  0.13217663611E+02  0.13576231137E+02  0.00000000000E+00 0. -1.
</event>
<event>
 7    1  0.1019486E-010  0.4778727E+02  0.7816164E-02  0.1312668E+00
        -11   -1    0    0    0    0  0.00000000000E+00  0.00000000000E+00  0.45593999997E+02  0.45594000000E+02  0.51100000000E-03 0.  1.
         11   -1    0    0    0    0 -0.00000000000E+00 -0.00000000000E+00 -0.45593999997E+02  0.45594000000E+02  0.51100000000E-03 0. -1.
    9900012    2    1    2    0    0  0.43126973824E+02  0.32767790451E+01 -0.35986964468E+01  0.47787265349E+02  0.19999974032E+02 0.  0.
         12    1    1    2    0    0 -0.43126973824E+02 -0.32767790451E+01  0.35986964468E+01  0.43400734651E+02  0.00000000000E+00 0. -1.
         11    1    3    3    0    0  0.53439108196E+01 -0.58926899497E+01  0.28747502672E-01  0.79549987034E+01  0.51100000000E-03 0. -1.
        -11    1    3    3    0    0  0.21508759165E+02  0.68076223216E+01 -0.56676431998E+01  0.23261397684E+02  0.51100000000E-03 0.  1.
         12    1    3    3    0    0  0.16274303839E+02  0.23618466732E+01  0.20401992503E+01  0.16570868962E+02  0.00000000000E+00 0. -1.
</event>
<event>
 7    1  0.1019486E-010  0.4778724E+02  0.7816164E-02  0.1312668E+00
        -11   -1    0    0    0    0  0.00000000000E+00  0.00000000000E+00  0.45593999997E+02  0.45594000000E+02  0.51100000000E-03 0.  1.
         11   -1    0    0    0    0 -0.00000000000E+00 -0.00000000000E+00 -0.45593999997E+02  0.45594000000E+02  0.51100000000E-03 0. -1.
    9900012    2    1    2    0    0  0.42143180293E+02  0.64738289845E+01  0.81035588681E+01  0.47787242250E+02  0.19999868716E+02 0.  0.
        -12    1    1    2    0    0 -0.42143180293E+02 -0.64738289845E+01 -0.81035588681E+01  0.43400757750E+02  0.00000000000E+00 0.  1.
         11    1    3    3    0    0  0.36750253718E+02  0.11716976505E+02  0.81279509097E+01  0.39419947653E+02  0.51100000000E-03 0. -1.
        -11    1    3    3    0    0  0.11783281152E+01 -0.31340285351E+01  0.10960579918E+01  0.35230576760E+01  0.51100000000E-03 0.  1.
         12    1    3    3    0    0  0.42145984599E+01 -0.21091189853E+01 -0.11204500334E+01  0.48442369213E+01  0.00000000000E+00 0. -1.
</event>
<event>
 7    1  0.1019486E-010  0.4778727E+02  0.7816164E-02  0.1312668E+00
        -11   -1    0    0    0    0  0.00000000000E+00  0.00000000000E+00  0.45593999997E+02  0.45594000000E+02  0.51100000000E-03 0. -1.
         11   -1    0    0    0    0 -0.00000000000E+00 -0.00000000000E+00 -0.45593999997E+02  0.45594000000E+02  0.51100000000E-03 0.  1.
    9900012    2    1    2    0    0  0.30739543551E+02 -0.98301406830E+01  0.29018486859E+02  0.47787265177E+02  0.19999973249E+02 0.  0.
        -12    1    1    2    0    0 -0.30739543551E+02  0.98301406830E+01 -0.29018486859E+02  0.43400734823E+02  0.00000000000E+00 0.  1.
         11    1    3    3    0    0  0.27740092124E+02 -0.51506306046E+01  0.21088917055E+02  0.35224765854E+02  0.51100000000E-03 0. -1.
        -11    1    3    3    0    0 -0.19810546259E+01 -0.21619634985E+01  0.82665984303E-01  0.29335128303E+01  0.51100000000E-03 0.  1.
        -12    1    3    3    0    0  0.49805060528E+01 -0.25175465800E+01  0.78469038198E+01  0.96289864930E+01  0.00000000000E+00 0.  1.
</event>
<event>
 7    1  0.1019486E-010  0.4778727E+02  0.7816164E-02  0.1312668E+00
        -11   -1    0    0    0    0  0.00000000000E+00  0.00000000000E+00  0.45593999997E+02  0.45594000000E+02  0.51100000000E-03 0. -1.
         11   -1    0    0    0    0 -0.00000000000E+00 -0.00000000000E+00 -0.45593999997E+02  0.45594000000E+02  0.51100000000E-03 0.  1.
    9900012    2    1    2    0    0  0.11465154291E+02  0.76594013635E+01  0.41152247206E+02  0.47787266801E+02  0.19999980651E+02 0.  0.
        -12    1    1    2    0    0 -0.11465154291E+02 -0.76594013635E+01 -0.41152247206E+02  0.43400733199E+02  0.00000000000E+00 0.  1.
         11    1    3    3    0    0  0.82371971492E+01  0.59404178172E+01  0.33206082124E+02  0.34724398785E+02  0.51100000000E-03 0. -1.
        -11    1    3    3    0    0  0.57564362140E+01 -0.15803845036E+01  0.32706457838E+01  0.68067097169E+01  0.51100000000E-03 0.  1.
         12    1    3    3    0    0 -0.25284790725E+01  0.32993680499E+01  0.46755192983E+01  0.62561582987E+01  0.00000000000E+00 0. -1.
</event>
<event>
 7    1  0.1019486E-010  0.4778727E+02  0.7816164E-02  0.1312668E+00
        -11   -1    0    0    0    0  0.00000000000E+00  0.00000000000E+00  0.45593999997E+02  0.45594000000E+02  0.51100000000E-03 0. -1.
         11   -1    0    0    0    0 -0.00000000000E+00 -0.00000000000E+00 -0.45593999997E+02  0.45594000000E+02  0.51100000000E-03 0.  1.
    9900012    2    1    2    0    0 -0.67799423702E+00 -0.28272333387E+02 -0.32921707600E+02  0.47787270253E+02  0.19999996391E+02 0.  0.
         12    1    1    2    0    0  0.67799423702E+00  0.28272333387E+02  0.32921707600E+02  0.43400729747E+02  0.00000000000E+00 0. -1.
         11    1    3    3    0    0 -0.92793237289E+00 -0.20963533437E+02 -0.33811998393E+02  0.39794246170E+02  0.51100000000E-03 0.  1.
        -11    1    3    3    0    0  0.32203520848E+00 -0.19642531971E+01 -0.11182272611E+01  0.22830746301E+01  0.51100000000E-03 0. -1.
         12    1    3    3    0    0 -0.72097072612E-01 -0.53445467524E+01  0.20085180545E+01  0.57099494527E+01  0.00000000000E+00 0. -1.
</event>
<event>
 7    1  0.1019486E-010  0.4778728E+02  0.7816164E-02  0.1312668E+00
        -11   -1    0    0    0    0  0.00000000000E+00  0.00000000000E+00  0.45593999997E+02  0.45594000000E+02  0.51100000000E-03 0. -1.
         11   -1    0    0    0    0 -0.00000000000E+00 -0.00000000000E+00 -0.45593999997E+02  0.45594000000E+02  0.51100000000E-03 0.  1.
    9900012    2    1    2    0    0  0.42303713148E+02  0.70718858412E+01 -0.66337368883E+01  0.47787283640E+02  0.20000057429E+02 0.  0.
         12    1    1    2    0    0 -0.42303713148E+02 -0.70718858412E+01  0.66337368883E+01  0.43400716360E+02  0.00000000000E+00 0. -1.
         11    1    3    3    0    0  0.10147493068E+02  0.27458093820E+01  0.26135516711E+01  0.10832439122E+02  0.51100000000E-03 0. -1.
        -11    1    3    3    0    0  0.25776304492E+02  0.58798182679E+01 -0.12925037518E+02  0.29428671924E+02  0.51100000000E-03 0.  1.
        -12    1    3    3    0    0  0.63799155873E+01 -0.15537418086E+01  0.36777489586E+01  0.75261725938E+01  0.00000000000E+00 0.  1.
</event>
<event>
 7    1  0.1019486E-010  0.4778727E+02  0.7816164E-02  0.1312668E+00
        -11   -1    0    0    0    0  0.00000000000E+00  0.00000000000E+00  0.45593999997E+02  0.45594000000E+02  0.51100000000E-03 0. -1.
         11   -1    0    0    0    0 -0.00000000000E+00 -0.00000000000E+00 -0.45593999997E+02  0.45594000000E+02  0.51100000000E-03 0.  1.
    9900012    2    1    2    0    0 -0.43955568651E+01 -0.68433646379E+01  0.42631801932E+02  0.47787273097E+02  0.20000009358E+02 0.  0.
        -12    1    1    2    0    0  0.43955568651E+01  0.68433646379E+01 -0.42631801932E+02  0.43400726903E+02  0.00000000000E+00 0.  1.
         11    1    3    3    0    0 -0.55018746942E+00 -0.20249703286E+01  0.45821456860E+01  0.50397688868E+01  0.51100000000E-03 0. -1.
        -11    1    3    3    0    0 -0.24010319679E+01 -0.61579038329E+01  0.39657657737E+02  0.40204658331E+02  0.51100000000E-03 0.  1.
        -12    1    3    3    0    0 -0.14443374278E+01  0.13395095236E+01 -0.16080014903E+01  0.25428458785E+01  0.00000000000E+00 0.  1.
</event>
<event>
 7    1  0.1019486E-010  0.4778727E+02  0.7816164E-02  0.1312668E+00
        -11   -1    0    0    0    0  0.00000000000E+00  0.00000000000E+00  0.45593999997E+02  0.45594000000E+02  0.51100000000E-03 0.  1.
         11   -1    0    0    0    0 -0.00000000000E+00 -0.00000000000E+00 -0.45593999997E+02  0.45594000000E+02  0.51100000000E-03 0. -1.
    9900012    2    1    2    0    0 -0.80954133614E+01 -0.42555228623E+02 -0.26721633546E+01  0.47787266624E+02  0.19999979843E+02 0.  0.
        -12    1    1    2    0    0  0.80954133614E+01  0.42555228623E+02  0.26721633546E+01  0.43400733376E+02  0.00000000000E+00 0.  1.
         11    1    3    3    0    0 -0.95577708054E+01 -0.21046858151E+02 -0.52951019768E+01  0.23714116598E+02  0.51100000000E-03 0. -1.
        -11    1    3    3    0    0  0.28942452744E+01 -0.22028818770E+02  0.16803140576E+01  0.22281583599E+02  0.51100000000E-03 0.  1.
        -12    1    3    3    0    0 -0.14318878304E+01  0.52044829843E+00  0.94262456469E+00  0.17915664264E+01  0.00000000000E+00 0.  1.
</event>
<event>
 7    1  0.1019486E-010  0.4778727E+02  0.7816164E-02  0.1312668E+00
        -11   -1    0    0    0    0  0.00000000000E+00  0.00000000000E+00  0.45593999997E+02  0.45594000000E+02  0.51100000000E-03 0. -1.
         11   -1    0    0    0    0 -0.00000000000E+00 -0.00000000000E+00 -0.45593999997E+02  0.45594000000E+02  0.51100000000E-03 0.  1.
    9900012    2    1    2    0    0  0.55856783003E+01 -0.27644412586E+02  0.32988022508E+02  0.47787274449E+02  0.20000015525E+02 0.  0.
        -12    1    1    2    0    0 -0.55856783003E+01  0.27644412586E+02 -0.32988022508E+02  0.43400725551E+02  0.00000000000E+00 0.  1.
         11    1    3    3    0    0  0.26891916983E+01 -0.60849806254E+01  0.12941547996E+02  0.14551371276E+02  0.51100000000E-03 0. -1.
        -11    1    3    3    0    0 -0.41883169181E+01 -0.51154263302E+00  0.42018977046E+01  0.59547979859E+01  0.51100000000E-03 0.  1.
        -12    1    3    3    0    0  0.70848035200E+01 -0.21047889327E+02  0.15844576807E+02  0.27281105188E+02  0.00000000000E+00 0.  1.
</event>
<event>
 7    1  0.1108801E-010  0.4778728E+02  0.7816164E-02  0.1312668E+00
        -11   -1    0    0    0    0  0.00000000000E+00  0.00000000000E+00  0.45593999997E+02  0.45594000000E+02  0.51100000000E-03 0. -1.
         11   -1    0    0    0    0 -0.00000000000E+00 -0.00000000000E+00 -0.45593999997E+02  0.45594000000E+02  0.51100000000E-03 0.  1.
    9900012    2    1    2    0    0 -0.14356032445E+02 -0.22006121501E+02 -0.34543560129E+02  0.47787278837E+02  0.20000035529E+02 0.  0.
         12    1    1    2    0    0  0.14356032445E+02  0.22006121501E+02  0.34543560129E+02  0.43400721163E+02  0.00000000000E+00 0. -1.
         11    1    3    3    0    0 -0.15286111685E+02 -0.10932630610E+02 -0.19312531882E+02  0.26947384112E+02  0.51100000000E-03 0. -1.
        -11    1    3    3    0    0 -0.35254117653E+01 -0.77009523923E+01 -0.75845094403E+01  0.11369167937E+02  0.51100000000E-03 0.  1.
         12    1    3    3    0    0  0.44554910061E+01 -0.33725384983E+01 -0.76465188073E+01  0.94707267883E+01  0.00000000000E+00 0. -1.
</event>
<event>
 7    1  0.1019486E-010  0.4778725E+02  0.7816164E-02  0.1312668E+00
        -11   -1    0    0    0    0  0.00000000000E+00  0.00000000000E+00  0.45593999997E+02  0.45594000000E+02  0.51100000000E-03 0. -1.
         11   -1    0    0    0    0 -0.00000000000E+00 -0.00000000000E+00 -0.45593999997E+02  0.45594000000E+02  0.51100000000E-03 0.  1.
    9900012    2    1    2    0    0 -0.14480303160E+02  0.25200117220E+02  0.32231971050E+02  0.47787250637E+02  0.19999906953E+02 0.  0.
        -12    1    1    2    0    0  0.14480303160E+02 -0.25200117220E+02 -0.32231971050E+02  0.43400749363E+02  0.00000000000E+00 0.  1.
         11    1    3    3    0    0 -0.24377498736E+01  0.27918990477E+00  0.63345854013E+01  0.67931983570E+01  0.51100000000E-03 0. -1.
        -11    1    3    3    0    0  0.94469365597E+00  0.16891200566E+01 -0.17559092878E+01  0.26131954304E+01  0.51100000000E-03 0.  1.
        -12    1    3    3    0    0 -0.12987246943E+02  0.23231807259E+02  0.27653294937E+02  0.38380856849E+02  0.00000000000E+00 0.  1.
</event>
<event>
 7    1  0.1019486E-010  0.4778727E+02  0.7816164E-02  0.1312668E+00
        -11   -1    0    0    0    0  0.00000000000E+00  0.00000000000E+00  0.45593999997E+02  0.45594000000E+02  0.51100000000E-03 0. -1.
         11   -1    0    0    0    0 -0.00000000000E+00 -0.00000000000E+00 -0.45593999997E+02  0.45594000000E+02  0.51100000000E-03 0.  1.
    9900012    2    1    2    0    0 -0.11782496479E+02  0.14772638019E+02 -0.39071290484E+02  0.47787265013E+02  0.19999972500E+02 0.  0.
         12    1    1    2    0    0  0.11782496479E+02 -0.14772638019E+02  0.39071290484E+02  0.43400734987E+02  0.00000000000E+00 0. -1.
         11    1    3    3    0    0 -0.13940646915E+02  0.69751754927E+01 -0.28213885198E+02  0.32233802564E+02  0.51100000000E-03 0. -1.
        -11    1    3    3    0    0  0.22827923727E+01 -0.75855754946E+00 -0.13346645211E+01  0.27509780475E+01  0.51100000000E-03 0.  1.
         12    1    3    3    0    0 -0.12464193709E+00  0.85560200758E+01 -0.95227407655E+01  0.12802484401E+02  0.00000000000E+00 0. -1.
</event>
<event>
 7    1  0.1019486E-010  0.4778727E+02  0.7816164E-02  0.1312668E+00
        -11   -1    0    0    0    0  0.00000000000E+00  0.00000000000E+00  0.45593999997E+02  0.45594000000E+02  0.51100000000E-03 0. -1.
         11   -1    0    0    0    0 -0.00000000000E+00 -0.00000000000E+00 -0.45593999997E+02  0.45594000000E+02  0.51100000000E-03 0.  1.
    9900012    2    1    2    0    0 -0.58529884218E+00  0.13963333815E+02 -0.41088998661E+02  0.47787273313E+02  0.20000010345E+02 0.  0.
         12    1    1    2    0    0  0.58529884218E+00 -0.13963333815E+02  0.41088998661E+02  0.43400726687E+02  0.00000000000E+00 0. -1.
         11    1    3    3    0    0 -0.36834588252E+00  0.73439113149E+00 -0.11940937594E+02  0.11969168723E+02  0.51100000000E-03 0. -1.
        -11    1    3    3    0    0  0.27466677794E+01  0.14133034110E+02 -0.29372714890E+02  0.32711515057E+02  0.51100000000E-03 0.  1.
        -12    1    3    3    0    0 -0.29636207391E+01 -0.90409142584E+00  0.22465382352E+00  0.31065895339E+01  0.00000000000E+00 0.  1.
</event>
<event>
 7    1  0.1019486E-010  0.4778725E+02  0.7816164E-02  0.1312668E+00
        -11   -1    0    0    0    0  0.00000000000E+00  0.00000000000E+00  0.45593999997E+02  0.45594000000E+02  0.51100000000E-03 0. -1.
         11   -1    0    0    0    0 -0.00000000000E+00 -0.00000000000E+00 -0.45593999997E+02  0.45594000000E+02  0.51100000000E-03 0.  1.
    9900012    2    1    2    0    0  0.29725347777E+02 -0.25370246902E+02  0.18878021412E+02  0.47787246311E+02  0.19999887229E+02 0.  0.
        -12    1    1    2    0    0 -0.29725347777E+02  0.25370246902E+02 -0.18878021412E+02  0.43400753689E+02  0.00000000000E+00 0.  1.
         11    1    3    3    0    0  0.95405214375E+01  0.76887378393E+00  0.59263017720E+01  0.11257609389E+02  0.51100000000E-03 0. -1.
        -11    1    3    3    0    0  0.17903545504E+02 -0.25596232281E+02  0.13641786467E+02  0.34085222411E+02  0.51100000000E-03 0.  1.
        -12    1    3    3    0    0  0.22812808361E+01 -0.54288840554E+00 -0.69006682672E+00  0.24444145105E+01  0.00000000000E+00 0.  1.
</event>
<event>
 7    1  0.1019486E-010  0.4778727E+02  0.7816164E-02  0.1312668E+00
        -11   -1    0    0    0    0  0.00000000000E+00  0.00000000000E+00  0.45593999997E+02  0.45594000000E+02  0.51100000000E-03 0. -1.
         11   -1    0    0    0    0 -0.00000000000E+00 -0.00000000000E+00 -0.45593999997E+02  0.45594000000E+02  0.51100000000E-03 0.  1.
    9900012    2    1    2    0    0 -0.38503643773E+02 -0.16777680281E+02  0.10936289676E+02  0.47787267618E+02  0.19999984379E+02 0.  0.
        -12    1    1    2    0    0  0.38503643773E+02  0.16777680281E+02 -0.10936289676E+02  0.43400732382E+02  0.00000000000E+00 0.  1.
         11    1    3    3    0    0 -0.15943743883E+02 -0.48458854522E+01 -0.36800298853E+01  0.17065409314E+02  0.51100000000E-03 0. -1.
        -11    1    3    3    0    0 -0.57661521941E+01 -0.18614326821E+00  0.40591909948E+00  0.57834186273E+01  0.51100000000E-03 0.  1.
         12    1    3    3    0    0 -0.16793747695E+02 -0.11745651561E+02  0.14210400462E+02  0.24938439677E+02  0.00000000000E+00 0. -1.
</event>
<event>
 7    1  0.1019486E-010  0.4778727E+02  0.7816164E-02  0.1312668E+00
        -11   -1    0    0    0    0  0.00000000000E+00  0.00000000000E+00  0.45593999997E+02  0.45594000000E+02  0.51100000000E-03 0. -1.
         11   -1    0    0    0    0 -0.00000000000E+00 -0.00000000000E+00 -0.45593999997E+02  0.45594000000E+02  0.51100000000E-03 0.  1.
    9900012    2    1    2    0    0  0.17808772944E+02 -0.25804949051E+02 -0.30009590878E+02  0.47787270352E+02  0.19999996843E+02 0.  0.
         12    1    1    2    0    0 -0.17808772944E+02  0.25804949051E+02  0.30009590878E+02  0.43400729648E+02  0.00000000000E+00 0. -1.
         11    1    3    3    0    0  0.14321214585E+02 -0.60008595885E+01 -0.11557836820E+02  0.19356939200E+02  0.51100000000E-03 0. -1.
        -11    1    3    3    0    0 -0.14818141515E+00 -0.17092273120E+02 -0.14507119795E+02  0.22419283735E+02  0.51100000000E-03 0.  1.
        -12    1    3    3    0    0  0.36357397744E+01 -0.27118163422E+01 -0.39446342632E+01  0.60110474172E+01  0.00000000000E+00 0.  1.
</event>
<event>
 7    1  0.1019486E-010  0.4778731E+02  0.7816164E-02  0.1312668E+00
        -11   -1    0    0    0    0  0.00000000000E+00  0.00000000000E+00  0.45593999997E+02  0.45594000000E+02  0.51100000000E-03 0.  1.
         11   -1    0    0    0    0 -0.00000000000E+00 -0.00000000000E+00 -0.45593999997E+02  0.45594000000E+02  0.51100000000E-03 0. -1.
    9900012    2    1    2    0    0 -0.28474263858E+02 -0.72170368868E+01  0.31949181702E+02  0.47787314117E+02  0.20000196383E+02 0.  0.
        -12    1    1    2    0    0  0.28474263858E+02  0.72170368868E+01 -0.31949181702E+02  0.43400685883E+02  0.00000000000E+00 0.  1.
         11    1    3    3    0    0 -0.84350897379E+01 -0.55977599373E+00  0.73098482387E+01  0.11175776017E+02  0.51100000000E-03 0. -1.
        -11    1    3    3    0    0 -0.12366912751E+02 -0.73950868907E+01  0.45757278017E+01  0.15118370491E+02  0.51100000000E-03 0.  1.
        -12    1    3    3    0    0 -0.76722613688E+01  0.73782599754E+00  0.20063605662E+02  0.21493167609E+02  0.00000000000E+00 0.  1.
</event>
<event>
 7    1  0.1019486E-010  0.4778727E+02  0.7816164E-02  0.1312668E+00
        -11   -1    0    0    0    0  0.00000000000E+00  0.00000000000E+00  0.45593999997E+02  0.45594000000E+02  0.51100000000E-03 0. -1.
         11   -1    0    0    0    0 -0.00000000000E+00 -0.00000000000E+00 -0.45593999997E+02  0.45594000000E+02  0.51100000000E-03 0.  1.
    9900012    2    1    2    0    0  0.15472315959E+02 -0.37434345136E+02  0.15585259810E+02  0.47787273275E+02  0.20000010171E+02 0.  0.
        -12    1    1    2    0    0 -0.15472315959E+02  0.37434345136E+02 -0.15585259810E+02  0.43400726725E+02  0.00000000000E+00 0.  1.
         11    1    3    3    0    0  0.62868962966E+01 -0.80460161940E+01  0.12729328115E+02  0.16318677525E+02  0.51100000000E-03 0. -1.
        -11    1    3    3    0    0  0.58635333946E+01 -0.25690502456E+02  0.27781271981E+01  0.26497187233E+02  0.51100000000E-03 0.  1.
        -12    1    3    3    0    0  0.33218862682E+01 -0.36978264864E+01  0.77804496475E-01  0.49714085169E+01  0.00000000000E+00 0.  1.
</event>
<event>
 7    1  0.1019486E-010  0.4778727E+02  0.7816164E-02  0.1312668E+00
        -11   -1    0    0    0    0  0.00000000000E+00  0.00000000000E+00  0.45593999997E+02  0.45594000000E+02  0.51100000000E-03 0.  1.
         11   -1    0    0    0    0 -0.00000000000E+00 -0.00000000000E+00 -0.45593999997E+02  0.45594000000E+02  0.51100000000E-03 0. -1.
    9900012    2    1    2    0    0 -0.13238332698E+02  0.41150005722E+02  0.38790501343E+01  0.47787268975E+02  0.19999990563E+02 0.  0.
        -12    1    1    2    0    0  0.13238332698E+02 -0.41150005722E+02 -0.38790501343E+01  0.43400731025E+02  0.00000000000E+00 0.  1.
         11    1    3    3    0    0 -0.10347021650E+02  0.29669124602E+02 -0.52075870025E+01  0.31850224086E+02  0.51100000000E-03 0. -1.
        -11    1    3    3    0    0 -0.30859181559E+01  0.35759102113E+01  0.55128433025E+01  0.72595775527E+01  0.51100000000E-03 0.  1.
         12    1    3    3    0    0  0.19460710739E+00  0.79049709090E+01  0.35737938343E+01  0.86774673361E+01  0.00000000000E+00 0. -1.
</event>
<event>
 7    1  0.1019486E-010  0.4778727E+02  0.7816164E-02  0.1312668E+00
        -11   -1    0    0    0    0  0.00000000000E+00  0.00000000000E+00  0.45593999997E+02  0.45594000000E+02  0.51100000000E-03 0. -1.
         11   -1    0    0    0    0 -0.00000000000E+00 -0.00000000000E+00 -0.45593999997E+02  0.45594000000E+02  0.51100000000E-03 0.  1.
    9900012    2    1    2    0    0 -0.21502074867E+02 -0.35658855811E+01  0.37530903662E+02  0.47787268517E+02  0.19999988478E+02 0.  0.
        -12    1    1    2    0    0  0.21502074867E+02  0.35658855811E+01 -0.37530903662E+02  0.43400731483E+02  0.00000000000E+00 0.  1.
         11    1    3    3    0    0 -0.62331230985E+01  0.17693845607E+01  0.66050187082E+01  0.92525033197E+01  0.51100000000E-03 0. -1.
        -11    1    3    3    0    0 -0.17113151261E+02 -0.75758989211E+01  0.30223883816E+02  0.35549083585E+02  0.51100000000E-03 0.  1.
        -12    1    3    3    0    0  0.18441994928E+01  0.22406287794E+01  0.70200113822E+00  0.29856816130E+01  0.00000000000E+00 0.  1.
</event>
<event>
 7    1  0.1019486E-010  0.4778729E+02  0.7816164E-02  0.1312668E+00
        -11   -1    0    0    0    0  0.00000000000E+00  0.00000000000E+00  0.45593999997E+02  0.45594000000E+02  0.51100000000E-03 0. -1.
         11   -1    0    0    0    0 -0.00000000000E+00 -0.00000000000E+00 -0.45593999997E+02  0.45594000000E+02  0.51100000000E-03 0.  1.
    9900012    2    1    2    0    0 -0.77707356792E+01 -0.21578445339E+02 -0.36845728993E+02  0.47787292848E+02  0.20000099412E+02 0.  0.
         12    1    1    2    0    0  0.77707356792E+01  0.21578445339E+02  0.36845728993E+02  0.43400707152E+02  0.00000000000E+00 0. -1.
         11    1    3    3    0    0 -0.76932824686E+01 -0.11858294947E+02 -0.12993022766E+02  0.19199593617E+02  0.51100000000E-03 0. -1.
        -11    1    3    3    0    0  0.53681809835E+01 -0.18704376512E+01 -0.55666734204E+01  0.79563658355E+01  0.51100000000E-03 0.  1.
        -12    1    3    3    0    0 -0.54456341941E+01 -0.78497127407E+01 -0.18286032807E+02  0.20631333396E+02  0.00000000000E+00 0.  1.
</event>
<event>
 7    1  0.1019486E-010  0.4778727E+02  0.7816164E-02  0.1312668E+00
        -11   -1    0    0    0    0  0.00000000000E+00  0.00000000000E+00  0.45593999997E+02  0.45594000000E+02  0.51100000000E-03 0. -1.
         11   -1    0    0    0    0 -0.00000000000E+00 -0.00000000000E+00 -0.45593999997E+02  0.45594000000E+02  0.51100000000E-03 0.  1.
    9900012    2    1    2    0    0  0.12909853380E+02  0.36283869556E+01  0.41277036039E+02  0.47787271776E+02  0.20000003335E+02 0.  0.
        -12    1    1    2    0    0 -0.12909853380E+02 -0.36283869556E+01 -0.41277036039E+02  0.43400728224E+02  0.00000000000E+00 0.  1.
         11    1    3    3    0    0  0.14133906611E+02 -0.29153580080E+00  0.19698583676E+02  0.24246371033E+02  0.51100000000E-03 0. -1.
        -11    1    3    3    0    0 -0.33051297402E+01  0.33575303282E+01  0.20672447981E+02  0.21202523395E+02  0.51100000000E-03 0.  1.
         12    1    3    3    0    0  0.20810765090E+01  0.56239242819E+00  0.90600438276E+00  0.23383773479E+01  0.00000000000E+00 0. -1.
</event>
<event>
 7    1  0.1019486E-010  0.4778727E+02  0.7816164E-02  0.1312668E+00
        -11   -1    0    0    0    0  0.00000000000E+00  0.00000000000E+00  0.45593999997E+02  0.45594000000E+02  0.51100000000E-03 0. -1.
         11   -1    0    0    0    0 -0.00000000000E+00 -0.00000000000E+00 -0.45593999997E+02  0.45594000000E+02  0.51100000000E-03 0.  1.
    9900012    2    1    2    0    0  0.14433540319E+02 -0.15353541386E+02 -0.37941598927E+02  0.47787271338E+02  0.20000001338E+02 0.  0.
         12    1    1    2    0    0 -0.14433540319E+02  0.15353541386E+02  0.37941598927E+02  0.43400728662E+02  0.00000000000E+00 0. -1.
         11    1    3    3    0    0  0.11912081382E+02 -0.12478942046E+02 -0.14765675706E+02  0.22707858920E+02  0.51100000000E-03 0. -1.
        -11    1    3    3    0    0  0.48564806210E+01  0.10587363965E+01 -0.13198102730E+02  0.14103057920E+02  0.51100000000E-03 0.  1.
         12    1    3    3    0    0 -0.23350216837E+01 -0.39333357365E+01 -0.99778204916E+01  0.10976354497E+02  0.00000000000E+00 0. -1.
</event>
<event>
 7    1  0.1019486E-010  0.4778726E+02  0.7816164E-02  0.1312668E+00
        -11   -1    0    0    0    0  0.00000000000E+00  0.00000000000E+00  0.45593999997E+02  0.45594000000E+02  0.51100000000E-03 0. -1.
         11   -1    0    0    0    0 -0.00000000000E+00 -0.00000000000E+00 -0.45593999997E+02  0.45594000000E+02  0.51100000000E-03 0.  1.
    9900012    2    1    2    0    0 -0.36112247500E+02  0.16271659975E+02  0.17741552452E+02  0.47787262434E+02  0.19999960741E+02 0.  0.
        -12    1    1    2    0    0  0.36112247500E+02 -0.16271659975E+02 -0.17741552452E+02  0.43400737566E+02  0.00000000000E+00 0.  1.
         11    1    3    3    0    0 -0.13563364604E+02  0.82265172726E+01  0.15540497449E+02  0.22206924754E+02  0.51100000000E-03 0. -1.
        -11    1    3    3    0    0 -0.20569101239E+02  0.98345456130E+01  0.22606253526E+01  0.22911059348E+02  0.51100000000E-03 0.  1.
         12    1    3    3    0    0 -0.19797816578E+01 -0.17894029105E+01 -0.59570349677E-01  0.26692783323E+01  0.00000000000E+00 0. -1.
</event>
<event>
 7    1  0.1019486E-010  0.4778727E+02  0.7816164E-02  0.1312668E+00
        -11   -1    0    0    0    0  0.00000000000E+00  0.00000000000E+00  0.45593999997E+02  0.45594000000E+02  0.51100000000E-03 0.  1.
         11   -1    0    0    0    0 -0.00000000000E+00 -0.00000000000E+00 -0.45593999997E+02  0.45594000000E+02  0.51100000000E-03 0. -1.
    9900012    2    1    2    0    0  0.40346180553E+02  0.15869653101E+02  0.19907806797E+01  0.47787269794E+02  0.19999994297E+02 0.  0.
        -12    1    1    2    0    0 -0.40346180553E+02 -0.15869653101E+02 -0.19907806797E+01  0.43400730206E+02  0.00000000000E+00 0.  1.
         11    1    3    3    0    0  0.17178828215E+02 -0.15391232280E+01  0.33998998257E+00  0.17250989323E+02  0.51100000000E-03 0. -1.
        -11    1    3    3    0    0  0.63019420235E+01  0.25462889995E+01  0.40772466824E+01  0.79260331634E+01  0.51100000000E-03 0.  1.
         12    1    3    3    0    0  0.16865410314E+02  0.14862487329E+02 -0.24264559853E+01  0.22610247308E+02  0.00000000000E+00 0. -1.
</event>
<event>
 7    1  0.1019486E-010  0.4778727E+02  0.7816164E-02  0.1312668E+00
        -11   -1    0    0    0    0  0.00000000000E+00  0.00000000000E+00  0.45593999997E+02  0.45594000000E+02  0.51100000000E-03 0. -1.
         11   -1    0    0    0    0 -0.00000000000E+00 -0.00000000000E+00 -0.45593999997E+02  0.45594000000E+02  0.51100000000E-03 0.  1.
    9900012    2    1    2    0    0 -0.46793829149E+01 -0.39694185673E+02 -0.16914438294E+02  0.47787271625E+02  0.20000002647E+02 0.  0.
         12    1    1    2    0    0  0.46793829149E+01  0.39694185673E+02  0.16914438294E+02  0.43400728375E+02  0.00000000000E+00 0. -1.
         11    1    3    3    0    0  0.37708978729E+01 -0.17204700399E+02  0.65966551305E+00  0.17625451638E+02  0.51100000000E-03 0. -1.
        -11    1    3    3    0    0 -0.35999902748E+01 -0.85544203046E+01 -0.97484704729E+01  0.13459967071E+02  0.51100000000E-03 0.  1.
         12    1    3    3    0    0 -0.48502905130E+01 -0.13935064969E+02 -0.78256333345E+01  0.16701852916E+02  0.00000000000E+00 0. -1.
</event>
<event>
 7    1  0.1019486E-010  0.4778727E+02  0.7816164E-02  0.1312668E+00
        -11   -1    0    0    0    0  0.00000000000E+00  0.00000000000E+00  0.45593999997E+02  0.45594000000E+02  0.51100000000E-03 0. -1.
         11   -1    0    0    0    0 -0.00000000000E+00 -0.00000000000E+00 -0.45593999997E+02  0.45594000000E+02  0.51100000000E-03 0.  1.
    9900012    2    1    2    0    0  0.22369859762E+02  0.26347446667E+02 -0.26249286756E+02  0.47787266978E+02  0.19999981460E+02 0.  0.
         12    1    1    2    0    0 -0.22369859762E+02 -0.26347446667E+02  0.26249286756E+02  0.43400733022E+02  0.00000000000E+00 0. -1.
         11    1    3    3    0    0 -0.92006664334E+00 -0.10635432689E+01  0.47228969301E+00  0.14834772422E+01  0.51100000000E-03 0. -1.
        -11    1    3    3    0    0  0.25313431286E+01  0.43486806035E+01 -0.96639359126E+01  0.10895429253E+02  0.51100000000E-03 0.  1.
         12    1    3    3    0    0  0.20758583277E+02  0.23062309332E+02 -0.17057640536E+02  0.35408360483E+02  0.00000000000E+00 0. -1.
</event>
<event>
 7    1  0.1542822E-010  0.4778727E+02  0.7816164E-02  0.1312668E+00
        -11   -1    0    0    0    0  0.00000000000E+00  0.00000000000E+00  0.45593999997E+02  0.45594000000E+02  0.51100000000E-03 0. -1.
         11   -1    0    0    0    0 -0.00000000000E+00 -0.00000000000E+00 -0.45593999997E+02  0.45594000000E+02  0.51100000000E-03 0.  1.
    9900012    2    1    2    0    0 -0.16264569013E+02  0.53727903689E+01 -0.39877567077E+02  0.47787269160E+02  0.19999991406E+02 0.  0.
         12    1    1    2    0    0  0.16264569013E+02 -0.53727903689E+01  0.39877567077E+02  0.43400730840E+02  0.00000000000E+00 0. -1.
         11    1    3    3    0    0  0.38968603616E+01  0.15306035090E+01 -0.25384038441E+01  0.48960966204E+01  0.51100000000E-03 0. -1.
        -11    1    3    3    0    0 -0.12816822604E+02  0.47464400530E+01 -0.25430543855E+02  0.28870611283E+02  0.51100000000E-03 0.  1.
         12    1    3    3    0    0 -0.73446067712E+01 -0.90425319312E+00 -0.11908619378E+02  0.14020561256E+02  0.00000000000E+00 0. -1.
</event>
<event>
 7    1  0.1019486E-010  0.4778727E+02  0.7816164E-02  0.1312668E+00
        -11   -1    0    0    0    0  0.00000000000E+00  0.00000000000E+00  0.45593999997E+02  0.45594000000E+02  0.51100000000E-03 0. -1.
         11   -1    0    0    0    0 -0.00000000000E+00 -0.00000000000E+00 -0.45593999997E+02  0.45594000000E+02  0.51100000000E-03 0.  1.
    9900012    2    1    2    0    0 -0.71722824121E+01  0.21196174632E+02 -0.37187414459E+02  0.47787271341E+02  0.20000001351E+02 0.  0.
         12    1    1    2    0    0  0.71722824121E+01 -0.21196174632E+02  0.37187414459E+02  0.43400728659E+02  0.00000000000E+00 0. -1.
         11    1    3    3    0    0 -0.87295761692E+01  0.19677129995E+02 -0.18064238138E+02  0.28101808566E+02  0.51100000000E-03 0. -1.
        -11    1    3    3    0    0 -0.62082168139E+00  0.79966267223E-01 -0.13172134229E+02  0.13186998694E+02  0.51100000000E-03 0.  1.
         12    1    3    3    0    0  0.21781154385E+01  0.14390783698E+01 -0.59510420921E+01  0.64984640801E+01  0.00000000000E+00 0. -1.
</event>
<event>
 7    1  0.1019486E-010  0.4778727E+02  0.7816164E-02  0.1312668E+00
        -11   -1    0    0    0    0  0.00000000000E+00  0.00000000000E+00  0.45593999997E+02  0.45594000000E+02  0.51100000000E-03 0.  1.
         11   -1    0    0    0    0 -0.00000000000E+00 -0.00000000000E+00 -0.45593999997E+02  0.45594000000E+02  0.51100000000E-03 0. -1.
    9900012    2    1    2    0    0 -0.13594361674E+02  0.29863704444E+02 -0.28407318268E+02  0.47787271393E+02  0.20000001589E+02 0.  0.
         12    1    1    2    0    0  0.13594361674E+02 -0.29863704444E+02  0.28407318268E+02  0.43400728607E+02  0.00000000000E+00 0. -1.
         11    1    3    3    0    0  0.95054263766E+00  0.21604834715E+01 -0.63935185759E+01  0.68152989794E+01  0.51100000000E-03 0. -1.
        -11    1    3    3    0    0  0.21286614307E+01  0.92901773533E+01 -0.80507263943E+01  0.12476088749E+02  0.51100000000E-03 0.  1.
        -12    1    3    3    0    0 -0.16673565743E+02  0.18413043619E+02 -0.13963073298E+02  0.28495883664E+02  0.00000000000E+00 0.  1.
</event>
<event>
 7    1  0.1019486E-010  0.4778727E+02  0.7816164E-02  0.1312668E+00
        -11   -1    0    0    0    0  0.00000000000E+00  0.00000000000E+00  0.45593999997E+02  0.45594000000E+02  0.51100000000E-03 0. -1.
         11   -1    0    0    0    0 -0.00000000000E+00 -0.00000000000E+00 -0.45593999997E+02  0.45594000000E+02  0.51100000000E-03 0.  1.
    9900012    2    1    2    0    0  0.29633462329E+01 -0.34525623174E+02  0.26130888721E+02  0.47787269340E+02  0.19999992230E+02 0.  0.
        -12    1    1    2    0    0 -0.29633462329E+01  0.34525623174E+02 -0.26130888721E+02  0.43400730660E+02  0.00000000000E+00 0.  1.
         11    1    3    3    0    0 -0.29659568088E+01 -0.80685020660E+01  0.55477515874E+01  0.10231088570E+02  0.51100000000E-03 0. -1.
        -11    1    3    3    0    0 -0.31854456308E+01 -0.73633368141E+00 -0.16883137886E+00  0.32737983220E+01  0.51100000000E-03 0.  1.
        -12    1    3    3    0    0  0.91147486726E+01 -0.25720787427E+02  0.20751968512E+02  0.34282382449E+02  0.00000000000E+00 0.  1.
</event>
<event>
 7    1  0.1019486E-010  0.4778727E+02  0.7816164E-02  0.1312668E+00
        -11   -1    0    0    0    0  0.00000000000E+00  0.00000000000E+00  0.45593999997E+02  0.45594000000E+02  0.51100000000E-03 0.  1.
         11   -1    0    0    0    0 -0.00000000000E+00 -0.00000000000E+00 -0.45593999997E+02  0.45594000000E+02  0.51100000000E-03 0. -1.
    9900012    2    1    2    0    0 -0.21739930818E+02 -0.33203867726E+02  0.17564228683E+02  0.47787267827E+02  0.19999985330E+02 0.  0.
        -12    1    1    2    0    0  0.21739930818E+02  0.33203867726E+02 -0.17564228683E+02  0.43400732173E+02  0.00000000000E+00 0.  1.
         11    1    3    3    0    0 -0.11664846815E+02 -0.22462966336E+02  0.18481868706E+02  0.31340596340E+02  0.51100000000E-03 0. -1.
        -11    1    3    3    0    0 -0.64054470820E+01 -0.11000443734E+02 -0.44091940371E+00  0.12737108182E+02  0.51100000000E-03 0.  1.
         12    1    3    3    0    0 -0.36696369214E+01  0.25954234416E+00 -0.47672061938E+00  0.37095633048E+01  0.00000000000E+00 0. -1.
</event>
<event>
 7    1  0.1019486E-010  0.4778728E+02  0.7816164E-02  0.1312668E+00
        -11   -1    0    0    0    0  0.00000000000E+00  0.00000000000E+00  0.45593999997E+02  0.45594000000E+02  0.51100000000E-03 0. -1.
         11   -1    0    0    0    0 -0.00000000000E+00 -0.00000000000E+00 -0.45593999997E+02  0.45594000000E+02  0.51100000000E-03 0.  1.
    9900012    2    1    2    0    0 -0.33989650858E+02  0.56431792291E+01  0.26390917535E+02  0.47787281508E+02  0.20000047708E+02 0.  0.
        -12    1    1    2    0    0  0.33989650858E+02 -0.56431792291E+01 -0.26390917535E+02  0.43400718492E+02  0.00000000000E+00 0.  1.
         11    1    3    3    0    0 -0.20588203445E+02  0.39839115527E+01  0.10980864751E+02  0.23671186352E+02  0.51100000000E-03 0. -1.
        -11    1    3    3    0    0 -0.13173664385E+01  0.23713684948E+01  0.10844583723E+02  0.11178722613E+02  0.51100000000E-03 0.  1.
        -12    1    3    3    0    0 -0.12084080975E+02 -0.71210081845E+00  0.45654690607E+01  0.12937372544E+02  0.00000000000E+00 0.  1.
</event>
<event>
 7    1  0.1019486E-010  0.4778730E+02  0.7816164E-02  0.1312668E+00
        -11   -1    0    0    0    0  0.00000000000E+00  0.00000000000E+00  0.45593999997E+02  0.45594000000E+02  0.51100000000E-03 0. -1.
         11   -1    0    0    0    0 -0.00000000000E+00 -0.00000000000E+00 -0.45593999997E+02  0.45594000000E+02  0.51100000000E-03 0.  1.
    9900012    2    1    2    0    0 -0.24074152829E+02  0.11343754412E+02  0.34283742769E+02  0.47787301655E+02  0.20000139565E+02 0.  0.
        -12    1    1    2    0    0  0.24074152829E+02 -0.11343754412E+02 -0.34283742769E+02  0.43400698345E+02  0.00000000000E+00 0.  1.
         11    1    3    3    0    0 -0.14620830938E+02  0.38457588653E+01  0.28632631530E+02  0.32378791626E+02  0.51100000000E-03 0. -1.
        -11    1    3    3    0    0 -0.11293673551E+01  0.36315282696E+01  0.48957825183E+01  0.61993673002E+01  0.51100000000E-03 0.  1.
         12    1    3    3    0    0 -0.83239545365E+01  0.38664672766E+01  0.75532872070E+00  0.92091427290E+01  0.00000000000E+00 0. -1.
</event>
<event>
 7    1  0.1019486E-010  0.4778727E+02  0.7816164E-02  0.1312668E+00
        -11   -1    0    0    0    0  0.00000000000E+00  0.00000000000E+00  0.45593999997E+02  0.45594000000E+02  0.51100000000E-03 0. -1.
         11   -1    0    0    0    0 -0.00000000000E+00 -0.00000000000E+00 -0.45593999997E+02  0.45594000000E+02  0.51100000000E-03 0.  1.
    9900012    2    1    2    0    0 -0.11514342362E+02 -0.23645093464E+02  0.34524666069E+02  0.47787273138E+02  0.20000009546E+02 0.  0.
        -12    1    1    2    0    0  0.11514342362E+02  0.23645093464E+02 -0.34524666069E+02  0.43400726862E+02  0.00000000000E+00 0.  1.
         11    1    3    3    0    0 -0.85715733219E+01 -0.93029498331E+01  0.19291714484E+02  0.23069178416E+02  0.51100000000E-03 0. -1.
        -11    1    3    3    0    0  0.66341759167E-01 -0.36548608957E+01 -0.20387601333E+01  0.41855647813E+01  0.51100000000E-03 0.  1.
        -12    1    3    3    0    0 -0.30091107996E+01 -0.10687282735E+02  0.17271711719E+02  0.20532529940E+02  0.00000000000E+00 0.  1.
</event>
<event>
 7    1  0.1019486E-010  0.4778728E+02  0.7816164E-02  0.1312668E+00
        -11   -1    0    0    0    0  0.00000000000E+00  0.00000000000E+00  0.45593999997E+02  0.45594000000E+02  0.51100000000E-03 0. -1.
         11   -1    0    0    0    0 -0.00000000000E+00 -0.00000000000E+00 -0.45593999997E+02  0.45594000000E+02  0.51100000000E-03 0.  1.
    9900012    2    1    2    0    0 -0.13317083111E+02 -0.12579746183E+02  0.39344989336E+02  0.47787275323E+02  0.20000019509E+02 0.  0.
        -12    1    1    2    0    0  0.13317083111E+02  0.12579746183E+02 -0.39344989336E+02  0.43400724677E+02  0.00000000000E+00 0.  1.
         11    1    3    3    0    0 -0.32614926895E+01 -0.12906735398E+01  0.44280262384E+01  0.56489458645E+01  0.51100000000E-03 0. -1.
        -11    1    3    3    0    0 -0.24320537858E+00 -0.51529130167E+01  0.28383395529E+02  0.28848376097E+02  0.51100000000E-03 0.  1.
        -12    1    3    3    0    0 -0.98123850425E+01 -0.61361596264E+01  0.65335675682E+01  0.13289953362E+02  0.00000000000E+00 0.  1.
</event>
<event>
 7    1  0.1019486E-010  0.4778727E+02  0.7816164E-02  0.1312668E+00
        -11   -1    0    0    0    0  0.00000000000E+00  0.00000000000E+00  0.45593999997E+02  0.45594000000E+02  0.51100000000E-03 0. -1.
         11   -1    0    0    0    0 -0.00000000000E+00 -0.00000000000E+00 -0.45593999997E+02  0.45594000000E+02  0.51100000000E-03 0.  1.
    9900012    2    1    2    0    0 -0.24526156669E+02  0.34919181177E+02 -0.79209624939E+01  0.47787271644E+02  0.20000002733E+02 0.  0.
         12    1    1    2    0    0  0.24526156669E+02 -0.34919181177E+02  0.79209624939E+01  0.43400728356E+02  0.00000000000E+00 0. -1.
         11    1    3    3    0    0 -0.20104004157E+01  0.22208886960E+01  0.20637474279E+01  0.36377342039E+01  0.51100000000E-03 0. -1.
        -11    1    3    3    0    0 -0.40797096704E+00  0.27899690560E+01 -0.61432727253E+01  0.67594502499E+01  0.51100000000E-03 0.  1.
        -12    1    3    3    0    0 -0.22107785286E+02  0.29908323425E+02 -0.38414371965E+01  0.37390087190E+02  0.00000000000E+00 0.  1.
</event>
<event>
 7    1  0.1554081E-010  0.4778727E+02  0.7816164E-02  0.1312668E+00
        -11   -1    0    0    0    0  0.00000000000E+00  0.00000000000E+00  0.45593999997E+02  0.45594000000E+02  0.51100000000E-03 0. -1.
         11   -1    0    0    0    0 -0.00000000000E+00 -0.00000000000E+00 -0.45593999997E+02  0.45594000000E+02  0.51100000000E-03 0.  1.
    9900012    2    1    2    0    0  0.11451469411E+02  0.27249615851E+01 -0.41773934084E+02  0.47787272631E+02  0.20000007234E+02 0.  0.
         12    1    1    2    0    0 -0.11451469411E+02 -0.27249615851E+01  0.41773934084E+02  0.43400727369E+02  0.00000000000E+00 0. -1.
         11    1    3    3    0    0  0.85244008353E+01 -0.35766327862E+01 -0.79578837376E+01  0.12197771335E+02  0.51100000000E-03 0. -1.
        -11    1    3    3    0    0  0.47111473577E+01  0.31449594776E+01 -0.99482557289E+01  0.11447858833E+02  0.51100000000E-03 0.  1.
         12    1    3    3    0    0 -0.17840787818E+01  0.31566348936E+01 -0.23867794617E+02  0.24141642464E+02  0.00000000000E+00 0. -1.
</event>
<event>
 7    1  0.1019486E-010  0.4778727E+02  0.7816164E-02  0.1312668E+00
        -11   -1    0    0    0    0  0.00000000000E+00  0.00000000000E+00  0.45593999997E+02  0.45594000000E+02  0.51100000000E-03 0. -1.
         11   -1    0    0    0    0 -0.00000000000E+00 -0.00000000000E+00 -0.45593999997E+02  0.45594000000E+02  0.51100000000E-03 0.  1.
    9900012    2    1    2    0    0  0.55358297650E+01 -0.36358825701E+02  0.23043734283E+02  0.47787270660E+02  0.19999998245E+02 0.  0.
        -12    1    1    2    0    0 -0.55358297650E+01  0.36358825701E+02 -0.23043734283E+02  0.43400729340E+02  0.00000000000E+00 0.  1.
         11    1    3    3    0    0  0.84189039402E+01 -0.25023794153E+02  0.21453003886E+02  0.34019106298E+02  0.51100000000E-03 0. -1.
        -11    1    3    3    0    0 -0.24469865345E+01 -0.11013474632E+02 -0.80615432546E+00  0.11310802431E+02  0.51100000000E-03 0.  1.
        -12    1    3    3    0    0 -0.43608764063E+00 -0.32155691636E+00  0.23968847230E+01  0.24573619302E+01  0.00000000000E+00 0.  1.
</event>
<event>
 7    1  0.1019486E-010  0.4778731E+02  0.7816164E-02  0.1312668E+00
        -11   -1    0    0    0    0  0.00000000000E+00  0.00000000000E+00  0.45593999997E+02  0.45594000000E+02  0.51100000000E-03 0. -1.
         11   -1    0    0    0    0 -0.00000000000E+00 -0.00000000000E+00 -0.45593999997E+02  0.45594000000E+02  0.51100000000E-03 0.  1.
    9900012    2    1    2    0    0 -0.80131493901E+01 -0.30416569058E+02 -0.29903872228E+02  0.47787310942E+02  0.20000181910E+02 0.  0.
         12    1    1    2    0    0  0.80131493901E+01  0.30416569058E+02  0.29903872228E+02  0.43400689058E+02  0.00000000000E+00 0. -1.
         11    1    3    3    0    0 -0.13710375196E+01 -0.70681656938E+00  0.71263095139E+00  0.16991694079E+01  0.51100000000E-03 0. -1.
        -11    1    3    3    0    0 -0.51564054809E+01 -0.66797188673E+01 -0.93435118738E+00  0.84900043600E+01  0.51100000000E-03 0.  1.
        -12    1    3    3    0    0 -0.14857063896E+01 -0.23030033622E+02 -0.29682151992E+02  0.37598137174E+02  0.00000000000E+00 0.  1.
</event>
<event>
 7    1  0.1019486E-010  0.4778727E+02  0.7816164E-02  0.1312668E+00
        -11   -1    0    0    0    0  0.00000000000E+00  0.00000000000E+00  0.45593999997E+02  0.45594000000E+02  0.51100000000E-03 0. -1.
         11   -1    0    0    0    0 -0.00000000000E+00 -0.00000000000E+00 -0.45593999997E+02  0.45594000000E+02  0.51100000000E-03 0.  1.
    9900012    2    1    2    0    0 -0.64036334649E+01 -0.65683650321E+01  0.42420197572E+02  0.47787273015E+02  0.20000008984E+02 0.  0.
        -12    1    1    2    0    0  0.64036334649E+01  0.65683650321E+01 -0.42420197572E+02  0.43400726985E+02  0.00000000000E+00 0.  1.
         11    1    3    3    0    0 -0.72242162484E+01 -0.47877672793E+01  0.12685079293E+02  0.15363048293E+02  0.51100000000E-03 0. -1.
        -11    1    3    3    0    0  0.21415735173E+01  0.18347812867E+01  0.28101679751E+02  0.28242825011E+02  0.51100000000E-03 0.  1.
        -12    1    3    3    0    0 -0.13209907337E+01 -0.36153790395E+01  0.16334385287E+01  0.41813997112E+01  0.00000000000E+00 0.  1.
</event>
<event>
 7    1  0.1019486E-010  0.4778727E+02  0.7816164E-02  0.1312668E+00
        -11   -1    0    0    0    0  0.00000000000E+00  0.00000000000E+00  0.45593999997E+02  0.45594000000E+02  0.51100000000E-03 0.  1.
         11   -1    0    0    0    0 -0.00000000000E+00 -0.00000000000E+00 -0.45593999997E+02  0.45594000000E+02  0.51100000000E-03 0. -1.
    9900012    2    1    2    0    0 -0.23787782447E+02  0.61120842201E+01 -0.35782778643E+02  0.47787269422E+02  0.19999992603E+02 0.  0.
         12    1    1    2    0    0  0.23787782447E+02 -0.61120842201E+01  0.35782778643E+02  0.43400730578E+02  0.00000000000E+00 0. -1.
         11    1    3    3    0    0 -0.10142945117E+02  0.68270481576E+00 -0.24728347582E+02  0.26736428256E+02  0.51100000000E-03 0. -1.
        -11    1    3    3    0    0 -0.13336660836E+02  0.77329375383E+01 -0.10526928200E+02  0.18667647490E+02  0.51100000000E-03 0.  1.
         12    1    3    3    0    0 -0.30817649392E+00 -0.23035581340E+01 -0.52750286194E+00  0.23831936760E+01  0.00000000000E+00 0. -1.
</event>
<event>
 7    1  0.1019486E-010  0.4778727E+02  0.7816164E-02  0.1312668E+00
        -11   -1    0    0    0    0  0.00000000000E+00  0.00000000000E+00  0.45593999997E+02  0.45594000000E+02  0.51100000000E-03 0.  1.
         11   -1    0    0    0    0 -0.00000000000E+00 -0.00000000000E+00 -0.45593999997E+02  0.45594000000E+02  0.51100000000E-03 0. -1.
    9900012    2    1    2    0    0  0.27140459750E+02 -0.33131190326E+02  0.70244663056E+01  0.47787268961E+02  0.19999990500E+02 0.  0.
        -12    1    1    2    0    0 -0.27140459750E+02  0.33131190326E+02 -0.70244663056E+01  0.43400731039E+02  0.00000000000E+00 0.  1.
         11    1    3    3    0    0  0.62760012818E+01 -0.72077012772E+01 -0.56243295444E+01  0.11089284597E+02  0.51100000000E-03 0. -1.
        -11    1    3    3    0    0  0.27852765479E+01 -0.33712078706E+00  0.25226398539E+01  0.37729468545E+01  0.51100000000E-03 0.  1.
         12    1    3    3    0    0  0.18079181921E+02 -0.25586368261E+02  0.10126155996E+02  0.32925037509E+02  0.00000000000E+00 0. -1.
</event>
<event>
 7    1  0.1019486E-010  0.4778727E+02  0.7816164E-02  0.1312668E+00
        -11   -1    0    0    0    0  0.00000000000E+00  0.00000000000E+00  0.45593999997E+02  0.45594000000E+02  0.51100000000E-03 0. -1.
         11   -1    0    0    0    0 -0.00000000000E+00 -0.00000000000E+00 -0.45593999997E+02  0.45594000000E+02  0.51100000000E-03 0.  1.
    9900012    2    1    2    0    0 -0.58181296865E+01 -0.16406831883E+02 -0.39756616591E+02  0.47787270418E+02  0.19999997146E+02 0.  0.
         12    1    1    2    0    0  0.58181296865E+01  0.16406831883E+02  0.39756616591E+02  0.43400729582E+02  0.00000000000E+00 0. -1.
         11    1    3    3    0    0  0.12774720252E+01 -0.82916045109E-01 -0.22772196688E+01  0.26123819641E+01  0.51100000000E-03 0. -1.
        -11    1    3    3    0    0  0.34350245893E+00  0.20287129028E+01 -0.15314629398E+02  0.15452234267E+02  0.51100000000E-03 0.  1.
        -12    1    3    3    0    0 -0.74391041705E+01 -0.18352628740E+02 -0.22164767524E+02  0.29722654187E+02  0.00000000000E+00 0.  1.
</event>
<event>
 7    1  0.1019486E-010  0.4778726E+02  0.7816164E-02  0.1312668E+00
        -11   -1    0    0    0    0  0.00000000000E+00  0.00000000000E+00  0.45593999997E+02  0.45594000000E+02  0.51100000000E-03 0. -1.
         11   -1    0    0    0    0 -0.00000000000E+00 -0.00000000000E+00 -0.45593999997E+02  0.45594000000E+02  0.51100000000E-03 0.  1.
    9900012    2    1    2    0    0  0.66781957788E+01 -0.42356565813E+02 -0.67042632088E+01  0.47787261394E+02  0.19999956001E+02 0.  0.
         12    1    1    2    0    0 -0.66781957788E+01  0.42356565813E+02  0.67042632088E+01  0.43400738606E+02  0.00000000000E+00 0. -1.
         11    1    3    3    0    0  0.73125153388E+01 -0.29631745684E+02 -0.71429741713E+01  0.31345419333E+02  0.51100000000E-03 0. -1.
        -11    1    3    3    0    0 -0.32549808207E+01  0.15619679788E+00 -0.32423517846E+00  0.32748169865E+01  0.51100000000E-03 0.  1.
         12    1    3    3    0    0  0.26206612607E+01 -0.12881016927E+02  0.76294614102E+00  0.13167025075E+02  0.00000000000E+00 0. -1.
</event>
<event>
 7    1  0.1019486E-010  0.4778727E+02  0.7816164E-02  0.1312668E+00
        -11   -1    0    0    0    0  0.00000000000E+00  0.00000000000E+00  0.45593999997E+02  0.45594000000E+02  0.51100000000E-03 0. -1.
         11   -1    0    0    0    0 -0.00000000000E+00 -0.00000000000E+00 -0.45593999997E+02  0.45594000000E+02  0.51100000000E-03 0.  1.
    9900012    2    1    2    0    0  0.20846695780E+02 -0.15169985996E+02  0.34912897650E+02  0.47787267030E+02  0.19999981696E+02 0.  0.
        -12    1    1    2    0    0 -0.20846695780E+02  0.15169985996E+02 -0.34912897650E+02  0.43400732970E+02  0.00000000000E+00 0.  1.
         11    1    3    3    0    0  0.51405344927E+01 -0.14175197363E+02  0.17019625101E+02  0.22738270690E+02  0.51100000000E-03 0. -1.
        -11    1    3    3    0    0  0.14665703330E+02 -0.19372657854E+01  0.12169223547E+02  0.19155308791E+02  0.51100000000E-03 0.  1.
        -12    1    3    3    0    0  0.10404579567E+01  0.94247715205E+00  0.57240490017E+01  0.58936875482E+01  0.00000000000E+00 0.  1.
</event>
<event>
 7    1  0.1019486E-010  0.4778727E+02  0.7816164E-02  0.1312668E+00
        -11   -1    0    0    0    0  0.00000000000E+00  0.00000000000E+00  0.45593999997E+02  0.45594000000E+02  0.51100000000E-03 0.  1.
         11   -1    0    0    0    0 -0.00000000000E+00 -0.00000000000E+00 -0.45593999997E+02  0.45594000000E+02  0.51100000000E-03 0. -1.
    9900012    2    1    2    0    0 -0.26565080256E+02  0.28306409892E+01 -0.34203903553E+02  0.47787273789E+02  0.20000012514E+02 0.  0.
         12    1    1    2    0    0  0.26565080256E+02 -0.28306409892E+01  0.34203903553E+02  0.43400726211E+02  0.00000000000E+00 0. -1.
         11    1    3    3    0    0  0.10027765878E+01 -0.18467075583E+00  0.10435731057E+01  0.14590096851E+01  0.51100000000E-03 0. -1.
        -11    1    3    3    0    0 -0.24202817778E+02 -0.96242665015E+00 -0.32196870284E+02  0.40290707487E+02  0.51100000000E-03 0.  1.
        -12    1    3    3    0    0 -0.33650390658E+01  0.39777383952E+01 -0.30506063745E+01  0.60375566173E+01  0.00000000000E+00 0.  1.
</event>
<event>
 7    1  0.1019486E-010  0.4778727E+02  0.7816164E-02  0.1312668E+00
        -11   -1    0    0    0    0  0.00000000000E+00  0.00000000000E+00  0.45593999997E+02  0.45594000000E+02  0.51100000000E-03 0. -1.
         11   -1    0    0    0    0 -0.00000000000E+00 -0.00000000000E+00 -0.45593999997E+02  0.45594000000E+02  0.51100000000E-03 0.  1.
    9900012    2    1    2    0    0  0.15382613496E+02  0.96300344433E+01 -0.39424113695E+02  0.47787273025E+02  0.20000009028E+02 0.  0.
         12    1    1    2    0    0 -0.15382613496E+02 -0.96300344433E+01  0.39424113695E+02  0.43400726975E+02  0.00000000000E+00 0. -1.
         11    1    3    3    0    0  0.83292451614E+01  0.10075487230E+02 -0.13901067782E+02  0.19082228738E+02  0.51100000000E-03 0. -1.
        -11    1    3    3    0    0  0.45055729205E+01 -0.41736689027E+01 -0.57167978175E+01  0.83905588013E+01  0.51100000000E-03 0.  1.
        -12    1    3    3    0    0  0.25477954139E+01  0.37282161158E+01 -0.19806248096E+02  0.20314485485E+02  0.00000000000E+00 0.  1.
</event>
<event>
 7    1  0.1019486E-010  0.4778723E+02  0.7816164E-02  0.1312668E+00
        -11   -1    0    0    0    0  0.00000000000E+00  0.00000000000E+00  0.45593999997E+02  0.45594000000E+02  0.51100000000E-03 0. -1.
         11   -1    0    0    0    0 -0.00000000000E+00 -0.00000000000E+00 -0.45593999997E+02  0.45594000000E+02  0.51100000000E-03 0.  1.
    9900012    2    1    2    0    0  0.14757096657E+02 -0.10563601607E+02  0.39424166473E+02  0.47787234076E+02  0.19999831447E+02 0.  0.
        -12    1    1    2    0    0 -0.14757096657E+02  0.10563601607E+02 -0.39424166473E+02  0.43400765924E+02  0.00000000000E+00 0.  1.
         11    1    3    3    0    0  0.45224976962E+01 -0.60349269743E+01  0.33126963897E+02  0.33974535557E+02  0.51100000000E-03 0. -1.
        -11    1    3    3    0    0  0.17348483403E+01 -0.24834320715E+01 -0.15511359637E-01  0.30294181754E+01  0.51100000000E-03 0.  1.
         12    1    3    3    0    0  0.84997506205E+01 -0.20452425616E+01  0.63127139353E+01  0.10783280344E+02  0.00000000000E+00 0. -1.
</event>
<event>
 7    1  0.1019486E-010  0.4778730E+02  0.7816164E-02  0.1312668E+00
        -11   -1    0    0    0    0  0.00000000000E+00  0.00000000000E+00  0.45593999997E+02  0.45594000000E+02  0.51100000000E-03 0. -1.
         11   -1    0    0    0    0 -0.00000000000E+00 -0.00000000000E+00 -0.45593999997E+02  0.45594000000E+02  0.51100000000E-03 0.  1.
    9900012    2    1    2    0    0  0.88941260700E+01 -0.38446341801E+02  0.18066384969E+02  0.47787297906E+02  0.20000122472E+02 0.  0.
        -12    1    1    2    0    0 -0.88941260700E+01  0.38446341801E+02 -0.18066384969E+02  0.43400702094E+02  0.00000000000E+00 0.  1.
         11    1    3    3    0    0  0.69001342097E+01 -0.27297368659E+02  0.16469197708E+02  0.32618900368E+02  0.51100000000E-03 0. -1.
        -11    1    3    3    0    0  0.12828706267E+01  0.17474376072E+01  0.19680039538E+00  0.21767006898E+01  0.51100000000E-03 0.  1.
        -12    1    3    3    0    0  0.71112123358E+00 -0.12896410749E+02  0.14003868657E+01  0.12991696848E+02  0.00000000000E+00 0.  1.
</event>
<event>
 7    1  0.1019486E-010  0.4778727E+02  0.7816164E-02  0.1312668E+00
        -11   -1    0    0    0    0  0.00000000000E+00  0.00000000000E+00  0.45593999997E+02  0.45594000000E+02  0.51100000000E-03 0. -1.
         11   -1    0    0    0    0 -0.00000000000E+00 -0.00000000000E+00 -0.45593999997E+02  0.45594000000E+02  0.51100000000E-03 0.  1.
    9900012    2    1    2    0    0  0.19815353270E+02 -0.69133166334E+01  0.37989220995E+02  0.47787273233E+02  0.20000009978E+02 0.  0.
        -12    1    1    2    0    0 -0.19815353270E+02  0.69133166334E+01 -0.37989220995E+02  0.43400726767E+02  0.00000000000E+00 0.  1.
         11    1    3    3    0    0  0.28036719573E+01 -0.31834409527E+01 -0.89153294326E+00  0.43347092168E+01  0.51100000000E-03 0. -1.
        -11    1    3    3    0    0  0.14843813934E+01 -0.35767425293E+01  0.79160388875E+01  0.88124994849E+01  0.51100000000E-03 0.  1.
         12    1    3    3    0    0  0.15527299919E+02 -0.15313315136E+00  0.30964715051E+02  0.34640064531E+02  0.00000000000E+00 0. -1.
</event>
<event>
 7    1  0.1019486E-010  0.4778727E+02  0.7816164E-02  0.1312668E+00
        -11   -1    0    0    0    0  0.00000000000E+00  0.00000000000E+00  0.45593999997E+02  0.45594000000E+02  0.51100000000E-03 0. -1.
         11   -1    0    0    0    0 -0.00000000000E+00 -0.00000000000E+00 -0.45593999997E+02  0.45594000000E+02  0.51100000000E-03 0.  1.
    9900012    2    1    2    0    0  0.74659754312E+01 -0.38858670671E+02 -0.17829362393E+02  0.47787271449E+02  0.20000001843E+02 0.  0.
         12    1    1    2    0    0 -0.74659754312E+01  0.38858670671E+02  0.17829362393E+02  0.43400728551E+02  0.00000000000E+00 0. -1.
         11    1    3    3    0    0 -0.21416649478E+01 -0.67579997431E+01 -0.81679775349E+01  0.10815412454E+02  0.51100000000E-03 0. -1.
        -11    1    3    3    0    0 -0.26683984650E+01 -0.89580889307E+01 -0.40172505801E+01  0.10173790353E+02  0.51100000000E-03 0.  1.
         12    1    3    3    0    0  0.12276038844E+02 -0.23142581997E+02 -0.56441342780E+01  0.26798068642E+02  0.00000000000E+00 0. -1.
</event>
<event>
 7    1  0.1019486E-010  0.4778727E+02  0.7816164E-02  0.1312668E+00
        -11   -1    0    0    0    0  0.00000000000E+00  0.00000000000E+00  0.45593999997E+02  0.45594000000E+02  0.51100000000E-03 0. -1.
         11   -1    0    0    0    0 -0.00000000000E+00 -0.00000000000E+00 -0.45593999997E+02  0.45594000000E+02  0.51100000000E-03 0.  1.
    9900012    2    1    2    0    0 -0.10490006934E+02 -0.14608962068E+02  0.39498876794E+02  0.47787270903E+02  0.19999999354E+02 0.  0.
        -12    1    1    2    0    0  0.10490006934E+02  0.14608962068E+02 -0.39498876794E+02  0.43400729097E+02  0.00000000000E+00 0.  1.
         11    1    3    3    0    0 -0.10091999764E+02 -0.98038296880E+01  0.17279118811E+02  0.22282986401E+02  0.51100000000E-03 0. -1.
        -11    1    3    3    0    0  0.27749299499E+01 -0.33349754388E+01  0.21500819260E+02  0.21934163456E+02  0.51100000000E-03 0.  1.
        -12    1    3    3    0    0 -0.31729371193E+01 -0.14701569410E+01  0.71893872321E+00  0.35701210459E+01  0.00000000000E+00 0.  1.
</event>
<event>
 7    1  0.1019486E-010  0.4778727E+02  0.7816164E-02  0.1312668E+00
        -11   -1    0    0    0    0  0.00000000000E+00  0.00000000000E+00  0.45593999997E+02  0.45594000000E+02  0.51100000000E-03 0. -1.
         11   -1    0    0    0    0 -0.00000000000E+00 -0.00000000000E+00 -0.45593999997E+02  0.45594000000E+02  0.51100000000E-03 0.  1.
    9900012    2    1    2    0    0  0.24984944024E+02  0.20666532867E+02  0.28849091151E+02  0.47787273406E+02  0.20000010768E+02 0.  0.
        -12    1    1    2    0    0 -0.24984944024E+02 -0.20666532867E+02 -0.28849091151E+02  0.43400726594E+02  0.00000000000E+00 0.  1.
         11    1    3    3    0    0  0.20428330447E+02  0.16957322207E+02  0.22708341154E+02  0.34936173510E+02  0.51100000000E-03 0. -1.
        -11    1    3    3    0    0 -0.11391953721E+01 -0.18647553216E+01  0.40660950237E+01  0.46160814018E+01  0.51100000000E-03 0.  1.
         12    1    3    3    0    0  0.56958089495E+01  0.55739659812E+01  0.20746549733E+01  0.82350184946E+01  0.00000000000E+00 0. -1.
</event>
<event>
 7    1  0.1019486E-010  0.4778728E+02  0.7816164E-02  0.1312668E+00
        -11   -1    0    0    0    0  0.00000000000E+00  0.00000000000E+00  0.45593999997E+02  0.45594000000E+02  0.51100000000E-03 0. -1.
         11   -1    0    0    0    0 -0.00000000000E+00 -0.00000000000E+00 -0.45593999997E+02  0.45594000000E+02  0.51100000000E-03 0.  1.
    9900012    2    1    2    0    0  0.32504236811E+02 -0.56657098290E+01 -0.28195693608E+02  0.47787276313E+02  0.20000024020E+02 0.  0.
         12    1    1    2    0    0 -0.32504236811E+02  0.56657098290E+01  0.28195693608E+02  0.43400723687E+02  0.00000000000E+00 0. -1.
         11    1    3    3    0    0  0.72266617463E-01 -0.39570173870E+01 -0.41081417467E+01  0.57043876040E+01  0.51100000000E-03 0. -1.
        -11    1    3    3    0    0  0.31166237734E+02 -0.44540788159E+01 -0.22082186962E+02  0.38455118956E+02  0.51100000000E-03 0.  1.
        -12    1    3    3    0    0  0.12657324591E+01  0.27453863739E+01 -0.20053648991E+01  0.36277697527E+01  0.00000000000E+00 0.  1.
</event>
<event>
 7    1  0.1019486E-010  0.4778728E+02  0.7816164E-02  0.1312668E+00
        -11   -1    0    0    0    0  0.00000000000E+00  0.00000000000E+00  0.45593999997E+02  0.45594000000E+02  0.51100000000E-03 0. -1.
         11   -1    0    0    0    0 -0.00000000000E+00 -0.00000000000E+00 -0.45593999997E+02  0.45594000000E+02  0.51100000000E-03 0.  1.
    9900012    2    1    2    0    0  0.29956678842E+01 -0.20958505920E+02 -0.37886535517E+02  0.47787279154E+02  0.20000036976E+02 0.  0.
         12    1    1    2    0    0 -0.29956678842E+01  0.20958505920E+02  0.37886535517E+02  0.43400720846E+02  0.00000000000E+00 0. -1.
         11    1    3    3    0    0  0.15230994644E+01  0.36071809521E+01 -0.70681273494E+01  0.80802234429E+01  0.51100000000E-03 0. -1.
        -11    1    3    3    0    0  0.26382289308E+01 -0.22441973130E+02 -0.27365416166E+02  0.35488990012E+02  0.51100000000E-03 0.  1.
         12    1    3    3    0    0 -0.11656605110E+01 -0.21237137417E+01 -0.34529920010E+01  0.42180656992E+01  0.00000000000E+00 0. -1.
</event>
<event>
 7    1  0.1019486E-010  0.4778727E+02  0.7816164E-02  0.1312668E+00
        -11   -1    0    0    0    0  0.00000000000E+00  0.00000000000E+00  0.45593999997E+02  0.45594000000E+02  0.51100000000E-03 0. -1.
         11   -1    0    0    0    0 -0.00000000000E+00 -0.00000000000E+00 -0.45593999997E+02  0.45594000000E+02  0.51100000000E-03 0.  1.
    9900012    2    1    2    0    0 -0.11725985553E+02 -0.16846291856E+02  0.38240387760E+02  0.47787267950E+02  0.19999985890E+02 0.  0.
        -12    1    1    2    0    0  0.11725985553E+02  0.16846291856E+02 -0.38240387760E+02  0.43400732050E+02  0.00000000000E+00 0.  1.
         11    1    3    3    0    0 -0.67378690371E+00 -0.14200831222E+02  0.21972874037E+02  0.26171067802E+02  0.51100000000E-03 0. -1.
        -11    1    3    3    0    0 -0.26962675133E+01 -0.32340965703E+00 -0.47876890663E+00  0.27574757001E+01  0.51100000000E-03 0.  1.
         12    1    3    3    0    0 -0.83559311362E+01 -0.23220509765E+01  0.16746282629E+02  0.18858724447E+02  0.00000000000E+00 0. -1.
</event>
<event>
 7    1  0.1019486E-010  0.4778727E+02  0.7816164E-02  0.1312668E+00
        -11   -1    0    0    0    0  0.00000000000E+00  0.00000000000E+00  0.45593999997E+02  0.45594000000E+02  0.51100000000E-03 0. -1.
         11   -1    0    0    0    0 -0.00000000000E+00 -0.00000000000E+00 -0.45593999997E+02  0.45594000000E+02  0.51100000000E-03 0.  1.
    9900012    2    1    2    0    0 -0.29196989676E+02  0.26027917984E+02  0.18807094793E+02  0.47787268032E+02  0.19999986267E+02 0.  0.
        -12    1    1    2    0    0  0.29196989676E+02 -0.26027917984E+02 -0.18807094793E+02  0.43400731968E+02  0.00000000000E+00 0.  1.
         11    1    3    3    0    0 -0.29830930825E+02  0.23102054824E+02  0.17727784821E+02  0.41687692739E+02  0.51100000000E-03 0. -1.
        -11    1    3    3    0    0  0.18012382274E+01  0.35478598370E+01  0.20337019064E+01  0.44685246201E+01  0.51100000000E-03 0.  1.
         12    1    3    3    0    0 -0.11672970785E+01 -0.62199667627E+00 -0.95439193442E+00  0.16310506734E+01  0.00000000000E+00 0. -1.
</event>
<event>
 7    1  0.1019486E-010  0.4778727E+02  0.7816164E-02  0.1312668E+00
        -11   -1    0    0    0    0  0.00000000000E+00  0.00000000000E+00  0.45593999997E+02  0.45594000000E+02  0.51100000000E-03 0.  1.
         11   -1    0    0    0    0 -0.00000000000E+00 -0.00000000000E+00 -0.45593999997E+02  0.45594000000E+02  0.51100000000E-03 0. -1.
    9900012    2    1    2    0    0  0.19303604970E+02 -0.35342757492E+02 -0.16182825111E+02  0.47787268433E+02  0.19999988092E+02 0.  0.
         12    1    1    2    0    0 -0.19303604970E+02  0.35342757492E+02  0.16182825111E+02  0.43400731567E+02  0.00000000000E+00 0. -1.
         11    1    3    3    0    0  0.19189063862E+00  0.19550955640E+01 -0.10700516081E+01  0.22370139442E+01  0.51100000000E-03 0. -1.
        -11    1    3    3    0    0  0.89757046764E+01 -0.26990872848E+02 -0.11241423797E+02  0.30584965274E+02  0.51100000000E-03 0.  1.
        -12    1    3    3    0    0  0.10136009655E+02 -0.10306980208E+02 -0.38713497066E+01  0.14965289215E+02  0.00000000000E+00 0.  1.
</event>
<event>
 7    1  0.1019486E-010  0.4778729E+02  0.7816164E-02  0.1312668E+00
        -11   -1    0    0    0    0  0.00000000000E+00  0.00000000000E+00  0.45593999997E+02  0.45594000000E+02  0.51100000000E-03 0. -1.
         11   -1    0    0    0    0 -0.00000000000E+00 -0.00000000000E+00 -0.45593999997E+02  0.45594000000E+02  0.51100000000E-03 0.  1.
    9900012    2    1    2    0    0 -0.72717531218E+01 -0.42630134271E+02  0.36626595651E+01  0.47787287834E+02  0.20000076551E+02 0.  0.
        -12    1    1    2    0    0  0.72717531218E+01  0.42630134271E+02 -0.36626595651E+01  0.43400712166E+02  0.00000000000E+00 0.  1.
         11    1    3    3    0    0 -0.84072820928E+01 -0.26955740716E+02  0.60526561746E+01  0.28877828810E+02  0.51100000000E-03 0.  1.
        -11    1    3    3    0    0  0.47836249883E+01 -0.34457534970E+01 -0.16725426842E+01  0.61281061090E+01  0.51100000000E-03 0. -1.
         12    1    3    3    0    0 -0.36480960174E+01 -0.12228640058E+02 -0.71745392536E+00  0.12781352915E+02  0.00000000000E+00 0. -1.
</event>
<event>
 7    1  0.1019486E-010  0.4778727E+02  0.7816164E-02  0.1312668E+00
        -11   -1    0    0    0    0  0.00000000000E+00  0.00000000000E+00  0.45593999997E+02  0.45594000000E+02  0.51100000000E-03 0. -1.
         11   -1    0    0    0    0 -0.00000000000E+00 -0.00000000000E+00 -0.45593999997E+02  0.45594000000E+02  0.51100000000E-03 0.  1.
    9900012    2    1    2    0    0  0.13836616165E+02 -0.25007875000E+02 -0.32661559722E+02  0.47787271407E+02  0.20000001652E+02 0.  0.
         12    1    1    2    0    0 -0.13836616165E+02  0.25007875000E+02  0.32661559722E+02  0.43400728593E+02  0.00000000000E+00 0. -1.
         11    1    3    3    0    0  0.61053424675E+01 -0.21131806539E+02 -0.28206457865E+02  0.35769158779E+02  0.51100000000E-03 0. -1.
        -11    1    3    3    0    0  0.83961279430E+01 -0.29300084053E+01 -0.55029520491E+01  0.10457647690E+02  0.51100000000E-03 0.  1.
         12    1    3    3    0    0 -0.66485424570E+00 -0.94606005622E+00  0.10478501913E+01  0.15604649376E+01  0.00000000000E+00 0. -1.
</event>
<event>
 7    1  0.1019486E-010  0.4778727E+02  0.7816164E-02  0.1312668E+00
        -11   -1    0    0    0    0  0.00000000000E+00  0.00000000000E+00  0.45593999997E+02  0.45594000000E+02  0.51100000000E-03 0. -1.
         11   -1    0    0    0    0 -0.00000000000E+00 -0.00000000000E+00 -0.45593999997E+02  0.45594000000E+02  0.51100000000E-03 0.  1.
    9900012    2    1    2    0    0  0.24766848212E+02 -0.21692439766E+02  0.28278344685E+02  0.47787268538E+02  0.19999988571E+02 0.  0.
        -12    1    1    2    0    0 -0.24766848212E+02  0.21692439766E+02 -0.28278344685E+02  0.43400731462E+02  0.00000000000E+00 0.  1.
         11    1    3    3    0    0  0.17632864536E+02 -0.16912871006E+02  0.22264327812E+02  0.33055459618E+02  0.51100000000E-03 0. -1.
        -11    1    3    3    0    0  0.27958451072E+01 -0.45028247913E+01  0.82789213603E+01  0.98301943071E+01  0.51100000000E-03 0.  1.
         12    1    3    3    0    0  0.43381385696E+01 -0.27674396832E+00 -0.22649044873E+01  0.49016146125E+01  0.00000000000E+00 0. -1.
</event>
<event>
 7    1  0.1019486E-010  0.4778727E+02  0.7816164E-02  0.1312668E+00
        -11   -1    0    0    0    0  0.00000000000E+00  0.00000000000E+00  0.45593999997E+02  0.45594000000E+02  0.51100000000E-03 0. -1.
         11   -1    0    0    0    0 -0.00000000000E+00 -0.00000000000E+00 -0.45593999997E+02  0.45594000000E+02  0.51100000000E-03 0.  1.
    9900012    2    1    2    0    0  0.18294533579E+02 -0.20447176901E+02 -0.33628060211E+02  0.47787269181E+02  0.19999991503E+02 0.  0.
         12    1    1    2    0    0 -0.18294533579E+02  0.20447176901E+02  0.33628060211E+02  0.43400730819E+02  0.00000000000E+00 0. -1.
         11    1    3    3    0    0  0.14626857226E+01  0.12036651009E+01 -0.12451036072E+02  0.12594306599E+02  0.51100000000E-03 0. -1.
        -11    1    3    3    0    0  0.14043926636E+02 -0.13463071554E+02 -0.14939501543E+02  0.24529061899E+02  0.51100000000E-03 0.  1.
         12    1    3    3    0    0  0.27879212204E+01 -0.81877704471E+01 -0.62375225965E+01  0.10663900683E+02  0.00000000000E+00 0. -1.
</event>
<event>
 7    1  0.1019486E-010  0.4778727E+02  0.7816164E-02  0.1312668E+00
        -11   -1    0    0    0    0  0.00000000000E+00  0.00000000000E+00  0.45593999997E+02  0.45594000000E+02  0.51100000000E-03 0. -1.
         11   -1    0    0    0    0 -0.00000000000E+00 -0.00000000000E+00 -0.45593999997E+02  0.45594000000E+02  0.51100000000E-03 0.  1.
    9900012    2    1    2    0    0  0.74618693391E+00  0.10842584605E+02 -0.42017911166E+02  0.47787270805E+02  0.19999998911E+02 0.  0.
         12    1    1    2    0    0 -0.74618693391E+00 -0.10842584605E+02  0.42017911166E+02  0.43400729195E+02  0.00000000000E+00 0. -1.
         11    1    3    3    0    0  0.19193323616E+01 -0.63442592716E+00 -0.39005805030E+00  0.20587565458E+01  0.51100000000E-03 0. -1.
        -11    1    3    3    0    0  0.42812035323E+01  0.11160761469E+01 -0.25019562026E+02  0.25407731380E+02  0.51100000000E-03 0.  1.
        -12    1    3    3    0    0 -0.54543489599E+01  0.10360934385E+02 -0.16608291090E+02  0.20320782880E+02  0.00000000000E+00 0.  1.
</event>
<event>
 7    1  0.1063860E-010  0.4778727E+02  0.7816164E-02  0.1312668E+00
        -11   -1    0    0    0    0  0.00000000000E+00  0.00000000000E+00  0.45593999997E+02  0.45594000000E+02  0.51100000000E-03 0. -1.
         11   -1    0    0    0    0 -0.00000000000E+00 -0.00000000000E+00 -0.45593999997E+02  0.45594000000E+02  0.51100000000E-03 0.  1.
    9900012    2    1    2    0    0 -0.22189605400E+02  0.26681714145E+02 -0.26063972570E+02  0.47787272775E+02  0.20000007890E+02 0.  0.
         12    1    1    2    0    0  0.22189605400E+02 -0.26681714145E+02  0.26063972570E+02  0.43400727225E+02  0.00000000000E+00 0. -1.
         11    1    3    3    0    0  0.16168343110E+00 -0.34782169042E+00  0.22769441957E+01  0.23090250305E+01  0.51100000000E-03 0. -1.
        -11    1    3    3    0    0 -0.13417729253E+02  0.15457805611E+02 -0.20141438700E+02  0.28716837671E+02  0.51100000000E-03 0.  1.
         12    1    3    3    0    0 -0.89335595776E+01  0.11571730224E+02 -0.81994780659E+01  0.16761410074E+02  0.00000000000E+00 0. -1.
</event>
<event>
 7    1  0.1019486E-010  0.4778727E+02  0.7816164E-02  0.1312668E+00
        -11   -1    0    0    0    0  0.00000000000E+00  0.00000000000E+00  0.45593999997E+02  0.45594000000E+02  0.51100000000E-03 0. -1.
         11   -1    0    0    0    0 -0.00000000000E+00 -0.00000000000E+00 -0.45593999997E+02  0.45594000000E+02  0.51100000000E-03 0.  1.
    9900012    2    1    2    0    0  0.17994826598E+02  0.33457132287E+02  0.20986414834E+02  0.47787273132E+02  0.20000009516E+02 0.  0.
        -12    1    1    2    0    0 -0.17994826598E+02 -0.33457132287E+02 -0.20986414834E+02  0.43400726868E+02  0.00000000000E+00 0.  1.
         11    1    3    3    0    0  0.33013546539E+01  0.50088343060E+01  0.59322697008E+00  0.60282072090E+01  0.51100000000E-03 0. -1.
        -11    1    3    3    0    0 -0.34496317535E+01  0.39302491102E+01  0.30712407434E+00  0.52384294174E+01  0.51100000000E-03 0.  1.
        -12    1    3    3    0    0  0.18143103698E+02  0.24518048870E+02  0.20086063789E+02  0.36520636505E+02  0.00000000000E+00 0.  1.
</event>
<event>
 7    1  0.1019486E-010  0.4778728E+02  0.7816164E-02  0.1312668E+00
        -11   -1    0    0    0    0  0.00000000000E+00  0.00000000000E+00  0.45593999997E+02  0.45594000000E+02  0.51100000000E-03 0. -1.
         11   -1    0    0    0    0 -0.00000000000E+00 -0.00000000000E+00 -0.45593999997E+02  0.45594000000E+02  0.51100000000E-03 0.  1.
    9900012    2    1    2    0    0  0.18899656464E+02  0.12608490724E+02 -0.36979070516E+02  0.47787277552E+02  0.20000029671E+02 0.  0.
         12    1    1    2    0    0 -0.18899656464E+02 -0.12608490724E+02  0.36979070516E+02  0.43400722448E+02  0.00000000000E+00 0. -1.
         11    1    3    3    0    0  0.36724358887E+01  0.79357429683E+01 -0.18182202456E+01  0.89313339955E+01  0.51100000000E-03 0. -1.
        -11    1    3    3    0    0  0.11723171773E+02  0.48583084932E+01 -0.30394649194E+02  0.32937374178E+02  0.51100000000E-03 0.  1.
         12    1    3    3    0    0  0.35040488020E+01 -0.18556073739E+00 -0.47662010759E+01  0.59185693787E+01  0.00000000000E+00 0. -1.
</event>
<event>
 7    1  0.1019486E-010  0.4778727E+02  0.7816164E-02  0.1312668E+00
        -11   -1    0    0    0    0  0.00000000000E+00  0.00000000000E+00  0.45593999997E+02  0.45594000000E+02  0.51100000000E-03 0. -1.
         11   -1    0    0    0    0 -0.00000000000E+00 -0.00000000000E+00 -0.45593999997E+02  0.45594000000E+02  0.51100000000E-03 0.  1.
    9900012    2    1    2    0    0  0.15265603699E+02  0.15632334004E+02 -0.37499531032E+02  0.47787270164E+02  0.19999995987E+02 0.  0.
         12    1    1    2    0    0 -0.15265603699E+02 -0.15632334004E+02  0.37499531032E+02  0.43400729836E+02  0.00000000000E+00 0. -1.
         11    1    3    3    0    0  0.14538134905E+02  0.78663060615E+01 -0.16409497288E+02  0.23291795531E+02  0.51100000000E-03 0. -1.
        -11    1    3    3    0    0 -0.26727919423E+01  0.84195908439E+01 -0.13247700664E+02  0.15922779276E+02  0.51100000000E-03 0.  1.
        -12    1    3    3    0    0  0.34002607362E+01 -0.65356290196E+00 -0.78423330802E+01  0.85726953569E+01  0.00000000000E+00 0.  1.
</event>
<event>
 7    1  0.1019486E-010  0.4778727E+02  0.7816164E-02  0.1312668E+00
        -11   -1    0    0    0    0  0.00000000000E+00  0.00000000000E+00  0.45593999997E+02  0.45594000000E+02  0.51100000000E-03 0. -1.
         11   -1    0    0    0    0 -0.00000000000E+00 -0.00000000000E+00 -0.45593999997E+02  0.45594000000E+02  0.51100000000E-03 0.  1.
    9900012    2    1    2    0    0  0.13515706439E+02 -0.26473654508E+02  0.31624268592E+02  0.47787273422E+02  0.20000010838E+02 0.  0.
        -12    1    1    2    0    0 -0.13515706439E+02  0.26473654508E+02 -0.31624268592E+02  0.43400726578E+02  0.00000000000E+00 0.  1.
         11    1    3    3    0    0  0.26939409427E+01 -0.20771813474E+02  0.13990257407E+02  0.25188347611E+02  0.51100000000E-03 0. -1.
        -11    1    3    3    0    0  0.96898683585E+01 -0.45847559792E+01  0.95397750620E+01  0.14349942324E+02  0.51100000000E-03 0.  1.
         12    1    3    3    0    0  0.11318971380E+01 -0.11170850546E+01  0.80942361231E+01  0.82489834869E+01  0.00000000000E+00 0. -1.
</event>
<event>
 7    1  0.1019486E-010  0.4778727E+02  0.7816164E-02  0.1312668E+00
        -11   -1    0    0    0    0  0.00000000000E+00  0.00000000000E+00  0.45593999997E+02  0.45594000000E+02  0.51100000000E-03 0. -1.
         11   -1    0    0    0    0 -0.00000000000E+00 -0.00000000000E+00 -0.45593999997E+02  0.45594000000E+02  0.51100000000E-03 0.  1.
    9900012    2    1    2    0    0 -0.23228420250E+02 -0.41111734537E+01  0.36430237126E+02  0.47787269228E+02  0.19999991718E+02 0.  0.
        -12    1    1    2    0    0  0.23228420250E+02  0.41111734537E+01 -0.36430237126E+02  0.43400730772E+02  0.00000000000E+00 0.  1.
         11    1    3    3    0    0 -0.85165627761E+01 -0.73437442286E+00  0.19551265066E+01  0.87689034223E+01  0.51100000000E-03 0.  1.
        -11    1    3    3    0    0 -0.15390384985E+02 -0.45353535753E+01  0.26871600380E+02  0.31297224945E+02  0.51100000000E-03 0. -1.
         12    1    3    3    0    0  0.67852751142E+00  0.11585545444E+01  0.76035102401E+01  0.77211408605E+01  0.00000000000E+00 0. -1.
</event>
<event>
 7    1  0.1019486E-010  0.4778727E+02  0.7816164E-02  0.1312668E+00
        -11   -1    0    0    0    0  0.00000000000E+00  0.00000000000E+00  0.45593999997E+02  0.45594000000E+02  0.51100000000E-03 0. -1.
         11   -1    0    0    0    0 -0.00000000000E+00 -0.00000000000E+00 -0.45593999997E+02  0.45594000000E+02  0.51100000000E-03 0.  1.
    9900012    2    1    2    0    0  0.48497223048E+01 -0.30145960206E+02 -0.30843552172E+02  0.47787269202E+02  0.19999991602E+02 0.  0.
         12    1    1    2    0    0 -0.48497223048E+01  0.30145960206E+02  0.30843552172E+02  0.43400730798E+02  0.00000000000E+00 0. -1.
         11    1    3    3    0    0  0.10357423124E+01 -0.18893225532E+02 -0.93492833883E+01  0.21105350821E+02  0.51100000000E-03 0. -1.
        -11    1    3    3    0    0  0.72062499750E+01 -0.96313629943E+01 -0.15786529323E+02  0.19847108105E+02  0.51100000000E-03 0.  1.
        -12    1    3    3    0    0 -0.33922699826E+01 -0.16213716800E+01 -0.57077394610E+01  0.68348102764E+01  0.00000000000E+00 0.  1.
</event>
<event>
 7    1  0.1019486E-010  0.4778727E+02  0.7816164E-02  0.1312668E+00
        -11   -1    0    0    0    0  0.00000000000E+00  0.00000000000E+00  0.45593999997E+02  0.45594000000E+02  0.51100000000E-03 0. -1.
         11   -1    0    0    0    0 -0.00000000000E+00 -0.00000000000E+00 -0.45593999997E+02  0.45594000000E+02  0.51100000000E-03 0.  1.
    9900012    2    1    2    0    0 -0.22874970467E+02  0.11672096201E+02  0.34987444134E+02  0.47787270160E+02  0.19999995969E+02 0.  0.
        -12    1    1    2    0    0  0.22874970467E+02 -0.11672096201E+02 -0.34987444134E+02  0.43400729840E+02  0.00000000000E+00 0.  1.
         11    1    3    3    0    0 -0.17574692956E+02  0.61909648946E+01  0.21704075764E+02  0.28605327893E+02  0.51100000000E-03 0. -1.
        -11    1    3    3    0    0  0.17802064866E+01 -0.14310367022E+01  0.72299211808E+01  0.75821343776E+01  0.51100000000E-03 0.  1.
         12    1    3    3    0    0 -0.70804839973E+01  0.69121680085E+01  0.60534471895E+01  0.11599807890E+02  0.00000000000E+00 0. -1.
</event>
<event>
 7    1  0.1019486E-010  0.4778727E+02  0.7816164E-02  0.1312668E+00
        -11   -1    0    0    0    0  0.00000000000E+00  0.00000000000E+00  0.45593999997E+02  0.45594000000E+02  0.51100000000E-03 0.  1.
         11   -1    0    0    0    0 -0.00000000000E+00 -0.00000000000E+00 -0.45593999997E+02  0.45594000000E+02  0.51100000000E-03 0. -1.
    9900012    2    1    2    0    0 -0.35674989879E+02 -0.24330335467E+02 -0.43535711272E+01  0.47787266039E+02  0.19999977177E+02 0.  0.
         12    1    1    2    0    0  0.35674989879E+02  0.24330335467E+02  0.43535711272E+01  0.43400733961E+02  0.00000000000E+00 0. -1.
         11    1    3    3    0    0 -0.42237643421E+01 -0.51872312024E+00  0.52420837344E+01  0.67519405383E+01  0.51100000000E-03 0. -1.
        -11    1    3    3    0    0 -0.24843577830E+02 -0.16161973006E+02 -0.86940765446E+01  0.30886885535E+02  0.51100000000E-03 0.  1.
        -12    1    3    3    0    0 -0.66076477065E+01 -0.76496393411E+01 -0.90157831696E+00  0.10148439965E+02  0.00000000000E+00 0.  1.
</event>
<event>
 7    1  0.1019486E-010  0.4778727E+02  0.7816164E-02  0.1312668E+00
        -11   -1    0    0    0    0  0.00000000000E+00  0.00000000000E+00  0.45593999997E+02  0.45594000000E+02  0.51100000000E-03 0. -1.
         11   -1    0    0    0    0 -0.00000000000E+00 -0.00000000000E+00 -0.45593999997E+02  0.45594000000E+02  0.51100000000E-03 0.  1.
    9900012    2    1    2    0    0  0.20568863039E+02 -0.12978228859E+02 -0.35945941396E+02  0.47787271274E+02  0.20000001049E+02 0.  0.
         12    1    1    2    0    0 -0.20568863039E+02  0.12978228859E+02  0.35945941396E+02  0.43400728726E+02  0.00000000000E+00 0. -1.
         11    1    3    3    0    0 -0.22176412908E+01 -0.28864483782E+00 -0.96723604956E+01  0.99275277161E+01  0.51100000000E-03 0. -1.
        -11    1    3    3    0    0  0.16887230789E+02 -0.12112818257E+02 -0.23322289444E+02  0.31238247631E+02  0.51100000000E-03 0.  1.
        -12    1    3    3    0    0  0.58992735406E+01 -0.57676576360E+00 -0.29512914563E+01  0.66214959272E+01  0.00000000000E+00 0.  1.
</event>
<event>
 7    1  0.1019486E-010  0.4778727E+02  0.7816164E-02  0.1312668E+00
        -11   -1    0    0    0    0  0.00000000000E+00  0.00000000000E+00  0.45593999997E+02  0.45594000000E+02  0.51100000000E-03 0. -1.
         11   -1    0    0    0    0 -0.00000000000E+00 -0.00000000000E+00 -0.45593999997E+02  0.45594000000E+02  0.51100000000E-03 0.  1.
    9900012    2    1    2    0    0 -0.53348309950E+01  0.21252060405E+02  0.37463488617E+02  0.47787268756E+02  0.19999989565E+02 0.  0.
        -12    1    1    2    0    0  0.53348309950E+01 -0.21252060405E+02 -0.37463488617E+02  0.43400731244E+02  0.00000000000E+00 0.  1.
         11    1    3    3    0    0 -0.50760201563E+00  0.18162440238E+01  0.27354660728E+01  0.33225257045E+01  0.51100000000E-03 0. -1.
        -11    1    3    3    0    0  0.28350317944E+01  0.10709412972E+02  0.29903298734E+02  0.31889437231E+02  0.51100000000E-03 0.  1.
        -12    1    3    3    0    0 -0.76622607738E+01  0.87264034094E+01  0.48247238098E+01  0.12575305820E+02  0.00000000000E+00 0.  1.
</event>
<event>
 7    1  0.1019486E-010  0.4778727E+02  0.7816164E-02  0.1312668E+00
        -11   -1    0    0    0    0  0.00000000000E+00  0.00000000000E+00  0.45593999997E+02  0.45594000000E+02  0.51100000000E-03 0. -1.
         11   -1    0    0    0    0 -0.00000000000E+00 -0.00000000000E+00 -0.45593999997E+02  0.45594000000E+02  0.51100000000E-03 0.  1.
    9900012    2    1    2    0    0  0.14663633787E+02 -0.27958971681E+02 -0.29780822975E+02  0.47787266476E+02  0.19999979172E+02 0.  0.
         12    1    1    2    0    0 -0.14663633787E+02  0.27958971681E+02  0.29780822975E+02  0.43400733524E+02  0.00000000000E+00 0. -1.
         11    1    3    3    0    0  0.48039041960E+01 -0.11415929675E+02 -0.21417816243E+02  0.24741135761E+02  0.51100000000E-03 0. -1.
        -11    1    3    3    0    0  0.38859491791E+00 -0.49221602167E+01 -0.61583992699E+01  0.78933230668E+01  0.51100000000E-03 0.  1.
         12    1    3    3    0    0  0.94711346734E+01 -0.11620881790E+02 -0.22046074623E+01  0.15152807649E+02  0.00000000000E+00 0. -1.
</event>
<event>
 7    1  0.1059190E-010  0.4778727E+02  0.7816164E-02  0.1312668E+00
        -11   -1    0    0    0    0  0.00000000000E+00  0.00000000000E+00  0.45593999997E+02  0.45594000000E+02  0.51100000000E-03 0. -1.
         11   -1    0    0    0    0 -0.00000000000E+00 -0.00000000000E+00 -0.45593999997E+02  0.45594000000E+02  0.51100000000E-03 0.  1.
    9900012    2    1    2    0    0 -0.18969855992E+02 -0.13530148515E+02 -0.36615616819E+02  0.47787265557E+02  0.19999974979E+02 0.  0.
         12    1    1    2    0    0  0.18969855992E+02  0.13530148515E+02  0.36615616819E+02  0.43400734443E+02  0.00000000000E+00 0. -1.
         11    1    3    3    0    0  0.36669147151E+01 -0.30095012243E+01 -0.24749523802E+01  0.53505841450E+01  0.51100000000E-03 0. -1.
        -11    1    3    3    0    0 -0.16428865069E+02 -0.64281435287E+01 -0.25898226679E+02  0.31336030094E+02  0.51100000000E-03 0.  1.
         12    1    3    3    0    0 -0.62079056380E+01 -0.40925037625E+01 -0.82424377599E+01  0.11100651318E+02  0.00000000000E+00 0. -1.
</event>
<event>
 7    1  0.1019486E-010  0.4778726E+02  0.7816164E-02  0.1312668E+00
        -11   -1    0    0    0    0  0.00000000000E+00  0.00000000000E+00  0.45593999997E+02  0.45594000000E+02  0.51100000000E-03 0. -1.
         11   -1    0    0    0    0 -0.00000000000E+00 -0.00000000000E+00 -0.45593999997E+02  0.45594000000E+02  0.51100000000E-03 0.  1.
    9900012    2    1    2    0    0  0.15646257953E+02  0.34338944463E+02  0.21439573408E+02  0.47787264953E+02  0.19999972225E+02 0.  0.
        -12    1    1    2    0    0 -0.15646257953E+02 -0.34338944463E+02 -0.21439573408E+02  0.43400735047E+02  0.00000000000E+00 0.  1.
         11    1    3    3    0    0  0.11135492127E+01  0.59644229668E+01  0.58547787233E+01  0.84316527049E+01  0.51100000000E-03 0. -1.
        -11    1    3    3    0    0 -0.22410293007E+01  0.77876417573E+01  0.87682401683E+01  0.11939497995E+02  0.51100000000E-03 0.  1.
        -12    1    3    3    0    0  0.16773738041E+02  0.20586879738E+02  0.68165545160E+01  0.27416114253E+02  0.00000000000E+00 0.  1.
</event>
<event>
 7    1  0.1019486E-010  0.4778727E+02  0.7816164E-02  0.1312668E+00
        -11   -1    0    0    0    0  0.00000000000E+00  0.00000000000E+00  0.45593999997E+02  0.45594000000E+02  0.51100000000E-03 0. -1.
         11   -1    0    0    0    0 -0.00000000000E+00 -0.00000000000E+00 -0.45593999997E+02  0.45594000000E+02  0.51100000000E-03 0.  1.
    9900012    2    1    2    0    0  0.17955592033E+02  0.16246364479E+02  0.36017713466E+02  0.47787270429E+02  0.19999997192E+02 0.  0.
        -12    1    1    2    0    0 -0.17955592033E+02 -0.16246364479E+02 -0.36017713466E+02  0.43400729571E+02  0.00000000000E+00 0.  1.
         11    1    3    3    0    0  0.10862865493E+01  0.35023575906E+01  0.88074032529E+01  0.95402766983E+01  0.51100000000E-03 0. -1.
        -11    1    3    3    0    0  0.17193248781E+01  0.10179643170E+02  0.56414209356E+01  0.11764643792E+02  0.51100000000E-03 0.  1.
        -12    1    3    3    0    0  0.15149980605E+02  0.25643637185E+01  0.21568889277E+02  0.26482349939E+02  0.00000000000E+00 0.  1.
</event>
<event>
 7    1  0.1019486E-010  0.4778727E+02  0.7816164E-02  0.1312668E+00
        -11   -1    0    0    0    0  0.00000000000E+00  0.00000000000E+00  0.45593999997E+02  0.45594000000E+02  0.51100000000E-03 0. -1.
         11   -1    0    0    0    0 -0.00000000000E+00 -0.00000000000E+00 -0.45593999997E+02  0.45594000000E+02  0.51100000000E-03 0.  1.
    9900012    2    1    2    0    0 -0.53532995708E+01  0.37460078911E+02  0.21253422018E+02  0.47787271022E+02  0.19999999899E+02 0.  0.
        -12    1    1    2    0    0  0.53532995708E+01 -0.37460078911E+02 -0.21253422018E+02  0.43400728978E+02  0.00000000000E+00 0.  1.
         11    1    3    3    0    0 -0.59760793180E+01  0.12132940231E+02  0.89360672990E+01  0.16210338112E+02  0.51100000000E-03 0. -1.
        -11    1    3    3    0    0  0.53010117289E+01  0.18701401293E+02  0.13081594015E+02  0.23430135251E+02  0.51100000000E-03 0.  1.
        -12    1    3    3    0    0 -0.46782319818E+01  0.66257373876E+01 -0.76423929601E+00  0.81467976596E+01  0.00000000000E+00 0.  1.
</event>
<event>
 7    1  0.1019486E-010  0.4778727E+02  0.7816164E-02  0.1312668E+00
        -11   -1    0    0    0    0  0.00000000000E+00  0.00000000000E+00  0.45593999997E+02  0.45594000000E+02  0.51100000000E-03 0. -1.
         11   -1    0    0    0    0 -0.00000000000E+00 -0.00000000000E+00 -0.45593999997E+02  0.45594000000E+02  0.51100000000E-03 0.  1.
    9900012    2    1    2    0    0 -0.15312296465E+02 -0.32541815417E+02  0.24293762742E+02  0.47787273257E+02  0.20000010088E+02 0.  0.
        -12    1    1    2    0    0  0.15312296465E+02  0.32541815417E+02 -0.24293762742E+02  0.43400726743E+02  0.00000000000E+00 0.  1.
         11    1    3    3    0    0  0.61475439084E-01 -0.27839208091E+01  0.11112482136E+02  0.11456057515E+02  0.51100000000E-03 0. -1.
        -11    1    3    3    0    0  0.20853932768E+00  0.21251929337E-01  0.23364787640E+00  0.31389789257E+00  0.51100000000E-03 0.  1.
         12    1    3    3    0    0 -0.15582311232E+02 -0.29779146537E+02  0.12947632730E+02  0.36017317850E+02  0.00000000000E+00 0. -1.
</event>
<event>
 7    1  0.1019486E-010  0.4778727E+02  0.7816164E-02  0.1312668E+00
        -11   -1    0    0    0    0  0.00000000000E+00  0.00000000000E+00  0.45593999997E+02  0.45594000000E+02  0.51100000000E-03 0. -1.
         11   -1    0    0    0    0 -0.00000000000E+00 -0.00000000000E+00 -0.45593999997E+02  0.45594000000E+02  0.51100000000E-03 0.  1.
    9900012    2    1    2    0    0 -0.12807796939E+02  0.12995156662E+02 -0.39379050456E+02  0.47787269892E+02  0.19999994745E+02 0.  0.
         12    1    1    2    0    0  0.12807796939E+02 -0.12995156662E+02  0.39379050456E+02  0.43400730108E+02  0.00000000000E+00 0. -1.
         11    1    3    3    0    0 -0.14251729122E+02  0.35235783372E+01 -0.30373983520E+02  0.33735830542E+02  0.51100000000E-03 0. -1.
        -11    1    3    3    0    0  0.17180265011E+01  0.97756171720E+01 -0.92557649355E+01  0.13571421847E+02  0.51100000000E-03 0.  1.
         12    1    3    3    0    0 -0.27409431815E+00 -0.30403884722E+00  0.25069799913E+00  0.48001750242E+00  0.00000000000E+00 0. -1.
</event>
<event>
 7    1  0.1019486E-010  0.4778727E+02  0.7816164E-02  0.1312668E+00
        -11   -1    0    0    0    0  0.00000000000E+00  0.00000000000E+00  0.45593999997E+02  0.45594000000E+02  0.51100000000E-03 0. -1.
         11   -1    0    0    0    0 -0.00000000000E+00 -0.00000000000E+00 -0.45593999997E+02  0.45594000000E+02  0.51100000000E-03 0.  1.
    9900012    2    1    2    0    0 -0.30494148459E+02 -0.13691776816E+02 -0.27681500427E+02  0.47787270645E+02  0.19999998180E+02 0.  0.
         12    1    1    2    0    0  0.30494148459E+02  0.13691776816E+02  0.27681500427E+02  0.43400729355E+02  0.00000000000E+00 0. -1.
         11    1    3    3    0    0 -0.85634401363E+01  0.37175787449E+01 -0.12885957491E+02  0.15912284544E+02  0.51100000000E-03 0. -1.
        -11    1    3    3    0    0 -0.21220778004E+02 -0.15754147664E+02 -0.13744288339E+02  0.29789596337E+02  0.51100000000E-03 0.  1.
         12    1    3    3    0    0 -0.70993031880E+00 -0.16552078972E+01 -0.10512545973E+01  0.20853897642E+01  0.00000000000E+00 0. -1.
</event>
<event>
 7    1  0.1019486E-010  0.4778727E+02  0.7816164E-02  0.1312668E+00
        -11   -1    0    0    0    0  0.00000000000E+00  0.00000000000E+00  0.45593999997E+02  0.45594000000E+02  0.51100000000E-03 0. -1.
         11   -1    0    0    0    0 -0.00000000000E+00 -0.00000000000E+00 -0.45593999997E+02  0.45594000000E+02  0.51100000000E-03 0.  1.
    9900012    2    1    2    0    0  0.12007437903E+01 -0.34999631485E+02 -0.25636050834E+02  0.47787273138E+02  0.20000009547E+02 0.  0.
         12    1    1    2    0    0 -0.12007437903E+01  0.34999631485E+02  0.25636050834E+02  0.43400726862E+02  0.00000000000E+00 0. -1.
         11    1    3    3    0    0  0.20719297892E+01 -0.23753150906E+02 -0.59898332287E+01  0.24584205771E+02  0.51100000000E-03 0.  1.
        -11    1    3    3    0    0 -0.14383545664E+01 -0.18206306496E+01 -0.72987160835E+01  0.76586432577E+01  0.51100000000E-03 0. -1.
        -12    1    3    3    0    0  0.56716856752E+00 -0.94258499299E+01 -0.12347501522E+02  0.15544424110E+02  0.00000000000E+00 0.  1.
</event>
<event>
 7    1  0.1019486E-010  0.4778727E+02  0.7816164E-02  0.1312668E+00
        -11   -1    0    0    0    0  0.00000000000E+00  0.00000000000E+00  0.45593999997E+02  0.45594000000E+02  0.51100000000E-03 0.  1.
         11   -1    0    0    0    0 -0.00000000000E+00 -0.00000000000E+00 -0.45593999997E+02  0.45594000000E+02  0.51100000000E-03 0. -1.
    9900012    2    1    2    0    0 -0.16992639617E+02  0.36945483662E+02  0.15162615648E+02  0.47787268700E+02  0.19999989309E+02 0.  0.
        -12    1    1    2    0    0  0.16992639617E+02 -0.36945483662E+02 -0.15162615648E+02  0.43400731300E+02  0.00000000000E+00 0.  1.
         11    1    3    3    0    0 -0.14453104106E+02  0.23580116489E+02  0.99860417578E+01  0.29404678916E+02  0.51100000000E-03 0. -1.
        -11    1    3    3    0    0 -0.90598644442E-02  0.38728142845E+01  0.73618871000E+01  0.83184225968E+01  0.51100000000E-03 0.  1.
         12    1    3    3    0    0 -0.25304756466E+01  0.94925528882E+01 -0.21853132103E+01  0.10064167187E+02  0.00000000000E+00 0. -1.
</event>
<event>
 7    1  0.1019486E-010  0.4778726E+02  0.7816164E-02  0.1312668E+00
        -11   -1    0    0    0    0  0.00000000000E+00  0.00000000000E+00  0.45593999997E+02  0.45594000000E+02  0.51100000000E-03 0. -1.
         11   -1    0    0    0    0 -0.00000000000E+00 -0.00000000000E+00 -0.45593999997E+02  0.45594000000E+02  0.51100000000E-03 0.  1.
    9900012    2    1    2    0    0  0.91590218253E+01  0.28365936415E+02  0.31545361396E+02  0.47787264348E+02  0.19999969470E+02 0.  0.
        -12    1    1    2    0    0 -0.91590218253E+01 -0.28365936415E+02 -0.31545361396E+02  0.43400735652E+02  0.00000000000E+00 0.  1.
         11    1    3    3    0    0  0.52618732401E+01  0.23602540625E+02  0.31079031104E+02  0.39378590739E+02  0.51100000000E-03 0. -1.
        -11    1    3    3    0    0  0.79942002912E+00  0.43883426376E+01 -0.15168672345E+01  0.47114233471E+01  0.51100000000E-03 0.  1.
         12    1    3    3    0    0  0.30977285561E+01  0.37505315249E+00  0.19831975259E+01  0.36972502622E+01  0.00000000000E+00 0. -1.
</event>
<event>
 7    1  0.1019486E-010  0.4778727E+02  0.7816164E-02  0.1312668E+00
        -11   -1    0    0    0    0  0.00000000000E+00  0.00000000000E+00  0.45593999997E+02  0.45594000000E+02  0.51100000000E-03 0. -1.
         11   -1    0    0    0    0 -0.00000000000E+00 -0.00000000000E+00 -0.45593999997E+02  0.45594000000E+02  0.51100000000E-03 0.  1.
    9900012    2    1    2    0    0 -0.37562687402E+02 -0.19678973222E+02  0.92415389544E+01  0.47787268276E+02  0.19999987378E+02 0.  0.
        -12    1    1    2    0    0  0.37562687402E+02  0.19678973222E+02 -0.92415389544E+01  0.43400731724E+02  0.00000000000E+00 0.  1.
         11    1    3    3    0    0 -0.29750595353E+02 -0.95951154378E+01  0.11146919783E+02  0.33187617948E+02  0.51100000000E-03 0. -1.
        -11    1    3    3    0    0 -0.45340180498E+01 -0.23449961961E+01 -0.33026452153E+01  0.60797855649E+01  0.51100000000E-03 0.  1.
         12    1    3    3    0    0 -0.32780739990E+01 -0.77388615882E+01  0.13972643866E+01  0.85198647636E+01  0.00000000000E+00 0. -1.
</event>
<event>
 7    1  0.1019486E-010  0.4778727E+02  0.7816164E-02  0.1312668E+00
        -11   -1    0    0    0    0  0.00000000000E+00  0.00000000000E+00  0.45593999997E+02  0.45594000000E+02  0.51100000000E-03 0. -1.
         11   -1    0    0    0    0 -0.00000000000E+00 -0.00000000000E+00 -0.45593999997E+02  0.45594000000E+02  0.51100000000E-03 0.  1.
    9900012    2    1    2    0    0 -0.34105072726E+02  0.89378201331E+01 -0.25309738520E+02  0.47787268689E+02  0.19999989260E+02 0.  0.
         12    1    1    2    0    0  0.34105072726E+02 -0.89378201331E+01  0.25309738520E+02  0.43400731311E+02  0.00000000000E+00 0. -1.
         11    1    3    3    0    0 -0.63763720561E+01 -0.70910577514E+00 -0.12786961178E+02  0.14306198937E+02  0.51100000000E-03 0. -1.
        -11    1    3    3    0    0 -0.28372433005E+02  0.86028227292E+01 -0.12677544995E+02  0.32244746253E+02  0.51100000000E-03 0.  1.
        -12    1    3    3    0    0  0.64373233523E+00  0.10441031790E+01  0.15476765258E+00  0.12363234990E+01  0.00000000000E+00 0.  1.
</event>
<event>
 7    1  0.1019486E-010  0.4778727E+02  0.7816164E-02  0.1312668E+00
        -11   -1    0    0    0    0  0.00000000000E+00  0.00000000000E+00  0.45593999997E+02  0.45594000000E+02  0.51100000000E-03 0. -1.
         11   -1    0    0    0    0 -0.00000000000E+00 -0.00000000000E+00 -0.45593999997E+02  0.45594000000E+02  0.51100000000E-03 0.  1.
    9900012    2    1    2    0    0 -0.88288667650E+01 -0.15208620505E+02  0.39678361438E+02  0.47787269679E+02  0.19999993772E+02 0.  0.
        -12    1    1    2    0    0  0.88288667650E+01  0.15208620505E+02 -0.39678361438E+02  0.43400730321E+02  0.00000000000E+00 0.  1.
         11    1    3    3    0    0 -0.39884419201E+01 -0.12914310614E+02  0.20326864740E+02  0.24410418227E+02  0.51100000000E-03 0. -1.
        -11    1    3    3    0    0  0.12452611482E+01  0.22858342587E+01  0.13562245284E+02  0.13809786783E+02  0.51100000000E-03 0.  1.
         12    1    3    3    0    0 -0.60856859932E+01 -0.45801441499E+01  0.57892514134E+01  0.95670646684E+01  0.00000000000E+00 0. -1.
</event>
<event>
 7    1  0.1019486E-010  0.4778727E+02  0.7816164E-02  0.1312668E+00
        -11   -1    0    0    0    0  0.00000000000E+00  0.00000000000E+00  0.45593999997E+02  0.45594000000E+02  0.51100000000E-03 0. -1.
         11   -1    0    0    0    0 -0.00000000000E+00 -0.00000000000E+00 -0.45593999997E+02  0.45594000000E+02  0.51100000000E-03 0.  1.
    9900012    2    1    2    0    0 -0.27127366380E+02 -0.10063719170E+02 -0.32348890032E+02  0.47787272626E+02  0.20000007212E+02 0.  0.
         12    1    1    2    0    0  0.27127366380E+02  0.10063719170E+02  0.32348890032E+02  0.43400727374E+02  0.00000000000E+00 0. -1.
         11    1    3    3    0    0 -0.12915286704E+01 -0.12443702025E+01 -0.41308162263E+00  0.18404184838E+01  0.51100000000E-03 0. -1.
        -11    1    3    3    0    0 -0.12843950348E+02 -0.13976316867E+02 -0.19899629650E+02  0.27500904606E+02  0.51100000000E-03 0.  1.
        -12    1    3    3    0    0 -0.12991887362E+02  0.51569678998E+01 -0.12036178760E+02  0.18445949536E+02  0.00000000000E+00 0.  1.
</event>
<event>
 7    1  0.1019486E-010  0.4778727E+02  0.7816164E-02  0.1312668E+00
        -11   -1    0    0    0    0  0.00000000000E+00  0.00000000000E+00  0.45593999997E+02  0.45594000000E+02  0.51100000000E-03 0. -1.
         11   -1    0    0    0    0 -0.00000000000E+00 -0.00000000000E+00 -0.45593999997E+02  0.45594000000E+02  0.51100000000E-03 0.  1.
    9900012    2    1    2    0    0  0.20027492053E+02 -0.36971668029E+02 -0.10752601910E+02  0.47787272787E+02  0.20000007945E+02 0.  0.
         12    1    1    2    0    0 -0.20027492053E+02  0.36971668029E+02  0.10752601910E+02  0.43400727213E+02  0.00000000000E+00 0. -1.
         11    1    3    3    0    0  0.41852034340E+01 -0.14136700273E+02  0.30576740788E+01  0.15056945023E+02  0.51100000000E-03 0. -1.
        -11    1    3    3    0    0  0.43527702340E+01 -0.59372563865E+00 -0.36571737505E+01  0.57161209702E+01  0.51100000000E-03 0.  1.
        -12    1    3    3    0    0  0.11489518385E+02 -0.22241242118E+02 -0.10153102238E+02  0.27014206794E+02  0.00000000000E+00 0.  1.
</event>
<event>
 7    1  0.1019486E-010  0.4778727E+02  0.7816164E-02  0.1312668E+00
        -11   -1    0    0    0    0  0.00000000000E+00  0.00000000000E+00  0.45593999997E+02  0.45594000000E+02  0.51100000000E-03 0. -1.
         11   -1    0    0    0    0 -0.00000000000E+00 -0.00000000000E+00 -0.45593999997E+02  0.45594000000E+02  0.51100000000E-03 0.  1.
    9900012    2    1    2    0    0 -0.18283675387E+02  0.35613560582E+02  0.16763201185E+02  0.47787269626E+02  0.19999993535E+02 0.  0.
        -12    1    1    2    0    0  0.18283675387E+02 -0.35613560582E+02 -0.16763201185E+02  0.43400730374E+02  0.00000000000E+00 0.  1.
         11    1    3    3    0    0 -0.31958259445E+01  0.33594487311E+01 -0.29183955752E+01  0.54787071685E+01  0.51100000000E-03 0. -1.
        -11    1    3    3    0    0  0.11465510096E+01  0.89474548426E+01  0.40531594188E+01  0.98893694902E+01  0.51100000000E-03 0.  1.
         12    1    3    3    0    0 -0.16234400452E+02  0.23306657008E+02  0.15628437341E+02  0.32419192968E+02  0.00000000000E+00 0. -1.
</event>
<event>
 7    1  0.1019486E-010  0.4778727E+02  0.7816164E-02  0.1312668E+00
        -11   -1    0    0    0    0  0.00000000000E+00  0.00000000000E+00  0.45593999997E+02  0.45594000000E+02  0.51100000000E-03 0. -1.
         11   -1    0    0    0    0 -0.00000000000E+00 -0.00000000000E+00 -0.45593999997E+02  0.45594000000E+02  0.51100000000E-03 0.  1.
    9900012    2    1    2    0    0  0.21702349166E+02 -0.11421462770E+02  0.35807562488E+02  0.47787270715E+02  0.19999998498E+02 0.  0.
        -12    1    1    2    0    0 -0.21702349166E+02  0.11421462770E+02 -0.35807562488E+02  0.43400729285E+02  0.00000000000E+00 0.  1.
         11    1    3    3    0    0  0.22767808916E+02 -0.94443355459E+01  0.26983702679E+02  0.36547076590E+02  0.51100000000E-03 0. -1.
        -11    1    3    3    0    0 -0.20322124244E+01 -0.17675755363E+01  0.35836526534E+00  0.27171007598E+01  0.51100000000E-03 0.  1.
         12    1    3    3    0    0  0.96675267413E+00 -0.20955168832E+00  0.84654945437E+01  0.85230933652E+01  0.00000000000E+00 0. -1.
</event>
<event>
 7    1  0.1019486E-010  0.4778727E+02  0.7816164E-02  0.1312668E+00
        -11   -1    0    0    0    0  0.00000000000E+00  0.00000000000E+00  0.45593999997E+02  0.45594000000E+02  0.51100000000E-03 0. -1.
         11   -1    0    0    0    0 -0.00000000000E+00 -0.00000000000E+00 -0.45593999997E+02  0.45594000000E+02  0.51100000000E-03 0.  1.
    9900012    2    1    2    0    0 -0.97045103429E+01 -0.26048622476E+02  0.33330393584E+02  0.47787269703E+02  0.19999993882E+02 0.  0.
        -12    1    1    2    0    0  0.97045103429E+01  0.26048622476E+02 -0.33330393584E+02  0.43400730297E+02  0.00000000000E+00 0.  1.
         11    1    3    3    0    0 -0.85569885332E+01 -0.82897959349E+01  0.12384334677E+02  0.17184717485E+02  0.51100000000E-03 0. -1.
        -11    1    3    3    0    0  0.12425274056E+01 -0.11017716140E+02  0.20656912156E+02  0.23444444190E+02  0.51100000000E-03 0.  1.
        -12    1    3    3    0    0 -0.23900492152E+01 -0.67411104005E+01  0.28914675120E+00  0.71581080271E+01  0.00000000000E+00 0.  1.
</event>
<event>
 7    1  0.1019486E-010  0.4778732E+02  0.7816164E-02  0.1312668E+00
        -11   -1    0    0    0    0  0.00000000000E+00  0.00000000000E+00  0.45593999997E+02  0.45594000000E+02  0.51100000000E-03 0.  1.
         11   -1    0    0    0    0 -0.00000000000E+00 -0.00000000000E+00 -0.45593999997E+02  0.45594000000E+02  0.51100000000E-03 0. -1.
    9900012    2    1    2    0    0 -0.56876994962E+01  0.34436646665E+02  0.25795087989E+02  0.47787318859E+02  0.20000218006E+02 0.  0.
        -12    1    1    2    0    0  0.56876994962E+01 -0.34436646665E+02 -0.25795087989E+02  0.43400681141E+02  0.00000000000E+00 0.  1.
         11    1    3    3    0    0  0.11196087528E+01  0.25144465689E+02  0.12568569250E+02  0.28133016401E+02  0.51100000000E-03 0. -1.
        -11    1    3    3    0    0  0.16935458493E+00  0.71501576826E+01  0.76247622856E+01  0.10454206619E+02  0.51100000000E-03 0.  1.
         12    1    3    3    0    0 -0.69766628339E+01  0.21420232930E+01  0.56017564539E+01  0.92000958394E+01  0.00000000000E+00 0. -1.
</event>
<event>
 7    1  0.1019486E-010  0.4778726E+02  0.7816164E-02  0.1312668E+00
        -11   -1    0    0    0    0  0.00000000000E+00  0.00000000000E+00  0.45593999997E+02  0.45594000000E+02  0.51100000000E-03 0. -1.
         11   -1    0    0    0    0 -0.00000000000E+00 -0.00000000000E+00 -0.45593999997E+02  0.45594000000E+02  0.51100000000E-03 0.  1.
    9900012    2    1    2    0    0  0.24293257792E+01 -0.41234939005E+02  0.13319249874E+02  0.47787259964E+02  0.19999949479E+02 0.  0.
        -12    1    1    2    0    0 -0.24293257792E+01  0.41234939005E+02 -0.13319249874E+02  0.43400740036E+02  0.00000000000E+00 0.  1.
         11    1    3    3    0    0  0.32853185638E+01 -0.30704432601E+02  0.17512527399E+02  0.35499917121E+02  0.51100000000E-03 0. -1.
        -11    1    3    3    0    0  0.13361230603E+00 -0.73557234850E+01 -0.49624006506E+01  0.88741163342E+01  0.51100000000E-03 0.  1.
        -12    1    3    3    0    0 -0.98960509059E+00 -0.31747829192E+01  0.76912312547E+00  0.34132265089E+01  0.00000000000E+00 0.  1.
</event>
<event>
 7    1  0.1019486E-010  0.4778727E+02  0.7816164E-02  0.1312668E+00
        -11   -1    0    0    0    0  0.00000000000E+00  0.00000000000E+00  0.45593999997E+02  0.45594000000E+02  0.51100000000E-03 0. -1.
         11   -1    0    0    0    0 -0.00000000000E+00 -0.00000000000E+00 -0.45593999997E+02  0.45594000000E+02  0.51100000000E-03 0.  1.
    9900012    2    1    2    0    0 -0.12255426717E+02  0.72461693740E+01 -0.40999030475E+02  0.47787274723E+02  0.20000016774E+02 0.  0.
         12    1    1    2    0    0  0.12255426717E+02 -0.72461693740E+01  0.40999030475E+02  0.43400725277E+02  0.00000000000E+00 0. -1.
         11    1    3    3    0    0 -0.43327219358E+01  0.11548240341E+00 -0.41352004769E+01  0.59904673277E+01  0.51100000000E-03 0. -1.
        -11    1    3    3    0    0  0.10224888545E+01 -0.45002238782E+01 -0.12866791704E+02  0.13669375532E+02  0.51100000000E-03 0.  1.
        -12    1    3    3    0    0 -0.89451936361E+01  0.11630910849E+02 -0.23997038294E+02  0.28127431864E+02  0.00000000000E+00 0.  1.
</event>
<event>
 7    1  0.1019486E-010  0.4778726E+02  0.7816164E-02  0.1312668E+00
        -11   -1    0    0    0    0  0.00000000000E+00  0.00000000000E+00  0.45593999997E+02  0.45594000000E+02  0.51100000000E-03 0. -1.
         11   -1    0    0    0    0 -0.00000000000E+00 -0.00000000000E+00 -0.45593999997E+02  0.45594000000E+02  0.51100000000E-03 0.  1.
    9900012    2    1    2    0    0 -0.26936797705E+00 -0.36148022783E+02  0.24018153567E+02  0.47787264856E+02  0.19999971786E+02 0.  0.
        -12    1    1    2    0    0  0.26936797705E+00  0.36148022783E+02 -0.24018153567E+02  0.43400735144E+02  0.00000000000E+00 0.  1.
         11    1    3    3    0    0  0.53444866854E+01 -0.99748765966E+01  0.86691006224E+01  0.14255350115E+02  0.51100000000E-03 0. -1.
        -11    1    3    3    0    0 -0.51073070075E+01 -0.27688800612E+02  0.14975606612E+02  0.31890798954E+02  0.51100000000E-03 0.  1.
        -12    1    3    3    0    0 -0.50654765486E+00  0.15156544258E+01  0.37344633201E+00  0.16411157875E+01  0.00000000000E+00 0.  1.
</event>
<event>
 7    1  0.1019486E-010  0.4778727E+02  0.7816164E-02  0.1312668E+00
        -11   -1    0    0    0    0  0.00000000000E+00  0.00000000000E+00  0.45593999997E+02  0.45594000000E+02  0.51100000000E-03 0. -1.
         11   -1    0    0    0    0 -0.00000000000E+00 -0.00000000000E+00 -0.45593999997E+02  0.45594000000E+02  0.51100000000E-03 0.  1.
    9900012    2    1    2    0    0 -0.31604114758E+02  0.10941167178E+02  0.27660340338E+02  0.47787266867E+02  0.19999980955E+02 0.  0.
        -12    1    1    2    0    0  0.31604114758E+02 -0.10941167178E+02 -0.27660340338E+02  0.43400733133E+02  0.00000000000E+00 0.  1.
         11    1    3    3    0    0 -0.48973316962E+01  0.85940073159E+01  0.75442147576E+01  0.12440096304E+02  0.51100000000E-03 0. -1.
        -11    1    3    3    0    0 -0.13157398735E+02 -0.63908243023E+00  0.16299809911E+02  0.20957322616E+02  0.51100000000E-03 0.  1.
         12    1    3    3    0    0 -0.13549384327E+02  0.29862422921E+01  0.38163156690E+01  0.14389847947E+02  0.00000000000E+00 0. -1.
</event>
<event>
 7    1  0.1019486E-010  0.4778726E+02  0.7816164E-02  0.1312668E+00
        -11   -1    0    0    0    0  0.00000000000E+00  0.00000000000E+00  0.45593999997E+02  0.45594000000E+02  0.51100000000E-03 0. -1.
         11   -1    0    0    0    0 -0.00000000000E+00 -0.00000000000E+00 -0.45593999997E+02  0.45594000000E+02  0.51100000000E-03 0.  1.
    9900012    2    1    2    0    0 -0.11843193960E+02  0.31180060382E+02 -0.27769886234E+02  0.47787262794E+02  0.19999962382E+02 0.  0.
         12    1    1    2    0    0  0.11843193960E+02 -0.31180060382E+02  0.27769886234E+02  0.43400737206E+02  0.00000000000E+00 0. -1.
         11    1    3    3    0    0 -0.27058977099E+01  0.96653320266E+01  0.59500440727E+00  0.10054578863E+02  0.51100000000E-03 0. -1.
        -11    1    3    3    0    0 -0.90400426406E+01  0.10808360336E+02 -0.17658380112E+02  0.22591179972E+02  0.51100000000E-03 0.  1.
        -12    1    3    3    0    0 -0.97253609934E-01  0.10706368019E+02 -0.10706510530E+02  0.15141503959E+02  0.00000000000E+00 0.  1.
</event>
<event>
 7    1  0.1019486E-010  0.4778727E+02  0.7816164E-02  0.1312668E+00
        -11   -1    0    0    0    0  0.00000000000E+00  0.00000000000E+00  0.45593999997E+02  0.45594000000E+02  0.51100000000E-03 0. -1.
         11   -1    0    0    0    0 -0.00000000000E+00 -0.00000000000E+00 -0.45593999997E+02  0.45594000000E+02  0.51100000000E-03 0.  1.
    9900012    2    1    2    0    0  0.20644356503E+02  0.80351850716E+01  0.37321166452E+02  0.47787272818E+02  0.20000008085E+02 0.  0.
        -12    1    1    2    0    0 -0.20644356503E+02 -0.80351850716E+01 -0.37321166452E+02  0.43400727182E+02  0.00000000000E+00 0.  1.
         11    1    3    3    0    0  0.62976118276E+01  0.84042725479E+01  0.17296874567E+02  0.20235453587E+02  0.51100000000E-03 0. -1.
        -11    1    3    3    0    0  0.88820124209E+01 -0.62726402553E+01  0.11162244887E+02  0.15583063614E+02  0.51100000000E-03 0.  1.
        -12    1    3    3    0    0  0.54647322550E+01  0.59035527789E+01  0.88620469977E+01  0.11968755617E+02  0.00000000000E+00 0.  1.
</event>
<event>
 7    1  0.1019486E-010  0.4778727E+02  0.7816164E-02  0.1312668E+00
        -11   -1    0    0    0    0  0.00000000000E+00  0.00000000000E+00  0.45593999997E+02  0.45594000000E+02  0.51100000000E-03 0. -1.
         11   -1    0    0    0    0 -0.00000000000E+00 -0.00000000000E+00 -0.45593999997E+02  0.45594000000E+02  0.51100000000E-03 0.  1.
    9900012    2    1    2    0    0 -0.18917646659E+02  0.19683979753E+02  0.33738506352E+02  0.47787271608E+02  0.20000002571E+02 0.  0.
        -12    1    1    2    0    0  0.18917646659E+02 -0.19683979753E+02 -0.33738506352E+02  0.43400728392E+02  0.00000000000E+00 0.  1.
         11    1    3    3    0    0 -0.48041690660E+01  0.11241845012E+02  0.20397963312E+02  0.23781001393E+02  0.51100000000E-03 0. -1.
        -11    1    3    3    0    0 -0.13761587275E+02  0.54033384141E+01  0.58223321139E+01  0.15889521763E+02  0.51100000000E-03 0.  1.
        -12    1    3    3    0    0 -0.35189031813E+00  0.30387963264E+01  0.75182109263E+01  0.81167484526E+01  0.00000000000E+00 0.  1.
</event>
<event>
 7    1  0.1019486E-010  0.4778727E+02  0.7816164E-02  0.1312668E+00
        -11   -1    0    0    0    0  0.00000000000E+00  0.00000000000E+00  0.45593999997E+02  0.45594000000E+02  0.51100000000E-03 0. -1.
         11   -1    0    0    0    0 -0.00000000000E+00 -0.00000000000E+00 -0.45593999997E+02  0.45594000000E+02  0.51100000000E-03 0.  1.
    9900012    2    1    2    0    0  0.38697218928E+02  0.81405942724E+01 -0.17885171628E+02  0.47787269683E+02  0.19999993792E+02 0.  0.
         12    1    1    2    0    0 -0.38697218928E+02 -0.81405942724E+01  0.17885171628E+02  0.43400730317E+02  0.00000000000E+00 0. -1.
         11    1    3    3    0    0  0.13269284190E+02  0.12328745819E+02 -0.83311432666E+01  0.19936896067E+02  0.51100000000E-03 0. -1.
        -11    1    3    3    0    0  0.24071486549E+02 -0.31599413531E+01 -0.80466529181E+01  0.25576753458E+02  0.51100000000E-03 0.  1.
         12    1    3    3    0    0  0.13564481899E+01 -0.10282101938E+01 -0.15073754436E+01  0.22736201579E+01  0.00000000000E+00 0. -1.
</event>
<event>
 7    1  0.1019486E-010  0.4778727E+02  0.7816164E-02  0.1312668E+00
        -11   -1    0    0    0    0  0.00000000000E+00  0.00000000000E+00  0.45593999997E+02  0.45594000000E+02  0.51100000000E-03 0. -1.
         11   -1    0    0    0    0 -0.00000000000E+00 -0.00000000000E+00 -0.45593999997E+02  0.45594000000E+02  0.51100000000E-03 0.  1.
    9900012    2    1    2    0    0  0.20712454226E+02 -0.31523313992E+02  0.21468551370E+02  0.47787265179E+02  0.19999973257E+02 0.  0.
        -12    1    1    2    0    0 -0.20712454226E+02  0.31523313992E+02 -0.21468551370E+02  0.43400734821E+02  0.00000000000E+00 0.  1.
         11    1    3    3    0    0  0.23748725610E+02 -0.21175832644E+02  0.16024824139E+02  0.35626013603E+02  0.51100000000E-03 0. -1.
        -11    1    3    3    0    0 -0.26662347756E+01 -0.84594408748E+01  0.50180282899E+01  0.10190758361E+02  0.51100000000E-03 0.  1.
         12    1    3    3    0    0 -0.37003660932E+00 -0.18880404738E+01  0.42569894042E+00  0.19704932151E+01  0.00000000000E+00 0. -1.
</event>
<event>
 7    1  0.1019486E-010  0.4778727E+02  0.7816164E-02  0.1312668E+00
        -11   -1    0    0    0    0  0.00000000000E+00  0.00000000000E+00  0.45593999997E+02  0.45594000000E+02  0.51100000000E-03 0. -1.
         11   -1    0    0    0    0 -0.00000000000E+00 -0.00000000000E+00 -0.45593999997E+02  0.45594000000E+02  0.51100000000E-03 0.  1.
    9900012    2    1    2    0    0 -0.41158820723E+02 -0.13751159488E+02 -0.69295969093E+00  0.47787273005E+02  0.20000008940E+02 0.  0.
         12    1    1    2    0    0  0.41158820723E+02  0.13751159488E+02  0.69295969093E+00  0.43400726995E+02  0.00000000000E+00 0. -1.
         11    1    3    3    0    0 -0.19986332961E+02 -0.23968788961E+00 -0.78038211080E+01  0.21457180142E+02  0.51100000000E-03 0. -1.
        -11    1    3    3    0    0 -0.13154323782E+02 -0.63945560020E+01  0.38603699160E+01  0.15127096112E+02  0.51100000000E-03 0.  1.
         12    1    3    3    0    0 -0.80181639803E+01 -0.71169155962E+01  0.32504915011E+01  0.11202996752E+02  0.00000000000E+00 0. -1.
</event>
<event>
 7    1  0.1019486E-010  0.4778726E+02  0.7816164E-02  0.1312668E+00
        -11   -1    0    0    0    0  0.00000000000E+00  0.00000000000E+00  0.45593999997E+02  0.45594000000E+02  0.51100000000E-03 0. -1.
         11   -1    0    0    0    0 -0.00000000000E+00 -0.00000000000E+00 -0.45593999997E+02  0.45594000000E+02  0.51100000000E-03 0.  1.
    9900012    2    1    2    0    0 -0.22190574829E+02 -0.41568576932E+01 -0.37066467097E+02  0.47787261986E+02  0.19999958699E+02 0.  0.
         12    1    1    2    0    0  0.22190574829E+02  0.41568576932E+01  0.37066467097E+02  0.43400738014E+02  0.00000000000E+00 0. -1.
         11    1    3    3    0    0 -0.11112901793E+02 -0.89880038506E+01 -0.15958257640E+02  0.21423043356E+02  0.51100000000E-03 0. -1.
        -11    1    3    3    0    0 -0.28585894070E+01  0.52095468927E+01 -0.14948113196E+02  0.16085925544E+02  0.51100000000E-03 0.  1.
        -12    1    3    3    0    0 -0.82190836290E+01 -0.37840073532E+00 -0.61600962616E+01  0.10278293086E+02  0.00000000000E+00 0.  1.
</event>
<event>
 7    1  0.1019486E-010  0.4778727E+02  0.7816164E-02  0.1312668E+00
        -11   -1    0    0    0    0  0.00000000000E+00  0.00000000000E+00  0.45593999997E+02  0.45594000000E+02  0.51100000000E-03 0. -1.
         11   -1    0    0    0    0 -0.00000000000E+00 -0.00000000000E+00 -0.45593999997E+02  0.45594000000E+02  0.51100000000E-03 0.  1.
    9900012    2    1    2    0    0 -0.13506475375E+02  0.29672273081E+02 -0.28648813751E+02  0.47787271939E+02  0.20000004081E+02 0.  0.
         12    1    1    2    0    0  0.13506475375E+02 -0.29672273081E+02  0.28648813751E+02  0.43400728061E+02  0.00000000000E+00 0. -1.
         11    1    3    3    0    0 -0.71717694925E+01  0.95242766779E+00 -0.82709078846E+00  0.72818593470E+01  0.51100000000E-03 0. -1.
        -11    1    3    3    0    0 -0.37047518284E+01  0.14452518136E+02 -0.14665427255E+02  0.20920688885E+02  0.51100000000E-03 0.  1.
         12    1    3    3    0    0 -0.26299540544E+01  0.14267327276E+02 -0.13156295708E+02  0.19584723707E+02  0.00000000000E+00 0. -1.
</event>
<event>
 7    1  0.1019486E-010  0.4778727E+02  0.7816164E-02  0.1312668E+00
        -11   -1    0    0    0    0  0.00000000000E+00  0.00000000000E+00  0.45593999997E+02  0.45594000000E+02  0.51100000000E-03 0. -1.
         11   -1    0    0    0    0 -0.00000000000E+00 -0.00000000000E+00 -0.45593999997E+02  0.45594000000E+02  0.51100000000E-03 0.  1.
    9900012    2    1    2    0    0 -0.11437049238E+02  0.21167047713E+02  0.36121643656E+02  0.47787272534E+02  0.20000006792E+02 0.  0.
        -12    1    1    2    0    0  0.11437049238E+02 -0.21167047713E+02 -0.36121643656E+02  0.43400727466E+02  0.00000000000E+00 0.  1.
         11    1    3    3    0    0 -0.46400748403E+01  0.15288338169E+02  0.14122841084E+02  0.21324122937E+02  0.51100000000E-03 0. -1.
        -11    1    3    3    0    0 -0.35922295395E+01  0.27487829244E+01  0.21482913112E+02  0.21953939890E+02  0.51100000000E-03 0.  1.
        -12    1    3    3    0    0 -0.32047448580E+01  0.31299266195E+01  0.51588945997E+00  0.45092097072E+01  0.00000000000E+00 0.  1.
</event>
<event>
 7    1  0.1019486E-010  0.4778727E+02  0.7816164E-02  0.1312668E+00
        -11   -1    0    0    0    0  0.00000000000E+00  0.00000000000E+00  0.45593999997E+02  0.45594000000E+02  0.51100000000E-03 0. -1.
         11   -1    0    0    0    0 -0.00000000000E+00 -0.00000000000E+00 -0.45593999997E+02  0.45594000000E+02  0.51100000000E-03 0.  1.
    9900012    2    1    2    0    0  0.31763718532E+02 -0.11687483369E+02 -0.27167851347E+02  0.47787271558E+02  0.20000002343E+02 0.  0.
         12    1    1    2    0    0 -0.31763718532E+02  0.11687483369E+02  0.27167851347E+02  0.43400728442E+02  0.00000000000E+00 0. -1.
         11    1    3    3    0    0  0.17720886395E+02 -0.11018134007E+01 -0.21729967387E+02  0.28061277417E+02  0.51100000000E-03 0. -1.
        -11    1    3    3    0    0  0.28445670103E+01 -0.13751097365E+01 -0.40839115345E+01  0.51634118513E+01  0.51100000000E-03 0.  1.
         12    1    3    3    0    0  0.11198265127E+02 -0.92105602317E+01 -0.13539724261E+01  0.14562582290E+02  0.00000000000E+00 0. -1.
</event>
<event>
 7    1  0.1019486E-010  0.4778730E+02  0.7816164E-02  0.1312668E+00
        -11   -1    0    0    0    0  0.00000000000E+00  0.00000000000E+00  0.45593999997E+02  0.45594000000E+02  0.51100000000E-03 0. -1.
         11   -1    0    0    0    0 -0.00000000000E+00 -0.00000000000E+00 -0.45593999997E+02  0.45594000000E+02  0.51100000000E-03 0.  1.
    9900012    2    1    2    0    0  0.13176267436E+02 -0.41013273158E+02 -0.52837869832E+01  0.47787297200E+02  0.20000119252E+02 0.  0.
         12    1    1    2    0    0 -0.13176267436E+02  0.41013273158E+02  0.52837869832E+01  0.43400702800E+02  0.00000000000E+00 0. -1.
         11    1    3    3    0    0  0.36758312279E+01 -0.13441319869E+02  0.62661641020E+01  0.15278927575E+02  0.51100000000E-03 0. -1.
        -11    1    3    3    0    0  0.10268446855E+02 -0.20832162023E+02 -0.67098694825E+01  0.24175241965E+02  0.51100000000E-03 0.  1.
         12    1    3    3    0    0 -0.76801064642E+00 -0.67397912666E+01 -0.48400816027E+01  0.83331276596E+01  0.00000000000E+00 0. -1.
</event>
<event>
 7    1  0.1019486E-010  0.4778727E+02  0.7816164E-02  0.1312668E+00
        -11   -1    0    0    0    0  0.00000000000E+00  0.00000000000E+00  0.45593999997E+02  0.45594000000E+02  0.51100000000E-03 0. -1.
         11   -1    0    0    0    0 -0.00000000000E+00 -0.00000000000E+00 -0.45593999997E+02  0.45594000000E+02  0.51100000000E-03 0.  1.
    9900012    2    1    2    0    0 -0.81117790935E+01 -0.14170912207E+01  0.42612370212E+02  0.47787271865E+02  0.20000003741E+02 0.  0.
        -12    1    1    2    0    0  0.81117790935E+01  0.14170912207E+01 -0.42612370212E+02  0.43400728135E+02  0.00000000000E+00 0.  1.
         11    1    3    3    0    0 -0.86379306838E+01 -0.51182496793E+01  0.31662731253E+02  0.33216545229E+02  0.51100000000E-03 0. -1.
        -11    1    3    3    0    0 -0.37407561037E+01  0.23671528358E+00  0.64821909069E+01  0.74878628171E+01  0.51100000000E-03 0.  1.
         12    1    3    3    0    0  0.42669076940E+01  0.34644431750E+01  0.44674480518E+01  0.70828638189E+01  0.00000000000E+00 0. -1.
</event>
<event>
 7    1  0.1019486E-010  0.4778727E+02  0.7816164E-02  0.1312668E+00
        -11   -1    0    0    0    0  0.00000000000E+00  0.00000000000E+00  0.45593999997E+02  0.45594000000E+02  0.51100000000E-03 0. -1.
         11   -1    0    0    0    0 -0.00000000000E+00 -0.00000000000E+00 -0.45593999997E+02  0.45594000000E+02  0.51100000000E-03 0.  1.
    9900012    2    1    2    0    0 -0.22841535401E+02  0.20751914526E+02 -0.30516320281E+02  0.47787268446E+02  0.19999988153E+02 0.  0.
         12    1    1    2    0    0  0.22841535401E+02 -0.20751914526E+02  0.30516320281E+02  0.43400731554E+02  0.00000000000E+00 0. -1.
         11    1    3    3    0    0 -0.42674111865E+01  0.15762275178E+02 -0.91741074402E+01  0.18730306047E+02  0.51100000000E-03 0. -1.
        -11    1    3    3    0    0 -0.77046281073E+01  0.28425390665E+00 -0.66222832062E+01  0.10163499874E+02  0.51100000000E-03 0.  1.
         12    1    3    3    0    0 -0.10869496107E+02  0.47053854409E+01 -0.14719929634E+02  0.18893462526E+02  0.00000000000E+00 0. -1.
</event>
<event>
 7    1  0.1019486E-010  0.4778725E+02  0.7816164E-02  0.1312668E+00
        -11   -1    0    0    0    0  0.00000000000E+00  0.00000000000E+00  0.45593999997E+02  0.45594000000E+02  0.51100000000E-03 0. -1.
         11   -1    0    0    0    0 -0.00000000000E+00 -0.00000000000E+00 -0.45593999997E+02  0.45594000000E+02  0.51100000000E-03 0.  1.
    9900012    2    1    2    0    0 -0.19000235601E+02 -0.91521687666E+01 -0.37932228054E+02  0.47787250338E+02  0.19999905593E+02 0.  0.
         12    1    1    2    0    0  0.19000235601E+02  0.91521687666E+01  0.37932228054E+02  0.43400749662E+02  0.00000000000E+00 0. -1.
         11    1    3    3    0    0 -0.69556239265E+01 -0.10495592696E+02 -0.21623688217E+02  0.25022431189E+02  0.51100000000E-03 0. -1.
        -11    1    3    3    0    0 -0.88807005290E+01  0.47245917215E+01 -0.14799498647E+02  0.17894517855E+02  0.51100000000E-03 0.  1.
        -12    1    3    3    0    0 -0.31639111460E+01 -0.33811677925E+01 -0.15090411903E+01  0.48703012940E+01  0.00000000000E+00 0.  1.
</event>
<event>
 7    1  0.1019486E-010  0.4778727E+02  0.7816164E-02  0.1312668E+00
        -11   -1    0    0    0    0  0.00000000000E+00  0.00000000000E+00  0.45593999997E+02  0.45594000000E+02  0.51100000000E-03 0. -1.
         11   -1    0    0    0    0 -0.00000000000E+00 -0.00000000000E+00 -0.45593999997E+02  0.45594000000E+02  0.51100000000E-03 0.  1.
    9900012    2    1    2    0    0 -0.54219660053E+01  0.44718393960E+01 -0.42827886760E+02  0.47787274807E+02  0.20000017154E+02 0.  0.
         12    1    1    2    0    0  0.54219660053E+01 -0.44718393960E+01  0.42827886760E+02  0.43400725193E+02  0.00000000000E+00 0. -1.
         11    1    3    3    0    0 -0.55080600137E+01  0.23696860140E+01 -0.48875221608E+01  0.77357617629E+01  0.51100000000E-03 0. -1.
        -11    1    3    3    0    0  0.12227339988E+01  0.17181234368E+01 -0.38616707911E+02  0.38674244101E+02  0.51100000000E-03 0.  1.
        -12    1    3    3    0    0 -0.11366399905E+01  0.38402994521E+00  0.67634331199E+00  0.13772689434E+01  0.00000000000E+00 0.  1.
</event>
<event>
 7    1  0.1019486E-010  0.4778727E+02  0.7816164E-02  0.1312668E+00
        -11   -1    0    0    0    0  0.00000000000E+00  0.00000000000E+00  0.45593999997E+02  0.45594000000E+02  0.51100000000E-03 0. -1.
         11   -1    0    0    0    0 -0.00000000000E+00 -0.00000000000E+00 -0.45593999997E+02  0.45594000000E+02  0.51100000000E-03 0.  1.
    9900012    2    1    2    0    0 -0.17179253594E+02  0.23199884176E+02  0.32407744519E+02  0.47787270921E+02  0.19999999436E+02 0.  0.
        -12    1    1    2    0    0  0.17179253594E+02 -0.23199884176E+02 -0.32407744519E+02  0.43400729079E+02  0.00000000000E+00 0.  1.
         11    1    3    3    0    0 -0.16897617462E+02  0.13112208885E+02  0.15834562266E+02  0.26611893209E+02  0.51100000000E-03 0. -1.
        -11    1    3    3    0    0  0.19982953148E+01  0.74861097154E+01  0.15848379605E+02  0.17641036228E+02  0.51100000000E-03 0.  1.
        -12    1    3    3    0    0 -0.22799314462E+01  0.26015655756E+01  0.72480264742E+00  0.35343414834E+01  0.00000000000E+00 0.  1.
</event>
<event>
 7    1  0.1057796E-010  0.4778727E+02  0.7816164E-02  0.1312668E+00
        -11   -1    0    0    0    0  0.00000000000E+00  0.00000000000E+00  0.45593999997E+02  0.45594000000E+02  0.51100000000E-03 0. -1.
         11   -1    0    0    0    0 -0.00000000000E+00 -0.00000000000E+00 -0.45593999997E+02  0.45594000000E+02  0.51100000000E-03 0.  1.
    9900012    2    1    2    0    0 -0.34220424296E+01 -0.15056236309E+02 -0.40561346534E+02  0.47787268913E+02  0.19999990283E+02 0.  0.
         12    1    1    2    0    0  0.34220424296E+01  0.15056236309E+02  0.40561346534E+02  0.43400731087E+02  0.00000000000E+00 0. -1.
         11    1    3    3    0    0  0.36768582526E+01 -0.18212076445E+01 -0.15062473678E+01  0.43709112652E+01  0.51100000000E-03 0. -1.
        -11    1    3    3    0    0 -0.10234037271E+02 -0.96204868208E+01 -0.26743797346E+02  0.30207945681E+02  0.51100000000E-03 0.  1.
         12    1    3    3    0    0  0.31351365888E+01 -0.36145418439E+01 -0.12311301821E+02  0.13208411967E+02  0.00000000000E+00 0. -1.
</event>
<event>
 7    1  0.1019486E-010  0.4778727E+02  0.7816164E-02  0.1312668E+00
        -11   -1    0    0    0    0  0.00000000000E+00  0.00000000000E+00  0.45593999997E+02  0.45594000000E+02  0.51100000000E-03 0. -1.
         11   -1    0    0    0    0 -0.00000000000E+00 -0.00000000000E+00 -0.45593999997E+02  0.45594000000E+02  0.51100000000E-03 0.  1.
    9900012    2    1    2    0    0 -0.23483029828E+02 -0.23049791449E+02  0.28299786648E+02  0.47787268439E+02  0.19999988119E+02 0.  0.
        -12    1    1    2    0    0  0.23483029828E+02  0.23049791449E+02 -0.28299786648E+02  0.43400731561E+02  0.00000000000E+00 0.  1.
         11    1    3    3    0    0 -0.64724019201E+01 -0.10120029122E+02  0.55652944381E+01  0.13239315635E+02  0.51100000000E-03 0. -1.
        -11    1    3    3    0    0 -0.18935198377E+02 -0.11646017658E+02  0.23261138129E+02  0.32175332355E+02  0.51100000000E-03 0.  1.
        -12    1    3    3    0    0  0.19245704690E+01 -0.12837446690E+01 -0.52664591923E+00  0.23726204479E+01  0.00000000000E+00 0.  1.
</event>
<event>
 7    1  0.1019486E-010  0.4778727E+02  0.7816164E-02  0.1312668E+00
        -11   -1    0    0    0    0  0.00000000000E+00  0.00000000000E+00  0.45593999997E+02  0.45594000000E+02  0.51100000000E-03 0. -1.
         11   -1    0    0    0    0 -0.00000000000E+00 -0.00000000000E+00 -0.45593999997E+02  0.45594000000E+02  0.51100000000E-03 0.  1.
    9900012    2    1    2    0    0  0.75459828531E+00 -0.85338142456E+01  0.42546776315E+02  0.47787267530E+02  0.19999983977E+02 0.  0.
        -12    1    1    2    0    0 -0.75459828531E+00  0.85338142456E+01 -0.42546776315E+02  0.43400732470E+02  0.00000000000E+00 0.  1.
         11    1    3    3    0    0  0.10073324180E+01 -0.87737447893E+01  0.34631381794E+02  0.35739696717E+02  0.51100000000E-03 0. -1.
        -11    1    3    3    0    0  0.31859724176E+01 -0.16234252360E+01  0.72450902577E+01  0.80794345623E+01  0.51100000000E-03 0.  1.
         12    1    3    3    0    0 -0.34387065503E+01  0.18633557798E+01  0.67030426323E+00  0.39681362510E+01  0.00000000000E+00 0. -1.
</event>
<event>
 7    1  0.1019486E-010  0.4778727E+02  0.7816164E-02  0.1312668E+00
        -11   -1    0    0    0    0  0.00000000000E+00  0.00000000000E+00  0.45593999997E+02  0.45594000000E+02  0.51100000000E-03 0. -1.
         11   -1    0    0    0    0 -0.00000000000E+00 -0.00000000000E+00 -0.45593999997E+02  0.45594000000E+02  0.51100000000E-03 0.  1.
    9900012    2    1    2    0    0 -0.30680383137E+02 -0.49439669683E+01  0.30296774513E+02  0.47787271150E+02  0.20000000480E+02 0.  0.
        -12    1    1    2    0    0  0.30680383137E+02  0.49439669683E+01 -0.30296774513E+02  0.43400728850E+02  0.00000000000E+00 0.  1.
         11    1    3    3    0    0 -0.13316965934E+01 -0.53911720024E+01  0.65920228012E+01  0.86193338635E+01  0.51100000000E-03 0. -1.
        -11    1    3    3    0    0 -0.28848877648E+02  0.25955941506E+01  0.21777920231E+02  0.36239104023E+02  0.51100000000E-03 0.  1.
        -12    1    3    3    0    0 -0.49980889609E+00 -0.21483891165E+01  0.19268314808E+01  0.29288332633E+01  0.00000000000E+00 0.  1.
</event>
<event>
 7    1  0.1019486E-010  0.4778727E+02  0.7816164E-02  0.1312668E+00
        -11   -1    0    0    0    0  0.00000000000E+00  0.00000000000E+00  0.45593999997E+02  0.45594000000E+02  0.51100000000E-03 0. -1.
         11   -1    0    0    0    0 -0.00000000000E+00 -0.00000000000E+00 -0.45593999997E+02  0.45594000000E+02  0.51100000000E-03 0.  1.
    9900012    2    1    2    0    0  0.31426887942E+02  0.25615546603E+02  0.15486056932E+02  0.47787268753E+02  0.19999989554E+02 0.  0.
        -12    1    1    2    0    0 -0.31426887942E+02 -0.25615546603E+02 -0.15486056932E+02  0.43400731247E+02  0.00000000000E+00 0.  1.
         11    1    3    3    0    0  0.56883482144E+01 -0.69224572482E-01  0.91825053960E+01  0.10801874979E+02  0.51100000000E-03 0. -1.
        -11    1    3    3    0    0  0.12080156059E+02  0.13667060151E+02  0.36085764317E+01  0.18594099271E+02  0.51100000000E-03 0.  1.
         12    1    3    3    0    0  0.13658383669E+02  0.12017711024E+02  0.26949751039E+01  0.18391294503E+02  0.00000000000E+00 0. -1.
</event>
<event>
 7    1  0.1019486E-010  0.4778727E+02  0.7816164E-02  0.1312668E+00
        -11   -1    0    0    0    0  0.00000000000E+00  0.00000000000E+00  0.45593999997E+02  0.45594000000E+02  0.51100000000E-03 0. -1.
         11   -1    0    0    0    0 -0.00000000000E+00 -0.00000000000E+00 -0.45593999997E+02  0.45594000000E+02  0.51100000000E-03 0.  1.
    9900012    2    1    2    0    0 -0.11293157194E+02 -0.21852959242E+02  0.35756625626E+02  0.47787268403E+02  0.19999987956E+02 0.  0.
        -12    1    1    2    0    0  0.11293157194E+02  0.21852959242E+02 -0.35756625626E+02  0.43400731597E+02  0.00000000000E+00 0.  1.
         11    1    3    3    0    0  0.59858516397E+00 -0.38419340965E+01  0.12279561091E+02  0.12880465157E+02  0.51100000000E-03 0. -1.
        -11    1    3    3    0    0 -0.10003565236E+02 -0.32709937305E+01  0.66149743150E+01  0.12430953418E+02  0.51100000000E-03 0.  1.
        -12    1    3    3    0    0 -0.18881771218E+01 -0.14740031415E+02  0.16862090219E+02  0.22475849829E+02  0.00000000000E+00 0.  1.
</event>
<event>
 7    1  0.1019486E-010  0.4778726E+02  0.7816164E-02  0.1312668E+00
        -11   -1    0    0    0    0  0.00000000000E+00  0.00000000000E+00  0.45593999997E+02  0.45594000000E+02  0.51100000000E-03 0. -1.
         11   -1    0    0    0    0 -0.00000000000E+00 -0.00000000000E+00 -0.45593999997E+02  0.45594000000E+02  0.51100000000E-03 0.  1.
    9900012    2    1    2    0    0 -0.22987114247E+02 -0.17953039283E+02 -0.32138840033E+02  0.47787261762E+02  0.19999957679E+02 0.  0.
         12    1    1    2    0    0  0.22987114247E+02  0.17953039283E+02  0.32138840033E+02  0.43400738238E+02  0.00000000000E+00 0. -1.
         11    1    3    3    0    0 -0.38076832312E+01 -0.20479286048E+01  0.11470305108E+00  0.43249994463E+01  0.51100000000E-03 0. -1.
        -11    1    3    3    0    0  0.17994890336E+01 -0.42406344572E+01 -0.86363186968E+01  0.97881122938E+01  0.51100000000E-03 0.  1.
        -12    1    3    3    0    0 -0.20978920049E+02 -0.11664476221E+02 -0.23617224387E+02  0.33674150022E+02  0.00000000000E+00 0.  1.
</event>
<event>
 7    1  0.1019486E-010  0.4778727E+02  0.7816164E-02  0.1312668E+00
        -11   -1    0    0    0    0  0.00000000000E+00  0.00000000000E+00  0.45593999997E+02  0.45594000000E+02  0.51100000000E-03 0. -1.
         11   -1    0    0    0    0 -0.00000000000E+00 -0.00000000000E+00 -0.45593999997E+02  0.45594000000E+02  0.51100000000E-03 0.  1.
    9900012    2    1    2    0    0  0.60717123597E+01 -0.30300581125E+02  0.30473465421E+02  0.47787274174E+02  0.20000014269E+02 0.  0.
        -12    1    1    2    0    0 -0.60717123597E+01  0.30300581125E+02 -0.30473465421E+02  0.43400725826E+02  0.00000000000E+00 0.  1.
         11    1    3    3    0    0 -0.19367945312E+01 -0.10577025431E+02  0.16466582956E+02  0.19666545059E+02  0.51100000000E-03 0. -1.
        -11    1    3    3    0    0  0.26635518175E+01 -0.20019421259E+01 -0.17934716147E+01  0.37840218358E+01  0.51100000000E-03 0.  1.
        -12    1    3    3    0    0  0.53449550735E+01 -0.17721613568E+02  0.15800354079E+02  0.24336707280E+02  0.00000000000E+00 0.  1.
</event>
<event>
 7    1  0.1019486E-010  0.4778726E+02  0.7816164E-02  0.1312668E+00
        -11   -1    0    0    0    0  0.00000000000E+00  0.00000000000E+00  0.45593999997E+02  0.45594000000E+02  0.51100000000E-03 0. -1.
         11   -1    0    0    0    0 -0.00000000000E+00 -0.00000000000E+00 -0.45593999997E+02  0.45594000000E+02  0.51100000000E-03 0.  1.
    9900012    2    1    2    0    0 -0.22697569186E+02  0.30276684735E+02 -0.21254805320E+02  0.47787262280E+02  0.19999960037E+02 0.  0.
         12    1    1    2    0    0  0.22697569186E+02 -0.30276684735E+02  0.21254805320E+02  0.43400737720E+02  0.00000000000E+00 0. -1.
         11    1    3    3    0    0 -0.20275207265E+02  0.21866519430E+02 -0.10395901670E+02  0.31580111992E+02  0.51100000000E-03 0. -1.
        -11    1    3    3    0    0  0.31319671295E+00  0.91763338034E+01 -0.85543882914E+01  0.12549133578E+02  0.51100000000E-03 0.  1.
         12    1    3    3    0    0 -0.27355586344E+01 -0.76616849911E+00 -0.23045153584E+01  0.36580167097E+01  0.00000000000E+00 0. -1.
</event>
<event>
 7    1  0.1019486E-010  0.4778727E+02  0.7816164E-02  0.1312668E+00
        -11   -1    0    0    0    0  0.00000000000E+00  0.00000000000E+00  0.45593999997E+02  0.45594000000E+02  0.51100000000E-03 0. -1.
         11   -1    0    0    0    0 -0.00000000000E+00 -0.00000000000E+00 -0.45593999997E+02  0.45594000000E+02  0.51100000000E-03 0.  1.
    9900012    2    1    2    0    0  0.21772135813E+02 -0.12652092272E+02 -0.35348576671E+02  0.47787271787E+02  0.20000003388E+02 0.  0.
         12    1    1    2    0    0 -0.21772135813E+02  0.12652092272E+02  0.35348576671E+02  0.43400728213E+02  0.00000000000E+00 0. -1.
         11    1    3    3    0    0  0.41581364425E+01 -0.47055396024E+01 -0.72557948625E+01  0.95957678677E+01  0.51100000000E-03 0. -1.
        -11    1    3    3    0    0  0.12026559434E+01  0.36017549782E+01 -0.11633790554E+02  0.12237814476E+02  0.51100000000E-03 0.  1.
        -12    1    3    3    0    0  0.16411343427E+02 -0.11548307648E+02 -0.16458991255E+02  0.25953689443E+02  0.00000000000E+00 0.  1.
</event>
<event>
 7    1  0.1019486E-010  0.4778728E+02  0.7816164E-02  0.1312668E+00
        -11   -1    0    0    0    0  0.00000000000E+00  0.00000000000E+00  0.45593999997E+02  0.45594000000E+02  0.51100000000E-03 0. -1.
         11   -1    0    0    0    0 -0.00000000000E+00 -0.00000000000E+00 -0.45593999997E+02  0.45594000000E+02  0.51100000000E-03 0.  1.
    9900012    2    1    2    0    0  0.16248841280E+02 -0.12644695713E+02  0.38206145550E+02  0.47787277305E+02  0.20000028545E+02 0.  0.
        -12    1    1    2    0    0 -0.16248841280E+02  0.12644695713E+02 -0.38206145550E+02  0.43400722695E+02  0.00000000000E+00 0.  1.
         11    1    3    3    0    0  0.91325473857E+01 -0.25239443195E+01  0.24461783032E+02  0.26232661818E+02  0.51100000000E-03 0. -1.
        -11    1    3    3    0    0  0.77275646433E+01 -0.87752041779E+01  0.50518639716E+01  0.12737377812E+02  0.51100000000E-03 0.  1.
        -12    1    3    3    0    0 -0.61127074875E+00 -0.13455472156E+01  0.86924985463E+01  0.88172376749E+01  0.00000000000E+00 0.  1.
</event>
<event>
 7    1  0.1019486E-010  0.4778727E+02  0.7816164E-02  0.1312668E+00
        -11   -1    0    0    0    0  0.00000000000E+00  0.00000000000E+00  0.45593999997E+02  0.45594000000E+02  0.51100000000E-03 0. -1.
         11   -1    0    0    0    0 -0.00000000000E+00 -0.00000000000E+00 -0.45593999997E+02  0.45594000000E+02  0.51100000000E-03 0.  1.
    9900012    2    1    2    0    0  0.19785297792E+02  0.24620183178E+02 -0.29765952891E+02  0.47787269822E+02  0.19999994427E+02 0.  0.
         12    1    1    2    0    0 -0.19785297792E+02 -0.24620183178E+02  0.29765952891E+02  0.43400730178E+02  0.00000000000E+00 0. -1.
         11    1    3    3    0    0  0.11273516267E+02  0.13375571412E+02 -0.90216998627E+01  0.19682203848E+02  0.51100000000E-03 0. -1.
        -11    1    3    3    0    0 -0.31778562955E+01  0.40166271695E+01 -0.69434180819E+01  0.86280426155E+01  0.51100000000E-03 0.  1.
        -12    1    3    3    0    0  0.11689637821E+02  0.72279845965E+01 -0.13800834946E+02  0.19477023359E+02  0.00000000000E+00 0.  1.
</event>
<event>
 7    1  0.1019486E-010  0.4778727E+02  0.7816164E-02  0.1312668E+00
        -11   -1    0    0    0    0  0.00000000000E+00  0.00000000000E+00  0.45593999997E+02  0.45594000000E+02  0.51100000000E-03 0. -1.
         11   -1    0    0    0    0 -0.00000000000E+00 -0.00000000000E+00 -0.45593999997E+02  0.45594000000E+02  0.51100000000E-03 0.  1.
    9900012    2    1    2    0    0 -0.47651937211E+01  0.20386485599E+02  0.38017199619E+02  0.47787270361E+02  0.19999996886E+02 0.  0.
        -12    1    1    2    0    0  0.47651937211E+01 -0.20386485599E+02 -0.38017199619E+02  0.43400729639E+02  0.00000000000E+00 0.  1.
         11    1    3    3    0    0 -0.93184150147E+01  0.52474762118E+01  0.11435578771E+02  0.15656989719E+02  0.51100000000E-03 0.  1.
        -11    1    3    3    0    0  0.38669492535E+00  0.24289338672E+01  0.12378268673E+02  0.12620253099E+02  0.51100000000E-03 0. -1.
         12    1    3    3    0    0  0.41665263682E+01  0.12710075520E+02  0.14203352175E+02  0.19510027543E+02  0.00000000000E+00 0. -1.
</event>
<event>
 7    1  0.1019486E-010  0.4778724E+02  0.7816164E-02  0.1312668E+00
        -11   -1    0    0    0    0  0.00000000000E+00  0.00000000000E+00  0.45593999997E+02  0.45594000000E+02  0.51100000000E-03 0. -1.
         11   -1    0    0    0    0 -0.00000000000E+00 -0.00000000000E+00 -0.45593999997E+02  0.45594000000E+02  0.51100000000E-03 0.  1.
    9900012    2    1    2    0    0  0.94110550690E+01 -0.20275308525E+02  0.37201749306E+02  0.47787236819E+02  0.19999843951E+02 0.  0.
        -12    1    1    2    0    0 -0.94110550690E+01  0.20275308525E+02 -0.37201749306E+02  0.43400763181E+02  0.00000000000E+00 0.  1.
         11    1    3    3    0    0  0.19322567370E+01 -0.13268451820E+01  0.44763522176E+01  0.50529064578E+01  0.51100000000E-03 0. -1.
        -11    1    3    3    0    0  0.71583668931E+01 -0.38625293673E+01  0.18098376056E+01  0.83328783808E+01  0.51100000000E-03 0.  1.
        -12    1    3    3    0    0  0.32043143890E+00 -0.15085933976E+02  0.30915559482E+02  0.34401451980E+02  0.00000000000E+00 0.  1.
</event>
<event>
 7    1  0.1019486E-010  0.4778725E+02  0.7816164E-02  0.1312668E+00
        -11   -1    0    0    0    0  0.00000000000E+00  0.00000000000E+00  0.45593999997E+02  0.45594000000E+02  0.51100000000E-03 0. -1.
         11   -1    0    0    0    0 -0.00000000000E+00 -0.00000000000E+00 -0.45593999997E+02  0.45594000000E+02  0.51100000000E-03 0.  1.
    9900012    2    1    2    0    0  0.22903744603E+02  0.35121624548E+02 -0.11203350165E+02  0.47787250206E+02  0.19999904990E+02 0.  0.
         12    1    1    2    0    0 -0.22903744603E+02 -0.35121624548E+02  0.11203350165E+02  0.43400749794E+02  0.00000000000E+00 0. -1.
         11    1    3    3    0    0  0.50170948891E+01  0.69119512740E+01 -0.98545324791E+01  0.13040633504E+02  0.51100000000E-03 0. -1.
        -11    1    3    3    0    0  0.17906371925E+02  0.21867155345E+02 -0.21927368427E+01  0.28348169844E+02  0.51100000000E-03 0.  1.
         12    1    3    3    0    0 -0.19722211143E-01  0.63425179294E+01  0.84391915711E+00  0.63984468580E+01  0.00000000000E+00 0. -1.
</event>
<event>
 7    1  0.1019486E-010  0.4778728E+02  0.7816164E-02  0.1312668E+00
        -11   -1    0    0    0    0  0.00000000000E+00  0.00000000000E+00  0.45593999997E+02  0.45594000000E+02  0.51100000000E-03 0. -1.
         11   -1    0    0    0    0 -0.00000000000E+00 -0.00000000000E+00 -0.45593999997E+02  0.45594000000E+02  0.51100000000E-03 0.  1.
    9900012    2    1    2    0    0  0.33915676914E+02  0.72082261338E+01 -0.26103469467E+02  0.47787276703E+02  0.20000025799E+02 0.  0.
         12    1    1    2    0    0 -0.33915676914E+02 -0.72082261338E+01  0.26103469467E+02  0.43400723297E+02  0.00000000000E+00 0. -1.
         11    1    3    3    0    0  0.22965460283E+02 -0.44993990136E+01 -0.13586786907E+02  0.27060261200E+02  0.51100000000E-03 0. -1.
        -11    1    3    3    0    0  0.74956546308E+01  0.76955849759E+01 -0.10612188052E+02  0.15100509990E+02  0.51100000000E-03 0.  1.
         12    1    3    3    0    0  0.34545620001E+01  0.40120401716E+01 -0.19044945084E+01  0.56265055126E+01  0.00000000000E+00 0. -1.
</event>
<event>
 7    1  0.1019486E-010  0.4778730E+02  0.7816164E-02  0.1312668E+00
        -11   -1    0    0    0    0  0.00000000000E+00  0.00000000000E+00  0.45593999997E+02  0.45594000000E+02  0.51100000000E-03 0. -1.
         11   -1    0    0    0    0 -0.00000000000E+00 -0.00000000000E+00 -0.45593999997E+02  0.45594000000E+02  0.51100000000E-03 0.  1.
    9900012    2    1    2    0    0  0.37439574207E+01  0.12917952480E+02  0.41264150791E+02  0.47787298924E+02  0.20000127112E+02 0.  0.
        -12    1    1    2    0    0 -0.37439574207E+01 -0.12917952480E+02 -0.41264150791E+02  0.43400701076E+02  0.00000000000E+00 0.  1.
         11    1    3    3    0    0  0.95131111920E+00  0.10323178873E+02  0.11500201056E+02  0.15483140492E+02  0.51100000000E-03 0. -1.
        -11    1    3    3    0    0 -0.13205678477E+01 -0.42982797294E+01  0.95865767232E+01  0.10588746933E+02  0.51100000000E-03 0.  1.
        -12    1    3    3    0    0  0.41132141492E+01  0.68930533359E+01  0.20177373012E+02  0.21715411499E+02  0.00000000000E+00 0.  1.
</event>
<event>
 7    1  0.1329767E-010  0.4778727E+02  0.7816164E-02  0.1312668E+00
        -11   -1    0    0    0    0  0.00000000000E+00  0.00000000000E+00  0.45593999997E+02  0.45594000000E+02  0.51100000000E-03 0. -1.
         11   -1    0    0    0    0 -0.00000000000E+00 -0.00000000000E+00 -0.45593999997E+02  0.45594000000E+02  0.51100000000E-03 0.  1.
    9900012    2    1    2    0    0  0.57841049306E+01  0.27581815177E+02 -0.33006224878E+02  0.47787270985E+02  0.19999999728E+02 0.  0.
         12    1    1    2    0    0 -0.57841049306E+01 -0.27581815177E+02  0.33006224878E+02  0.43400729015E+02  0.00000000000E+00 0. -1.
         11    1    3    3    0    0  0.38066224298E+01  0.16988889806E+02 -0.68003608589E+01  0.18691111771E+02  0.51100000000E-03 0. -1.
        -11    1    3    3    0    0  0.39987743097E+01  0.93110963787E+01 -0.19497556034E+02  0.21973652480E+02  0.51100000000E-03 0.  1.
         12    1    3    3    0    0 -0.20212918090E+01  0.12818289924E+01 -0.67083079855E+01  0.71225067336E+01  0.00000000000E+00 0. -1.
</event>
<event>
 7    1  0.1019486E-010  0.4778727E+02  0.7816164E-02  0.1312668E+00
        -11   -1    0    0    0    0  0.00000000000E+00  0.00000000000E+00  0.45593999997E+02  0.45594000000E+02  0.51100000000E-03 0.  1.
         11   -1    0    0    0    0 -0.00000000000E+00 -0.00000000000E+00 -0.45593999997E+02  0.45594000000E+02  0.51100000000E-03 0. -1.
    9900012    2    1    2    0    0  0.36949307304E+02 -0.21666093218E+02  0.69966139578E+01  0.47787268296E+02  0.19999987469E+02 0.  0.
         12    1    1    2    0    0 -0.36949307304E+02  0.21666093218E+02 -0.69966139578E+01  0.43400731704E+02  0.00000000000E+00 0. -1.
         11    1    3    3    0    0  0.10093961756E+01 -0.31523724456E+01  0.50874432408E+01  0.60694655172E+01  0.51100000000E-03 0. -1.
        -11    1    3    3    0    0  0.27040332959E+02 -0.13559787969E+02 -0.30240511132E+01  0.30400531931E+02  0.51100000000E-03 0.  1.
        -12    1    3    3    0    0  0.88995781690E+01 -0.49539328034E+01  0.49332218302E+01  0.11317270847E+02  0.00000000000E+00 0.  1.
</event>
<event>
 7    1  0.1019486E-010  0.4778727E+02  0.7816164E-02  0.1312668E+00
        -11   -1    0    0    0    0  0.00000000000E+00  0.00000000000E+00  0.45593999997E+02  0.45594000000E+02  0.51100000000E-03 0. -1.
         11   -1    0    0    0    0 -0.00000000000E+00 -0.00000000000E+00 -0.45593999997E+02  0.45594000000E+02  0.51100000000E-03 0.  1.
    9900012    2    1    2    0    0  0.31741170942E+02 -0.47521083238E-02 -0.29599343013E+02  0.47787273484E+02  0.20000011121E+02 0.  0.
         12    1    1    2    0    0 -0.31741170942E+02  0.47521083238E-02  0.29599343013E+02  0.43400726516E+02  0.00000000000E+00 0. -1.
         11    1    3    3    0    0  0.17936740116E+01 -0.27275211371E+01 -0.80316696418E+01  0.86697379147E+01  0.51100000000E-03 0.  1.
        -11    1    3    3    0    0  0.59040667514E+00  0.48233432974E+00  0.15212134798E+01  0.17015631519E+01  0.51100000000E-03 0. -1.
        -12    1    3    3    0    0  0.29357090255E+02  0.22404346991E+01 -0.23088886851E+02  0.37415972417E+02  0.00000000000E+00 0.  1.
</event>
<event>
 7    1  0.1019486E-010  0.4778728E+02  0.7816164E-02  0.1312668E+00
        -11   -1    0    0    0    0  0.00000000000E+00  0.00000000000E+00  0.45593999997E+02  0.45594000000E+02  0.51100000000E-03 0. -1.
         11   -1    0    0    0    0 -0.00000000000E+00 -0.00000000000E+00 -0.45593999997E+02  0.45594000000E+02  0.51100000000E-03 0.  1.
    9900012    2    1    2    0    0 -0.15374674288E+02  0.21617779898E+02 -0.34349863701E+02  0.47787283952E+02  0.20000058851E+02 0.  0.
         12    1    1    2    0    0  0.15374674288E+02 -0.21617779898E+02  0.34349863701E+02  0.43400716048E+02  0.00000000000E+00 0. -1.
         11    1    3    3    0    0 -0.13460757529E+02  0.63143041756E+01 -0.18327817136E+02  0.23600239653E+02  0.51100000000E-03 0. -1.
        -11    1    3    3    0    0 -0.15237456904E+01  0.88035364794E+01 -0.26586924327E+01  0.93216254583E+01  0.51100000000E-03 0.  1.
        -12    1    3    3    0    0 -0.39017106879E+00  0.64999392435E+01 -0.13363354132E+02  0.14865418840E+02  0.00000000000E+00 0.  1.
</event>
<event>
 7    1  0.1019486E-010  0.4778727E+02  0.7816164E-02  0.1312668E+00
        -11   -1    0    0    0    0  0.00000000000E+00  0.00000000000E+00  0.45593999997E+02  0.45594000000E+02  0.51100000000E-03 0. -1.
         11   -1    0    0    0    0 -0.00000000000E+00 -0.00000000000E+00 -0.45593999997E+02  0.45594000000E+02  0.51100000000E-03 0.  1.
    9900012    2    1    2    0    0 -0.28563708669E+02  0.44397381307E+00  0.32673241709E+02  0.47787270865E+02  0.19999999183E+02 0.  0.
        -12    1    1    2    0    0  0.28563708669E+02 -0.44397381307E+00 -0.32673241709E+02  0.43400729135E+02  0.00000000000E+00 0.  1.
         11    1    3    3    0    0 -0.26094978068E+01 -0.31043010990E+01  0.56056286683E+01  0.69187597982E+01  0.51100000000E-03 0. -1.
        -11    1    3    3    0    0 -0.28904217747E+00  0.32660125512E+01  0.87263619608E+01  0.93220049720E+01  0.51100000000E-03 0.  1.
        -12    1    3    3    0    0 -0.25665168684E+02  0.28226236085E+00  0.18341251080E+02  0.31546506095E+02  0.00000000000E+00 0.  1.
</event>
<event>
 7    1  0.1019486E-010  0.4778729E+02  0.7816164E-02  0.1312668E+00
        -11   -1    0    0    0    0  0.00000000000E+00  0.00000000000E+00  0.45593999997E+02  0.45594000000E+02  0.51100000000E-03 0. -1.
         11   -1    0    0    0    0 -0.00000000000E+00 -0.00000000000E+00 -0.45593999997E+02  0.45594000000E+02  0.51100000000E-03 0.  1.
    9900012    2    1    2    0    0  0.30788200981E+02 -0.30254024877E+02 -0.45168538236E+01  0.47787293676E+02  0.20000103187E+02 0.  0.
         12    1    1    2    0    0 -0.30788200981E+02  0.30254024877E+02  0.45168538236E+01  0.43400706324E+02  0.00000000000E+00 0. -1.
         11    1    3    3    0    0  0.75354645759E+00 -0.41969306206E+01  0.34076375103E+01  0.54583928551E+01  0.51100000000E-03 0. -1.
        -11    1    3    3    0    0  0.25438088580E+02 -0.24900059065E+02 -0.33703629241E+01  0.35755679808E+02  0.51100000000E-03 0.  1.
        -12    1    3    3    0    0  0.45965659437E+01 -0.11570351915E+01 -0.45541284099E+01  0.65732210128E+01  0.00000000000E+00 0.  1.
</event>
<event>
 7    1  0.1019486E-010  0.4778728E+02  0.7816164E-02  0.1312668E+00
        -11   -1    0    0    0    0  0.00000000000E+00  0.00000000000E+00  0.45593999997E+02  0.45594000000E+02  0.51100000000E-03 0.  1.
         11   -1    0    0    0    0 -0.00000000000E+00 -0.00000000000E+00 -0.45593999997E+02  0.45594000000E+02  0.51100000000E-03 0. -1.
    9900012    2    1    2    0    0  0.30331996315E+02 -0.23078530656E+01 -0.30955880990E+02  0.47787277032E+02  0.20000027301E+02 0.  0.
         12    1    1    2    0    0 -0.30331996315E+02  0.23078530656E+01  0.30955880990E+02  0.43400722968E+02  0.00000000000E+00 0. -1.
         11    1    3    3    0    0 -0.70103681447E+00  0.16335506864E+01 -0.56994630830E+01  0.59702445641E+01  0.51100000000E-03 0. -1.
        -11    1    3    3    0    0  0.22211815880E+02  0.22468237372E+01 -0.19263859380E+02  0.29487442413E+02  0.51100000000E-03 0.  1.
        -12    1    3    3    0    0  0.88212172495E+01 -0.61882274892E+01 -0.59925585273E+01  0.12329590055E+02  0.00000000000E+00 0.  1.
</event>
<event>
 7    1  0.1019486E-010  0.4778727E+02  0.7816164E-02  0.1312668E+00
        -11   -1    0    0    0    0  0.00000000000E+00  0.00000000000E+00  0.45593999997E+02  0.45594000000E+02  0.51100000000E-03 0.  1.
         11   -1    0    0    0    0 -0.00000000000E+00 -0.00000000000E+00 -0.45593999997E+02  0.45594000000E+02  0.51100000000E-03 0. -1.
    9900012    2    1    2    0    0 -0.25086208190E+02  0.12599133958E+02 -0.33099350690E+02  0.47787273809E+02  0.20000012603E+02 0.  0.
         12    1    1    2    0    0  0.25086208190E+02 -0.12599133958E+02  0.33099350690E+02  0.43400726191E+02  0.00000000000E+00 0. -1.
         11    1    3    3    0    0 -0.10710513830E+02  0.10910470985E+02 -0.64577117568E+01  0.16596852865E+02  0.51100000000E-03 0.  1.
        -11    1    3    3    0    0 -0.14921744808E+02  0.71920658242E+00 -0.25727951749E+02  0.29750684491E+02  0.51100000000E-03 0. -1.
         12    1    3    3    0    0  0.54605044738E+00  0.96945639043E+00 -0.91368718387E+00  0.14397364530E+01  0.00000000000E+00 0. -1.
</event>
<event>
 7    1 -0.1019486E-010  0.4778727E+02  0.7816164E-02  0.1312668E+00
        -11   -1    0    0    0    0  0.00000000000E+00  0.00000000000E+00  0.45593999997E+02  0.45594000000E+02  0.51100000000E-03 0. -1.
         11   -1    0    0    0    0 -0.00000000000E+00 -0.00000000000E+00 -0.45593999997E+02  0.45594000000E+02  0.51100000000E-03 0.  1.
    9900012    2    1    2    0    0 -0.29347789321E+02  0.47232619315E+01 -0.31623113829E+02  0.47787271094E+02  0.20000000228E+02 0.  0.
         12    1    1    2    0    0  0.29347789321E+02 -0.47232619315E+01  0.31623113829E+02  0.43400728906E+02  0.00000000000E+00 0. -1.
         11    1    3    3    0    0  0.38700088725E-01  0.45179261041E+01 -0.17895322249E+01  0.48595863841E+01  0.51100000000E-03 0. -1.
        -11    1    3    3    0    0 -0.11864492153E+02  0.20160093776E+01 -0.64575888308E+01  0.13657632358E+02  0.51100000000E-03 0.  1.
         12    1    3    3    0    0 -0.17521997256E+02 -0.18106735502E+01 -0.23375992774E+02  0.29270052352E+02  0.00000000000E+00 0. -1.
</event>
<event>
 7    1  0.1019486E-010  0.4778727E+02  0.7816164E-02  0.1312668E+00
        -11   -1    0    0    0    0  0.00000000000E+00  0.00000000000E+00  0.45593999997E+02  0.45594000000E+02  0.51100000000E-03 0. -1.
         11   -1    0    0    0    0 -0.00000000000E+00 -0.00000000000E+00 -0.45593999997E+02  0.45594000000E+02  0.51100000000E-03 0.  1.
    9900012    2    1    2    0    0  0.30450487879E+01 -0.74785577056E+01 -0.42642966427E+02  0.47787265753E+02  0.19999975876E+02 0.  0.
         12    1    1    2    0    0 -0.30450487879E+01  0.74785577056E+01  0.42642966427E+02  0.43400734247E+02  0.00000000000E+00 0. -1.
         11    1    3    3    0    0  0.92662088649E+01 -0.40206131970E+01 -0.17495200066E+02  0.20201732173E+02  0.51100000000E-03 0. -1.
        -11    1    3    3    0    0 -0.53317610526E+01  0.11528331485E+01 -0.19458576676E+02  0.20208733427E+02  0.51100000000E-03 0.  1.
         12    1    3    3    0    0 -0.88939902444E+00 -0.46107776571E+01 -0.56891896848E+01  0.73768001530E+01  0.00000000000E+00 0. -1.
</event>
<event>
 7    1  0.1019486E-010  0.4778727E+02  0.7816164E-02  0.1312668E+00
        -11   -1    0    0    0    0  0.00000000000E+00  0.00000000000E+00  0.45593999997E+02  0.45594000000E+02  0.51100000000E-03 0. -1.
         11   -1    0    0    0    0 -0.00000000000E+00 -0.00000000000E+00 -0.45593999997E+02  0.45594000000E+02  0.51100000000E-03 0.  1.
    9900012    2    1    2    0    0 -0.13740292961E+02  0.33586132880E+02 -0.23807544064E+02  0.47787272739E+02  0.20000007725E+02 0.  0.
         12    1    1    2    0    0  0.13740292961E+02 -0.33586132880E+02  0.23807544064E+02  0.43400727261E+02  0.00000000000E+00 0. -1.
         11    1    3    3    0    0 -0.46980537633E+00  0.62367265868E+01 -0.50919442860E+00  0.62750900263E+01  0.51100000000E-03 0. -1.
        -11    1    3    3    0    0 -0.17689013392E+01  0.17635839957E+02 -0.18713533842E+02  0.25774953192E+02  0.51100000000E-03 0.  1.
        -12    1    3    3    0    0 -0.11501586246E+02  0.97135663360E+01 -0.45848157937E+01  0.15737229521E+02  0.00000000000E+00 0.  1.
</event>
<event>
 7    1  0.1019486E-010  0.4778727E+02  0.7816164E-02  0.1312668E+00
        -11   -1    0    0    0    0  0.00000000000E+00  0.00000000000E+00  0.45593999997E+02  0.45594000000E+02  0.51100000000E-03 0. -1.
         11   -1    0    0    0    0 -0.00000000000E+00 -0.00000000000E+00 -0.45593999997E+02  0.45594000000E+02  0.51100000000E-03 0.  1.
    9900012    2    1    2    0    0  0.14136771490E+02  0.57986697035E+01  0.40622042499E+02  0.47787271720E+02  0.20000003079E+02 0.  0.
        -12    1    1    2    0    0 -0.14136771490E+02 -0.57986697035E+01 -0.40622042499E+02  0.43400728280E+02  0.00000000000E+00 0.  1.
         11    1    3    3    0    0  0.57827053923E+01  0.66388020679E+01  0.20720928307E+02  0.22513778997E+02  0.51100000000E-03 0. -1.
        -11    1    3    3    0    0  0.21811158378E+01 -0.63113040094E+01  0.12589704447E+02  0.14250981823E+02  0.51100000000E-03 0.  1.
        -12    1    3    3    0    0  0.61729502600E+01  0.54711716449E+01  0.73114097449E+01  0.11022510900E+02  0.00000000000E+00 0.  1.
</event>
<event>
 7    1  0.1019486E-010  0.4778727E+02  0.7816164E-02  0.1312668E+00
        -11   -1    0    0    0    0  0.00000000000E+00  0.00000000000E+00  0.45593999997E+02  0.45594000000E+02  0.51100000000E-03 0. -1.
         11   -1    0    0    0    0 -0.00000000000E+00 -0.00000000000E+00 -0.45593999997E+02  0.45594000000E+02  0.51100000000E-03 0.  1.
    9900012    2    1    2    0    0  0.35146655635E+01 -0.99757813643E+01 -0.42092209418E+02  0.47787272108E+02  0.20000004851E+02 0.  0.
         12    1    1    2    0    0 -0.35146655635E+01  0.99757813643E+01  0.42092209418E+02  0.43400727892E+02  0.00000000000E+00 0. -1.
         11    1    3    3    0    0  0.53609945789E+01  0.12983231351E+01 -0.25226315089E+02  0.25822332952E+02  0.51100000000E-03 0. -1.
        -11    1    3    3    0    0  0.20945413768E+01 -0.91117852848E+01 -0.13138226735E+02  0.16125282529E+02  0.51100000000E-03 0.  1.
         12    1    3    3    0    0 -0.39408703922E+01 -0.21623192146E+01 -0.37276675937E+01  0.58396566272E+01  0.00000000000E+00 0. -1.
</event>
<event>
 7    1  0.1019486E-010  0.4778727E+02  0.7816164E-02  0.1312668E+00
        -11   -1    0    0    0    0  0.00000000000E+00  0.00000000000E+00  0.45593999997E+02  0.45594000000E+02  0.51100000000E-03 0. -1.
         11   -1    0    0    0    0 -0.00000000000E+00 -0.00000000000E+00 -0.45593999997E+02  0.45594000000E+02  0.51100000000E-03 0.  1.
    9900012    2    1    2    0    0 -0.32392700499E+02 -0.49158251824E+01  0.28463503757E+02  0.47787269258E+02  0.19999991855E+02 0.  0.
        -12    1    1    2    0    0  0.32392700499E+02  0.49158251824E+01 -0.28463503757E+02  0.43400730742E+02  0.00000000000E+00 0.  1.
         11    1    3    3    0    0 -0.17027914408E+02 -0.70462091922E+01  0.14254532161E+02  0.23297867294E+02  0.51100000000E-03 0. -1.
        -11    1    3    3    0    0 -0.43336298300E+01  0.41619047866E+01  0.11461835477E+02  0.12941231461E+02  0.51100000000E-03 0.  1.
        -12    1    3    3    0    0 -0.11031156261E+02 -0.20315207768E+01  0.27471361192E+01  0.11548170503E+02  0.00000000000E+00 0.  1.
</event>
<event>
 7    1  0.1019486E-010  0.4778727E+02  0.7816164E-02  0.1312668E+00
        -11   -1    0    0    0    0  0.00000000000E+00  0.00000000000E+00  0.45593999997E+02  0.45594000000E+02  0.51100000000E-03 0.  1.
         11   -1    0    0    0    0 -0.00000000000E+00 -0.00000000000E+00 -0.45593999997E+02  0.45594000000E+02  0.51100000000E-03 0. -1.
    9900012    2    1    2    0    0 -0.84991481100E+01 -0.41370902674E+02  0.99918212734E+01  0.47787267298E+02  0.19999982920E+02 0.  0.
         12    1    1    2    0    0  0.84991481100E+01  0.41370902674E+02 -0.99918212734E+01  0.43400732702E+02  0.00000000000E+00 0. -1.
         11    1    3    3    0    0  0.33370705262E+01  0.32579338657E-01  0.11834905057E+01  0.35408686997E+01  0.51100000000E-03 0. -1.
        -11    1    3    3    0    0 -0.10258536847E+02 -0.39835917040E+02  0.82855930202E+01  0.41961755404E+02  0.51100000000E-03 0.  1.
         12    1    3    3    0    0 -0.15776817891E+01 -0.15675649734E+01  0.52273774751E+00  0.22846431945E+01  0.00000000000E+00 0. -1.
</event>
<event>
 7    1  0.1019486E-010  0.4778727E+02  0.7816164E-02  0.1312668E+00
        -11   -1    0    0    0    0  0.00000000000E+00  0.00000000000E+00  0.45593999997E+02  0.45594000000E+02  0.51100000000E-03 0. -1.
         11   -1    0    0    0    0 -0.00000000000E+00 -0.00000000000E+00 -0.45593999997E+02  0.45594000000E+02  0.51100000000E-03 0.  1.
    9900012    2    1    2    0    0 -0.18616061481E+02  0.10969205685E+01 -0.39190081829E+02  0.47787268513E+02  0.19999988460E+02 0.  0.
         12    1    1    2    0    0  0.18616061481E+02 -0.10969205685E+01  0.39190081829E+02  0.43400731487E+02  0.00000000000E+00 0. -1.
         11    1    3    3    0    0 -0.13786088540E+02  0.62802956091E+01 -0.15699288339E+02  0.21816645131E+02  0.51100000000E-03 0. -1.
        -11    1    3    3    0    0 -0.24476215932E+01 -0.17745911893E+01 -0.20797085369E+02  0.21015679515E+02  0.51100000000E-03 0.  1.
        -12    1    3    3    0    0 -0.23823513476E+01 -0.34087838513E+01 -0.26937081212E+01  0.49549438676E+01  0.00000000000E+00 0.  1.
</event>
<event>
 7    1  0.1019486E-010  0.4778727E+02  0.7816164E-02  0.1312668E+00
        -11   -1    0    0    0    0  0.00000000000E+00  0.00000000000E+00  0.45593999997E+02  0.45594000000E+02  0.51100000000E-03 0. -1.
         11   -1    0    0    0    0 -0.00000000000E+00 -0.00000000000E+00 -0.45593999997E+02  0.45594000000E+02  0.51100000000E-03 0.  1.
    9900012    2    1    2    0    0  0.30356700257E+02  0.17340393119E+02 -0.25717794524E+02  0.47787269139E+02  0.19999991314E+02 0.  0.
         12    1    1    2    0    0 -0.30356700257E+02 -0.17340393119E+02  0.25717794524E+02  0.43400730861E+02  0.00000000000E+00 0. -1.
         11    1    3    3    0    0  0.34973973270E+01 -0.40429645144E+01 -0.35014551755E+01  0.63904255519E+01  0.51100000000E-03 0. -1.
        -11    1    3    3    0    0  0.19176764490E+02  0.11427816845E+02 -0.13359459326E+02  0.26015734621E+02  0.51100000000E-03 0.  1.
        -12    1    3    3    0    0  0.76825384403E+01  0.99555407891E+01 -0.88568800229E+01  0.15381108966E+02  0.00000000000E+00 0.  1.
</event>
<event>
 7    1  0.1019486E-010  0.4778728E+02  0.7816164E-02  0.1312668E+00
        -11   -1    0    0    0    0  0.00000000000E+00  0.00000000000E+00  0.45593999997E+02  0.45594000000E+02  0.51100000000E-03 0. -1.
         11   -1    0    0    0    0 -0.00000000000E+00 -0.00000000000E+00 -0.45593999997E+02  0.45594000000E+02  0.51100000000E-03 0.  1.
    9900012    2    1    2    0    0 -0.29152947526E+02 -0.10611315884E+02  0.30350090824E+02  0.47787281258E+02  0.20000046569E+02 0.  0.
        -12    1    1    2    0    0  0.29152947526E+02  0.10611315884E+02 -0.30350090824E+02  0.43400718742E+02  0.00000000000E+00 0.  1.
         11    1    3    3    0    0 -0.13034282764E+02 -0.52161108494E+01  0.60139335611E+01  0.15273105012E+02  0.51100000000E-03 0. -1.
        -11    1    3    3    0    0 -0.10680807923E+02 -0.93577947253E+01  0.19929646892E+02  0.24471183165E+02  0.51100000000E-03 0.  1.
        -12    1    3    3    0    0 -0.54378568396E+01  0.39625896903E+01  0.44065103714E+01  0.80429930819E+01  0.00000000000E+00 0.  1.
</event>
<event>
 7    1  0.1019486E-010  0.4778725E+02  0.7816164E-02  0.1312668E+00
        -11   -1    0    0    0    0  0.00000000000E+00  0.00000000000E+00  0.45593999997E+02  0.45594000000E+02  0.51100000000E-03 0. -1.
         11   -1    0    0    0    0 -0.00000000000E+00 -0.00000000000E+00 -0.45593999997E+02  0.45594000000E+02  0.51100000000E-03 0.  1.
    9900012    2    1    2    0    0 -0.19050195828E+02 -0.26176863770E+02 -0.28904785056E+02  0.47787253957E+02  0.19999922092E+02 0.  0.
         12    1    1    2    0    0  0.19050195828E+02  0.26176863770E+02  0.28904785056E+02  0.43400746043E+02  0.00000000000E+00 0. -1.
         11    1    3    3    0    0 -0.51068253077E+01 -0.52046850023E+01  0.57349450318E+00  0.73141853205E+01  0.51100000000E-03 0. -1.
        -11    1    3    3    0    0 -0.83376369767E+01 -0.20368576728E+02 -0.22130966602E+02  0.31211773280E+02  0.51100000000E-03 0.  1.
        -12    1    3    3    0    0 -0.56057335439E+01 -0.60360203976E+00 -0.73473129574E+01  0.92612953566E+01  0.00000000000E+00 0.  1.
</event>
<event>
 7    1  0.1019486E-010  0.4778727E+02  0.7816164E-02  0.1312668E+00
        -11   -1    0    0    0    0  0.00000000000E+00  0.00000000000E+00  0.45593999997E+02  0.45594000000E+02  0.51100000000E-03 0. -1.
         11   -1    0    0    0    0 -0.00000000000E+00 -0.00000000000E+00 -0.45593999997E+02  0.45594000000E+02  0.51100000000E-03 0.  1.
    9900012    2    1    2    0    0 -0.14359921510E+02  0.21399510963E+02 -0.34921011966E+02  0.47787268532E+02  0.19999988546E+02 0.  0.
         12    1    1    2    0    0  0.14359921510E+02 -0.21399510963E+02  0.34921011966E+02  0.43400731468E+02  0.00000000000E+00 0. -1.
         11    1    3    3    0    0 -0.43833682026E+01  0.24825907463E+01 -0.86607182054E+01  0.10019242172E+02  0.51100000000E-03 0.  1.
        -11    1    3    3    0    0 -0.49574952661E+01 -0.21484761238E+01 -0.64993010537E+01  0.84518414216E+01  0.51100000000E-03 0. -1.
        -12    1    3    3    0    0 -0.50190580418E+01  0.21065396340E+02 -0.19760992707E+02  0.29316184938E+02  0.00000000000E+00 0.  1.
</event>
<event>
 7    1  0.1019486E-010  0.4778727E+02  0.7816164E-02  0.1312668E+00
        -11   -1    0    0    0    0  0.00000000000E+00  0.00000000000E+00  0.45593999997E+02  0.45594000000E+02  0.51100000000E-03 0. -1.
         11   -1    0    0    0    0 -0.00000000000E+00 -0.00000000000E+00 -0.45593999997E+02  0.45594000000E+02  0.51100000000E-03 0.  1.
    9900012    2    1    2    0    0  0.18811484705E+02  0.20565458443E+02  0.33268798582E+02  0.47787274236E+02  0.20000014550E+02 0.  0.
        -12    1    1    2    0    0 -0.18811484705E+02 -0.20565458443E+02 -0.33268798582E+02  0.43400725764E+02  0.00000000000E+00 0.  1.
         11    1    3    3    0    0  0.10036044216E+02  0.11657267967E+02  0.14577839309E+02  0.21192627943E+02  0.51100000000E-03 0. -1.
        -11    1    3    3    0    0 -0.19753166499E+01  0.75486542823E+01  0.10117543795E+02  0.12776883425E+02  0.51100000000E-03 0.  1.
        -12    1    3    3    0    0  0.10750757138E+02  0.13595361938E+01  0.85734154781E+01  0.13817762867E+02  0.00000000000E+00 0.  1.
</event>
<event>
 7    1  0.1019486E-010  0.4778727E+02  0.7816164E-02  0.1312668E+00
        -11   -1    0    0    0    0  0.00000000000E+00  0.00000000000E+00  0.45593999997E+02  0.45594000000E+02  0.51100000000E-03 0. -1.
         11   -1    0    0    0    0 -0.00000000000E+00 -0.00000000000E+00 -0.45593999997E+02  0.45594000000E+02  0.51100000000E-03 0.  1.
    9900012    2    1    2    0    0 -0.10693593287E+01 -0.17981283579E+02 -0.39486111392E+02  0.47787273262E+02  0.20000010112E+02 0.  0.
         12    1    1    2    0    0  0.10693593287E+01  0.17981283579E+02  0.39486111392E+02  0.43400726738E+02  0.00000000000E+00 0. -1.
         11    1    3    3    0    0  0.72183095931E+01 -0.48471906201E+01 -0.69851467766E+01  0.11153094909E+02  0.51100000000E-03 0. -1.
        -11    1    3    3    0    0 -0.20032407206E+00 -0.20927538649E+01 -0.10614859186E+02  0.10821043585E+02  0.51100000000E-03 0.  1.
         12    1    3    3    0    0 -0.80873448498E+01 -0.11041339094E+02 -0.21886105429E+02  0.25813134768E+02  0.00000000000E+00 0. -1.
</event>
<event>
 7    1  0.1019486E-010  0.4778727E+02  0.7816164E-02  0.1312668E+00
        -11   -1    0    0    0    0  0.00000000000E+00  0.00000000000E+00  0.45593999997E+02  0.45594000000E+02  0.51100000000E-03 0. -1.
         11   -1    0    0    0    0 -0.00000000000E+00 -0.00000000000E+00 -0.45593999997E+02  0.45594000000E+02  0.51100000000E-03 0.  1.
    9900012    2    1    2    0    0 -0.17404274188E+00  0.43026503406E+02  0.56844481225E+01  0.47787271473E+02  0.20000001954E+02 0.  0.
        -12    1    1    2    0    0  0.17404274188E+00 -0.43026503406E+02 -0.56844481225E+01  0.43400728527E+02  0.00000000000E+00 0.  1.
         11    1    3    3    0    0  0.84509956021E+01  0.14346711474E+02  0.25908945055E+01  0.16851118401E+02  0.51100000000E-03 0. -1.
        -11    1    3    3    0    0 -0.58342414111E+01  0.13062090404E+02  0.45306375844E+01  0.15006107282E+02  0.51100000000E-03 0.  1.
         12    1    3    3    0    0 -0.27907969328E+01  0.15617701528E+02 -0.14370839673E+01  0.15930045790E+02  0.00000000000E+00 0. -1.
</event>
<event>
 7    1  0.1019486E-010  0.4778727E+02  0.7816164E-02  0.1312668E+00
        -11   -1    0    0    0    0  0.00000000000E+00  0.00000000000E+00  0.45593999997E+02  0.45594000000E+02  0.51100000000E-03 0. -1.
         11   -1    0    0    0    0 -0.00000000000E+00 -0.00000000000E+00 -0.45593999997E+02  0.45594000000E+02  0.51100000000E-03 0.  1.
    9900012    2    1    2    0    0 -0.36578671115E+02  0.84390482922E+01 -0.21780874085E+02  0.47787271981E+02  0.20000004272E+02 0.  0.
         12    1    1    2    0    0  0.36578671115E+02 -0.84390482922E+01  0.21780874085E+02  0.43400728019E+02  0.00000000000E+00 0. -1.
         11    1    3    3    0    0 -0.15278298978E+02 -0.15946558821E+01 -0.39429572854E+01  0.15859264153E+02  0.51100000000E-03 0.  1.
        -11    1    3    3    0    0 -0.31962223060E+01 -0.27962017478E+01 -0.35641697643E+01  0.55441760086E+01  0.51100000000E-03 0. -1.
         12    1    3    3    0    0 -0.18104149831E+02  0.12829905922E+02 -0.14273747036E+02  0.26383831820E+02  0.00000000000E+00 0. -1.
</event>
<event>
 7    1  0.1019486E-010  0.4778721E+02  0.7816164E-02  0.1312668E+00
        -11   -1    0    0    0    0  0.00000000000E+00  0.00000000000E+00  0.45593999997E+02  0.45594000000E+02  0.51100000000E-03 0. -1.
         11   -1    0    0    0    0 -0.00000000000E+00 -0.00000000000E+00 -0.45593999997E+02  0.45594000000E+02  0.51100000000E-03 0.  1.
    9900012    2    1    2    0    0 -0.51497670310E+01 -0.14343820762E+02 -0.40636970175E+02  0.47787209229E+02  0.19999718156E+02 0.  0.
         12    1    1    2    0    0  0.51497670310E+01  0.14343820762E+02  0.40636970175E+02  0.43400790771E+02  0.00000000000E+00 0. -1.
         11    1    3    3    0    0 -0.63604914016E+01 -0.11499677173E+02 -0.11950288834E+02  0.17762540062E+02  0.51100000000E-03 0. -1.
        -11    1    3    3    0    0  0.28203098511E+01  0.14850834208E+01 -0.19319514218E+02  0.19580685644E+02  0.51100000000E-03 0.  1.
         12    1    3    3    0    0 -0.16095854805E+01 -0.43292270099E+01 -0.93671671233E+01  0.10443983523E+02  0.00000000000E+00 0. -1.
</event>
<event>
 7    1  0.1019486E-010  0.4778727E+02  0.7816164E-02  0.1312668E+00
        -11   -1    0    0    0    0  0.00000000000E+00  0.00000000000E+00  0.45593999997E+02  0.45594000000E+02  0.51100000000E-03 0. -1.
         11   -1    0    0    0    0 -0.00000000000E+00 -0.00000000000E+00 -0.45593999997E+02  0.45594000000E+02  0.51100000000E-03 0.  1.
    9900012    2    1    2    0    0 -0.92467952275E+00  0.36177912545E+02 -0.23956768669E+02  0.47787272432E+02  0.20000006328E+02 0.  0.
         12    1    1    2    0    0  0.92467952275E+00 -0.36177912545E+02  0.23956768669E+02  0.43400727568E+02  0.00000000000E+00 0. -1.
         11    1    3    3    0    0 -0.36319975075E+01  0.22263022942E+01  0.20684273253E+01  0.47356329736E+01  0.51100000000E-03 0. -1.
        -11    1    3    3    0    0  0.18170730858E+01  0.29348056761E+02 -0.23951425399E+02  0.37924674938E+02  0.51100000000E-03 0.  1.
         12    1    3    3    0    0  0.89024489895E+00  0.46035534900E+01 -0.20737705960E+01  0.51269645211E+01  0.00000000000E+00 0. -1.
</event>
<event>
 7    1  0.1019486E-010  0.4778727E+02  0.7816164E-02  0.1312668E+00
        -11   -1    0    0    0    0  0.00000000000E+00  0.00000000000E+00  0.45593999997E+02  0.45594000000E+02  0.51100000000E-03 0. -1.
         11   -1    0    0    0    0 -0.00000000000E+00 -0.00000000000E+00 -0.45593999997E+02  0.45594000000E+02  0.51100000000E-03 0.  1.
    9900012    2    1    2    0    0  0.27485716190E+02  0.31362056801E+02 -0.12024148820E+02  0.47787270097E+02  0.19999995682E+02 0.  0.
         12    1    1    2    0    0 -0.27485716190E+02 -0.31362056801E+02  0.12024148820E+02  0.43400729903E+02  0.00000000000E+00 0. -1.
         11    1    3    3    0    0 -0.39442358516E+00  0.96488120938E+01 -0.36584371319E+00  0.96637977353E+01  0.51100000000E-03 0. -1.
        -11    1    3    3    0    0  0.23415874364E+02  0.21157404235E+02 -0.86877939094E+01  0.32732502035E+02  0.51100000000E-03 0.  1.
        -12    1    3    3    0    0  0.44642654117E+01  0.55584047160E+00 -0.29705111973E+01  0.53909703272E+01  0.00000000000E+00 0.  1.
</event>
<event>
 7    1  0.1019486E-010  0.4778727E+02  0.7816164E-02  0.1312668E+00
        -11   -1    0    0    0    0  0.00000000000E+00  0.00000000000E+00  0.45593999997E+02  0.45594000000E+02  0.51100000000E-03 0. -1.
         11   -1    0    0    0    0 -0.00000000000E+00 -0.00000000000E+00 -0.45593999997E+02  0.45594000000E+02  0.51100000000E-03 0.  1.
    9900012    2    1    2    0    0 -0.22385906057E+02  0.18249346088E+02  0.32395306524E+02  0.47787270658E+02  0.19999998237E+02 0.  0.
        -12    1    1    2    0    0  0.22385906057E+02 -0.18249346088E+02 -0.32395306524E+02  0.43400729342E+02  0.00000000000E+00 0.  1.
         11    1    3    3    0    0 -0.14960540617E+02  0.91801881769E+01  0.28277310963E+02  0.33282126526E+02  0.51100000000E-03 0. -1.
        -11    1    3    3    0    0  0.38295091510E+00  0.15650868258E+01 -0.15896972085E+01  0.22634676167E+01  0.51100000000E-03 0.  1.
        -12    1    3    3    0    0 -0.78083163546E+01  0.75040710854E+01  0.57076927705E+01  0.12241676515E+02  0.00000000000E+00 0.  1.
</event>
<event>
 7    1  0.1019486E-010  0.4778727E+02  0.7816164E-02  0.1312668E+00
        -11   -1    0    0    0    0  0.00000000000E+00  0.00000000000E+00  0.45593999997E+02  0.45594000000E+02  0.51100000000E-03 0. -1.
         11   -1    0    0    0    0 -0.00000000000E+00 -0.00000000000E+00 -0.45593999997E+02  0.45594000000E+02  0.51100000000E-03 0.  1.
    9900012    2    1    2    0    0  0.64182567847E+00 -0.89819449913E+01  0.42456281259E+02  0.47787273113E+02  0.20000009430E+02 0.  0.
        -12    1    1    2    0    0 -0.64182567847E+00  0.89819449913E+01 -0.42456281259E+02  0.43400726887E+02  0.00000000000E+00 0.  1.
         11    1    3    3    0    0 -0.10391564093E+01 -0.14101142030E+01  0.21081300387E+01  0.27408904811E+01  0.51100000000E-03 0. -1.
        -11    1    3    3    0    0  0.16580673141E+01 -0.11351005932E+02  0.39554930018E+02  0.41184791026E+02  0.51100000000E-03 0.  1.
        -12    1    3    3    0    0  0.22914773613E-01  0.37791751437E+01  0.79322120252E+00  0.38615916057E+01  0.00000000000E+00 0.  1.
</event>
<event>
 7    1  0.1019486E-010  0.4778728E+02  0.7816164E-02  0.1312668E+00
        -11   -1    0    0    0    0  0.00000000000E+00  0.00000000000E+00  0.45593999997E+02  0.45594000000E+02  0.51100000000E-03 0. -1.
         11   -1    0    0    0    0 -0.00000000000E+00 -0.00000000000E+00 -0.45593999997E+02  0.45594000000E+02  0.51100000000E-03 0.  1.
    9900012    2    1    2    0    0 -0.28860488779E+02 -0.10991989504E+02 -0.30493788208E+02  0.47787276906E+02  0.20000026725E+02 0.  0.
         12    1    1    2    0    0  0.28860488779E+02  0.10991989504E+02  0.30493788208E+02  0.43400723094E+02  0.00000000000E+00 0. -1.
         11    1    3    3    0    0 -0.43168188590E+01 -0.10161169376E+02 -0.13232388976E+02  0.17233119463E+02  0.51100000000E-03 0. -1.
        -11    1    3    3    0    0 -0.11627412511E+01  0.10340615183E+01 -0.21445468173E+01  0.26495908653E+01  0.51100000000E-03 0.  1.
         12    1    3    3    0    0 -0.23380928669E+02 -0.18648816468E+01 -0.15116852415E+02  0.27904566578E+02  0.00000000000E+00 0. -1.
</event>
<event>
 7    1  0.1019486E-010  0.4778727E+02  0.7816164E-02  0.1312668E+00
        -11   -1    0    0    0    0  0.00000000000E+00  0.00000000000E+00  0.45593999997E+02  0.45594000000E+02  0.51100000000E-03 0. -1.
         11   -1    0    0    0    0 -0.00000000000E+00 -0.00000000000E+00 -0.45593999997E+02  0.45594000000E+02  0.51100000000E-03 0.  1.
    9900012    2    1    2    0    0  0.10700088786E+02  0.22516103107E+02 -0.35526846633E+02  0.47787266932E+02  0.19999981250E+02 0.  0.
         12    1    1    2    0    0 -0.10700088786E+02 -0.22516103107E+02  0.35526846633E+02  0.43400733068E+02  0.00000000000E+00 0. -1.
         11    1    3    3    0    0  0.12881487898E+02  0.11717032851E+02 -0.12532248349E+02  0.21454110055E+02  0.51100000000E-03 0. -1.
        -11    1    3    3    0    0 -0.86029940617E+00  0.27632824341E+00 -0.75145897747E+01  0.75687206389E+01  0.51100000000E-03 0.  1.
         12    1    3    3    0    0 -0.13210997061E+01  0.10522742012E+02 -0.15480008510E+02  0.18764436238E+02  0.00000000000E+00 0. -1.
</event>
<event>
 7    1  0.1019486E-010  0.4778726E+02  0.7816164E-02  0.1312668E+00
        -11   -1    0    0    0    0  0.00000000000E+00  0.00000000000E+00  0.45593999997E+02  0.45594000000E+02  0.51100000000E-03 0. -1.
         11   -1    0    0    0    0 -0.00000000000E+00 -0.00000000000E+00 -0.45593999997E+02  0.45594000000E+02  0.51100000000E-03 0.  1.
    9900012    2    1    2    0    0  0.22858094340E+02  0.19879385811E+02 -0.31079599693E+02  0.47787262976E+02  0.19999963215E+02 0.  0.
         12    1    1    2    0    0 -0.22858094340E+02 -0.19879385811E+02  0.31079599693E+02  0.43400737024E+02  0.00000000000E+00 0. -1.
         11    1    3    3    0    0 -0.32368209543E+01  0.20215860702E+01 -0.16357040080E+01  0.41520293824E+01  0.51100000000E-03 0. -1.
        -11    1    3    3    0    0  0.26291369019E+02  0.18079436557E+02 -0.29170079851E+02  0.43231882562E+02  0.51100000000E-03 0.  1.
        -12    1    3    3    0    0 -0.19645372395E+00 -0.22163681617E+00 -0.27381583463E+00  0.40335103226E+00  0.00000000000E+00 0.  1.
</event>
<event>
 7    1  0.1019486E-010  0.4778729E+02  0.7816164E-02  0.1312668E+00
        -11   -1    0    0    0    0  0.00000000000E+00  0.00000000000E+00  0.45593999997E+02  0.45594000000E+02  0.51100000000E-03 0.  1.
         11   -1    0    0    0    0 -0.00000000000E+00 -0.00000000000E+00 -0.45593999997E+02  0.45594000000E+02  0.51100000000E-03 0. -1.
    9900012    2    1    2    0    0 -0.40444497830E+02 -0.82182725207E+01  0.13428491266E+02  0.47787288190E+02  0.20000078171E+02 0.  0.
        -12    1    1    2    0    0  0.40444497830E+02  0.82182725207E+01 -0.13428491266E+02  0.43400711810E+02  0.00000000000E+00 0.  1.
         11    1    3    3    0    0 -0.27426264209E+02 -0.38838451515E+01  0.63056197108E+01  0.28408538537E+02  0.51100000000E-03 0. -1.
        -11    1    3    3    0    0 -0.67127429944E+01 -0.75306524973E+01  0.70528184185E+01  0.12309097995E+02  0.51100000000E-03 0.  1.
        -12    1    3    3    0    0 -0.63054906273E+01  0.31962251281E+01  0.70053136652E-01  0.70696516578E+01  0.00000000000E+00 0.  1.
</event>
<event>
 7    1  0.1019486E-010  0.4778727E+02  0.7816164E-02  0.1312668E+00
        -11   -1    0    0    0    0  0.00000000000E+00  0.00000000000E+00  0.45593999997E+02  0.45594000000E+02  0.51100000000E-03 0. -1.
         11   -1    0    0    0    0 -0.00000000000E+00 -0.00000000000E+00 -0.45593999997E+02  0.45594000000E+02  0.51100000000E-03 0.  1.
    9900012    2    1    2    0    0 -0.75479013424E+01  0.58797874912E+01 -0.42332969712E+02  0.47787273736E+02  0.20000012271E+02 0.  0.
         12    1    1    2    0    0  0.75479013424E+01 -0.58797874912E+01  0.42332969712E+02  0.43400726264E+02  0.00000000000E+00 0. -1.
         11    1    3    3    0    0  0.24206965138E+01  0.96705561309E+01 -0.17516258981E+02  0.20154373134E+02  0.51100000000E-03 0. -1.
        -11    1    3    3    0    0 -0.33264977735E+01 -0.29619836397E+01 -0.15720431717E+02  0.16339244418E+02  0.51100000000E-03 0.  1.
         12    1    3    3    0    0 -0.66421000828E+01 -0.82878499990E+00 -0.90962790146E+01  0.11293656184E+02  0.00000000000E+00 0. -1.
</event>
<event>
 7    1  0.1019486E-010  0.4778727E+02  0.7816164E-02  0.1312668E+00
        -11   -1    0    0    0    0  0.00000000000E+00  0.00000000000E+00  0.45593999997E+02  0.45594000000E+02  0.51100000000E-03 0. -1.
         11   -1    0    0    0    0 -0.00000000000E+00 -0.00000000000E+00 -0.45593999997E+02  0.45594000000E+02  0.51100000000E-03 0.  1.
    9900012    2    1    2    0    0 -0.15633471891E+02  0.53427986702E+01  0.40133184663E+02  0.47787268990E+02  0.19999990635E+02 0.  0.
        -12    1    1    2    0    0  0.15633471891E+02 -0.53427986702E+01 -0.40133184663E+02  0.43400731010E+02  0.00000000000E+00 0.  1.
         11    1    3    3    0    0 -0.85745188931E+01  0.11870486729E+02  0.31575091066E+02  0.34805419198E+02  0.51100000000E-03 0. -1.
        -11    1    3    3    0    0 -0.55257861639E+01 -0.40819031923E+01  0.62134851704E+01  0.92630256733E+01  0.51100000000E-03 0.  1.
         12    1    3    3    0    0 -0.15331668343E+01 -0.24457848669E+01  0.23446084261E+01  0.37188241191E+01  0.00000000000E+00 0. -1.
</event>
<event>
 7    1  0.1019486E-010  0.4778731E+02  0.7816164E-02  0.1312668E+00
        -11   -1    0    0    0    0  0.00000000000E+00  0.00000000000E+00  0.45593999997E+02  0.45594000000E+02  0.51100000000E-03 0. -1.
         11   -1    0    0    0    0 -0.00000000000E+00 -0.00000000000E+00 -0.45593999997E+02  0.45594000000E+02  0.51100000000E-03 0.  1.
    9900012    2    1    2    0    0 -0.16444407806E+02  0.17177303410E+01  0.40127928345E+02  0.47787311309E+02  0.20000183580E+02 0.  0.
        -12    1    1    2    0    0  0.16444407806E+02 -0.17177303410E+01 -0.40127928345E+02  0.43400688691E+02  0.00000000000E+00 0.  1.
         11    1    3    3    0    0 -0.11675621593E+02 -0.55164306508E+00  0.19758846116E+02  0.22957274441E+02  0.51100000000E-03 0. -1.
        -11    1    3    3    0    0  0.32596341117E+01  0.25065158985E+01  0.13964297020E+02  0.14557109192E+02  0.51100000000E-03 0.  1.
        -12    1    3    3    0    0 -0.80284203245E+01 -0.23714249248E+00  0.64047852089E+01  0.10272927676E+02  0.00000000000E+00 0.  1.
</event>
<event>
 7    1  0.1019486E-010  0.4778727E+02  0.7816164E-02  0.1312668E+00
        -11   -1    0    0    0    0  0.00000000000E+00  0.00000000000E+00  0.45593999997E+02  0.45594000000E+02  0.51100000000E-03 0. -1.
         11   -1    0    0    0    0 -0.00000000000E+00 -0.00000000000E+00 -0.45593999997E+02  0.45594000000E+02  0.51100000000E-03 0.  1.
    9900012    2    1    2    0    0 -0.39860177033E+02 -0.16510530617E+02  0.47108596325E+01  0.47787268061E+02  0.19999986396E+02 0.  0.
        -12    1    1    2    0    0  0.39860177033E+02  0.16510530617E+02 -0.47108596325E+01  0.43400731939E+02  0.00000000000E+00 0.  1.
         11    1    3    3    0    0 -0.30696688532E+02 -0.10244122159E+02  0.32410030168E+01  0.32522804714E+02  0.51100000000E-03 0. -1.
        -11    1    3    3    0    0 -0.15855055920E+01 -0.63853274595E+01 -0.20733716309E+01  0.68981957734E+01  0.51100000000E-03 0.  1.
        -12    1    3    3    0    0 -0.75779829092E+01  0.11891900151E+00  0.35432282466E+01  0.83662675733E+01  0.00000000000E+00 0.  1.
</event>
<event>
 7    1  0.1019486E-010  0.4778727E+02  0.7816164E-02  0.1312668E+00
        -11   -1    0    0    0    0  0.00000000000E+00  0.00000000000E+00  0.45593999997E+02  0.45594000000E+02  0.51100000000E-03 0. -1.
         11   -1    0    0    0    0 -0.00000000000E+00 -0.00000000000E+00 -0.45593999997E+02  0.45594000000E+02  0.51100000000E-03 0.  1.
    9900012    2    1    2    0    0 -0.28595689390E+01  0.34221047126E+02  0.26539896406E+02  0.47787270719E+02  0.19999998514E+02 0.  0.
        -12    1    1    2    0    0  0.28595689390E+01 -0.34221047126E+02 -0.26539896406E+02  0.43400729281E+02  0.00000000000E+00 0.  1.
         11    1    3    3    0    0  0.44473438593E+01  0.20404902635E+02  0.10719848520E+02  0.23474540921E+02  0.51100000000E-03 0. -1.
        -11    1    3    3    0    0 -0.31907845015E+01 -0.78802663681E+00  0.26837039825E+01  0.42431543741E+01  0.51100000000E-03 0.  1.
        -12    1    3    3    0    0 -0.41161282968E+01  0.14604171128E+02  0.13136343904E+02  0.20069575423E+02  0.00000000000E+00 0.  1.
</event>
<event>
 7    1  0.1019486E-010  0.4778727E+02  0.7816164E-02  0.1312668E+00
        -11   -1    0    0    0    0  0.00000000000E+00  0.00000000000E+00  0.45593999997E+02  0.45594000000E+02  0.51100000000E-03 0. -1.
         11   -1    0    0    0    0 -0.00000000000E+00 -0.00000000000E+00 -0.45593999997E+02  0.45594000000E+02  0.51100000000E-03 0.  1.
    9900012    2    1    2    0    0 -0.86956488541E+01 -0.41496963379E+02 -0.92742089361E+01  0.47787271549E+02  0.20000002302E+02 0.  0.
         12    1    1    2    0    0  0.86956488541E+01  0.41496963379E+02  0.92742089361E+01  0.43400728451E+02  0.00000000000E+00 0. -1.
         11    1    3    3    0    0 -0.12899835132E+01  0.16154232775E+01 -0.17570610196E+01  0.27131003515E+01  0.51100000000E-03 0. -1.
        -11    1    3    3    0    0 -0.48816261000E+01 -0.40116432682E+02 -0.59201016581E+01  0.40843678194E+02  0.51100000000E-03 0.  1.
        -12    1    3    3    0    0 -0.25240392410E+01 -0.29959539745E+01 -0.15970462584E+01  0.42304930042E+01  0.00000000000E+00 0.  1.
</event>
<event>
 7    1  0.1019486E-010  0.4778727E+02  0.7816164E-02  0.1312668E+00
        -11   -1    0    0    0    0  0.00000000000E+00  0.00000000000E+00  0.45593999997E+02  0.45594000000E+02  0.51100000000E-03 0.  1.
         11   -1    0    0    0    0 -0.00000000000E+00 -0.00000000000E+00 -0.45593999997E+02  0.45594000000E+02  0.51100000000E-03 0. -1.
    9900012    2    1    2    0    0  0.52813329595E+01  0.43059873334E+02 -0.12564166529E+01  0.47787265534E+02  0.19999974876E+02 0.  0.
        -12    1    1    2    0    0 -0.52813329595E+01 -0.43059873334E+02  0.12564166529E+01  0.43400734466E+02  0.00000000000E+00 0.  1.
         11    1    3    3    0    0 -0.71377192401E+00  0.34055837188E+02  0.36736552284E+01  0.34260841495E+02  0.51100000000E-03 0. -1.
        -11    1    3    3    0    0  0.24734592661E+01 -0.39338002406E+00 -0.48792508896E+00  0.25516307997E+01  0.51100000000E-03 0.  1.
         12    1    3    3    0    0  0.35216456174E+01  0.93974161703E+01 -0.44421467923E+01  0.10974793240E+02  0.00000000000E+00 0. -1.
</event>
<event>
 7    1  0.1019486E-010  0.4778726E+02  0.7816164E-02  0.1312668E+00
        -11   -1    0    0    0    0  0.00000000000E+00  0.00000000000E+00  0.45593999997E+02  0.45594000000E+02  0.51100000000E-03 0. -1.
         11   -1    0    0    0    0 -0.00000000000E+00 -0.00000000000E+00 -0.45593999997E+02  0.45594000000E+02  0.51100000000E-03 0.  1.
    9900012    2    1    2    0    0  0.61397845528E+01 -0.35306927552E+02  0.24481586744E+02  0.47787260640E+02  0.19999952561E+02 0.  0.
        -12    1    1    2    0    0 -0.61397845528E+01  0.35306927552E+02 -0.24481586744E+02  0.43400739360E+02  0.00000000000E+00 0.  1.
         11    1    3    3    0    0  0.62972583312E+01 -0.22048794219E+01  0.26016205578E+01  0.71613815387E+01  0.51100000000E-03 0. -1.
        -11    1    3    3    0    0 -0.27864983877E+01 -0.14064842705E+02  0.54397895268E+01  0.15335438824E+02  0.51100000000E-03 0.  1.
         12    1    3    3    0    0  0.26290246092E+01 -0.19037205426E+02  0.16440176659E+02  0.25290440277E+02  0.00000000000E+00 0. -1.
</event>
<event>
 7    1  0.1019486E-010  0.4778727E+02  0.7816164E-02  0.1312668E+00
        -11   -1    0    0    0    0  0.00000000000E+00  0.00000000000E+00  0.45593999997E+02  0.45594000000E+02  0.51100000000E-03 0. -1.
         11   -1    0    0    0    0 -0.00000000000E+00 -0.00000000000E+00 -0.45593999997E+02  0.45594000000E+02  0.51100000000E-03 0.  1.
    9900012    2    1    2    0    0  0.43162582156E+01 -0.32927305455E+02  0.27942541431E+02  0.47787272459E+02  0.20000006449E+02 0.  0.
        -12    1    1    2    0    0 -0.43162582156E+01  0.32927305455E+02 -0.27942541431E+02  0.43400727541E+02  0.00000000000E+00 0.  1.
         11    1    3    3    0    0  0.75378572373E+01 -0.19196999869E+02  0.20365382036E+02  0.28984355805E+02  0.51100000000E-03 0. -1.
        -11    1    3    3    0    0 -0.62381583002E+01 -0.11017733205E+02  0.36985415493E+01  0.13190309845E+02  0.51100000000E-03 0.  1.
        -12    1    3    3    0    0  0.30165592785E+01 -0.27125723814E+01  0.38786178452E+01  0.56126068091E+01  0.00000000000E+00 0.  1.
</event>
<event>
 7    1  0.1019486E-010  0.4778727E+02  0.7816164E-02  0.1312668E+00
        -11   -1    0    0    0    0  0.00000000000E+00  0.00000000000E+00  0.45593999997E+02  0.45594000000E+02  0.51100000000E-03 0. -1.
         11   -1    0    0    0    0 -0.00000000000E+00 -0.00000000000E+00 -0.45593999997E+02  0.45594000000E+02  0.51100000000E-03 0.  1.
    9900012    2    1    2    0    0 -0.71984475359E+01  0.16554195335E+02  0.39468518837E+02  0.47787274092E+02  0.20000013897E+02 0.  0.
        -12    1    1    2    0    0  0.71984475359E+01 -0.16554195335E+02 -0.39468518837E+02  0.43400725908E+02  0.00000000000E+00 0.  1.
         11    1    3    3    0    0 -0.36756060300E+01  0.95398913292E+01  0.19603418199E+02  0.22109129599E+02  0.51100000000E-03 0. -1.
        -11    1    3    3    0    0  0.54957731697E+01  0.16029258206E+01  0.77403035205E+01  0.96273149304E+01  0.51100000000E-03 0.  1.
        -12    1    3    3    0    0 -0.90186146757E+01  0.54113781847E+01  0.12124797117E+02  0.16050829563E+02  0.00000000000E+00 0.  1.
</event>
<event>
 7    1  0.1019486E-010  0.4778727E+02  0.7816164E-02  0.1312668E+00
        -11   -1    0    0    0    0  0.00000000000E+00  0.00000000000E+00  0.45593999997E+02  0.45594000000E+02  0.51100000000E-03 0. -1.
         11   -1    0    0    0    0 -0.00000000000E+00 -0.00000000000E+00 -0.45593999997E+02  0.45594000000E+02  0.51100000000E-03 0.  1.
    9900012    2    1    2    0    0  0.20156006692E+02  0.11817256013E+02 -0.36574736035E+02  0.47787268883E+02  0.19999990146E+02 0.  0.
         12    1    1    2    0    0 -0.20156006692E+02 -0.11817256013E+02  0.36574736035E+02  0.43400731117E+02  0.00000000000E+00 0. -1.
         11    1    3    3    0    0 -0.49838966529E+00 -0.35609322174E+01 -0.33392659851E+01  0.49070691961E+01  0.51100000000E-03 0. -1.
        -11    1    3    3    0    0  0.11954633594E+02  0.12339288675E+02 -0.26001061664E+02  0.31164507333E+02  0.51100000000E-03 0.  1.
         12    1    3    3    0    0  0.86997627637E+01  0.30388995554E+01 -0.72344083857E+01  0.11715692354E+02  0.00000000000E+00 0. -1.
</event>
<event>
 7    1  0.1019486E-010  0.4778727E+02  0.7816164E-02  0.1312668E+00
        -11   -1    0    0    0    0  0.00000000000E+00  0.00000000000E+00  0.45593999997E+02  0.45594000000E+02  0.51100000000E-03 0. -1.
         11   -1    0    0    0    0 -0.00000000000E+00 -0.00000000000E+00 -0.45593999997E+02  0.45594000000E+02  0.51100000000E-03 0.  1.
    9900012    2    1    2    0    0 -0.21375283934E+02 -0.10174195403E+02  0.36375902273E+02  0.47787270956E+02  0.19999999599E+02 0.  0.
        -12    1    1    2    0    0  0.21375283934E+02  0.10174195403E+02 -0.36375902273E+02  0.43400729044E+02  0.00000000000E+00 0.  1.
         11    1    3    3    0    0 -0.27723195772E+01 -0.57501883070E+01  0.12706295882E+02  0.14219717884E+02  0.51100000000E-03 0. -1.
        -11    1    3    3    0    0 -0.19500157974E+02 -0.24925789600E+01  0.15243152261E+02  0.24876149259E+02  0.51100000000E-03 0.  1.
        -12    1    3    3    0    0  0.89719361723E+00 -0.19314281364E+01  0.84264541304E+01  0.86914038133E+01  0.00000000000E+00 0.  1.
</event>
<event>
 7    1  0.1019486E-010  0.4778727E+02  0.7816164E-02  0.1312668E+00
        -11   -1    0    0    0    0  0.00000000000E+00  0.00000000000E+00  0.45593999997E+02  0.45594000000E+02  0.51100000000E-03 0. -1.
         11   -1    0    0    0    0 -0.00000000000E+00 -0.00000000000E+00 -0.45593999997E+02  0.45594000000E+02  0.51100000000E-03 0.  1.
    9900012    2    1    2    0    0 -0.22006424950E+02  0.29888786803E+02  0.22494460255E+02  0.47787273534E+02  0.20000011350E+02 0.  0.
        -12    1    1    2    0    0  0.22006424950E+02 -0.29888786803E+02 -0.22494460255E+02  0.43400726466E+02  0.00000000000E+00 0.  1.
         11    1    3    3    0    0 -0.53554776431E+01  0.42532177748E+01  0.11220097464E+02  0.13140075707E+02  0.51100000000E-03 0. -1.
        -11    1    3    3    0    0 -0.82325866696E+01  0.21774846660E+02  0.62175712581E+01  0.24095178417E+02  0.51100000000E-03 0.  1.
        -12    1    3    3    0    0 -0.84183606374E+01  0.38607223682E+01  0.50567915335E+01  0.10552019410E+02  0.00000000000E+00 0.  1.
</event>
<event>
 7    1  0.1019486E-010  0.4778727E+02  0.7816164E-02  0.1312668E+00
        -11   -1    0    0    0    0  0.00000000000E+00  0.00000000000E+00  0.45593999997E+02  0.45594000000E+02  0.51100000000E-03 0. -1.
         11   -1    0    0    0    0 -0.00000000000E+00 -0.00000000000E+00 -0.45593999997E+02  0.45594000000E+02  0.51100000000E-03 0.  1.
    9900012    2    1    2    0    0 -0.44064591902E+01  0.16314585517E+02 -0.39975505189E+02  0.47787267307E+02  0.19999982959E+02 0.  0.
         12    1    1    2    0    0  0.44064591902E+01 -0.16314585517E+02  0.39975505189E+02  0.43400732693E+02  0.00000000000E+00 0. -1.
         11    1    3    3    0    0  0.51983658033E+00  0.10178946510E+02 -0.63797486345E+01  0.12024241141E+02  0.51100000000E-03 0. -1.
        -11    1    3    3    0    0 -0.60716161290E+01  0.15552997354E+01 -0.10830385830E+02  0.12513222493E+02  0.51100000000E-03 0.  1.
         12    1    3    3    0    0  0.11453203584E+01  0.45803392722E+01 -0.22765370725E+02  0.23249803673E+02  0.00000000000E+00 0. -1.
</event>
<event>
 7    1  0.1019486E-010  0.4778727E+02  0.7816164E-02  0.1312668E+00
        -11   -1    0    0    0    0  0.00000000000E+00  0.00000000000E+00  0.45593999997E+02  0.45594000000E+02  0.51100000000E-03 0. -1.
         11   -1    0    0    0    0 -0.00000000000E+00 -0.00000000000E+00 -0.45593999997E+02  0.45594000000E+02  0.51100000000E-03 0.  1.
    9900012    2    1    2    0    0  0.81553567408E+01 -0.32567877090E+02 -0.27503579617E+02  0.47787270127E+02  0.19999995819E+02 0.  0.
         12    1    1    2    0    0 -0.81553567408E+01  0.32567877090E+02  0.27503579617E+02  0.43400729873E+02  0.00000000000E+00 0. -1.
         11    1    3    3    0    0 -0.44456508493E+01 -0.27262845310E+01 -0.77821550502E+01  0.93679440810E+01  0.51100000000E-03 0. -1.
        -11    1    3    3    0    0  0.65844000019E+01 -0.22684512817E+02 -0.14031176509E+02  0.27473903247E+02  0.51100000000E-03 0.  1.
        -12    1    3    3    0    0  0.60166075883E+01 -0.71570797422E+01 -0.56902480580E+01  0.10945422800E+02  0.00000000000E+00 0.  1.
</event>
<event>
 7    1  0.1019486E-010  0.4778727E+02  0.7816164E-02  0.1312668E+00
        -11   -1    0    0    0    0  0.00000000000E+00  0.00000000000E+00  0.45593999997E+02  0.45594000000E+02  0.51100000000E-03 0. -1.
         11   -1    0    0    0    0 -0.00000000000E+00 -0.00000000000E+00 -0.45593999997E+02  0.45594000000E+02  0.51100000000E-03 0.  1.
    9900012    2    1    2    0    0  0.66894503374E+01 -0.28267071480E+02 -0.32246659229E+02  0.47787272963E+02  0.20000008750E+02 0.  0.
         12    1    1    2    0    0 -0.66894503374E+01  0.28267071480E+02  0.32246659229E+02  0.43400727037E+02  0.00000000000E+00 0. -1.
         11    1    3    3    0    0  0.51031826898E+01 -0.32069828417E+01 -0.18229322217E+01  0.62968479939E+01  0.51100000000E-03 0. -1.
        -11    1    3    3    0    0  0.90243399556E+00 -0.57240417150E+01 -0.16949742487E+02  0.17912923025E+02  0.51100000000E-03 0.  1.
        -12    1    3    3    0    0  0.68383365200E+00 -0.19336046923E+02 -0.13473984521E+02  0.23577501944E+02  0.00000000000E+00 0.  1.
</event>
<event>
 7    1  0.1128518E-010  0.4778727E+02  0.7816164E-02  0.1312668E+00
        -11   -1    0    0    0    0  0.00000000000E+00  0.00000000000E+00  0.45593999997E+02  0.45594000000E+02  0.51100000000E-03 0. -1.
         11   -1    0    0    0    0 -0.00000000000E+00 -0.00000000000E+00 -0.45593999997E+02  0.45594000000E+02  0.51100000000E-03 0.  1.
    9900012    2    1    2    0    0  0.23632834247E+01  0.11054924217E+02 -0.41902586395E+02  0.47787271843E+02  0.20000003639E+02 0.  0.
         12    1    1    2    0    0 -0.23632834247E+01 -0.11054924217E+02  0.41902586395E+02  0.43400728157E+02  0.00000000000E+00 0. -1.
         11    1    3    3    0    0  0.10831554189E+01  0.12895048419E+01  0.19282800281E+01  0.25601391616E+01  0.51100000000E-03 0. -1.
        -11    1    3    3    0    0 -0.63899594127E+00  0.90136082188E+01 -0.37288733450E+02  0.38367995667E+02  0.51100000000E-03 0.  1.
         12    1    3    3    0    0  0.19191239471E+01  0.75181115630E+00 -0.65421329731E+01  0.68591370140E+01  0.00000000000E+00 0. -1.
</event>
<event>
 7    1  0.1019486E-010  0.4778727E+02  0.7816164E-02  0.1312668E+00
        -11   -1    0    0    0    0  0.00000000000E+00  0.00000000000E+00  0.45593999997E+02  0.45594000000E+02  0.51100000000E-03 0. -1.
         11   -1    0    0    0    0 -0.00000000000E+00 -0.00000000000E+00 -0.45593999997E+02  0.45594000000E+02  0.51100000000E-03 0.  1.
    9900012    2    1    2    0    0 -0.15670195223E+02 -0.16657587854E+02  0.36886213726E+02  0.47787274033E+02  0.20000013624E+02 0.  0.
        -12    1    1    2    0    0  0.15670195223E+02  0.16657587854E+02 -0.36886213726E+02  0.43400725967E+02  0.00000000000E+00 0.  1.
         11    1    3    3    0    0 -0.14086504097E+02 -0.70355894963E+01  0.26214299949E+02  0.30579709602E+02  0.51100000000E-03 0. -1.
        -11    1    3    3    0    0 -0.24345778238E-02 -0.24279301706E+01  0.94303233628E+01  0.97378565316E+01  0.51100000000E-03 0.  1.
         12    1    3    3    0    0 -0.15812565478E+01 -0.71940681868E+01  0.12415904146E+01  0.74697078996E+01  0.00000000000E+00 0. -1.
</event>
<event>
 7    1  0.1019486E-010  0.4778726E+02  0.7816164E-02  0.1312668E+00
        -11   -1    0    0    0    0  0.00000000000E+00  0.00000000000E+00  0.45593999997E+02  0.45594000000E+02  0.51100000000E-03 0. -1.
         11   -1    0    0    0    0 -0.00000000000E+00 -0.00000000000E+00 -0.45593999997E+02  0.45594000000E+02  0.51100000000E-03 0.  1.
    9900012    2    1    2    0    0  0.13601230750E+02  0.27881028494E+02 -0.30352576602E+02  0.47787261133E+02  0.19999954810E+02 0.  0.
         12    1    1    2    0    0 -0.13601230750E+02 -0.27881028494E+02  0.30352576602E+02  0.43400738867E+02  0.00000000000E+00 0. -1.
         11    1    3    3    0    0  0.18752085755E+01  0.18006112617E+02 -0.22536446704E+02  0.28907229702E+02  0.51100000000E-03 0. -1.
        -11    1    3    3    0    0  0.18387979489E+01  0.36331640868E+01 -0.56880615681E+01  0.69953630243E+01  0.51100000000E-03 0.  1.
         12    1    3    3    0    0  0.98872242259E+01  0.62417517906E+01 -0.21280683300E+01  0.11884668406E+02  0.00000000000E+00 0. -1.
</event>
<event>
 7    1  0.1019486E-010  0.4778727E+02  0.7816164E-02  0.1312668E+00
        -11   -1    0    0    0    0  0.00000000000E+00  0.00000000000E+00  0.45593999997E+02  0.45594000000E+02  0.51100000000E-03 0. -1.
         11   -1    0    0    0    0 -0.00000000000E+00 -0.00000000000E+00 -0.45593999997E+02  0.45594000000E+02  0.51100000000E-03 0.  1.
    9900012    2    1    2    0    0  0.27066224983E+02 -0.44988685823E+01  0.33627409056E+02  0.47787274278E+02  0.20000014744E+02 0.  0.
        -12    1    1    2    0    0 -0.27066224983E+02  0.44988685823E+01 -0.33627409056E+02  0.43400725722E+02  0.00000000000E+00 0.  1.
         11    1    3    3    0    0  0.65580963993E+01  0.53655296036E+01  0.14985595609E+02  0.17215272647E+02  0.51100000000E-03 0. -1.
        -11    1    3    3    0    0  0.15196353714E+01  0.56020817633E+00 -0.46778774790E+00  0.16858085600E+01  0.51100000000E-03 0.  1.
         12    1    3    3    0    0  0.18988493212E+02 -0.10424606362E+02  0.19109601196E+02  0.28886193071E+02  0.00000000000E+00 0. -1.
</event>
<event>
 7    1  0.1019486E-010  0.4778727E+02  0.7816164E-02  0.1312668E+00
        -11   -1    0    0    0    0  0.00000000000E+00  0.00000000000E+00  0.45593999997E+02  0.45594000000E+02  0.51100000000E-03 0. -1.
         11   -1    0    0    0    0 -0.00000000000E+00 -0.00000000000E+00 -0.45593999997E+02  0.45594000000E+02  0.51100000000E-03 0.  1.
    9900012    2    1    2    0    0 -0.21969149488E+02  0.20077889662E+02 -0.31588890949E+02  0.47787271735E+02  0.20000003148E+02 0.  0.
         12    1    1    2    0    0  0.21969149488E+02 -0.20077889662E+02  0.31588890949E+02  0.43400728265E+02  0.00000000000E+00 0. -1.
         11    1    3    3    0    0 -0.10379245679E+02  0.43064510280E+00 -0.44089554778E+01  0.11285082398E+02  0.51100000000E-03 0. -1.
        -11    1    3    3    0    0 -0.15911847389E+01  0.88011723528E+01 -0.14566600147E+02  0.17093225083E+02  0.51100000000E-03 0.  1.
        -12    1    3    3    0    0 -0.99987190704E+01  0.10846072207E+02 -0.12613335325E+02  0.19408964253E+02  0.00000000000E+00 0.  1.
</event>
<event>
 7    1  0.1019486E-010  0.4778727E+02  0.7816164E-02  0.1312668E+00
        -11   -1    0    0    0    0  0.00000000000E+00  0.00000000000E+00  0.45593999997E+02  0.45594000000E+02  0.51100000000E-03 0. -1.
         11   -1    0    0    0    0 -0.00000000000E+00 -0.00000000000E+00 -0.45593999997E+02  0.45594000000E+02  0.51100000000E-03 0.  1.
    9900012    2    1    2    0    0  0.42005530199E+02  0.38053829045E+00 -0.10909361113E+02  0.47787268018E+02  0.19999986199E+02 0.  0.
         12    1    1    2    0    0 -0.42005530199E+02 -0.38053829045E+00  0.10909361113E+02  0.43400731982E+02  0.00000000000E+00 0. -1.
         11    1    3    3    0    0  0.19969270883E+02 -0.33477224556E+01  0.34867459317E+00  0.20250940706E+02  0.51100000000E-03 0. -1.
        -11    1    3    3    0    0  0.31424249145E+01  0.29878644831E+01 -0.68724591785E+01  0.81260607882E+01  0.51100000000E-03 0.  1.
        -12    1    3    3    0    0  0.18893834401E+02  0.74039626292E+00 -0.43855765280E+01  0.19410266523E+02  0.00000000000E+00 0.  1.
</event>
<event>
 7    1  0.1146167E-010  0.4778727E+02  0.7816164E-02  0.1312668E+00
        -11   -1    0    0    0    0  0.00000000000E+00  0.00000000000E+00  0.45593999997E+02  0.45594000000E+02  0.51100000000E-03 0. -1.
         11   -1    0    0    0    0 -0.00000000000E+00 -0.00000000000E+00 -0.45593999997E+02  0.45594000000E+02  0.51100000000E-03 0.  1.
    9900012    2    1    2    0    0 -0.37765711668E+01 -0.24681451278E+02 -0.35499109292E+02  0.47787270888E+02  0.19999999285E+02 0.  0.
         12    1    1    2    0    0  0.37765711668E+01  0.24681451278E+02  0.35499109292E+02  0.43400729112E+02  0.00000000000E+00 0. -1.
         11    1    3    3    0    0  0.47052643170E+01 -0.11225629460E+02 -0.16707048901E+02  0.20670746293E+02  0.51100000000E-03 0. -1.
        -11    1    3    3    0    0 -0.74752403857E+01 -0.79033379242E+01 -0.18505645100E+02  0.21466272848E+02  0.51100000000E-03 0.  1.
         12    1    3    3    0    0 -0.10065950981E+01 -0.55524838940E+01 -0.28641529125E+00  0.56502517469E+01  0.00000000000E+00 0. -1.
</event>
<event>
 7    1  0.1019486E-010  0.4778724E+02  0.7816164E-02  0.1312668E+00
        -11   -1    0    0    0    0  0.00000000000E+00  0.00000000000E+00  0.45593999997E+02  0.45594000000E+02  0.51100000000E-03 0. -1.
         11   -1    0    0    0    0 -0.00000000000E+00 -0.00000000000E+00 -0.45593999997E+02  0.45594000000E+02  0.51100000000E-03 0.  1.
    9900012    2    1    2    0    0 -0.29492638587E+02  0.13967705261E+02 -0.28613168023E+02  0.47787240728E+02  0.19999861775E+02 0.  0.
         12    1    1    2    0    0  0.29492638587E+02 -0.13967705261E+02  0.28613168023E+02  0.43400759272E+02  0.00000000000E+00 0. -1.
         11    1    3    3    0    0 -0.22560670320E+02  0.63424998025E+01 -0.10326973550E+02  0.25609715578E+02  0.51100000000E-03 0. -1.
        -11    1    3    3    0    0  0.14771351070E+01  0.61458867966E+00 -0.23719657574E+01  0.28610958014E+01  0.51100000000E-03 0.  1.
         12    1    3    3    0    0 -0.84091033746E+01  0.70106167791E+01 -0.15914228715E+02  0.19316429349E+02  0.00000000000E+00 0. -1.
</event>
<event>
 7    1  0.1019486E-010  0.4778727E+02  0.7816164E-02  0.1312668E+00
        -11   -1    0    0    0    0  0.00000000000E+00  0.00000000000E+00  0.45593999997E+02  0.45594000000E+02  0.51100000000E-03 0.  1.
         11   -1    0    0    0    0 -0.00000000000E+00 -0.00000000000E+00 -0.45593999997E+02  0.45594000000E+02  0.51100000000E-03 0. -1.
    9900012    2    1    2    0    0  0.28086536432E+02 -0.42664677064E+01 -0.32811086140E+02  0.47787266722E+02  0.19999980291E+02 0.  0.
         12    1    1    2    0    0 -0.28086536432E+02  0.42664677064E+01  0.32811086140E+02  0.43400733278E+02  0.00000000000E+00 0. -1.
         11    1    3    3    0    0  0.75936041146E+01 -0.40637075150E+01 -0.22333409866E+02  0.23936535646E+02  0.51100000000E-03 0.  1.
        -11    1    3    3    0    0  0.75859998443E+01 -0.16627642432E+01 -0.11305706671E+01  0.78479531637E+01  0.51100000000E-03 0. -1.
        -12    1    3    3    0    0  0.12906932473E+02  0.14600040518E+01 -0.93471056066E+01  0.16002777912E+02  0.00000000000E+00 0.  1.
</event>
<event>
 7    1  0.1886824E-010  0.4778727E+02  0.7816164E-02  0.1312668E+00
        -11   -1    0    0    0    0  0.00000000000E+00  0.00000000000E+00  0.45593999997E+02  0.45594000000E+02  0.51100000000E-03 0. -1.
         11   -1    0    0    0    0 -0.00000000000E+00 -0.00000000000E+00 -0.45593999997E+02  0.45594000000E+02  0.51100000000E-03 0.  1.
    9900012    2    1    2    0    0  0.46057506973E+00 -0.22109055545E+02 -0.37344351385E+02  0.47787273660E+02  0.20000011926E+02 0.  0.
         12    1    1    2    0    0 -0.46057506973E+00  0.22109055545E+02  0.37344351385E+02  0.43400726340E+02  0.00000000000E+00 0. -1.
         11    1    3    3    0    0  0.38489619514E+01 -0.24659040354E+01 -0.11297510364E+00  0.45725216730E+01  0.51100000000E-03 0. -1.
        -11    1    3    3    0    0  0.53047221090E+00 -0.17263667252E+02 -0.27808673939E+02  0.32735881755E+02  0.51100000000E-03 0.  1.
         12    1    3    3    0    0 -0.39188590926E+01 -0.23794842579E+01 -0.94227023422E+01  0.10478870233E+02  0.00000000000E+00 0. -1.
</event>
<event>
 7    1  0.1174225E-010  0.4778727E+02  0.7816164E-02  0.1312668E+00
        -11   -1    0    0    0    0  0.00000000000E+00  0.00000000000E+00  0.45593999997E+02  0.45594000000E+02  0.51100000000E-03 0. -1.
         11   -1    0    0    0    0 -0.00000000000E+00 -0.00000000000E+00 -0.45593999997E+02  0.45594000000E+02  0.51100000000E-03 0.  1.
    9900012    2    1    2    0    0 -0.31392139739E+02 -0.41649415054E+01 -0.29678448373E+02  0.47787268750E+02  0.19999989540E+02 0.  0.
         12    1    1    2    0    0  0.31392139739E+02  0.41649415054E+01  0.29678448373E+02  0.43400731250E+02  0.00000000000E+00 0. -1.
         11    1    3    3    0    0 -0.59097824450E-01  0.45628547685E+00  0.21675420566E+01  0.22158356928E+01  0.51100000000E-03 0. -1.
        -11    1    3    3    0    0 -0.17725024531E+02  0.18731615664E+00 -0.21216876069E+02  0.27647195379E+02  0.51100000000E-03 0.  1.
         12    1    3    3    0    0 -0.13608017384E+02 -0.48085431389E+01 -0.10629114361E+02  0.17924237679E+02  0.00000000000E+00 0. -1.
</event>
<event>
 7    1  0.1019486E-010  0.4778727E+02  0.7816164E-02  0.1312668E+00
        -11   -1    0    0    0    0  0.00000000000E+00  0.00000000000E+00  0.45593999997E+02  0.45594000000E+02  0.51100000000E-03 0. -1.
         11   -1    0    0    0    0 -0.00000000000E+00 -0.00000000000E+00 -0.45593999997E+02  0.45594000000E+02  0.51100000000E-03 0.  1.
    9900012    2    1    2    0    0 -0.43251141987E+01  0.31009340812E+02  0.30055574130E+02  0.47787269975E+02  0.19999995122E+02 0.  0.
        -12    1    1    2    0    0  0.43251141987E+01 -0.31009340812E+02 -0.30055574130E+02  0.43400730025E+02  0.00000000000E+00 0.  1.
         11    1    3    3    0    0  0.96189597150E+00 -0.14787292919E+00  0.98338641303E+01  0.98819023603E+01  0.51100000000E-03 0. -1.
        -11    1    3    3    0    0 -0.27759063037E+01  0.91756780926E+01  0.36295914578E+01  0.10250495533E+02  0.51100000000E-03 0.  1.
         12    1    3    3    0    0 -0.25111038665E+01  0.21981535649E+02  0.16592118542E+02  0.27654872081E+02  0.00000000000E+00 0. -1.
</event>
<event>
 7    1  0.1019486E-010  0.4778732E+02  0.7816164E-02  0.1312668E+00
        -11   -1    0    0    0    0  0.00000000000E+00  0.00000000000E+00  0.45593999997E+02  0.45594000000E+02  0.51100000000E-03 0. -1.
         11   -1    0    0    0    0 -0.00000000000E+00 -0.00000000000E+00 -0.45593999997E+02  0.45594000000E+02  0.51100000000E-03 0.  1.
    9900012    2    1    2    0    0 -0.12722508171E+02  0.10176205457E+02  0.40226881720E+02  0.47787315851E+02  0.20000204291E+02 0.  0.
        -12    1    1    2    0    0  0.12722508171E+02 -0.10176205457E+02 -0.40226881720E+02  0.43400684149E+02  0.00000000000E+00 0.  1.
         11    1    3    3    0    0 -0.81100868097E+01  0.16256637893E+01  0.13222784988E+02  0.15596741131E+02  0.51100000000E-03 0. -1.
        -11    1    3    3    0    0 -0.17854313689E+01 -0.34490289371E+01  0.21310831476E+01  0.44300204768E+01  0.51100000000E-03 0.  1.
        -12    1    3    3    0    0 -0.28269899921E+01  0.11999570604E+02  0.24873013585E+02  0.27760554243E+02  0.00000000000E+00 0.  1.
</event>
<event>
 7    1  0.1019486E-010  0.4778729E+02  0.7816164E-02  0.1312668E+00
        -11   -1    0    0    0    0  0.00000000000E+00  0.00000000000E+00  0.45593999997E+02  0.45594000000E+02  0.51100000000E-03 0.  1.
         11   -1    0    0    0    0 -0.00000000000E+00 -0.00000000000E+00 -0.45593999997E+02  0.45594000000E+02  0.51100000000E-03 0. -1.
    9900012    2    1    2    0    0  0.13978561665E+02  0.29146321381E+02  0.28960552178E+02  0.47787287809E+02  0.20000076434E+02 0.  0.
        -12    1    1    2    0    0 -0.13978561665E+02 -0.29146321381E+02 -0.28960552178E+02  0.43400712191E+02  0.00000000000E+00 0.  1.
         11    1    3    3    0    0  0.13906553158E+02  0.11965451815E+02  0.18015904256E+02  0.25712585718E+02  0.51100000000E-03 0. -1.
        -11    1    3    3    0    0 -0.16359071590E+01  0.45791753701E+00 -0.46144714000E+00  0.17603449740E+01  0.51100000000E-03 0.  1.
         12    1    3    3    0    0  0.17079156656E+01  0.16722952030E+02  0.11406095061E+02  0.20314357117E+02  0.00000000000E+00 0. -1.
</event>
<event>
 7    1  0.1019486E-010  0.4778728E+02  0.7816164E-02  0.1312668E+00
        -11   -1    0    0    0    0  0.00000000000E+00  0.00000000000E+00  0.45593999997E+02  0.45594000000E+02  0.51100000000E-03 0. -1.
         11   -1    0    0    0    0 -0.00000000000E+00 -0.00000000000E+00 -0.45593999997E+02  0.45594000000E+02  0.51100000000E-03 0.  1.
    9900012    2    1    2    0    0 -0.25097319098E+02 -0.30253795931E+02 -0.18397144347E+02  0.47787279795E+02  0.20000039899E+02 0.  0.
         12    1    1    2    0    0  0.25097319098E+02  0.30253795931E+02  0.18397144347E+02  0.43400720205E+02  0.00000000000E+00 0. -1.
         11    1    3    3    0    0 -0.49748846300E+01  0.11069889620E+01 -0.17668904708E+01  0.53941453300E+01  0.51100000000E-03 0. -1.
        -11    1    3    3    0    0 -0.15511021221E+02 -0.29091388702E+02 -0.17263591889E+02  0.37214678302E+02  0.51100000000E-03 0.  1.
        -12    1    3    3    0    0 -0.46114132463E+01 -0.22693961917E+01  0.63333801239E+00  0.51784561639E+01  0.00000000000E+00 0.  1.
</event>
<event>
 7    1  0.1019486E-010  0.4778727E+02  0.7816164E-02  0.1312668E+00
        -11   -1    0    0    0    0  0.00000000000E+00  0.00000000000E+00  0.45593999997E+02  0.45594000000E+02  0.51100000000E-03 0. -1.
         11   -1    0    0    0    0 -0.00000000000E+00 -0.00000000000E+00 -0.45593999997E+02  0.45594000000E+02  0.51100000000E-03 0.  1.
    9900012    2    1    2    0    0 -0.12413471375E+02  0.18696825554E+02 -0.37147781348E+02  0.47787271707E+02  0.20000003019E+02 0.  0.
         12    1    1    2    0    0  0.12413471375E+02 -0.18696825554E+02  0.37147781348E+02  0.43400728293E+02  0.00000000000E+00 0. -1.
         11    1    3    3    0    0  0.87102482026E+00  0.76601646666E+01 -0.10821253359E+02  0.13286697538E+02  0.51100000000E-03 0. -1.
        -11    1    3    3    0    0 -0.62679038286E+01 -0.22911068963E+01 -0.47685469566E+01  0.82021234783E+01  0.51100000000E-03 0.  1.
        -12    1    3    3    0    0 -0.70165923662E+01  0.13327767783E+02 -0.21557981032E+02  0.26298450690E+02  0.00000000000E+00 0.  1.
</event>
<event>
 7    1  0.1019486E-010  0.4778726E+02  0.7816164E-02  0.1312668E+00
        -11   -1    0    0    0    0  0.00000000000E+00  0.00000000000E+00  0.45593999997E+02  0.45594000000E+02  0.51100000000E-03 0. -1.
         11   -1    0    0    0    0 -0.00000000000E+00 -0.00000000000E+00 -0.45593999997E+02  0.45594000000E+02  0.51100000000E-03 0.  1.
    9900012    2    1    2    0    0 -0.13502936790E+02  0.24853736277E+02 -0.32917877256E+02  0.47787260929E+02  0.19999953879E+02 0.  0.
         12    1    1    2    0    0  0.13502936790E+02 -0.24853736277E+02  0.32917877256E+02  0.43400739071E+02  0.00000000000E+00 0. -1.
         11    1    3    3    0    0 -0.20325381064E+01 -0.38550573518E+00 -0.98685380849E+00  0.22920965351E+01  0.51100000000E-03 0. -1.
        -11    1    3    3    0    0 -0.60679680259E+01  0.56248913183E+01 -0.80922650021E+00  0.83135122599E+01  0.51100000000E-03 0.  1.
        -12    1    3    3    0    0 -0.54024306574E+01  0.19614350694E+02 -0.31121796948E+02  0.37181652134E+02  0.00000000000E+00 0.  1.
</event>
<event>
 7    1  0.1019486E-010  0.4778727E+02  0.7816164E-02  0.1312668E+00
        -11   -1    0    0    0    0  0.00000000000E+00  0.00000000000E+00  0.45593999997E+02  0.45594000000E+02  0.51100000000E-03 0. -1.
         11   -1    0    0    0    0 -0.00000000000E+00 -0.00000000000E+00 -0.45593999997E+02  0.45594000000E+02  0.51100000000E-03 0.  1.
    9900012    2    1    2    0    0 -0.11975599344E+02  0.15275343805E+02  0.38818452617E+02  0.47787269919E+02  0.19999994867E+02 0.  0.
        -12    1    1    2    0    0  0.11975599344E+02 -0.15275343805E+02 -0.38818452617E+02  0.43400730081E+02  0.00000000000E+00 0.  1.
         11    1    3    3    0    0 -0.30776804469E+01 -0.38067753589E+01  0.11061874336E+02  0.12096640842E+02  0.51100000000E-03 0. -1.
        -11    1    3    3    0    0 -0.20215573955E+00  0.86769424304E+01  0.85838863577E+01  0.12207100481E+02  0.51100000000E-03 0.  1.
         12    1    3    3    0    0 -0.86957631571E+01  0.10405176733E+02  0.19172691923E+02  0.23483528596E+02  0.00000000000E+00 0. -1.
</event>
<event>
 7    1  0.1019486E-010  0.4778726E+02  0.7816164E-02  0.1312668E+00
        -11   -1    0    0    0    0  0.00000000000E+00  0.00000000000E+00  0.45593999997E+02  0.45594000000E+02  0.51100000000E-03 0. -1.
         11   -1    0    0    0    0 -0.00000000000E+00 -0.00000000000E+00 -0.45593999997E+02  0.45594000000E+02  0.51100000000E-03 0.  1.
    9900012    2    1    2    0    0 -0.30998259745E+02 -0.29215352207E+02  0.83183956994E+01  0.47787255550E+02  0.19999929356E+02 0.  0.
        -12    1    1    2    0    0  0.30998259745E+02  0.29215352207E+02 -0.83183956994E+01  0.43400744450E+02  0.00000000000E+00 0.  1.
         11    1    3    3    0    0 -0.19259626539E+02 -0.24610318926E+02  0.11566428881E+02  0.33322414219E+02  0.51100000000E-03 0. -1.
        -11    1    3    3    0    0 -0.19148697140E+01 -0.35055167903E+01 -0.21014143852E+01  0.45134595011E+01  0.51100000000E-03 0.  1.
         12    1    3    3    0    0 -0.98237634918E+01 -0.10995164899E+01 -0.11466187966E+01  0.99513818296E+01  0.00000000000E+00 0. -1.
</event>
<event>
 7    1  0.1097741E-010  0.4778728E+02  0.7816164E-02  0.1312668E+00
        -11   -1    0    0    0    0  0.00000000000E+00  0.00000000000E+00  0.45593999997E+02  0.45594000000E+02  0.51100000000E-03 0. -1.
         11   -1    0    0    0    0 -0.00000000000E+00 -0.00000000000E+00 -0.45593999997E+02  0.45594000000E+02  0.51100000000E-03 0.  1.
    9900012    2    1    2    0    0  0.36303168361E+02  0.95382883034E+01 -0.21788156387E+02  0.47787277246E+02  0.20000028275E+02 0.  0.
         12    1    1    2    0    0 -0.36303168361E+02 -0.95382883034E+01  0.21788156387E+02  0.43400722754E+02  0.00000000000E+00 0. -1.
         11    1    3    3    0    0  0.34967431496E+01  0.19035509272E+01  0.35555458715E+01  0.53378483954E+01  0.51100000000E-03 0. -1.
        -11    1    3    3    0    0  0.15065916893E+02  0.37865354639E+01 -0.14802581178E+02  0.21457775104E+02  0.51100000000E-03 0.  1.
         12    1    3    3    0    0  0.17740508319E+02  0.38482019122E+01 -0.10541121081E+02  0.20991653746E+02  0.00000000000E+00 0. -1.
</event>
<event>
 7    1  0.1019486E-010  0.4778727E+02  0.7816164E-02  0.1312668E+00
        -11   -1    0    0    0    0  0.00000000000E+00  0.00000000000E+00  0.45593999997E+02  0.45594000000E+02  0.51100000000E-03 0. -1.
         11   -1    0    0    0    0 -0.00000000000E+00 -0.00000000000E+00 -0.45593999997E+02  0.45594000000E+02  0.51100000000E-03 0.  1.
    9900012    2    1    2    0    0  0.14828526288E+02  0.25446336091E+02  0.31878234551E+02  0.47787273619E+02  0.20000011737E+02 0.  0.
        -12    1    1    2    0    0 -0.14828526288E+02 -0.25446336091E+02 -0.31878234551E+02  0.43400726381E+02  0.00000000000E+00 0.  1.
         11    1    3    3    0    0  0.10905627531E+02  0.74198034956E+01  0.46771359649E+01  0.13995063303E+02  0.51100000000E-03 0. -1.
        -11    1    3    3    0    0 -0.13967921704E+01  0.32584465231E+01  0.94668938280E+01  0.10108935707E+02  0.51100000000E-03 0.  1.
         12    1    3    3    0    0  0.53196909279E+01  0.14768086072E+02  0.17734204758E+02  0.23683274609E+02  0.00000000000E+00 0. -1.
</event>
<event>
 7    1  0.1019486E-010  0.4778728E+02  0.7816164E-02  0.1312668E+00
        -11   -1    0    0    0    0  0.00000000000E+00  0.00000000000E+00  0.45593999997E+02  0.45594000000E+02  0.51100000000E-03 0. -1.
         11   -1    0    0    0    0 -0.00000000000E+00 -0.00000000000E+00 -0.45593999997E+02  0.45594000000E+02  0.51100000000E-03 0.  1.
    9900012    2    1    2    0    0 -0.48830205920E+01  0.77028007531E+01 -0.42431651575E+02  0.47787284741E+02  0.20000062449E+02 0.  0.
         12    1    1    2    0    0  0.48830205920E+01 -0.77028007531E+01  0.42431651575E+02  0.43400715259E+02  0.00000000000E+00 0. -1.
         11    1    3    3    0    0 -0.22162178629E+01 -0.50311534106E+01 -0.10952413112E+02  0.12254773743E+02  0.51100000000E-03 0. -1.
        -11    1    3    3    0    0 -0.23035505236E+01 -0.13317114708E+00 -0.11361237707E+01  0.25719364403E+01  0.51100000000E-03 0.  1.
         12    1    3    3    0    0 -0.36325220546E+00  0.12867125311E+02 -0.30343114693E+02  0.32960574558E+02  0.00000000000E+00 0. -1.
</event>
<event>
 7    1  0.1019486E-010  0.4778728E+02  0.7816164E-02  0.1312668E+00
        -11   -1    0    0    0    0  0.00000000000E+00  0.00000000000E+00  0.45593999997E+02  0.45594000000E+02  0.51100000000E-03 0. -1.
         11   -1    0    0    0    0 -0.00000000000E+00 -0.00000000000E+00 -0.45593999997E+02  0.45594000000E+02  0.51100000000E-03 0.  1.
    9900012    2    1    2    0    0  0.13056685023E+02 -0.30145843925E+02 -0.28361487151E+02  0.47787275546E+02  0.20000020525E+02 0.  0.
         12    1    1    2    0    0 -0.13056685023E+02  0.30145843925E+02  0.28361487151E+02  0.43400724454E+02  0.00000000000E+00 0. -1.
         11    1    3    3    0    0  0.72455729745E+01 -0.27536747192E+02 -0.17561280308E+02  0.33453988401E+02  0.51100000000E-03 0. -1.
        -11    1    3    3    0    0  0.72594560209E+01 -0.12049957525E+01 -0.90365332466E+01  0.11653782642E+02  0.51100000000E-03 0.  1.
        -12    1    3    3    0    0 -0.14483439728E+01 -0.14041009799E+01 -0.17636735968E+01  0.26795045030E+01  0.00000000000E+00 0.  1.
</event>
<event>
 7    1  0.1019486E-010  0.4778727E+02  0.7816164E-02  0.1312668E+00
        -11   -1    0    0    0    0  0.00000000000E+00  0.00000000000E+00  0.45593999997E+02  0.45594000000E+02  0.51100000000E-03 0. -1.
         11   -1    0    0    0    0 -0.00000000000E+00 -0.00000000000E+00 -0.45593999997E+02  0.45594000000E+02  0.51100000000E-03 0.  1.
    9900012    2    1    2    0    0 -0.32347456891E+02 -0.20661690786E+02  0.20257343117E+02  0.47787269780E+02  0.19999994237E+02 0.  0.
        -12    1    1    2    0    0  0.32347456891E+02  0.20661690786E+02 -0.20257343117E+02  0.43400730220E+02  0.00000000000E+00 0.  1.
         11    1    3    3    0    0 -0.58695634671E+01 -0.32248417188E+01  0.57387657192E+01  0.88195698107E+01  0.51100000000E-03 0. -1.
        -11    1    3    3    0    0 -0.22282231625E+02 -0.91434602209E+01  0.16839194450E+02  0.29388078892E+02  0.51100000000E-03 0.  1.
        -12    1    3    3    0    0 -0.41956617993E+01 -0.82933888460E+01 -0.23206170526E+01  0.95796210775E+01  0.00000000000E+00 0.  1.
</event>
<event>
 7    1  0.1019486E-010  0.4778727E+02  0.7816164E-02  0.1312668E+00
        -11   -1    0    0    0    0  0.00000000000E+00  0.00000000000E+00  0.45593999997E+02  0.45594000000E+02  0.51100000000E-03 0.  1.
         11   -1    0    0    0    0 -0.00000000000E+00 -0.00000000000E+00 -0.45593999997E+02  0.45594000000E+02  0.51100000000E-03 0. -1.
    9900012    2    1    2    0    0 -0.37765082375E+02 -0.68902745468E+01  0.20247121133E+02  0.47787271386E+02  0.20000001555E+02 0.  0.
        -12    1    1    2    0    0  0.37765082375E+02  0.68902745468E+01 -0.20247121133E+02  0.43400728614E+02  0.00000000000E+00 0.  1.
         11    1    3    3    0    0 -0.25861727050E+02  0.24783392969E+01  0.67256456302E+01  0.26836642880E+02  0.51100000000E-03 0. -1.
        -11    1    3    3    0    0 -0.66370370790E+01 -0.75224885819E+01  0.63855841065E+01  0.11891752617E+02  0.51100000000E-03 0.  1.
         12    1    3    3    0    0 -0.52663182458E+01 -0.18461252618E+01  0.71358913964E+01  0.90588758888E+01  0.00000000000E+00 0. -1.
</event>
<event>
 7    1  0.1019486E-010  0.4778727E+02  0.7816164E-02  0.1312668E+00
        -11   -1    0    0    0    0  0.00000000000E+00  0.00000000000E+00  0.45593999997E+02  0.45594000000E+02  0.51100000000E-03 0.  1.
         11   -1    0    0    0    0 -0.00000000000E+00 -0.00000000000E+00 -0.45593999997E+02  0.45594000000E+02  0.51100000000E-03 0. -1.
    9900012    2    1    2    0    0 -0.38549679995E+02 -0.57303017739E+01 -0.19097357685E+02  0.47787271243E+02  0.20000000903E+02 0.  0.
         12    1    1    2    0    0  0.38549679995E+02  0.57303017739E+01  0.19097357685E+02  0.43400728757E+02  0.00000000000E+00 0. -1.
         11    1    3    3    0    0 -0.68611735347E+01 -0.69500933058E+01 -0.11063298015E+02  0.14757237630E+02  0.51100000000E-03 0. -1.
        -11    1    3    3    0    0 -0.15321028864E+02  0.12723549299E+01 -0.16521768128E+01  0.15462292876E+02  0.51100000000E-03 0.  1.
         12    1    3    3    0    0 -0.16367477596E+02 -0.52563397989E-01 -0.63818828578E+01  0.17567740737E+02  0.00000000000E+00 0. -1.
</event>
<event>
 7    1  0.1019486E-010  0.4778727E+02  0.7816164E-02  0.1312668E+00
        -11   -1    0    0    0    0  0.00000000000E+00  0.00000000000E+00  0.45593999997E+02  0.45594000000E+02  0.51100000000E-03 0. -1.
         11   -1    0    0    0    0 -0.00000000000E+00 -0.00000000000E+00 -0.45593999997E+02  0.45594000000E+02  0.51100000000E-03 0.  1.
    9900012    2    1    2    0    0  0.19292123615E+02  0.23805997572E+02  0.30736163028E+02  0.47787271070E+02  0.20000000117E+02 0.  0.
        -12    1    1    2    0    0 -0.19292123615E+02 -0.23805997572E+02 -0.30736163028E+02  0.43400728930E+02  0.00000000000E+00 0.  1.
         11    1    3    3    0    0  0.54551993827E+01  0.83164544750E+01  0.39867520143E+00  0.99539719468E+01  0.51100000000E-03 0. -1.
        -11    1    3    3    0    0 -0.65817808485E+00  0.40961426885E+01  0.62006706668E+01  0.74605562993E+01  0.51100000000E-03 0.  1.
         12    1    3    3    0    0  0.14495102317E+02  0.11393400409E+02  0.24136817159E+02  0.30372742824E+02  0.00000000000E+00 0. -1.
</event>
<event>
 7    1  0.1019486E-010  0.4778725E+02  0.7816164E-02  0.1312668E+00
        -11   -1    0    0    0    0  0.00000000000E+00  0.00000000000E+00  0.45593999997E+02  0.45594000000E+02  0.51100000000E-03 0. -1.
         11   -1    0    0    0    0 -0.00000000000E+00 -0.00000000000E+00 -0.45593999997E+02  0.45594000000E+02  0.51100000000E-03 0.  1.
    9900012    2    1    2    0    0 -0.35318420472E+02 -0.81250648097E+01 -0.23879233304E+02  0.47787247864E+02  0.19999894309E+02 0.  0.
         12    1    1    2    0    0  0.35318420472E+02  0.81250648097E+01  0.23879233304E+02  0.43400752136E+02  0.00000000000E+00 0. -1.
         11    1    3    3    0    0 -0.22837091049E+02 -0.33827502247E+00 -0.21328377188E+02  0.31249749300E+02  0.51100000000E-03 0. -1.
        -11    1    3    3    0    0 -0.22179248935E+01 -0.35070761342E+00 -0.31276930957E+01  0.38502793437E+01  0.51100000000E-03 0.  1.
         12    1    3    3    0    0 -0.10263404530E+02 -0.74360821738E+01  0.57683697942E+00  0.12687219220E+02  0.00000000000E+00 0. -1.
</event>
<event>
 7    1  0.1019486E-010  0.4778727E+02  0.7816164E-02  0.1312668E+00
        -11   -1    0    0    0    0  0.00000000000E+00  0.00000000000E+00  0.45593999997E+02  0.45594000000E+02  0.51100000000E-03 0. -1.
         11   -1    0    0    0    0 -0.00000000000E+00 -0.00000000000E+00 -0.45593999997E+02  0.45594000000E+02  0.51100000000E-03 0.  1.
    9900012    2    1    2    0    0  0.54147763238E+01 -0.20545306216E+02  0.37844333402E+02  0.47787274421E+02  0.20000015393E+02 0.  0.
        -12    1    1    2    0    0 -0.54147763238E+01  0.20545306216E+02 -0.37844333402E+02  0.43400725579E+02  0.00000000000E+00 0.  1.
         11    1    3    3    0    0  0.49972709078E+01 -0.35084301744E+01  0.14399982861E+02  0.15641013569E+02  0.51100000000E-03 0. -1.
        -11    1    3    3    0    0  0.44774924685E+01 -0.89435564826E+01  0.41415928591E+01  0.10825337548E+02  0.51100000000E-03 0.  1.
        -12    1    3    3    0    0 -0.40599870525E+01 -0.80933195594E+01  0.19302757683E+02  0.21320923303E+02  0.00000000000E+00 0.  1.
</event>
<event>
 7    1  0.1019486E-010  0.4778727E+02  0.7816164E-02  0.1312668E+00
        -11   -1    0    0    0    0  0.00000000000E+00  0.00000000000E+00  0.45593999997E+02  0.45594000000E+02  0.51100000000E-03 0. -1.
         11   -1    0    0    0    0 -0.00000000000E+00 -0.00000000000E+00 -0.45593999997E+02  0.45594000000E+02  0.51100000000E-03 0.  1.
    9900012    2    1    2    0    0  0.15350388238E+02  0.21930562407E+02  0.34161954996E+02  0.47787272406E+02  0.20000006207E+02 0.  0.
        -12    1    1    2    0    0 -0.15350388238E+02 -0.21930562407E+02 -0.34161954996E+02  0.43400727594E+02  0.00000000000E+00 0.  1.
         11    1    3    3    0    0 -0.40986750083E+00  0.98535885963E+01  0.16225774093E+02  0.18987810426E+02  0.51100000000E-03 0. -1.
        -11    1    3    3    0    0  0.12289987697E+02  0.44376207307E+01  0.15039463117E+02  0.19922894530E+02  0.51100000000E-03 0.  1.
        -12    1    3    3    0    0  0.34702680417E+01  0.76393530796E+01  0.28967177864E+01  0.88765674498E+01  0.00000000000E+00 0.  1.
</event>
<event>
 7    1  0.1019486E-010  0.4778727E+02  0.7816164E-02  0.1312668E+00
        -11   -1    0    0    0    0  0.00000000000E+00  0.00000000000E+00  0.45593999997E+02  0.45594000000E+02  0.51100000000E-03 0. -1.
         11   -1    0    0    0    0 -0.00000000000E+00 -0.00000000000E+00 -0.45593999997E+02  0.45594000000E+02  0.51100000000E-03 0.  1.
    9900012    2    1    2    0    0  0.55339790123E+01 -0.61312590194E+01 -0.42607582746E+02  0.47787269957E+02  0.19999995041E+02 0.  0.
         12    1    1    2    0    0 -0.55339790123E+01  0.61312590194E+01  0.42607582746E+02  0.43400730043E+02  0.00000000000E+00 0. -1.
         11    1    3    3    0    0  0.37042417712E+01  0.36402967740E+01 -0.28925251933E+02  0.29387809843E+02  0.51100000000E-03 0. -1.
        -11    1    3    3    0    0  0.34257028289E+01 -0.22182008528E+01 -0.73810423862E+01  0.84341947964E+01  0.51100000000E-03 0.  1.
         12    1    3    3    0    0 -0.15959655878E+01 -0.75533549406E+01 -0.63012884258E+01  0.99652653172E+01  0.00000000000E+00 0. -1.
</event>
<event>
 7    1  0.1019486E-010  0.4778727E+02  0.7816164E-02  0.1312668E+00
        -11   -1    0    0    0    0  0.00000000000E+00  0.00000000000E+00  0.45593999997E+02  0.45594000000E+02  0.51100000000E-03 0. -1.
         11   -1    0    0    0    0 -0.00000000000E+00 -0.00000000000E+00 -0.45593999997E+02  0.45594000000E+02  0.51100000000E-03 0.  1.
    9900012    2    1    2    0    0 -0.82831844082E+01 -0.13039012015E+02  0.40558557461E+02  0.47787267730E+02  0.19999984888E+02 0.  0.
        -12    1    1    2    0    0  0.82831844082E+01  0.13039012015E+02 -0.40558557461E+02  0.43400732270E+02  0.00000000000E+00 0.  1.
         11    1    3    3    0    0  0.21278552551E+01 -0.55985507398E+01  0.94056835284E+01  0.11150713935E+02  0.51100000000E-03 0. -1.
        -11    1    3    3    0    0 -0.20782754611E+01  0.42306108002E+01  0.10315712718E+02  0.11341570692E+02  0.51100000000E-03 0.  1.
        -12    1    3    3    0    0 -0.83327642023E+01 -0.11671072075E+02  0.20837161215E+02  0.25294983102E+02  0.00000000000E+00 0.  1.
</event>
<event>
 7    1  0.1019486E-010  0.4778727E+02  0.7816164E-02  0.1312668E+00
        -11   -1    0    0    0    0  0.00000000000E+00  0.00000000000E+00  0.45593999997E+02  0.45594000000E+02  0.51100000000E-03 0.  1.
         11   -1    0    0    0    0 -0.00000000000E+00 -0.00000000000E+00 -0.45593999997E+02  0.45594000000E+02  0.51100000000E-03 0. -1.
    9900012    2    1    2    0    0 -0.36843800080E+02 -0.16978370828E+02 -0.15423781470E+02  0.47787265961E+02  0.19999976822E+02 0.  0.
         12    1    1    2    0    0  0.36843800080E+02  0.16978370828E+02  0.15423781470E+02  0.43400734039E+02  0.00000000000E+00 0. -1.
         11    1    3    3    0    0 -0.43245378800E+01 -0.88405228617E+01 -0.38712183765E+00  0.98491794543E+01  0.51100000000E-03 0. -1.
        -11    1    3    3    0    0 -0.14823961977E+02 -0.20227092902E+01 -0.11533987392E+02  0.18891110793E+02  0.51100000000E-03 0.  1.
        -12    1    3    3    0    0 -0.17695300223E+02 -0.61151386761E+01 -0.35026722399E+01  0.19046975714E+02  0.00000000000E+00 0.  1.
</event>
<event>
 7    1  0.1019486E-010  0.4778727E+02  0.7816164E-02  0.1312668E+00
        -11   -1    0    0    0    0  0.00000000000E+00  0.00000000000E+00  0.45593999997E+02  0.45594000000E+02  0.51100000000E-03 0.  1.
         11   -1    0    0    0    0 -0.00000000000E+00 -0.00000000000E+00 -0.45593999997E+02  0.45594000000E+02  0.51100000000E-03 0. -1.
    9900012    2    1    2    0    0 -0.41331058306E+02  0.69103013202E+01  0.11296663438E+02  0.47787271321E+02  0.20000001261E+02 0.  0.
        -12    1    1    2    0    0  0.41331058306E+02 -0.69103013202E+01 -0.11296663438E+02  0.43400728679E+02  0.00000000000E+00 0.  1.
         11    1    3    3    0    0 -0.22217969012E+02  0.48615812154E+01  0.28149844819E+01  0.22917182568E+02  0.51100000000E-03 0. -1.
        -11    1    3    3    0    0 -0.28737366308E+00  0.30668730539E+01  0.47340930037E+01  0.56480023708E+01  0.51100000000E-03 0.  1.
        -12    1    3    3    0    0 -0.18825715631E+02 -0.10181529491E+01  0.37475859526E+01  0.19222086383E+02  0.00000000000E+00 0.  1.
</event>
<event>
 7    1  0.1019486E-010  0.4778727E+02  0.7816164E-02  0.1312668E+00
        -11   -1    0    0    0    0  0.00000000000E+00  0.00000000000E+00  0.45593999997E+02  0.45594000000E+02  0.51100000000E-03 0. -1.
         11   -1    0    0    0    0 -0.00000000000E+00 -0.00000000000E+00 -0.45593999997E+02  0.45594000000E+02  0.51100000000E-03 0.  1.
    9900012    2    1    2    0    0  0.16639886248E+02  0.23203687482E+02 -0.32685261919E+02  0.47787271045E+02  0.20000000004E+02 0.  0.
         12    1    1    2    0    0 -0.16639886248E+02 -0.23203687482E+02  0.32685261919E+02  0.43400728955E+02  0.00000000000E+00 0. -1.
         11    1    3    3    0    0  0.13440635855E+02  0.64201963733E+01 -0.20433708588E+02  0.25286479798E+02  0.51100000000E-03 0. -1.
        -11    1    3    3    0    0 -0.13604924082E+01  0.12611797365E+02 -0.79336881667E+01  0.14961677063E+02  0.51100000000E-03 0.  1.
        -12    1    3    3    0    0  0.45597428004E+01  0.41716937436E+01 -0.43178651643E+01  0.75391141836E+01  0.00000000000E+00 0.  1.
</event>
<event>
 7    1  0.1019486E-010  0.4778726E+02  0.7816164E-02  0.1312668E+00
        -11   -1    0    0    0    0  0.00000000000E+00  0.00000000000E+00  0.45593999997E+02  0.45594000000E+02  0.51100000000E-03 0. -1.
         11   -1    0    0    0    0 -0.00000000000E+00 -0.00000000000E+00 -0.45593999997E+02  0.45594000000E+02  0.51100000000E-03 0.  1.
    9900012    2    1    2    0    0  0.10566306089E+02  0.29542508121E+02  0.29986954952E+02  0.47787261783E+02  0.19999957775E+02 0.  0.
        -12    1    1    2    0    0 -0.10566306089E+02 -0.29542508121E+02 -0.29986954952E+02  0.43400738217E+02  0.00000000000E+00 0.  1.
         11    1    3    3    0    0 -0.21123453714E+01  0.73438532137E+00  0.48295718210E+01  0.53222259445E+01  0.51100000000E-03 0. -1.
        -11    1    3    3    0    0 -0.14045882232E+00 -0.78604543225E+00  0.35641740384E+01  0.36525241874E+01  0.51100000000E-03 0.  1.
         12    1    3    3    0    0  0.12819110282E+02  0.29594168232E+02  0.21593209092E+02  0.38812511652E+02  0.00000000000E+00 0. -1.
</event>
<event>
 7    1  0.1019486E-010  0.4778726E+02  0.7816164E-02  0.1312668E+00
        -11   -1    0    0    0    0  0.00000000000E+00  0.00000000000E+00  0.45593999997E+02  0.45594000000E+02  0.51100000000E-03 0. -1.
         11   -1    0    0    0    0 -0.00000000000E+00 -0.00000000000E+00 -0.45593999997E+02  0.45594000000E+02  0.51100000000E-03 0.  1.
    9900012    2    1    2    0    0  0.97115290754E+01 -0.14044139259E+01 -0.42276916719E+02  0.47787264261E+02  0.19999969070E+02 0.  0.
         12    1    1    2    0    0 -0.97115290754E+01  0.14044139259E+01  0.42276916719E+02  0.43400735739E+02  0.00000000000E+00 0. -1.
         11    1    3    3    0    0  0.50368577411E+01 -0.72555263096E+01 -0.63416434160E+01  0.10873317774E+02  0.51100000000E-03 0. -1.
        -11    1    3    3    0    0  0.14548386739E+01  0.47162139427E+01 -0.23873163377E+02  0.24378005649E+02  0.51100000000E-03 0.  1.
         12    1    3    3    0    0  0.32198326604E+01  0.11348984410E+01 -0.12062109926E+02  0.12535940838E+02  0.00000000000E+00 0. -1.
</event>
<event>
 7    1  0.1019486E-010  0.4778727E+02  0.7816164E-02  0.1312668E+00
        -11   -1    0    0    0    0  0.00000000000E+00  0.00000000000E+00  0.45593999997E+02  0.45594000000E+02  0.51100000000E-03 0. -1.
         11   -1    0    0    0    0 -0.00000000000E+00 -0.00000000000E+00 -0.45593999997E+02  0.45594000000E+02  0.51100000000E-03 0.  1.
    9900012    2    1    2    0    0 -0.24954060937E+02 -0.97550616864E+01  0.34143177916E+02  0.47787274384E+02  0.20000015228E+02 0.  0.
        -12    1    1    2    0    0  0.24954060937E+02  0.97550616864E+01 -0.34143177916E+02  0.43400725616E+02  0.00000000000E+00 0.  1.
         11    1    3    3    0    0 -0.14337538480E+02 -0.13187476062E+02  0.25805506110E+02  0.32332625634E+02  0.51100000000E-03 0. -1.
        -11    1    3    3    0    0 -0.46799418225E+01  0.21176571462E+01  0.17737080159E-02  0.51367626632E+01  0.51100000000E-03 0.  1.
         12    1    3    3    0    0 -0.59365806345E+01  0.13147572290E+01  0.83358980982E+01  0.10317886087E+02  0.00000000000E+00 0. -1.
</event>
<event>
 7    1  0.1019486E-010  0.4778727E+02  0.7816164E-02  0.1312668E+00
        -11   -1    0    0    0    0  0.00000000000E+00  0.00000000000E+00  0.45593999997E+02  0.45594000000E+02  0.51100000000E-03 0.  1.
         11   -1    0    0    0    0 -0.00000000000E+00 -0.00000000000E+00 -0.45593999997E+02  0.45594000000E+02  0.51100000000E-03 0. -1.
    9900012    2    1    2    0    0 -0.33158189591E+02  0.14322539853E+02  0.24062896786E+02  0.47787266290E+02  0.19999978323E+02 0.  0.
        -12    1    1    2    0    0  0.33158189591E+02 -0.14322539853E+02 -0.24062896786E+02  0.43400733710E+02  0.00000000000E+00 0.  1.
         11    1    3    3    0    0 -0.11792309996E+02  0.49414328561E+01  0.14218841658E+00  0.12786577005E+02  0.51100000000E-03 0. -1.
        -11    1    3    3    0    0 -0.12810011861E+02  0.36190353565E-01  0.13327302497E+02  0.18485526926E+02  0.51100000000E-03 0.  1.
         12    1    3    3    0    0 -0.85558677347E+01  0.93449166434E+01  0.10593405873E+02  0.16515162359E+02  0.00000000000E+00 0. -1.
</event>
<event>
 7    1  0.1019486E-010  0.4778727E+02  0.7816164E-02  0.1312668E+00
        -11   -1    0    0    0    0  0.00000000000E+00  0.00000000000E+00  0.45593999997E+02  0.45594000000E+02  0.51100000000E-03 0. -1.
         11   -1    0    0    0    0 -0.00000000000E+00 -0.00000000000E+00 -0.45593999997E+02  0.45594000000E+02  0.51100000000E-03 0.  1.
    9900012    2    1    2    0    0 -0.13592144580E+01  0.19656503920E+02 -0.38670370713E+02  0.47787272110E+02  0.20000004856E+02 0.  0.
         12    1    1    2    0    0  0.13592144580E+01 -0.19656503920E+02  0.38670370713E+02  0.43400727890E+02  0.00000000000E+00 0. -1.
         11    1    3    3    0    0  0.20919283281E+01  0.29062303042E+01 -0.22609840435E+02  0.22891640908E+02  0.51100000000E-03 0.  1.
        -11    1    3    3    0    0 -0.60335993554E+00  0.49914694191E+01 -0.31369423624E+00  0.50375802236E+01  0.51100000000E-03 0. -1.
         12    1    3    3    0    0 -0.28477828506E+01  0.11758804197E+02 -0.15746836042E+02  0.19858050978E+02  0.00000000000E+00 0. -1.
</event>
<event>
 7    1  0.1019486E-010  0.4778727E+02  0.7816164E-02  0.1312668E+00
        -11   -1    0    0    0    0  0.00000000000E+00  0.00000000000E+00  0.45593999997E+02  0.45594000000E+02  0.51100000000E-03 0. -1.
         11   -1    0    0    0    0 -0.00000000000E+00 -0.00000000000E+00 -0.45593999997E+02  0.45594000000E+02  0.51100000000E-03 0.  1.
    9900012    2    1    2    0    0  0.56936626294E+01 -0.22806064079E+01 -0.42965152389E+02  0.47787270979E+02  0.19999999704E+02 0.  0.
         12    1    1    2    0    0 -0.56936626294E+01  0.22806064079E+01  0.42965152389E+02  0.43400729021E+02  0.00000000000E+00 0. -1.
         11    1    3    3    0    0  0.84929404872E+01 -0.36138904444E+01 -0.20251629555E+02  0.22255757506E+02  0.51100000000E-03 0. -1.
        -11    1    3    3    0    0 -0.71750758084E+01  0.81729353423E+00 -0.13169225833E+02  0.15019260663E+02  0.51100000000E-03 0.  1.
        -12    1    3    3    0    0  0.43757979507E+01  0.51599050222E+00 -0.95442970010E+01  0.10512252810E+02  0.00000000000E+00 0.  1.
</event>
<event>
 7    1  0.1019486E-010  0.4778727E+02  0.7816164E-02  0.1312668E+00
        -11   -1    0    0    0    0  0.00000000000E+00  0.00000000000E+00  0.45593999997E+02  0.45594000000E+02  0.51100000000E-03 0. -1.
         11   -1    0    0    0    0 -0.00000000000E+00 -0.00000000000E+00 -0.45593999997E+02  0.45594000000E+02  0.51100000000E-03 0.  1.
    9900012    2    1    2    0    0  0.30607310061E+02  0.19292390156E+02 -0.23971221097E+02  0.47787272034E+02  0.20000004511E+02 0.  0.
         12    1    1    2    0    0 -0.30607310061E+02 -0.19292390156E+02  0.23971221097E+02  0.43400727966E+02  0.00000000000E+00 0. -1.
         11    1    3    3    0    0  0.91224528972E+01  0.38751588698E+01  0.13324629753E+01  0.10000573032E+02  0.51100000000E-03 0. -1.
        -11    1    3    3    0    0  0.15307404342E+02  0.76805331356E+01 -0.20705788972E+02  0.26870744577E+02  0.51100000000E-03 0.  1.
        -12    1    3    3    0    0  0.61774528224E+01  0.77366981503E+01 -0.45978951003E+01  0.10915954424E+02  0.00000000000E+00 0.  1.
</event>
<event>
 7    1  0.1019486E-010  0.4778727E+02  0.7816164E-02  0.1312668E+00
        -11   -1    0    0    0    0  0.00000000000E+00  0.00000000000E+00  0.45593999997E+02  0.45594000000E+02  0.51100000000E-03 0. -1.
         11   -1    0    0    0    0 -0.00000000000E+00 -0.00000000000E+00 -0.45593999997E+02  0.45594000000E+02  0.51100000000E-03 0.  1.
    9900012    2    1    2    0    0  0.33271230731E+01 -0.43172414988E+02 -0.29490041778E+01  0.47787265104E+02  0.19999972916E+02 0.  0.
         12    1    1    2    0    0 -0.33271230731E+01  0.43172414988E+02  0.29490041778E+01  0.43400734896E+02  0.00000000000E+00 0. -1.
         11    1    3    3    0    0  0.21295657471E+01 -0.95302068305E+00  0.21119701358E+01  0.31470171288E+01  0.51100000000E-03 0. -1.
        -11    1    3    3    0    0 -0.26349285674E+01 -0.27360360540E+02 -0.87717125194E+01  0.28852644908E+02  0.51100000000E-03 0.  1.
        -12    1    3    3    0    0  0.38324858935E+01 -0.14859033765E+02  0.37107382058E+01  0.15787603067E+02  0.00000000000E+00 0.  1.
</event>
<event>
 7    1  0.1019486E-010  0.4778727E+02  0.7816164E-02  0.1312668E+00
        -11   -1    0    0    0    0  0.00000000000E+00  0.00000000000E+00  0.45593999997E+02  0.45594000000E+02  0.51100000000E-03 0. -1.
         11   -1    0    0    0    0 -0.00000000000E+00 -0.00000000000E+00 -0.45593999997E+02  0.45594000000E+02  0.51100000000E-03 0.  1.
    9900012    2    1    2    0    0  0.22088816590E+02  0.19423859098E+02 -0.31912711578E+02  0.47787270964E+02  0.19999999634E+02 0.  0.
         12    1    1    2    0    0 -0.22088816590E+02 -0.19423859098E+02  0.31912711578E+02  0.43400729036E+02  0.00000000000E+00 0. -1.
         11    1    3    3    0    0 -0.18429458668E+01  0.16489823631E+01 -0.55715310757E+00  0.25349580171E+01  0.51100000000E-03 0. -1.
        -11    1    3    3    0    0  0.23861863173E+02  0.17623852404E+02 -0.24719081699E+02  0.38613749986E+02  0.51100000000E-03 0.  1.
        -12    1    3    3    0    0  0.69899284044E-01  0.15102433004E+00 -0.66364767713E+01  0.66385629615E+01  0.00000000000E+00 0.  1.
</event>
<event>
 7    1  0.1019486E-010  0.4778727E+02  0.7816164E-02  0.1312668E+00
        -11   -1    0    0    0    0  0.00000000000E+00  0.00000000000E+00  0.45593999997E+02  0.45594000000E+02  0.51100000000E-03 0.  1.
         11   -1    0    0    0    0 -0.00000000000E+00 -0.00000000000E+00 -0.45593999997E+02  0.45594000000E+02  0.51100000000E-03 0. -1.
    9900012    2    1    2    0    0 -0.18050264345E+02 -0.35576653323E+02 -0.17091318404E+02  0.47787268792E+02  0.19999989730E+02 0.  0.
         12    1    1    2    0    0  0.18050264345E+02  0.35576653323E+02  0.17091318404E+02  0.43400731208E+02  0.00000000000E+00 0. -1.
         11    1    3    3    0    0 -0.79034311497E+01 -0.19426314695E+01 -0.37836587139E+01  0.89751943983E+01  0.51100000000E-03 0. -1.
        -11    1    3    3    0    0 -0.76765886608E+01 -0.32114142885E+02 -0.13944397879E+02  0.35842634100E+02  0.51100000000E-03 0.  1.
        -12    1    3    3    0    0 -0.24702445342E+01 -0.15198789687E+01  0.63673818891E+00  0.29694402940E+01  0.00000000000E+00 0.  1.
</event>
<event>
 7    1  0.1019486E-010  0.4778728E+02  0.7816164E-02  0.1312668E+00
        -11   -1    0    0    0    0  0.00000000000E+00  0.00000000000E+00  0.45593999997E+02  0.45594000000E+02  0.51100000000E-03 0. -1.
         11   -1    0    0    0    0 -0.00000000000E+00 -0.00000000000E+00 -0.45593999997E+02  0.45594000000E+02  0.51100000000E-03 0.  1.
    9900012    2    1    2    0    0 -0.24649050391E+02 -0.35096343050E+02  0.66553499366E+01  0.47787278077E+02  0.20000032063E+02 0.  0.
        -12    1    1    2    0    0  0.24649050391E+02  0.35096343050E+02 -0.66553499366E+01  0.43400721923E+02  0.00000000000E+00 0.  1.
         11    1    3    3    0    0 -0.13537767356E+02 -0.25888931668E+02  0.28439242302E+00  0.29216242182E+02  0.51100000000E-03 0. -1.
        -11    1    3    3    0    0 -0.38048258272E+01 -0.30230400152E+01  0.74953323458E+01  0.89328314517E+01  0.51100000000E-03 0.  1.
        -12    1    3    3    0    0 -0.73064572074E+01 -0.61843713670E+01 -0.11243748322E+01  0.96382044434E+01  0.00000000000E+00 0.  1.
</event>
<event>
 7    1  0.1019486E-010  0.4778727E+02  0.7816164E-02  0.1312668E+00
        -11   -1    0    0    0    0  0.00000000000E+00  0.00000000000E+00  0.45593999997E+02  0.45594000000E+02  0.51100000000E-03 0. -1.
         11   -1    0    0    0    0 -0.00000000000E+00 -0.00000000000E+00 -0.45593999997E+02  0.45594000000E+02  0.51100000000E-03 0.  1.
    9900012    2    1    2    0    0  0.11148387476E+02 -0.36715730024E+02 -0.20280335345E+02  0.47787269865E+02  0.19999994623E+02 0.  0.
         12    1    1    2    0    0 -0.11148387476E+02  0.36715730024E+02  0.20280335345E+02  0.43400730135E+02  0.00000000000E+00 0. -1.
         11    1    3    3    0    0  0.90778592148E-02 -0.42837084742E+00  0.14720892847E+01  0.15331768044E+01  0.51100000000E-03 0. -1.
        -11    1    3    3    0    0  0.11654146703E+02 -0.26294907103E+02 -0.22053913045E+02  0.36243845764E+02  0.51100000000E-03 0.  1.
        -12    1    3    3    0    0 -0.51483708558E+00 -0.99924520741E+01  0.30148841516E+00  0.10010247297E+02  0.00000000000E+00 0.  1.
</event>
<event>
 7    1  0.1019486E-010  0.4778724E+02  0.7816164E-02  0.1312668E+00
        -11   -1    0    0    0    0  0.00000000000E+00  0.00000000000E+00  0.45593999997E+02  0.45594000000E+02  0.51100000000E-03 0.  1.
         11   -1    0    0    0    0 -0.00000000000E+00 -0.00000000000E+00 -0.45593999997E+02  0.45594000000E+02  0.51100000000E-03 0. -1.
    9900012    2    1    2    0    0 -0.42015406341E+02  0.23447970580E+01  0.10622326219E+02  0.47787236671E+02  0.19999843276E+02 0.  0.
         12    1    1    2    0    0  0.42015406341E+02 -0.23447970580E+01 -0.10622326219E+02  0.43400763329E+02  0.00000000000E+00 0. -1.
         11    1    3    3    0    0 -0.12599739401E+02  0.85518161342E+01 -0.17153178174E+00  0.15228802172E+02  0.51100000000E-03 0. -1.
        -11    1    3    3    0    0 -0.15399928341E+02 -0.28554966355E-01  0.54498287429E+01  0.16335826943E+02  0.51100000000E-03 0.  1.
         12    1    3    3    0    0 -0.14015738599E+02 -0.61784641098E+01  0.53440292577E+01  0.16222607557E+02  0.00000000000E+00 0. -1.
</event>
<event>
 7    1  0.1019486E-010  0.4778727E+02  0.7816164E-02  0.1312668E+00
        -11   -1    0    0    0    0  0.00000000000E+00  0.00000000000E+00  0.45593999997E+02  0.45594000000E+02  0.51100000000E-03 0. -1.
         11   -1    0    0    0    0 -0.00000000000E+00 -0.00000000000E+00 -0.45593999997E+02  0.45594000000E+02  0.51100000000E-03 0.  1.
    9900012    2    1    2    0    0  0.11401780131E+02  0.22325950603E+02  0.35428445575E+02  0.47787269403E+02  0.19999992516E+02 0.  0.
        -12    1    1    2    0    0 -0.11401780131E+02 -0.22325950603E+02 -0.35428445575E+02  0.43400730597E+02  0.00000000000E+00 0.  1.
         11    1    3    3    0    0  0.80091903882E+01  0.21769995739E+02  0.21000076618E+02  0.31290303025E+02  0.51100000000E-03 0. -1.
        -11    1    3    3    0    0  0.16028021695E+01  0.20831744244E+01  0.13818690646E+02  0.14066442404E+02  0.51100000000E-03 0.  1.
         12    1    3    3    0    0  0.17897875735E+01 -0.15272195611E+01  0.60967831135E+00  0.24305239742E+01  0.00000000000E+00 0. -1.
</event>
<event>
 7    1  0.1019486E-010  0.4778727E+02  0.7816164E-02  0.1312668E+00
        -11   -1    0    0    0    0  0.00000000000E+00  0.00000000000E+00  0.45593999997E+02  0.45594000000E+02  0.51100000000E-03 0. -1.
         11   -1    0    0    0    0 -0.00000000000E+00 -0.00000000000E+00 -0.45593999997E+02  0.45594000000E+02  0.51100000000E-03 0.  1.
    9900012    2    1    2    0    0  0.12539791883E+02 -0.24572643962E+02  0.33504653907E+02  0.47787273679E+02  0.20000012013E+02 0.  0.
        -12    1    1    2    0    0 -0.12539791883E+02  0.24572643962E+02 -0.33504653907E+02  0.43400726321E+02  0.00000000000E+00 0.  1.
         11    1    3    3    0    0  0.57004700571E+01 -0.96476117063E+01  0.26238072140E+02  0.28530828947E+02  0.51100000000E-03 0. -1.
        -11    1    3    3    0    0  0.35646254918E+01 -0.72466275070E+01 -0.16871503013E+00  0.80776624183E+01  0.51100000000E-03 0.  1.
        -12    1    3    3    0    0  0.32746963339E+01 -0.76784047484E+01  0.74352967972E+01  0.11178782314E+02  0.00000000000E+00 0.  1.
</event>
<event>
 7    1  0.1019486E-010  0.4778726E+02  0.7816164E-02  0.1312668E+00
        -11   -1    0    0    0    0  0.00000000000E+00  0.00000000000E+00  0.45593999997E+02  0.45594000000E+02  0.51100000000E-03 0. -1.
         11   -1    0    0    0    0 -0.00000000000E+00 -0.00000000000E+00 -0.45593999997E+02  0.45594000000E+02  0.51100000000E-03 0.  1.
    9900012    2    1    2    0    0  0.16483842704E+01 -0.88812011929E+01  0.42450335063E+02  0.47787264380E+02  0.19999969616E+02 0.  0.
        -12    1    1    2    0    0 -0.16483842704E+01  0.88812011929E+01 -0.42450335063E+02  0.43400735620E+02  0.00000000000E+00 0.  1.
         11    1    3    3    0    0 -0.14961090545E+01 -0.96635311370E+01  0.15669083644E+02  0.18470039492E+02  0.51100000000E-03 0. -1.
        -11    1    3    3    0    0 -0.16982043630E+01  0.50954879173E+01  0.13742547499E+02  0.14754846905E+02  0.51100000000E-03 0.  1.
        -12    1    3    3    0    0  0.48426976879E+01 -0.43131579732E+01  0.13038703921E+02  0.14562377983E+02  0.00000000000E+00 0.  1.
</event>
<event>
 7    1  0.1019486E-010  0.4778727E+02  0.7816164E-02  0.1312668E+00
        -11   -1    0    0    0    0  0.00000000000E+00  0.00000000000E+00  0.45593999997E+02  0.45594000000E+02  0.51100000000E-03 0. -1.
         11   -1    0    0    0    0 -0.00000000000E+00 -0.00000000000E+00 -0.45593999997E+02  0.45594000000E+02  0.51100000000E-03 0.  1.
    9900012    2    1    2    0    0 -0.54826749337E+00 -0.35888999718E+02  0.24398814581E+02  0.47787273613E+02  0.20000011709E+02 0.  0.
        -12    1    1    2    0    0  0.54826749337E+00  0.35888999718E+02 -0.24398814581E+02  0.43400726387E+02  0.00000000000E+00 0.  1.
         11    1    3    3    0    0 -0.90937517723E+00 -0.29614721990E+02  0.18892736021E+02  0.35139638535E+02  0.51100000000E-03 0. -1.
        -11    1    3    3    0    0  0.53550662765E-01  0.22324012181E+01 -0.42465303303E+00  0.22730625446E+01  0.51100000000E-03 0.  1.
        -12    1    3    3    0    0  0.30755702109E+00 -0.85066789461E+01  0.59307315929E+01  0.10374572533E+02  0.00000000000E+00 0.  1.
</event>
<event>
 7    1  0.1019486E-010  0.4778727E+02  0.7816164E-02  0.1312668E+00
        -11   -1    0    0    0    0  0.00000000000E+00  0.00000000000E+00  0.45593999997E+02  0.45594000000E+02  0.51100000000E-03 0. -1.
         11   -1    0    0    0    0 -0.00000000000E+00 -0.00000000000E+00 -0.45593999997E+02  0.45594000000E+02  0.51100000000E-03 0.  1.
    9900012    2    1    2    0    0 -0.34833332000E+02 -0.20855434696E+01 -0.25805280368E+02  0.47787274146E+02  0.20000014141E+02 0.  0.
         12    1    1    2    0    0  0.34833332000E+02  0.20855434696E+01  0.25805280368E+02  0.43400725854E+02  0.00000000000E+00 0. -1.
         11    1    3    3    0    0 -0.14823070862E+02  0.88215850418E+00 -0.10674316161E+01  0.14887613775E+02  0.51100000000E-03 0. -1.
        -11    1    3    3    0    0 -0.11207619616E+02 -0.32578883590E+01 -0.85402137796E+01  0.14462358925E+02  0.51100000000E-03 0.  1.
         12    1    3    3    0    0 -0.88026415225E+01  0.29018638527E+00 -0.16197634972E+02  0.18437301446E+02  0.00000000000E+00 0. -1.
</event>
<event>
 7    1  0.1019486E-010  0.4778728E+02  0.7816164E-02  0.1312668E+00
        -11   -1    0    0    0    0  0.00000000000E+00  0.00000000000E+00  0.45593999997E+02  0.45594000000E+02  0.51100000000E-03 0. -1.
         11   -1    0    0    0    0 -0.00000000000E+00 -0.00000000000E+00 -0.45593999997E+02  0.45594000000E+02  0.51100000000E-03 0.  1.
    9900012    2    1    2    0    0 -0.82355345830E+01  0.57457345344E+01  0.42223038500E+02  0.47787280243E+02  0.20000041942E+02 0.  0.
        -12    1    1    2    0    0  0.82355345830E+01 -0.57457345344E+01 -0.42223038500E+02  0.43400719757E+02  0.00000000000E+00 0.  1.
         11    1    3    3    0    0  0.39702359244E+01 -0.49735949794E-01  0.25632118828E+02  0.25937824944E+02  0.51100000000E-03 0. -1.
        -11    1    3    3    0    0 -0.50192647662E+01  0.47713890966E+01  0.88474805253E+01  0.11235527785E+02  0.51100000000E-03 0.  1.
         12    1    3    3    0    0 -0.71865057413E+01  0.10240813876E+01  0.77434391473E+01  0.10613927515E+02  0.00000000000E+00 0. -1.
</event>
<event>
 7    1  0.1019486E-010  0.4778727E+02  0.7816164E-02  0.1312668E+00
        -11   -1    0    0    0    0  0.00000000000E+00  0.00000000000E+00  0.45593999997E+02  0.45594000000E+02  0.51100000000E-03 0. -1.
         11   -1    0    0    0    0 -0.00000000000E+00 -0.00000000000E+00 -0.45593999997E+02  0.45594000000E+02  0.51100000000E-03 0.  1.
    9900012    2    1    2    0    0  0.21516418857E+02  0.21165103937E+02  0.31188222768E+02  0.47787272535E+02  0.20000006795E+02 0.  0.
        -12    1    1    2    0    0 -0.21516418857E+02 -0.21165103937E+02 -0.31188222768E+02  0.43400727465E+02  0.00000000000E+00 0.  1.
         11    1    3    3    0    0  0.12542632369E+02  0.13200817014E+02  0.16323455943E+02  0.24454742092E+02  0.51100000000E-03 0. -1.
        -11    1    3    3    0    0 -0.21544618809E+01  0.38655955986E+00  0.78538714395E+01  0.81531853370E+01  0.51100000000E-03 0.  1.
        -12    1    3    3    0    0  0.11128248369E+02  0.75777273628E+01  0.70108953855E+01  0.15179345106E+02  0.00000000000E+00 0.  1.
</event>
<event>
 7    1  0.1019486E-010  0.4778727E+02  0.7816164E-02  0.1312668E+00
        -11   -1    0    0    0    0  0.00000000000E+00  0.00000000000E+00  0.45593999997E+02  0.45594000000E+02  0.51100000000E-03 0. -1.
         11   -1    0    0    0    0 -0.00000000000E+00 -0.00000000000E+00 -0.45593999997E+02  0.45594000000E+02  0.51100000000E-03 0.  1.
    9900012    2    1    2    0    0  0.18332053897E+02 -0.32583758758E+02  0.22042174931E+02  0.47787274078E+02  0.20000013833E+02 0.  0.
        -12    1    1    2    0    0 -0.18332053897E+02  0.32583758758E+02 -0.22042174931E+02  0.43400725922E+02  0.00000000000E+00 0.  1.
         11    1    3    3    0    0 -0.79605887297E+00 -0.51919908353E+01  0.53617276494E+01  0.75059044899E+01  0.51100000000E-03 0. -1.
        -11    1    3    3    0    0  0.84684566958E+01 -0.12380168521E+02  0.15892756938E+02  0.21853216120E+02  0.51100000000E-03 0.  1.
        -12    1    3    3    0    0  0.10659656074E+02 -0.15011599401E+02  0.78769034348E+00  0.18428153469E+02  0.00000000000E+00 0.  1.
</event>
<event>
 7    1  0.1019486E-010  0.4778727E+02  0.7816164E-02  0.1312668E+00
        -11   -1    0    0    0    0  0.00000000000E+00  0.00000000000E+00  0.45593999997E+02  0.45594000000E+02  0.51100000000E-03 0. -1.
         11   -1    0    0    0    0 -0.00000000000E+00 -0.00000000000E+00 -0.45593999997E+02  0.45594000000E+02  0.51100000000E-03 0.  1.
    9900012    2    1    2    0    0 -0.32343373165E+02 -0.19858858974E+02 -0.21051250799E+02  0.47787271577E+02  0.20000002428E+02 0.  0.
         12    1    1    2    0    0  0.32343373165E+02  0.19858858974E+02  0.21051250799E+02  0.43400728423E+02  0.00000000000E+00 0. -1.
         11    1    3    3    0    0 -0.19953830628E+02 -0.68142796124E+01 -0.14966119772E+02  0.25856807704E+02  0.51100000000E-03 0. -1.
        -11    1    3    3    0    0 -0.60142357560E+01 -0.13201615691E+00 -0.43542396234E+01  0.74261607142E+01  0.51100000000E-03 0.  1.
         12    1    3    3    0    0 -0.63753067819E+01 -0.12912563204E+02 -0.17308914036E+01  0.14504303159E+02  0.00000000000E+00 0. -1.
</event>
<event>
 7    1  0.1019486E-010  0.4778727E+02  0.7816164E-02  0.1312668E+00
        -11   -1    0    0    0    0  0.00000000000E+00  0.00000000000E+00  0.45593999997E+02  0.45594000000E+02  0.51100000000E-03 0. -1.
         11   -1    0    0    0    0 -0.00000000000E+00 -0.00000000000E+00 -0.45593999997E+02  0.45594000000E+02  0.51100000000E-03 0.  1.
    9900012    2    1    2    0    0  0.28608506089E+02 -0.19871192643E+02  0.25890388239E+02  0.47787272807E+02  0.20000008037E+02 0.  0.
        -12    1    1    2    0    0 -0.28608506089E+02  0.19871192643E+02 -0.25890388239E+02  0.43400727193E+02  0.00000000000E+00 0.  1.
         11    1    3    3    0    0  0.18974789237E+02 -0.14353337841E+02  0.24953842626E+02  0.34478329365E+02  0.51100000000E-03 0. -1.
        -11    1    3    3    0    0  0.69411536667E+01 -0.50034620460E+01 -0.24987997634E+01  0.89139355612E+01  0.51100000000E-03 0.  1.
        -12    1    3    3    0    0  0.26925631849E+01 -0.51439275586E+00  0.34353453768E+01  0.43950078806E+01  0.00000000000E+00 0.  1.
</event>
<event>
 7    1  0.1019486E-010  0.4778727E+02  0.7816164E-02  0.1312668E+00
        -11   -1    0    0    0    0  0.00000000000E+00  0.00000000000E+00  0.45593999997E+02  0.45594000000E+02  0.51100000000E-03 0. -1.
         11   -1    0    0    0    0 -0.00000000000E+00 -0.00000000000E+00 -0.45593999997E+02  0.45594000000E+02  0.51100000000E-03 0.  1.
    9900012    2    1    2    0    0  0.23613653022E+02 -0.22358317788E+02  0.28742376698E+02  0.47787271877E+02  0.20000003796E+02 0.  0.
        -12    1    1    2    0    0 -0.23613653022E+02  0.22358317788E+02 -0.28742376698E+02  0.43400728123E+02  0.00000000000E+00 0.  1.
         11    1    3    3    0    0  0.57036899467E+00 -0.51686908492E+01  0.43397862411E+01  0.67730665702E+01  0.51100000000E-03 0. -1.
        -11    1    3    3    0    0  0.17666135445E+02 -0.38197297775E+01  0.10073264577E+02  0.20691866436E+02  0.51100000000E-03 0.  1.
        -12    1    3    3    0    0  0.53771485828E+01 -0.13369897162E+02  0.14329325880E+02  0.20322338870E+02  0.00000000000E+00 0.  1.
</event>
<event>
 7    1  0.1019486E-010  0.4778728E+02  0.7816164E-02  0.1312668E+00
        -11   -1    0    0    0    0  0.00000000000E+00  0.00000000000E+00  0.45593999997E+02  0.45594000000E+02  0.51100000000E-03 0.  1.
         11   -1    0    0    0    0 -0.00000000000E+00 -0.00000000000E+00 -0.45593999997E+02  0.45594000000E+02  0.51100000000E-03 0. -1.
    9900012    2    1    2    0    0  0.18652164446E+02  0.36547335734E+02  0.14142540203E+02  0.47787280753E+02  0.20000044264E+02 0.  0.
        -12    1    1    2    0    0 -0.18652164446E+02 -0.36547335734E+02 -0.14142540203E+02  0.43400719247E+02  0.00000000000E+00 0.  1.
         11    1    3    3    0    0  0.10491751210E+02  0.16773342505E+02 -0.24271100654E+00  0.19785873019E+02  0.51100000000E-03 0. -1.
        -11    1    3    3    0    0  0.52116957751E+01  0.29564372042E+01  0.53427599765E+00  0.60156250629E+01  0.51100000000E-03 0.  1.
         12    1    3    3    0    0  0.29487174616E+01  0.16817556024E+02  0.13850975212E+02  0.21985782670E+02  0.00000000000E+00 0. -1.
</event>
<event>
 7    1  0.1019486E-010  0.4778727E+02  0.7816164E-02  0.1312668E+00
        -11   -1    0    0    0    0  0.00000000000E+00  0.00000000000E+00  0.45593999997E+02  0.45594000000E+02  0.51100000000E-03 0. -1.
         11   -1    0    0    0    0 -0.00000000000E+00 -0.00000000000E+00 -0.45593999997E+02  0.45594000000E+02  0.51100000000E-03 0.  1.
    9900012    2    1    2    0    0 -0.32687048966E+01 -0.88745598123E+01  0.42357771323E+02  0.47787273796E+02  0.20000012545E+02 0.  0.
        -12    1    1    2    0    0  0.32687048966E+01  0.88745598123E+01 -0.42357771323E+02  0.43400726204E+02  0.00000000000E+00 0.  1.
         11    1    3    3    0    0  0.70865438815E+01 -0.34386187944E+01  0.19568947453E+02  0.21094712799E+02  0.51100000000E-03 0. -1.
        -11    1    3    3    0    0 -0.10058521982E+02 -0.41730350855E+01  0.13647942386E+02  0.17460080697E+02  0.51100000000E-03 0.  1.
        -12    1    3    3    0    0 -0.29672679565E+00 -0.12629059323E+01  0.91408814836E+01  0.92324802996E+01  0.00000000000E+00 0.  1.
</event>
<event>
 7    1  0.1019486E-010  0.4778727E+02  0.7816164E-02  0.1312668E+00
        -11   -1    0    0    0    0  0.00000000000E+00  0.00000000000E+00  0.45593999997E+02  0.45594000000E+02  0.51100000000E-03 0. -1.
         11   -1    0    0    0    0 -0.00000000000E+00 -0.00000000000E+00 -0.45593999997E+02  0.45594000000E+02  0.51100000000E-03 0.  1.
    9900012    2    1    2    0    0 -0.15075351564E+01 -0.27821397793E+02 -0.33276426709E+02  0.47787269454E+02  0.19999992750E+02 0.  0.
         12    1    1    2    0    0  0.15075351564E+01  0.27821397793E+02  0.33276426709E+02  0.43400730546E+02  0.00000000000E+00 0. -1.
         11    1    3    3    0    0 -0.10298135732E+02 -0.99929146267E+01 -0.12849877588E+02  0.19262120770E+02  0.51100000000E-03 0. -1.
        -11    1    3    3    0    0  0.56865204802E+01 -0.12716534519E+02 -0.14343286430E+02  0.19994415001E+02  0.51100000000E-03 0.  1.
         12    1    3    3    0    0  0.31040800951E+01 -0.51119486467E+01 -0.60832626909E+01  0.85307336830E+01  0.00000000000E+00 0. -1.
</event>
<event>
 7    1  0.1019486E-010  0.4778727E+02  0.7816164E-02  0.1312668E+00
        -11   -1    0    0    0    0  0.00000000000E+00  0.00000000000E+00  0.45593999997E+02  0.45594000000E+02  0.51100000000E-03 0.  1.
         11   -1    0    0    0    0 -0.00000000000E+00 -0.00000000000E+00 -0.45593999997E+02  0.45594000000E+02  0.51100000000E-03 0. -1.
    9900012    2    1    2    0    0 -0.32643164281E+02 -0.24573608376E+02 -0.14635060867E+02  0.47787269482E+02  0.19999992877E+02 0.  0.
         12    1    1    2    0    0  0.32643164281E+02  0.24573608376E+02  0.14635060867E+02  0.43400730518E+02  0.00000000000E+00 0. -1.
         11    1    3    3    0    0 -0.26635483728E+02 -0.13938944956E+02 -0.88297281188E+01  0.31332208330E+02  0.51100000000E-03 0. -1.
        -11    1    3    3    0    0 -0.79952717028E+01 -0.57733364419E+01 -0.22570582528E+01  0.10116822401E+02  0.51100000000E-03 0.  1.
         12    1    3    3    0    0  0.19875911504E+01 -0.48613269783E+01 -0.35482744956E+01  0.63382387512E+01  0.00000000000E+00 0. -1.
</event>
<event>
 7    1  0.1019486E-010  0.4778727E+02  0.7816164E-02  0.1312668E+00
        -11   -1    0    0    0    0  0.00000000000E+00  0.00000000000E+00  0.45593999997E+02  0.45594000000E+02  0.51100000000E-03 0. -1.
         11   -1    0    0    0    0 -0.00000000000E+00 -0.00000000000E+00 -0.45593999997E+02  0.45594000000E+02  0.51100000000E-03 0.  1.
    9900012    2    1    2    0    0  0.53487211626E+01  0.14756368880E+01  0.43044592408E+02  0.47787271229E+02  0.20000000840E+02 0.  0.
        -12    1    1    2    0    0 -0.53487211626E+01 -0.14756368880E+01 -0.43044592408E+02  0.43400728771E+02  0.00000000000E+00 0.  1.
         11    1    3    3    0    0  0.19935921568E+01 -0.92394391694E+00 -0.40929417943E+00  0.22350847939E+01  0.51100000000E-03 0. -1.
        -11    1    3    3    0    0  0.30434397911E+01 -0.30303732877E+01  0.45005727079E+01  0.62210001595E+01  0.51100000000E-03 0.  1.
         12    1    3    3    0    0  0.31168921474E+00  0.54299540926E+01  0.38953313880E+02  0.39331186275E+02  0.00000000000E+00 0. -1.
</event>
<event>
 7    1  0.1019486E-010  0.4778727E+02  0.7816164E-02  0.1312668E+00
        -11   -1    0    0    0    0  0.00000000000E+00  0.00000000000E+00  0.45593999997E+02  0.45594000000E+02  0.51100000000E-03 0. -1.
         11   -1    0    0    0    0 -0.00000000000E+00 -0.00000000000E+00 -0.45593999997E+02  0.45594000000E+02  0.51100000000E-03 0.  1.
    9900012    2    1    2    0    0  0.40559891142E+02  0.14371338053E+02 -0.56553647511E+01  0.47787271004E+02  0.19999999815E+02 0.  0.
         12    1    1    2    0    0 -0.40559891142E+02 -0.14371338053E+02  0.56553647511E+01  0.43400728996E+02  0.00000000000E+00 0. -1.
         11    1    3    3    0    0  0.75909785508E+01  0.20359989758E+00 -0.98602060028E+00  0.76574568338E+01  0.51100000000E-03 0. -1.
        -11    1    3    3    0    0  0.17778714280E+02  0.11133910846E+01 -0.85004329808E+01  0.19737772982E+02  0.51100000000E-03 0.  1.
        -12    1    3    3    0    0  0.15190198311E+02  0.13054347071E+02  0.38310888300E+01  0.20392041188E+02  0.00000000000E+00 0.  1.
</event>
<event>
 7    1  0.1019486E-010  0.4778727E+02  0.7816164E-02  0.1312668E+00
        -11   -1    0    0    0    0  0.00000000000E+00  0.00000000000E+00  0.45593999997E+02  0.45594000000E+02  0.51100000000E-03 0. -1.
         11   -1    0    0    0    0 -0.00000000000E+00 -0.00000000000E+00 -0.45593999997E+02  0.45594000000E+02  0.51100000000E-03 0.  1.
    9900012    2    1    2    0    0 -0.83675579459E+01 -0.75287576113E+01  0.41915691304E+02  0.47787269653E+02  0.19999993656E+02 0.  0.
        -12    1    1    2    0    0  0.83675579459E+01  0.75287576113E+01 -0.41915691304E+02  0.43400730347E+02  0.00000000000E+00 0.  1.
         11    1    3    3    0    0 -0.84327478317E+01 -0.60235029263E+01  0.35292778181E+02  0.36782795102E+02  0.51100000000E-03 0. -1.
        -11    1    3    3    0    0 -0.10896854008E+01  0.22453783824E+01 -0.78913925379E+00  0.26176094773E+01  0.51100000000E-03 0.  1.
        -12    1    3    3    0    0  0.11548752866E+01 -0.37506330674E+01  0.74120523770E+01  0.83868650742E+01  0.00000000000E+00 0.  1.
</event>
<event>
 7    1  0.1019486E-010  0.4778727E+02  0.7816164E-02  0.1312668E+00
        -11   -1    0    0    0    0  0.00000000000E+00  0.00000000000E+00  0.45593999997E+02  0.45594000000E+02  0.51100000000E-03 0. -1.
         11   -1    0    0    0    0 -0.00000000000E+00 -0.00000000000E+00 -0.45593999997E+02  0.45594000000E+02  0.51100000000E-03 0.  1.
    9900012    2    1    2    0    0  0.24127777208E+02  0.25660922484E+00  0.36075027051E+02  0.47787273531E+02  0.20000011338E+02 0.  0.
        -12    1    1    2    0    0 -0.24127777208E+02 -0.25660922484E+00 -0.36075027051E+02  0.43400726469E+02  0.00000000000E+00 0.  1.
         11    1    3    3    0    0 -0.90458957597E+00  0.99991169813E-01  0.99697493930E+01  0.10011202913E+02  0.51100000000E-03 0. -1.
        -11    1    3    3    0    0  0.85114912517E+00  0.27120142709E+01  0.40490068172E+01  0.49471135731E+01  0.51100000000E-03 0.  1.
         12    1    3    3    0    0  0.24181217659E+02 -0.25553962159E+01  0.22056270841E+02  0.32828957045E+02  0.00000000000E+00 0. -1.
</event>
<event>
 7    1  0.1019486E-010  0.4778727E+02  0.7816164E-02  0.1312668E+00
        -11   -1    0    0    0    0  0.00000000000E+00  0.00000000000E+00  0.45593999997E+02  0.45594000000E+02  0.51100000000E-03 0. -1.
         11   -1    0    0    0    0 -0.00000000000E+00 -0.00000000000E+00 -0.45593999997E+02  0.45594000000E+02  0.51100000000E-03 0.  1.
    9900012    2    1    2    0    0 -0.36074993094E+02  0.16191993953E+02 -0.17889595728E+02  0.47787269243E+02  0.19999991786E+02 0.  0.
         12    1    1    2    0    0  0.36074993094E+02 -0.16191993953E+02  0.17889595728E+02  0.43400730757E+02  0.00000000000E+00 0. -1.
         11    1    3    3    0    0 -0.78694902620E+01  0.98353204647E+01 -0.12212161789E+02  0.17544209913E+02  0.51100000000E-03 0. -1.
        -11    1    3    3    0    0 -0.15634301693E+02  0.72066583710E+00 -0.50748357147E+01  0.16453106287E+02  0.51100000000E-03 0.  1.
         12    1    3    3    0    0 -0.12571201139E+02  0.56360076516E+01 -0.60259822394E+00  0.13789953044E+02  0.00000000000E+00 0. -1.
</event>
<event>
 7    1  0.1019486E-010  0.4778727E+02  0.7816164E-02  0.1312668E+00
        -11   -1    0    0    0    0  0.00000000000E+00  0.00000000000E+00  0.45593999997E+02  0.45594000000E+02  0.51100000000E-03 0. -1.
         11   -1    0    0    0    0 -0.00000000000E+00 -0.00000000000E+00 -0.45593999997E+02  0.45594000000E+02  0.51100000000E-03 0.  1.
    9900012    2    1    2    0    0  0.12713057454E+02 -0.43659925989E+01 -0.41266687125E+02  0.47787272040E+02  0.20000004540E+02 0.  0.
         12    1    1    2    0    0 -0.12713057454E+02  0.43659925989E+01  0.41266687125E+02  0.43400727960E+02  0.00000000000E+00 0. -1.
         11    1    3    3    0    0  0.37608171773E+01 -0.39398491679E+01 -0.94614301476E+01  0.10917179947E+02  0.51100000000E-03 0. -1.
        -11    1    3    3    0    0  0.92881330356E+01  0.31209933529E+00 -0.33620818121E+02  0.34881603069E+02  0.51100000000E-03 0.  1.
        -12    1    3    3    0    0 -0.33589275909E+00 -0.73824276632E+00  0.18155611443E+01  0.19884890234E+01  0.00000000000E+00 0.  1.
</event>
<event>
 7    1  0.1019486E-010  0.4778727E+02  0.7816164E-02  0.1312668E+00
        -11   -1    0    0    0    0  0.00000000000E+00  0.00000000000E+00  0.45593999997E+02  0.45594000000E+02  0.51100000000E-03 0. -1.
         11   -1    0    0    0    0 -0.00000000000E+00 -0.00000000000E+00 -0.45593999997E+02  0.45594000000E+02  0.51100000000E-03 0.  1.
    9900012    2    1    2    0    0 -0.59400632840E+01 -0.11700919639E+02  0.41369402070E+02  0.47787270745E+02  0.19999998635E+02 0.  0.
        -12    1    1    2    0    0  0.59400632840E+01  0.11700919639E+02 -0.41369402070E+02  0.43400729255E+02  0.00000000000E+00 0.  1.
         11    1    3    3    0    0  0.61822570330E+01  0.22529367778E+00  0.12804328452E+02  0.14220474205E+02  0.51100000000E-03 0. -1.
        -11    1    3    3    0    0 -0.11839207545E+02 -0.95683787524E+01  0.23987170759E+02  0.28409594656E+02  0.51100000000E-03 0.  1.
        -12    1    3    3    0    0 -0.28311277193E+00 -0.23578345647E+01  0.45779028596E+01  0.51572018836E+01  0.00000000000E+00 0.  1.
</event>
<event>
 7    1  0.1019486E-010  0.4778727E+02  0.7816164E-02  0.1312668E+00
        -11   -1    0    0    0    0  0.00000000000E+00  0.00000000000E+00  0.45593999997E+02  0.45594000000E+02  0.51100000000E-03 0. -1.
         11   -1    0    0    0    0 -0.00000000000E+00 -0.00000000000E+00 -0.45593999997E+02  0.45594000000E+02  0.51100000000E-03 0.  1.
    9900012    2    1    2    0    0  0.14442652230E+02  0.22521571338E+02 -0.34173258692E+02  0.47787274331E+02  0.20000014983E+02 0.  0.
         12    1    1    2    0    0 -0.14442652230E+02 -0.22521571338E+02  0.34173258692E+02  0.43400725669E+02  0.00000000000E+00 0. -1.
         11    1    3    3    0    0  0.13967816300E+01  0.13183595979E+02 -0.11804713160E+02  0.17751322625E+02  0.51100000000E-03 0. -1.
        -11    1    3    3    0    0  0.11646529478E+02  0.73648699091E+01 -0.90187729254E+01  0.16468795433E+02  0.51100000000E-03 0.  1.
        -12    1    3    3    0    0  0.13993411217E+01  0.19731054495E+01 -0.13349772607E+02  0.13567156273E+02  0.00000000000E+00 0.  1.
</event>
<event>
 7    1  0.1019486E-010  0.4778727E+02  0.7816164E-02  0.1312668E+00
        -11   -1    0    0    0    0  0.00000000000E+00  0.00000000000E+00  0.45593999997E+02  0.45594000000E+02  0.51100000000E-03 0. -1.
         11   -1    0    0    0    0 -0.00000000000E+00 -0.00000000000E+00 -0.45593999997E+02  0.45594000000E+02  0.51100000000E-03 0.  1.
    9900012    2    1    2    0    0 -0.18336993504E+02  0.72147299307E+01  0.38669440765E+02  0.47787270653E+02  0.19999998216E+02 0.  0.
        -12    1    1    2    0    0  0.18336993504E+02 -0.72147299307E+01 -0.38669440765E+02  0.43400729347E+02  0.00000000000E+00 0.  1.
         11    1    3    3    0    0 -0.22784688345E+01  0.27740932951E+01  0.24845181451E+02  0.25103188153E+02  0.51100000000E-03 0. -1.
        -11    1    3    3    0    0 -0.14394436274E+02  0.56888787435E+01  0.13577809041E+02  0.20589318484E+02  0.51100000000E-03 0.  1.
         12    1    3    3    0    0 -0.16640883960E+01 -0.12482421079E+01  0.24645027286E+00  0.20947640169E+01  0.00000000000E+00 0. -1.
</event>
<event>
 7    1  0.1019486E-010  0.4778727E+02  0.7816164E-02  0.1312668E+00
        -11   -1    0    0    0    0  0.00000000000E+00  0.00000000000E+00  0.45593999997E+02  0.45594000000E+02  0.51100000000E-03 0. -1.
         11   -1    0    0    0    0 -0.00000000000E+00 -0.00000000000E+00 -0.45593999997E+02  0.45594000000E+02  0.51100000000E-03 0.  1.
    9900012    2    1    2    0    0  0.37698764380E+02  0.13224798792E+02  0.16956748474E+02  0.47787268927E+02  0.19999990344E+02 0.  0.
        -12    1    1    2    0    0 -0.37698764380E+02 -0.13224798792E+02 -0.16956748474E+02  0.43400731073E+02  0.00000000000E+00 0.  1.
         11    1    3    3    0    0  0.21251734685E+02  0.49501040790E+01  0.14441795053E+02  0.26166872227E+02  0.51100000000E-03 0.  1.
        -11    1    3    3    0    0  0.16273027398E+02  0.55652664213E+01  0.50306821576E+01  0.17919022693E+02  0.51100000000E-03 0. -1.
         12    1    3    3    0    0  0.17400229747E+00  0.27094282914E+01 -0.25157287363E+01  0.37013740071E+01  0.00000000000E+00 0. -1.
</event>
<event>
 7    1  0.1019486E-010  0.4778728E+02  0.7816164E-02  0.1312668E+00
        -11   -1    0    0    0    0  0.00000000000E+00  0.00000000000E+00  0.45593999997E+02  0.45594000000E+02  0.51100000000E-03 0. -1.
         11   -1    0    0    0    0 -0.00000000000E+00 -0.00000000000E+00 -0.45593999997E+02  0.45594000000E+02  0.51100000000E-03 0.  1.
    9900012    2    1    2    0    0  0.15378975258E+01 -0.26637136212E+02  0.34230403922E+02  0.47787277575E+02  0.20000029775E+02 0.  0.
        -12    1    1    2    0    0 -0.15378975258E+01  0.26637136212E+02 -0.34230403922E+02  0.43400722425E+02  0.00000000000E+00 0.  1.
         11    1    3    3    0    0  0.26705673137E+01 -0.15084409956E+02  0.22106114356E+02  0.26895197446E+02  0.51100000000E-03 0. -1.
        -11    1    3    3    0    0 -0.65054376393E+01 -0.87198084654E+01  0.69196171773E+01  0.12893288203E+02  0.51100000000E-03 0.  1.
        -12    1    3    3    0    0  0.53727678514E+01 -0.28329177900E+01  0.52046723889E+01  0.79987919254E+01  0.00000000000E+00 0.  1.
</event>
<event>
 7    1  0.1019486E-010  0.4778727E+02  0.7816164E-02  0.1312668E+00
        -11   -1    0    0    0    0  0.00000000000E+00  0.00000000000E+00  0.45593999997E+02  0.45594000000E+02  0.51100000000E-03 0. -1.
         11   -1    0    0    0    0 -0.00000000000E+00 -0.00000000000E+00 -0.45593999997E+02  0.45594000000E+02  0.51100000000E-03 0.  1.
    9900012    2    1    2    0    0  0.61749238768E+01 -0.26754664027E+02  0.33610741880E+02  0.47787266115E+02  0.19999977523E+02 0.  0.
        -12    1    1    2    0    0 -0.61749238768E+01  0.26754664027E+02 -0.33610741880E+02  0.43400733885E+02  0.00000000000E+00 0.  1.
         11    1    3    3    0    0  0.61455494415E+01 -0.96235898784E+01  0.22342227722E+02  0.25090962515E+02  0.51100000000E-03 0. -1.
        -11    1    3    3    0    0 -0.39037757618E+01 -0.12439017589E+02  0.10031914873E+02  0.16450165351E+02  0.51100000000E-03 0.  1.
         12    1    3    3    0    0  0.39331501971E+01 -0.46920565596E+01  0.12365992843E+01  0.62461382486E+01  0.00000000000E+00 0. -1.
</event>
<event>
 7    1  0.1019486E-010  0.4778728E+02  0.7816164E-02  0.1312668E+00
        -11   -1    0    0    0    0  0.00000000000E+00  0.00000000000E+00  0.45593999997E+02  0.45594000000E+02  0.51100000000E-03 0. -1.
         11   -1    0    0    0    0 -0.00000000000E+00 -0.00000000000E+00 -0.45593999997E+02  0.45594000000E+02  0.51100000000E-03 0.  1.
    9900012    2    1    2    0    0  0.31195826624E+02 -0.22504356840E+02 -0.20099674738E+02  0.47787278807E+02  0.20000035391E+02 0.  0.
         12    1    1    2    0    0 -0.31195826624E+02  0.22504356840E+02  0.20099674738E+02  0.43400721193E+02  0.00000000000E+00 0. -1.
         11    1    3    3    0    0  0.10230962307E+02  0.19089762199E+01 -0.87215986344E+01  0.13578772512E+02  0.51100000000E-03 0.  1.
        -11    1    3    3    0    0  0.12643153986E+02 -0.16250973887E+02 -0.77547297717E+01  0.22001802860E+02  0.51100000000E-03 0. -1.
        -12    1    3    3    0    0  0.83217103308E+01 -0.81623591730E+01 -0.36233463321E+01  0.12206703435E+02  0.00000000000E+00 0.  1.
</event>
<event>
 7    1  0.1019486E-010  0.4778727E+02  0.7816164E-02  0.1312668E+00
        -11   -1    0    0    0    0  0.00000000000E+00  0.00000000000E+00  0.45593999997E+02  0.45594000000E+02  0.51100000000E-03 0. -1.
         11   -1    0    0    0    0 -0.00000000000E+00 -0.00000000000E+00 -0.45593999997E+02  0.45594000000E+02  0.51100000000E-03 0.  1.
    9900012    2    1    2    0    0 -0.65413563895E+01 -0.18173035673E+02 -0.38866118808E+02  0.47787265442E+02  0.19999974456E+02 0.  0.
         12    1    1    2    0    0  0.65413563895E+01  0.18173035673E+02  0.38866118808E+02  0.43400734558E+02  0.00000000000E+00 0. -1.
         11    1    3    3    0    0 -0.71227447695E+01 -0.29601539340E+01 -0.19915695075E+02  0.21357221611E+02  0.51100000000E-03 0. -1.
        -11    1    3    3    0    0 -0.14034862861E+01 -0.64703821689E+01 -0.15444664132E+02  0.16803965889E+02  0.51100000000E-03 0.  1.
         12    1    3    3    0    0  0.19848746661E+01 -0.87424995697E+01 -0.35057596007E+01  0.96260779419E+01  0.00000000000E+00 0. -1.
</event>
<event>
 7    1  0.1019486E-010  0.4778727E+02  0.7816164E-02  0.1312668E+00
        -11   -1    0    0    0    0  0.00000000000E+00  0.00000000000E+00  0.45593999997E+02  0.45594000000E+02  0.51100000000E-03 0. -1.
         11   -1    0    0    0    0 -0.00000000000E+00 -0.00000000000E+00 -0.45593999997E+02  0.45594000000E+02  0.51100000000E-03 0.  1.
    9900012    2    1    2    0    0 -0.21711767220E+01  0.15446882683E+02  0.40500654005E+02  0.47787272266E+02  0.20000005571E+02 0.  0.
        -12    1    1    2    0    0  0.21711767220E+01 -0.15446882683E+02 -0.40500654005E+02  0.43400727734E+02  0.00000000000E+00 0.  1.
         11    1    3    3    0    0  0.13751973371E+01 -0.19247654231E+01  0.14066273419E+01  0.27521792074E+01  0.51100000000E-03 0.  1.
        -11    1    3    3    0    0  0.19226142362E+01  0.13208133947E+02  0.15473381961E+02  0.20434695923E+02  0.51100000000E-03 0. -1.
        -12    1    3    3    0    0 -0.54689882953E+01  0.41635141585E+01  0.23620644702E+02  0.24600397136E+02  0.00000000000E+00 0.  1.
</event>
<event>
 7    1  0.1019486E-010  0.4778727E+02  0.7816164E-02  0.1312668E+00
        -11   -1    0    0    0    0  0.00000000000E+00  0.00000000000E+00  0.45593999997E+02  0.45594000000E+02  0.51100000000E-03 0.  1.
         11   -1    0    0    0    0 -0.00000000000E+00 -0.00000000000E+00 -0.45593999997E+02  0.45594000000E+02  0.51100000000E-03 0. -1.
    9900012    2    1    2    0    0 -0.28452613084E+02  0.32767486440E+02 -0.60336340972E+00  0.47787269519E+02  0.19999993046E+02 0.  0.
         12    1    1    2    0    0  0.28452613084E+02 -0.32767486440E+02  0.60336340972E+00  0.43400730481E+02  0.00000000000E+00 0. -1.
         11    1    3    3    0    0 -0.21580777097E+01  0.11856928331E+02  0.58064647458E+00  0.12065703437E+02  0.51100000000E-03 0. -1.
        -11    1    3    3    0    0 -0.27076313283E+02  0.19233415818E+02 -0.27107112344E+01  0.33322649665E+02  0.51100000000E-03 0.  1.
        -12    1    3    3    0    0  0.78177790929E+00  0.16771422909E+01  0.15267013501E+01  0.23989164170E+01  0.00000000000E+00 0.  1.
</event>
<event>
 7    1  0.1019486E-010  0.4778727E+02  0.7816164E-02  0.1312668E+00
        -11   -1    0    0    0    0  0.00000000000E+00  0.00000000000E+00  0.45593999997E+02  0.45594000000E+02  0.51100000000E-03 0. -1.
         11   -1    0    0    0    0 -0.00000000000E+00 -0.00000000000E+00 -0.45593999997E+02  0.45594000000E+02  0.51100000000E-03 0.  1.
    9900012    2    1    2    0    0  0.22761790656E+02 -0.20359462870E+02 -0.30838557148E+02  0.47787269025E+02  0.19999990791E+02 0.  0.
         12    1    1    2    0    0 -0.22761790656E+02  0.20359462870E+02  0.30838557148E+02  0.43400730975E+02  0.00000000000E+00 0. -1.
         11    1    3    3    0    0  0.12027558468E+01  0.12059437308E+00  0.42412858752E+00  0.12810347184E+01  0.51100000000E-03 0. -1.
        -11    1    3    3    0    0  0.15792712188E+02 -0.17153278502E+02 -0.12201143984E+02  0.26315634828E+02  0.51100000000E-03 0.  1.
        -12    1    3    3    0    0  0.57663226213E+01 -0.33267787415E+01 -0.19061541751E+02  0.20190599478E+02  0.00000000000E+00 0.  1.
</event>
<event>
 7    1  0.1019486E-010  0.4778727E+02  0.7816164E-02  0.1312668E+00
        -11   -1    0    0    0    0  0.00000000000E+00  0.00000000000E+00  0.45593999997E+02  0.45594000000E+02  0.51100000000E-03 0. -1.
         11   -1    0    0    0    0 -0.00000000000E+00 -0.00000000000E+00 -0.45593999997E+02  0.45594000000E+02  0.51100000000E-03 0.  1.
    9900012    2    1    2    0    0 -0.14310778162E+02 -0.11463226064E+02  0.39337250826E+02  0.47787271597E+02  0.20000002518E+02 0.  0.
        -12    1    1    2    0    0  0.14310778162E+02  0.11463226064E+02 -0.39337250826E+02  0.43400728403E+02  0.00000000000E+00 0.  1.
         11    1    3    3    0    0 -0.96637967885E+01 -0.11152361227E+02  0.25381760269E+02  0.29359800475E+02  0.51100000000E-03 0. -1.
        -11    1    3    3    0    0 -0.16101321044E+01  0.14810445284E+01 -0.14493420919E+01  0.26242353266E+01  0.51100000000E-03 0.  1.
        -12    1    3    3    0    0 -0.30368492691E+01 -0.17919093645E+01  0.15404832649E+02  0.15803235795E+02  0.00000000000E+00 0.  1.
</event>
<event>
 7    1  0.1019486E-010  0.4778728E+02  0.7816164E-02  0.1312668E+00
        -11   -1    0    0    0    0  0.00000000000E+00  0.00000000000E+00  0.45593999997E+02  0.45594000000E+02  0.51100000000E-03 0. -1.
         11   -1    0    0    0    0 -0.00000000000E+00 -0.00000000000E+00 -0.45593999997E+02  0.45594000000E+02  0.51100000000E-03 0.  1.
    9900012    2    1    2    0    0  0.16786108399E+02 -0.29594521864E+02 -0.26944642348E+02  0.47787275227E+02  0.20000019072E+02 0.  0.
         12    1    1    2    0    0 -0.16786108399E+02  0.29594521864E+02  0.26944642348E+02  0.43400724773E+02  0.00000000000E+00 0. -1.
         11    1    3    3    0    0  0.34442778507E+00 -0.11124106782E+02 -0.26740046114E+01  0.11446164560E+02  0.51100000000E-03 0. -1.
        -11    1    3    3    0    0  0.86655210724E+01 -0.25703745909E+01 -0.10892416257E+02  0.14154250710E+02  0.51100000000E-03 0.  1.
        -12    1    3    3    0    0  0.77761595410E+01 -0.15900040490E+02 -0.13378221480E+02  0.22186859957E+02  0.00000000000E+00 0.  1.
</event>
<event>
 7    1  0.1019486E-010  0.4778727E+02  0.7816164E-02  0.1312668E+00
        -11   -1    0    0    0    0  0.00000000000E+00  0.00000000000E+00  0.45593999997E+02  0.45594000000E+02  0.51100000000E-03 0. -1.
         11   -1    0    0    0    0 -0.00000000000E+00 -0.00000000000E+00 -0.45593999997E+02  0.45594000000E+02  0.51100000000E-03 0.  1.
    9900012    2    1    2    0    0  0.11646803769E+02 -0.19266933749E+02 -0.37104723642E+02  0.47787270851E+02  0.19999999119E+02 0.  0.
         12    1    1    2    0    0 -0.11646803769E+02  0.19266933749E+02  0.37104723642E+02  0.43400729149E+02  0.00000000000E+00 0. -1.
         11    1    3    3    0    0 -0.90885842339E+00  0.65796514498E+00 -0.63856140749E+01  0.64834411496E+01  0.51100000000E-03 0. -1.
        -11    1    3    3    0    0  0.57704896244E+01 -0.18927495226E+02 -0.17518988782E+02  0.26428461821E+02  0.51100000000E-03 0.  1.
        -12    1    3    3    0    0  0.67851725679E+01 -0.99740366812E+00 -0.13200120784E+02  0.14875367880E+02  0.00000000000E+00 0.  1.
</event>
<event>
 7    1  0.1019486E-010  0.4778727E+02  0.7816164E-02  0.1312668E+00
        -11   -1    0    0    0    0  0.00000000000E+00  0.00000000000E+00  0.45593999997E+02  0.45594000000E+02  0.51100000000E-03 0. -1.
         11   -1    0    0    0    0 -0.00000000000E+00 -0.00000000000E+00 -0.45593999997E+02  0.45594000000E+02  0.51100000000E-03 0.  1.
    9900012    2    1    2    0    0  0.89626472683E+01  0.38396476665E+02  0.18138491058E+02  0.47787270465E+02  0.19999997357E+02 0.  0.
        -12    1    1    2    0    0 -0.89626472683E+01 -0.38396476665E+02 -0.18138491058E+02  0.43400729535E+02  0.00000000000E+00 0.  1.
         11    1    3    3    0    0  0.31507422220E+01  0.80791840035E+01 -0.27730236296E+01  0.91043973455E+01  0.51100000000E-03 0. -1.
        -11    1    3    3    0    0 -0.28087074593E+01  0.58672545190E+01  0.29442721884E+01  0.71401857233E+01  0.51100000000E-03 0.  1.
         12    1    3    3    0    0  0.86206125056E+01  0.24450038142E+02  0.17967242500E+02  0.31542687396E+02  0.00000000000E+00 0. -1.
</event>
<event>
 7    1  0.1019486E-010  0.4778727E+02  0.7816164E-02  0.1312668E+00
        -11   -1    0    0    0    0  0.00000000000E+00  0.00000000000E+00  0.45593999997E+02  0.45594000000E+02  0.51100000000E-03 0. -1.
         11   -1    0    0    0    0 -0.00000000000E+00 -0.00000000000E+00 -0.45593999997E+02  0.45594000000E+02  0.51100000000E-03 0.  1.
    9900012    2    1    2    0    0 -0.92566470457E+01 -0.23062634697E+02  0.35581635932E+02  0.47787269024E+02  0.19999990787E+02 0.  0.
        -12    1    1    2    0    0  0.92566470457E+01  0.23062634697E+02 -0.35581635932E+02  0.43400730976E+02  0.00000000000E+00 0.  1.
         11    1    3    3    0    0 -0.73888725072E+01 -0.83925316813E+01  0.15049570088E+02  0.18748855567E+02  0.51100000000E-03 0. -1.
        -11    1    3    3    0    0 -0.40664576124E+01 -0.35867251371E+00  0.10922436325E+02  0.11660374737E+02  0.51100000000E-03 0.  1.
        -12    1    3    3    0    0  0.21986830739E+01 -0.14311430502E+02  0.96096295184E+01  0.17378038720E+02  0.00000000000E+00 0.  1.
</event>
<event>
 7    1  0.1019486E-010  0.4778723E+02  0.7816164E-02  0.1312668E+00
        -11   -1    0    0    0    0  0.00000000000E+00  0.00000000000E+00  0.45593999997E+02  0.45594000000E+02  0.51100000000E-03 0. -1.
         11   -1    0    0    0    0 -0.00000000000E+00 -0.00000000000E+00 -0.45593999997E+02  0.45594000000E+02  0.51100000000E-03 0.  1.
    9900012    2    1    2    0    0  0.19764459058E+01  0.10774337520E+02 -0.41995645435E+02  0.47787229006E+02  0.19999808328E+02 0.  0.
         12    1    1    2    0    0 -0.19764459058E+01 -0.10774337520E+02  0.41995645435E+02  0.43400770994E+02  0.00000000000E+00 0. -1.
         11    1    3    3    0    0 -0.23669321348E+01  0.50757245496E+00  0.12523235958E+01  0.27254930155E+01  0.51100000000E-03 0. -1.
        -11    1    3    3    0    0  0.54571453386E+01  0.57568731824E+01 -0.29620811497E+02  0.30664547903E+02  0.51100000000E-03 0.  1.
        -12    1    3    3    0    0 -0.11137672980E+01  0.45098918826E+01 -0.13627157534E+02  0.14397188088E+02  0.00000000000E+00 0.  1.
</event>
<event>
 7    1  0.1019486E-010  0.4778727E+02  0.7816164E-02  0.1312668E+00
        -11   -1    0    0    0    0  0.00000000000E+00  0.00000000000E+00  0.45593999997E+02  0.45594000000E+02  0.51100000000E-03 0.  1.
         11   -1    0    0    0    0 -0.00000000000E+00 -0.00000000000E+00 -0.45593999997E+02  0.45594000000E+02  0.51100000000E-03 0. -1.
    9900012    2    1    2    0    0 -0.30486549533E+02  0.26439627127E+02 -0.15973088991E+02  0.47787272391E+02  0.20000006141E+02 0.  0.
         12    1    1    2    0    0  0.30486549533E+02 -0.26439627127E+02  0.15973088991E+02  0.43400727609E+02  0.00000000000E+00 0. -1.
         11    1    3    3    0    0 -0.11181514745E+02 -0.82276525879E-01 -0.85171862499E+01  0.14056155352E+02  0.51100000000E-03 0. -1.
        -11    1    3    3    0    0 -0.12075824073E+01  0.11828934902E+01  0.86173150681E-01  0.16926069694E+01  0.51100000000E-03 0.  1.
         12    1    3    3    0    0 -0.18097452381E+02  0.25339010163E+02 -0.75420758916E+01  0.32038510070E+02  0.00000000000E+00 0. -1.
</event>
<event>
 7    1  0.1019486E-010  0.4778727E+02  0.7816164E-02  0.1312668E+00
        -11   -1    0    0    0    0  0.00000000000E+00  0.00000000000E+00  0.45593999997E+02  0.45594000000E+02  0.51100000000E-03 0.  1.
         11   -1    0    0    0    0 -0.00000000000E+00 -0.00000000000E+00 -0.45593999997E+02  0.45594000000E+02  0.51100000000E-03 0. -1.
    9900012    2    1    2    0    0 -0.14610167458E+01 -0.39702971692E+02  0.17468912121E+02  0.47787269340E+02  0.19999992229E+02 0.  0.
        -12    1    1    2    0    0  0.14610167458E+01  0.39702971692E+02 -0.17468912121E+02  0.43400730660E+02  0.00000000000E+00 0.  1.
         11    1    3    3    0    0 -0.17032754053E+01 -0.20732040024E+02  0.12129946328E+02  0.24080162558E+02  0.51100000000E-03 0. -1.
        -11    1    3    3    0    0  0.32806600438E+01  0.44267521136E+00  0.17060899396E+01  0.37241690092E+01  0.51100000000E-03 0.  1.
         12    1    3    3    0    0 -0.30384013843E+01 -0.19413606880E+02  0.36328758534E+01  0.19982937772E+02  0.00000000000E+00 0. -1.
</event>
<event>
 7    1  0.1019486E-010  0.4778728E+02  0.7816164E-02  0.1312668E+00
        -11   -1    0    0    0    0  0.00000000000E+00  0.00000000000E+00  0.45593999997E+02  0.45594000000E+02  0.51100000000E-03 0. -1.
         11   -1    0    0    0    0 -0.00000000000E+00 -0.00000000000E+00 -0.45593999997E+02  0.45594000000E+02  0.51100000000E-03 0.  1.
    9900012    2    1    2    0    0  0.27355685467E+02 -0.18332329927E+02  0.28270378321E+02  0.47787284126E+02  0.20000059644E+02 0.  0.
        -12    1    1    2    0    0 -0.27355685467E+02  0.18332329927E+02 -0.28270378321E+02  0.43400715874E+02  0.00000000000E+00 0.  1.
         11    1    3    3    0    0  0.10767348347E+02 -0.46176990512E+01  0.67051608270E+01  0.13498819094E+02  0.51100000000E-03 0. -1.
        -11    1    3    3    0    0  0.18848782668E+01  0.19166061089E+01 -0.12517387107E+01  0.29652984872E+01  0.51100000000E-03 0.  1.
        -12    1    3    3    0    0  0.14703458853E+02 -0.15631236985E+02  0.22816956205E+02  0.31323166545E+02  0.00000000000E+00 0.  1.
</event>
<event>
 7    1  0.1019486E-010  0.4778727E+02  0.7816164E-02  0.1312668E+00
        -11   -1    0    0    0    0  0.00000000000E+00  0.00000000000E+00  0.45593999997E+02  0.45594000000E+02  0.51100000000E-03 0. -1.
         11   -1    0    0    0    0 -0.00000000000E+00 -0.00000000000E+00 -0.45593999997E+02  0.45594000000E+02  0.51100000000E-03 0.  1.
    9900012    2    1    2    0    0 -0.93109748684E+01 -0.40384668738E+02 -0.12884400925E+02  0.47787268332E+02  0.19999987634E+02 0.  0.
         12    1    1    2    0    0  0.93109748684E+01  0.40384668738E+02  0.12884400925E+02  0.43400731668E+02  0.00000000000E+00 0. -1.
         11    1    3    3    0    0  0.13933948639E+01 -0.70497501683E+01  0.35407243513E+01  0.80110708320E+01  0.51100000000E-03 0. -1.
        -11    1    3    3    0    0 -0.91981090391E+01 -0.16018134084E+02 -0.56110526229E+01  0.19304655947E+02  0.51100000000E-03 0.  1.
         12    1    3    3    0    0 -0.15062606932E+01 -0.17316784486E+02 -0.10814072654E+02  0.20471541554E+02  0.00000000000E+00 0. -1.
</event>
<event>
 7    1  0.1019486E-010  0.4778727E+02  0.7816164E-02  0.1312668E+00
        -11   -1    0    0    0    0  0.00000000000E+00  0.00000000000E+00  0.45593999997E+02  0.45594000000E+02  0.51100000000E-03 0. -1.
         11   -1    0    0    0    0 -0.00000000000E+00 -0.00000000000E+00 -0.45593999997E+02  0.45594000000E+02  0.51100000000E-03 0.  1.
    9900012    2    1    2    0    0  0.15283251772E+02  0.40162074173E+02  0.60871226824E+01  0.47787273633E+02  0.20000011804E+02 0.  0.
        -12    1    1    2    0    0 -0.15283251772E+02 -0.40162074173E+02 -0.60871226824E+01  0.43400726367E+02  0.00000000000E+00 0.  1.
         11    1    3    3    0    0  0.18064816141E+00  0.11531632597E+02  0.57960049823E+01  0.12907550431E+02  0.51100000000E-03 0. -1.
        -11    1    3    3    0    0  0.12235891676E+02  0.11173999601E+02 -0.31256098622E+01  0.16862525003E+02  0.51100000000E-03 0.  1.
        -12    1    3    3    0    0  0.28667119348E+01  0.17456441974E+02  0.34167275623E+01  0.18017198199E+02  0.00000000000E+00 0.  1.
</event>
<event>
 7    1  0.1019486E-010  0.4778727E+02  0.7816164E-02  0.1312668E+00
        -11   -1    0    0    0    0  0.00000000000E+00  0.00000000000E+00  0.45593999997E+02  0.45594000000E+02  0.51100000000E-03 0. -1.
         11   -1    0    0    0    0 -0.00000000000E+00 -0.00000000000E+00 -0.45593999997E+02  0.45594000000E+02  0.51100000000E-03 0.  1.
    9900012    2    1    2    0    0  0.36144782757E+02  0.12447426945E+01 -0.23992262738E+02  0.47787269865E+02  0.19999994623E+02 0.  0.
         12    1    1    2    0    0 -0.36144782757E+02 -0.12447426945E+01  0.23992262738E+02  0.43400730135E+02  0.00000000000E+00 0. -1.
         11    1    3    3    0    0  0.41131808314E+01  0.69706463739E+00  0.75770079561E+00  0.42400785862E+01  0.51100000000E-03 0. -1.
        -11    1    3    3    0    0  0.21133349835E+02 -0.45782414539E+01 -0.83045885095E+01  0.23163440173E+02  0.51100000000E-03 0.  1.
        -12    1    3    3    0    0  0.10898252090E+02  0.51259195110E+01 -0.16445375025E+02  0.20383751106E+02  0.00000000000E+00 0.  1.
</event>
<event>
 7    1  0.1019486E-010  0.4778727E+02  0.7816164E-02  0.1312668E+00
        -11   -1    0    0    0    0  0.00000000000E+00  0.00000000000E+00  0.45593999997E+02  0.45594000000E+02  0.51100000000E-03 0. -1.
         11   -1    0    0    0    0 -0.00000000000E+00 -0.00000000000E+00 -0.45593999997E+02  0.45594000000E+02  0.51100000000E-03 0.  1.
    9900012    2    1    2    0    0 -0.27325923517E+02 -0.31196858592E+02  0.12793472174E+02  0.47787274058E+02  0.20000013738E+02 0.  0.
        -12    1    1    2    0    0  0.27325923517E+02  0.31196858592E+02 -0.12793472174E+02  0.43400725942E+02  0.00000000000E+00 0.  1.
         11    1    3    3    0    0 -0.17694057476E+02 -0.11138168670E+02  0.10304946560E+02  0.23309448624E+02  0.51100000000E-03 0. -1.
        -11    1    3    3    0    0 -0.46226384620E+01 -0.13030302138E+01 -0.52830431776E+00  0.48317470755E+01  0.51100000000E-03 0.  1.
         12    1    3    3    0    0 -0.50092275793E+01 -0.18755659708E+02  0.30168299313E+01  0.19646078358E+02  0.00000000000E+00 0. -1.
</event>
<event>
 7    1  0.1019486E-010  0.4778727E+02  0.7816164E-02  0.1312668E+00
        -11   -1    0    0    0    0  0.00000000000E+00  0.00000000000E+00  0.45593999997E+02  0.45594000000E+02  0.51100000000E-03 0. -1.
         11   -1    0    0    0    0 -0.00000000000E+00 -0.00000000000E+00 -0.45593999997E+02  0.45594000000E+02  0.51100000000E-03 0.  1.
    9900012    2    1    2    0    0 -0.24851862795E+02  0.20212452565E+02  0.29282505857E+02  0.47787268758E+02  0.19999989573E+02 0.  0.
        -12    1    1    2    0    0  0.24851862795E+02 -0.20212452565E+02 -0.29282505857E+02  0.43400731242E+02  0.00000000000E+00 0.  1.
         11    1    3    3    0    0 -0.15893026434E+02  0.13944091890E+02  0.18246029116E+02  0.27927469750E+02  0.51100000000E-03 0. -1.
        -11    1    3    3    0    0 -0.22407828156E+01 -0.19694425076E+01 -0.15689734132E+01  0.33706808288E+01  0.51100000000E-03 0.  1.
        -12    1    3    3    0    0 -0.67180535461E+01  0.82378031831E+01  0.12605450154E+02  0.16489118179E+02  0.00000000000E+00 0.  1.
</event>
<event>
 7    1  0.1019486E-010  0.4778727E+02  0.7816164E-02  0.1312668E+00
        -11   -1    0    0    0    0  0.00000000000E+00  0.00000000000E+00  0.45593999997E+02  0.45594000000E+02  0.51100000000E-03 0.  1.
         11   -1    0    0    0    0 -0.00000000000E+00 -0.00000000000E+00 -0.45593999997E+02  0.45594000000E+02  0.51100000000E-03 0. -1.
    9900012    2    1    2    0    0 -0.19888326091E+02  0.38574250222E+02  0.32429087415E+00  0.47787268906E+02  0.19999990251E+02 0.  0.
         12    1    1    2    0    0  0.19888326091E+02 -0.38574250222E+02 -0.32429087415E+00  0.43400731094E+02  0.00000000000E+00 0. -1.
         11    1    3    3    0    0 -0.18011205516E+02  0.24769412193E+02  0.62362338753E+00  0.30631947553E+02  0.51100000000E-03 0. -1.
        -11    1    3    3    0    0  0.11585845391E+01  0.11919825503E+02  0.29407190565E+01  0.12331763336E+02  0.51100000000E-03 0.  1.
        -12    1    3    3    0    0 -0.30357051145E+01  0.18850125263E+01 -0.32400515698E+01  0.48235580168E+01  0.00000000000E+00 0.  1.
</event>
<event>
 7    1  0.1019486E-010  0.4778727E+02  0.7816164E-02  0.1312668E+00
        -11   -1    0    0    0    0  0.00000000000E+00  0.00000000000E+00  0.45593999997E+02  0.45594000000E+02  0.51100000000E-03 0. -1.
         11   -1    0    0    0    0 -0.00000000000E+00 -0.00000000000E+00 -0.45593999997E+02  0.45594000000E+02  0.51100000000E-03 0.  1.
    9900012    2    1    2    0    0  0.23852409135E+02 -0.13816290487E+01  0.36232266997E+02  0.47787268530E+02  0.19999988535E+02 0.  0.
        -12    1    1    2    0    0 -0.23852409135E+02  0.13816290487E+01 -0.36232266997E+02  0.43400731470E+02  0.00000000000E+00 0.  1.
         11    1    3    3    0    0  0.92313882834E+01 -0.49203492842E+00  0.14837635019E+02  0.17481877508E+02  0.51100000000E-03 0. -1.
        -11    1    3    3    0    0  0.11978494685E+02 -0.75622636781E+01  0.12642742547E+02  0.18987130015E+02  0.51100000000E-03 0.  1.
        -12    1    3    3    0    0  0.26425261666E+01  0.66726695578E+01  0.87518894319E+01  0.11318261006E+02  0.00000000000E+00 0.  1.
</event>
<event>
 7    1  0.1019486E-010  0.4778728E+02  0.7816164E-02  0.1312668E+00
        -11   -1    0    0    0    0  0.00000000000E+00  0.00000000000E+00  0.45593999997E+02  0.45594000000E+02  0.51100000000E-03 0. -1.
         11   -1    0    0    0    0 -0.00000000000E+00 -0.00000000000E+00 -0.45593999997E+02  0.45594000000E+02  0.51100000000E-03 0.  1.
    9900012    2    1    2    0    0  0.22629673314E+02  0.34713915882E+01 -0.36870991871E+02  0.47787277478E+02  0.20000029335E+02 0.  0.
         12    1    1    2    0    0 -0.22629673314E+02 -0.34713915882E+01  0.36870991871E+02  0.43400722522E+02  0.00000000000E+00 0. -1.
         11    1    3    3    0    0  0.99742607505E+01  0.45192499642E+01 -0.54717344316E+01  0.12241297958E+02  0.51100000000E-03 0. -1.
        -11    1    3    3    0    0  0.64540285565E+01 -0.12914207122E+00 -0.27306608756E+02  0.28059259510E+02  0.51100000000E-03 0.  1.
         12    1    3    3    0    0  0.62013840074E+01 -0.91871630479E+00 -0.40926486833E+01  0.74867200095E+01  0.00000000000E+00 0. -1.
</event>
<event>
 7    1  0.1019486E-010  0.4778727E+02  0.7816164E-02  0.1312668E+00
        -11   -1    0    0    0    0  0.00000000000E+00  0.00000000000E+00  0.45593999997E+02  0.45594000000E+02  0.51100000000E-03 0. -1.
         11   -1    0    0    0    0 -0.00000000000E+00 -0.00000000000E+00 -0.45593999997E+02  0.45594000000E+02  0.51100000000E-03 0.  1.
    9900012    2    1    2    0    0  0.19466358735E+01  0.38190926453E+02 -0.20525275962E+02  0.47787271805E+02  0.20000003466E+02 0.  0.
         12    1    1    2    0    0 -0.19466358735E+01 -0.38190926453E+02  0.20525275962E+02  0.43400728195E+02  0.00000000000E+00 0. -1.
         11    1    3    3    0    0 -0.36507237568E+01  0.21444461017E+02 -0.20716193993E+02  0.30039197494E+02  0.51100000000E-03 0. -1.
        -11    1    3    3    0    0  0.47966684688E+01  0.15603784827E+02  0.44195480300E+00  0.16330384368E+02  0.51100000000E-03 0.  1.
        -12    1    3    3    0    0  0.80069116148E+00  0.11426806094E+01 -0.25103677242E+00  0.14176899422E+01  0.00000000000E+00 0.  1.
</event>
<event>
 7    1  0.1566483E-010  0.4778727E+02  0.7816164E-02  0.1312668E+00
        -11   -1    0    0    0    0  0.00000000000E+00  0.00000000000E+00  0.45593999997E+02  0.45594000000E+02  0.51100000000E-03 0. -1.
         11   -1    0    0    0    0 -0.00000000000E+00 -0.00000000000E+00 -0.45593999997E+02  0.45594000000E+02  0.51100000000E-03 0.  1.
    9900012    2    1    2    0    0  0.16968794789E+01 -0.19306466292E+02 -0.38833033880E+02  0.47787267737E+02  0.19999984918E+02 0.  0.
         12    1    1    2    0    0 -0.16968794789E+01  0.19306466292E+02  0.38833033880E+02  0.43400732263E+02  0.00000000000E+00 0. -1.
         11    1    3    3    0    0  0.42020181777E+01 -0.66014478196E+01 -0.16552988702E+01  0.79985051535E+01  0.51100000000E-03 0. -1.
        -11    1    3    3    0    0 -0.33945188069E+01 -0.10500735957E+02 -0.24232249175E+02  0.26626868271E+02  0.51100000000E-03 0.  1.
         12    1    3    3    0    0  0.88938010815E+00 -0.22042825159E+01 -0.12945485835E+02  0.13161894312E+02  0.00000000000E+00 0. -1.
</event>
<event>
 7    1  0.1254544E-010  0.4778726E+02  0.7816164E-02  0.1312668E+00
        -11   -1    0    0    0    0  0.00000000000E+00  0.00000000000E+00  0.45593999997E+02  0.45594000000E+02  0.51100000000E-03 0. -1.
         11   -1    0    0    0    0 -0.00000000000E+00 -0.00000000000E+00 -0.45593999997E+02  0.45594000000E+02  0.51100000000E-03 0.  1.
    9900012    2    1    2    0    0  0.33685808368E+01 -0.21458873771E+02 -0.37573842469E+02  0.47787259934E+02  0.19999949343E+02 0.  0.
         12    1    1    2    0    0 -0.33685808368E+01  0.21458873771E+02  0.37573842469E+02  0.43400740066E+02  0.00000000000E+00 0. -1.
         11    1    3    3    0    0 -0.51364233685E+01  0.52988067735E+00 -0.83143838928E+01  0.97873693264E+01  0.51100000000E-03 0. -1.
        -11    1    3    3    0    0  0.73871704854E+01 -0.12993326210E+02 -0.20704784868E+02  0.25535953683E+02  0.51100000000E-03 0.  1.
         12    1    3    3    0    0  0.11178337199E+01 -0.89954282385E+01 -0.85546737078E+01  0.12463936925E+02  0.00000000000E+00 0. -1.
</event>
<event>
 7    1  0.1019486E-010  0.4778727E+02  0.7816164E-02  0.1312668E+00
        -11   -1    0    0    0    0  0.00000000000E+00  0.00000000000E+00  0.45593999997E+02  0.45594000000E+02  0.51100000000E-03 0.  1.
         11   -1    0    0    0    0 -0.00000000000E+00 -0.00000000000E+00 -0.45593999997E+02  0.45594000000E+02  0.51100000000E-03 0. -1.
    9900012    2    1    2    0    0 -0.14967685282E+01 -0.32368041626E+02 -0.28873743655E+02  0.47787268355E+02  0.19999987736E+02 0.  0.
         12    1    1    2    0    0  0.14967685282E+01  0.32368041626E+02  0.28873743655E+02  0.43400731645E+02  0.00000000000E+00 0. -1.
         11    1    3    3    0    0  0.18356719793E-01  0.36186987331E+00  0.56100509209E+00  0.66784260784E+00  0.51100000000E-03 0. -1.
        -11    1    3    3    0    0  0.43650305457E+01 -0.62241241366E+01 -0.77529144724E+00  0.76416156683E+01  0.51100000000E-03 0.  1.
        -12    1    3    3    0    0 -0.58801557937E+01 -0.26505787362E+02 -0.28659457300E+02  0.39477810078E+02  0.00000000000E+00 0.  1.
</event>
<event>
 7    1  0.1019486E-010  0.4778726E+02  0.7816164E-02  0.1312668E+00
        -11   -1    0    0    0    0  0.00000000000E+00  0.00000000000E+00  0.45593999997E+02  0.45594000000E+02  0.51100000000E-03 0. -1.
         11   -1    0    0    0    0 -0.00000000000E+00 -0.00000000000E+00 -0.45593999997E+02  0.45594000000E+02  0.51100000000E-03 0.  1.
    9900012    2    1    2    0    0  0.33304525872E+02  0.16913521118E+02 -0.22098987396E+02  0.47787264014E+02  0.19999967948E+02 0.  0.
         12    1    1    2    0    0 -0.33304525872E+02 -0.16913521118E+02  0.22098987396E+02  0.43400735986E+02  0.00000000000E+00 0. -1.
         11    1    3    3    0    0  0.10631106084E+02  0.46526489070E+01 -0.17465517250E+02  0.20969307368E+02  0.51100000000E-03 0. -1.
        -11    1    3    3    0    0  0.15808008232E+02  0.69252277047E+01 -0.54148756692E+01  0.18087918117E+02  0.51100000000E-03 0.  1.
         12    1    3    3    0    0  0.68654115561E+01  0.53356445066E+01  0.78140552393E+00  0.87300385296E+01  0.00000000000E+00 0. -1.
</event>
<event>
 7    1  0.1019486E-010  0.4778727E+02  0.7816164E-02  0.1312668E+00
        -11   -1    0    0    0    0  0.00000000000E+00  0.00000000000E+00  0.45593999997E+02  0.45594000000E+02  0.51100000000E-03 0. -1.
         11   -1    0    0    0    0 -0.00000000000E+00 -0.00000000000E+00 -0.45593999997E+02  0.45594000000E+02  0.51100000000E-03 0.  1.
    9900012    2    1    2    0    0  0.95149242605E+01  0.17939251717E+02  0.38357177307E+02  0.47787267439E+02  0.19999983562E+02 0.  0.
        -12    1    1    2    0    0 -0.95149242605E+01 -0.17939251717E+02 -0.38357177307E+02  0.43400732561E+02  0.00000000000E+00 0.  1.
         11    1    3    3    0    0  0.96736888722E-01  0.96012282286E+01  0.15097038007E+02  0.17891715915E+02  0.51100000000E-03 0. -1.
        -11    1    3    3    0    0  0.40411158507E+01 -0.25746483658E+01  0.15979269085E+01  0.50510199161E+01  0.51100000000E-03 0.  1.
        -12    1    3    3    0    0  0.53770715211E+01  0.10912671854E+02  0.21662212392E+02  0.24844531609E+02  0.00000000000E+00 0.  1.
</event>
<event>
 7    1  0.1019486E-010  0.4778727E+02  0.7816164E-02  0.1312668E+00
        -11   -1    0    0    0    0  0.00000000000E+00  0.00000000000E+00  0.45593999997E+02  0.45594000000E+02  0.51100000000E-03 0. -1.
         11   -1    0    0    0    0 -0.00000000000E+00 -0.00000000000E+00 -0.45593999997E+02  0.45594000000E+02  0.51100000000E-03 0.  1.
    9900012    2    1    2    0    0  0.57846225519E+01  0.78904274711E+01  0.42283594621E+02  0.47787273303E+02  0.20000010297E+02 0.  0.
        -12    1    1    2    0    0 -0.57846225519E+01 -0.78904274711E+01 -0.42283594621E+02  0.43400726697E+02  0.00000000000E+00 0.  1.
         11    1    3    3    0    0 -0.48532895342E+01  0.22543688250E+01  0.51827127437E+01  0.74496382292E+01  0.51100000000E-03 0. -1.
        -11    1    3    3    0    0  0.10737735146E+02  0.20115236835E+01  0.33464033414E+02  0.35202083975E+02  0.51100000000E-03 0.  1.
        -12    1    3    3    0    0 -0.99823059599E-01  0.36245349626E+01  0.36368484632E+01  0.51355510982E+01  0.00000000000E+00 0.  1.
</event>
<event>
 7    1  0.1019486E-010  0.4778728E+02  0.7816164E-02  0.1312668E+00
        -11   -1    0    0    0    0  0.00000000000E+00  0.00000000000E+00  0.45593999997E+02  0.45594000000E+02  0.51100000000E-03 0. -1.
         11   -1    0    0    0    0 -0.00000000000E+00 -0.00000000000E+00 -0.45593999997E+02  0.45594000000E+02  0.51100000000E-03 0.  1.
    9900012    2    1    2    0    0 -0.31037469354E+02 -0.19103997434E+02 -0.23565550777E+02  0.47787281051E+02  0.20000045624E+02 0.  0.
         12    1    1    2    0    0  0.31037469354E+02  0.19103997434E+02  0.23565550777E+02  0.43400718949E+02  0.00000000000E+00 0. -1.
         11    1    3    3    0    0 -0.70175173393E+01 -0.13828994934E+02 -0.14407200020E+02  0.21167287572E+02  0.51100000000E-03 0. -1.
        -11    1    3    3    0    0 -0.92649736993E+01  0.71395842663E-01 -0.27131838744E+01  0.96543359178E+01  0.51100000000E-03 0.  1.
         12    1    3    3    0    0 -0.14754978316E+02 -0.53463983434E+01 -0.64451668823E+01  0.16965657561E+02  0.00000000000E+00 0. -1.
</event>
<event>
 7    1  0.1019486E-010  0.4778726E+02  0.7816164E-02  0.1312668E+00
        -11   -1    0    0    0    0  0.00000000000E+00  0.00000000000E+00  0.45593999997E+02  0.45594000000E+02  0.51100000000E-03 0. -1.
         11   -1    0    0    0    0 -0.00000000000E+00 -0.00000000000E+00 -0.45593999997E+02  0.45594000000E+02  0.51100000000E-03 0.  1.
    9900012    2    1    2    0    0  0.29126729271E+02 -0.28693886060E+02 -0.14557425681E+02  0.47787261553E+02  0.19999956726E+02 0.  0.
         12    1    1    2    0    0 -0.29126729271E+02  0.28693886060E+02  0.14557425681E+02  0.43400738447E+02  0.00000000000E+00 0. -1.
         11    1    3    3    0    0  0.20992490425E+02 -0.13689165597E+02 -0.11814176373E+02  0.27706545663E+02  0.51100000000E-03 0. -1.
        -11    1    3    3    0    0 -0.11472191265E+01 -0.58969246314E+01 -0.36770680977E+01  0.70434836472E+01  0.51100000000E-03 0.  1.
        -12    1    3    3    0    0  0.92814579732E+01 -0.91077958317E+01  0.93381878985E+00  0.13037232243E+02  0.00000000000E+00 0.  1.
</event>
<event>
 7    1  0.1019486E-010  0.4778727E+02  0.7816164E-02  0.1312668E+00
        -11   -1    0    0    0    0  0.00000000000E+00  0.00000000000E+00  0.45593999997E+02  0.45594000000E+02  0.51100000000E-03 0. -1.
         11   -1    0    0    0    0 -0.00000000000E+00 -0.00000000000E+00 -0.45593999997E+02  0.45594000000E+02  0.51100000000E-03 0.  1.
    9900012    2    1    2    0    0 -0.10122936384E+02  0.37221428850E+02  0.19892572926E+02  0.47787273459E+02  0.20000011009E+02 0.  0.
        -12    1    1    2    0    0  0.10122936384E+02 -0.37221428850E+02 -0.19892572926E+02  0.43400726541E+02  0.00000000000E+00 0.  1.
         11    1    3    3    0    0  0.28267604441E+01  0.49004152302E+01  0.46010662232E+01  0.72920816430E+01  0.51100000000E-03 0. -1.
        -11    1    3    3    0    0 -0.14859972105E+02  0.22696532157E+02  0.14206586404E+02  0.30623168360E+02  0.51100000000E-03 0.  1.
        -12    1    3    3    0    0  0.19102752765E+01  0.96244814629E+01  0.10849202994E+01  0.98720234561E+01  0.00000000000E+00 0.  1.
</event>
<event>
 7    1  0.1019486E-010  0.4778727E+02  0.7816164E-02  0.1312668E+00
        -11   -1    0    0    0    0  0.00000000000E+00  0.00000000000E+00  0.45593999997E+02  0.45594000000E+02  0.51100000000E-03 0. -1.
         11   -1    0    0    0    0 -0.00000000000E+00 -0.00000000000E+00 -0.45593999997E+02  0.45594000000E+02  0.51100000000E-03 0.  1.
    9900012    2    1    2    0    0 -0.16903471327E+02  0.30275010827E+02  0.26102097735E+02  0.47787272706E+02  0.20000007577E+02 0.  0.
        -12    1    1    2    0    0  0.16903471327E+02 -0.30275010827E+02 -0.26102097735E+02  0.43400727294E+02  0.00000000000E+00 0.  1.
         11    1    3    3    0    0 -0.99329803552E+01  0.11461467218E+02  0.57443860131E+01  0.16218116427E+02  0.51100000000E-03 0. -1.
        -11    1    3    3    0    0  0.49094661338E+00  0.10394405745E+02  0.16815718808E+02  0.19775062545E+02  0.51100000000E-03 0.  1.
        -12    1    3    3    0    0 -0.74614375848E+01  0.84191378637E+01  0.35419929139E+01  0.11794093734E+02  0.00000000000E+00 0.  1.
</event>
<event>
 7    1  0.1019486E-010  0.4778727E+02  0.7816164E-02  0.1312668E+00
        -11   -1    0    0    0    0  0.00000000000E+00  0.00000000000E+00  0.45593999997E+02  0.45594000000E+02  0.51100000000E-03 0. -1.
         11   -1    0    0    0    0 -0.00000000000E+00 -0.00000000000E+00 -0.45593999997E+02  0.45594000000E+02  0.51100000000E-03 0.  1.
    9900012    2    1    2    0    0  0.32092283750E+02 -0.77275996109E+01 -0.28177880822E+02  0.47787269134E+02  0.19999991290E+02 0.  0.
         12    1    1    2    0    0 -0.32092283750E+02  0.77275996109E+01  0.28177880822E+02  0.43400730866E+02  0.00000000000E+00 0. -1.
         11    1    3    3    0    0  0.13063702682E+02  0.59834251511E+00 -0.30402874553E+01  0.13426156918E+02  0.51100000000E-03 0. -1.
        -11    1    3    3    0    0  0.16469123415E+02 -0.93262310990E+01 -0.15885359679E+02  0.24709416524E+02  0.51100000000E-03 0.  1.
         12    1    3    3    0    0  0.25594576535E+01  0.10002889729E+01 -0.92522336877E+01  0.96516956916E+01  0.00000000000E+00 0. -1.
</event>
<event>
 7    1  0.1019486E-010  0.4778726E+02  0.7816164E-02  0.1312668E+00
        -11   -1    0    0    0    0  0.00000000000E+00  0.00000000000E+00  0.45593999997E+02  0.45594000000E+02  0.51100000000E-03 0. -1.
         11   -1    0    0    0    0 -0.00000000000E+00 -0.00000000000E+00 -0.45593999997E+02  0.45594000000E+02  0.51100000000E-03 0.  1.
    9900012    2    1    2    0    0  0.18717939108E+02  0.27915946150E+02  0.27458380406E+02  0.47787263274E+02  0.19999964570E+02 0.  0.
        -12    1    1    2    0    0 -0.18717939108E+02 -0.27915946150E+02 -0.27458380406E+02  0.43400736726E+02  0.00000000000E+00 0.  1.
         11    1    3    3    0    0  0.63874069343E+01  0.75005011663E+01  0.79131929094E+01  0.12636261606E+02  0.51100000000E-03 0. -1.
        -11    1    3    3    0    0  0.13124539930E+02  0.13390430750E+02  0.56864616866E+01  0.19593188378E+02  0.51100000000E-03 0.  1.
        -12    1    3    3    0    0 -0.79400775591E+00  0.70250142329E+01  0.13858725810E+02  0.15557813290E+02  0.00000000000E+00 0.  1.
</event>
<event>
 7    1  0.1019486E-010  0.4778727E+02  0.7816164E-02  0.1312668E+00
        -11   -1    0    0    0    0  0.00000000000E+00  0.00000000000E+00  0.45593999997E+02  0.45594000000E+02  0.51100000000E-03 0. -1.
         11   -1    0    0    0    0 -0.00000000000E+00 -0.00000000000E+00 -0.45593999997E+02  0.45594000000E+02  0.51100000000E-03 0.  1.
    9900012    2    1    2    0    0 -0.35167545317E+02 -0.64026059568E+01 -0.24614502494E+02  0.47787270287E+02  0.19999996544E+02 0.  0.
         12    1    1    2    0    0  0.35167545317E+02  0.64026059568E+01  0.24614502494E+02  0.43400729713E+02  0.00000000000E+00 0. -1.
         11    1    3    3    0    0 -0.96451882283E+01 -0.34316066179E+01 -0.16869866123E+02  0.19733169112E+02  0.51100000000E-03 0. -1.
        -11    1    3    3    0    0 -0.20806752015E+02  0.45627986166E+00 -0.41993926357E+01  0.21231203911E+02  0.51100000000E-03 0.  1.
        -12    1    3    3    0    0 -0.47156050732E+01 -0.34272792006E+01 -0.35452437349E+01  0.68228972632E+01  0.00000000000E+00 0.  1.
</event>
<event>
 7    1  0.1019486E-010  0.4778727E+02  0.7816164E-02  0.1312668E+00
        -11   -1    0    0    0    0  0.00000000000E+00  0.00000000000E+00  0.45593999997E+02  0.45594000000E+02  0.51100000000E-03 0. -1.
         11   -1    0    0    0    0 -0.00000000000E+00 -0.00000000000E+00 -0.45593999997E+02  0.45594000000E+02  0.51100000000E-03 0.  1.
    9900012    2    1    2    0    0 -0.90761317456E+01  0.10288385310E+02 -0.41175189490E+02  0.47787271097E+02  0.20000000240E+02 0.  0.
         12    1    1    2    0    0  0.90761317456E+01 -0.10288385310E+02  0.41175189490E+02  0.43400728903E+02  0.00000000000E+00 0. -1.
         11    1    3    3    0    0 -0.60014312079E+01  0.96956640384E+01 -0.20984167434E+02  0.23882176636E+02  0.51100000000E-03 0.  1.
        -11    1    3    3    0    0  0.15357671996E+01 -0.49086010519E+01 -0.53603164445E+01  0.74287238355E+01  0.51100000000E-03 0. -1.
         12    1    3    3    0    0 -0.46104677374E+01  0.55013223240E+01 -0.14830705612E+02  0.16476370626E+02  0.00000000000E+00 0. -1.
</event>
<event>
 7    1  0.1019486E-010  0.4778727E+02  0.7816164E-02  0.1312668E+00
        -11   -1    0    0    0    0  0.00000000000E+00  0.00000000000E+00  0.45593999997E+02  0.45594000000E+02  0.51100000000E-03 0. -1.
         11   -1    0    0    0    0 -0.00000000000E+00 -0.00000000000E+00 -0.45593999997E+02  0.45594000000E+02  0.51100000000E-03 0.  1.
    9900012    2    1    2    0    0 -0.23052991013E+01  0.13583493472E+02  0.41155770365E+02  0.47787272666E+02  0.20000007391E+02 0.  0.
        -12    1    1    2    0    0  0.23052991013E+01 -0.13583493472E+02 -0.41155770365E+02  0.43400727334E+02  0.00000000000E+00 0.  1.
         11    1    3    3    0    0  0.35143217455E+01  0.11558206381E+02  0.20491914222E+02  0.23787835984E+02  0.51100000000E-03 0.  1.
        -11    1    3    3    0    0 -0.30576328299E+01 -0.31263635005E+01  0.27735364583E+01  0.51783947326E+01  0.51100000000E-03 0. -1.
         12    1    3    3    0    0 -0.27619880168E+01  0.51516505911E+01  0.17890319685E+02  0.18821041949E+02  0.00000000000E+00 0. -1.
</event>
<event>
 7    1  0.1019486E-010  0.4778726E+02  0.7816164E-02  0.1312668E+00
        -11   -1    0    0    0    0  0.00000000000E+00  0.00000000000E+00  0.45593999997E+02  0.45594000000E+02  0.51100000000E-03 0. -1.
         11   -1    0    0    0    0 -0.00000000000E+00 -0.00000000000E+00 -0.45593999997E+02  0.45594000000E+02  0.51100000000E-03 0.  1.
    9900012    2    1    2    0    0 -0.14972813533E+02 -0.38330131700E+02  0.13792758640E+02  0.47787258853E+02  0.19999944414E+02 0.  0.
        -12    1    1    2    0    0  0.14972813533E+02  0.38330131700E+02 -0.13792758640E+02  0.43400741147E+02  0.00000000000E+00 0.  1.
         11    1    3    3    0    0 -0.27712334662E+01  0.15445154369E+01 -0.36246657367E+00  0.31932186172E+01  0.51100000000E-03 0.  1.
        -11    1    3    3    0    0 -0.23041538647E+01 -0.38827882141E+01  0.36784131227E+01  0.58237352885E+01  0.51100000000E-03 0. -1.
         12    1    3    3    0    0 -0.98974262024E+01 -0.35991858923E+02  0.10476812091E+02  0.38770304947E+02  0.00000000000E+00 0. -1.
</event>
<event>
 7    1  0.1019486E-010  0.4778727E+02  0.7816164E-02  0.1312668E+00
        -11   -1    0    0    0    0  0.00000000000E+00  0.00000000000E+00  0.45593999997E+02  0.45594000000E+02  0.51100000000E-03 0. -1.
         11   -1    0    0    0    0 -0.00000000000E+00 -0.00000000000E+00 -0.45593999997E+02  0.45594000000E+02  0.51100000000E-03 0.  1.
    9900012    2    1    2    0    0 -0.17665870684E+02 -0.24243465325E+02  0.31365499336E+02  0.47787272511E+02  0.20000006686E+02 0.  0.
        -12    1    1    2    0    0  0.17665870684E+02  0.24243465325E+02 -0.31365499336E+02  0.43400727489E+02  0.00000000000E+00 0.  1.
         11    1    3    3    0    0  0.26485954454E+01 -0.50702033556E+01  0.97111327361E+01  0.11270675187E+02  0.51100000000E-03 0.  1.
        -11    1    3    3    0    0 -0.46251554988E+01 -0.10475377941E+02  0.89733149725E+01  0.14548057886E+02  0.51100000000E-03 0. -1.
         12    1    3    3    0    0 -0.15689310630E+02 -0.86978840277E+01  0.12681051628E+02  0.21968539437E+02  0.00000000000E+00 0. -1.
</event>
<event>
 7    1  0.1019486E-010  0.4778727E+02  0.7816164E-02  0.1312668E+00
        -11   -1    0    0    0    0  0.00000000000E+00  0.00000000000E+00  0.45593999997E+02  0.45594000000E+02  0.51100000000E-03 0.  1.
         11   -1    0    0    0    0 -0.00000000000E+00 -0.00000000000E+00 -0.45593999997E+02  0.45594000000E+02  0.51100000000E-03 0. -1.
    9900012    2    1    2    0    0 -0.28577484347E+02 -0.28580361275E+02  0.15814978747E+02  0.47787271723E+02  0.20000003094E+02 0.  0.
        -12    1    1    2    0    0  0.28577484347E+02  0.28580361275E+02 -0.15814978747E+02  0.43400728277E+02  0.00000000000E+00 0.  1.
         11    1    3    3    0    0 -0.25223258163E+01  0.14350510925E+01 -0.15249905846E+01  0.32782763315E+01  0.51100000000E-03 0. -1.
        -11    1    3    3    0    0 -0.16896209822E+02 -0.15553920540E+02  0.14492757683E+02  0.27155963913E+02  0.51100000000E-03 0.  1.
         12    1    3    3    0    0 -0.91589487084E+01 -0.14461491828E+02  0.28472116480E+01  0.17353031478E+02  0.00000000000E+00 0. -1.
</event>
<event>
 7    1  0.1019486E-010  0.4778727E+02  0.7816164E-02  0.1312668E+00
        -11   -1    0    0    0    0  0.00000000000E+00  0.00000000000E+00  0.45593999997E+02  0.45594000000E+02  0.51100000000E-03 0. -1.
         11   -1    0    0    0    0 -0.00000000000E+00 -0.00000000000E+00 -0.45593999997E+02  0.45594000000E+02  0.51100000000E-03 0.  1.
    9900012    2    1    2    0    0  0.62564020329E+01  0.28674283587E+02 -0.31972895653E+02  0.47787272333E+02  0.20000005873E+02 0.  0.
         12    1    1    2    0    0 -0.62564020329E+01 -0.28674283587E+02  0.31972895653E+02  0.43400727667E+02  0.00000000000E+00 0. -1.
         11    1    3    3    0    0 -0.39824547094E+00  0.11366075639E+01  0.10497070005E+01  0.15976111096E+01  0.51100000000E-03 0. -1.
        -11    1    3    3    0    0  0.28652387596E+01  0.16067972444E+02 -0.75191512788E+01  0.17970168831E+02  0.51100000000E-03 0.  1.
        -12    1    3    3    0    0  0.37894087442E+01  0.11469703579E+02 -0.25503451375E+02  0.28219492392E+02  0.00000000000E+00 0.  1.
</event>
<event>
 7    1  0.1019486E-010  0.4778727E+02  0.7816164E-02  0.1312668E+00
        -11   -1    0    0    0    0  0.00000000000E+00  0.00000000000E+00  0.45593999997E+02  0.45594000000E+02  0.51100000000E-03 0.  1.
         11   -1    0    0    0    0 -0.00000000000E+00 -0.00000000000E+00 -0.45593999997E+02  0.45594000000E+02  0.51100000000E-03 0. -1.
    9900012    2    1    2    0    0 -0.30136785410E+02 -0.30968909988E+02  0.40403307289E+01  0.47787268519E+02  0.19999988484E+02 0.  0.
        -12    1    1    2    0    0  0.30136785410E+02  0.30968909988E+02 -0.40403307289E+01  0.43400731481E+02  0.00000000000E+00 0.  1.
         11    1    3    3    0    0 -0.41883753681E+01 -0.18204237229E+01  0.15765167599E+00  0.45696044760E+01  0.51100000000E-03 0. -1.
        -11    1    3    3    0    0 -0.25414261953E+02 -0.24153172657E+02 -0.24358780657E+01  0.35145326321E+02  0.51100000000E-03 0.  1.
        -12    1    3    3    0    0 -0.53414808920E+00 -0.49953136081E+01  0.63185571186E+01  0.80723377212E+01  0.00000000000E+00 0.  1.
</event>
<event>
 7    1  0.1019486E-010  0.4778727E+02  0.7816164E-02  0.1312668E+00
        -11   -1    0    0    0    0  0.00000000000E+00  0.00000000000E+00  0.45593999997E+02  0.45594000000E+02  0.51100000000E-03 0.  1.
         11   -1    0    0    0    0 -0.00000000000E+00 -0.00000000000E+00 -0.45593999997E+02  0.45594000000E+02  0.51100000000E-03 0. -1.
    9900012    2    1    2    0    0  0.13250039947E+02  0.35143524853E+02 -0.21748385367E+02  0.47787272313E+02  0.20000005783E+02 0.  0.
         12    1    1    2    0    0 -0.13250039947E+02 -0.35143524853E+02  0.21748385367E+02  0.43400727687E+02  0.00000000000E+00 0. -1.
         11    1    3    3    0    0  0.12222401702E+02  0.19414393371E+02 -0.55883733933E+01  0.23612193689E+02  0.51100000000E-03 0. -1.
        -11    1    3    3    0    0  0.14345698165E+01  0.10035439758E+02 -0.42977439253E+01  0.11010842148E+02  0.51100000000E-03 0.  1.
         12    1    3    3    0    0 -0.40693157168E+00  0.56936917235E+01 -0.11862268048E+02  0.13164236476E+02  0.00000000000E+00 0. -1.
</event>
<event>
 7    1  0.1019486E-010  0.4778729E+02  0.7816164E-02  0.1312668E+00
        -11   -1    0    0    0    0  0.00000000000E+00  0.00000000000E+00  0.45593999997E+02  0.45594000000E+02  0.51100000000E-03 0. -1.
         11   -1    0    0    0    0 -0.00000000000E+00 -0.00000000000E+00 -0.45593999997E+02  0.45594000000E+02  0.51100000000E-03 0.  1.
    9900012    2    1    2    0    0  0.40272161230E+02 -0.65731111691E+01  0.14784085063E+02  0.47787286507E+02  0.20000070500E+02 0.  0.
        -12    1    1    2    0    0 -0.40272161230E+02  0.65731111691E+01 -0.14784085063E+02  0.43400713493E+02  0.00000000000E+00 0.  1.
         11    1    3    3    0    0  0.48448055365E+01  0.44980153038E+01  0.95279341699E+00  0.66792288414E+01  0.51100000000E-03 0. -1.
        -11    1    3    3    0    0  0.10380842894E+01 -0.23974144508E+01 -0.81486913949E+00  0.27366452120E+01  0.51100000000E-03 0.  1.
         12    1    3    3    0    0  0.34389271404E+02 -0.86737120221E+01  0.14646160785E+02  0.38371412454E+02  0.00000000000E+00 0. -1.
</event>
<event>
 7    1  0.1019486E-010  0.4778727E+02  0.7816164E-02  0.1312668E+00
        -11   -1    0    0    0    0  0.00000000000E+00  0.00000000000E+00  0.45593999997E+02  0.45594000000E+02  0.51100000000E-03 0.  1.
         11   -1    0    0    0    0 -0.00000000000E+00 -0.00000000000E+00 -0.45593999997E+02  0.45594000000E+02  0.51100000000E-03 0. -1.
    9900012    2    1    2    0    0 -0.17529528738E+02  0.38290641847E+02 -0.10495978243E+02  0.47787272009E+02  0.20000004399E+02 0.  0.
        -12    1    1    2    0    0  0.17529528738E+02 -0.38290641847E+02  0.10495978243E+02  0.43400727991E+02  0.00000000000E+00 0.  1.
         11    1    3    3    0    0 -0.11941763344E+02  0.34813229636E+02 -0.11140287687E+02  0.38453513226E+02  0.51100000000E-03 0. -1.
        -11    1    3    3    0    0 -0.64563605048E+01  0.17215544079E+01 -0.10249092401E+01  0.67600872597E+01  0.51100000000E-03 0.  1.
        -12    1    3    3    0    0  0.86859511148E+00  0.17558578039E+01  0.16692186841E+01  0.25736715234E+01  0.00000000000E+00 0.  1.
</event>
<event>
 7    1  0.1019486E-010  0.4778727E+02  0.7816164E-02  0.1312668E+00
        -11   -1    0    0    0    0  0.00000000000E+00  0.00000000000E+00  0.45593999997E+02  0.45594000000E+02  0.51100000000E-03 0.  1.
         11   -1    0    0    0    0 -0.00000000000E+00 -0.00000000000E+00 -0.45593999997E+02  0.45594000000E+02  0.51100000000E-03 0. -1.
    9900012    2    1    2    0    0 -0.10337901389E+02 -0.35595721004E+02 -0.22576448326E+02  0.47787267542E+02  0.19999984030E+02 0.  0.
         12    1    1    2    0    0  0.10337901389E+02  0.35595721004E+02  0.22576448326E+02  0.43400732458E+02  0.00000000000E+00 0. -1.
         11    1    3    3    0    0  0.20328708647E+01 -0.12399900820E+02  0.25125741214E+00  0.12567944734E+02  0.51100000000E-03 0. -1.
        -11    1    3    3    0    0 -0.81474385141E+01 -0.11721860284E+02 -0.95799477587E+01  0.17191805088E+02  0.51100000000E-03 0.  1.
         12    1    3    3    0    0 -0.42233337391E+01 -0.11473959900E+02 -0.13247757979E+02  0.18027517720E+02  0.00000000000E+00 0. -1.
</event>
<event>
 7    1  0.1019486E-010  0.4778726E+02  0.7816164E-02  0.1312668E+00
        -11   -1    0    0    0    0  0.00000000000E+00  0.00000000000E+00  0.45593999997E+02  0.45594000000E+02  0.51100000000E-03 0. -1.
         11   -1    0    0    0    0 -0.00000000000E+00 -0.00000000000E+00 -0.45593999997E+02  0.45594000000E+02  0.51100000000E-03 0.  1.
    9900012    2    1    2    0    0 -0.38088591945E+01 -0.25747041816E+02  0.34730479889E+02  0.47787264937E+02  0.19999972155E+02 0.  0.
        -12    1    1    2    0    0  0.38088591945E+01  0.25747041816E+02 -0.34730479889E+02  0.43400735063E+02  0.00000000000E+00 0.  1.
         11    1    3    3    0    0 -0.82347678328E+01 -0.34672241814E+01  0.84683869324E+01  0.12310427380E+02  0.51100000000E-03 0. -1.
        -11    1    3    3    0    0  0.57340328523E+01 -0.21504983120E+02  0.25205881334E+02  0.33625583799E+02  0.51100000000E-03 0.  1.
        -12    1    3    3    0    0 -0.13081242140E+01 -0.77483451485E+00  0.10562116231E+01  0.18512537582E+01  0.00000000000E+00 0.  1.
</event>
<event>
 7    1  0.1019486E-010  0.4778730E+02  0.7816164E-02  0.1312668E+00
        -11   -1    0    0    0    0  0.00000000000E+00  0.00000000000E+00  0.45593999997E+02  0.45594000000E+02  0.51100000000E-03 0. -1.
         11   -1    0    0    0    0 -0.00000000000E+00 -0.00000000000E+00 -0.45593999997E+02  0.45594000000E+02  0.51100000000E-03 0.  1.
    9900012    2    1    2    0    0 -0.26048042139E+02  0.30306301345E+02  0.16930680626E+02  0.47787304764E+02  0.20000153742E+02 0.  0.
        -12    1    1    2    0    0  0.26048042139E+02 -0.30306301345E+02 -0.16930680626E+02  0.43400695236E+02  0.00000000000E+00 0.  1.
         11    1    3    3    0    0 -0.19658929959E+02  0.25515372159E+02  0.96231295460E+01  0.33617143931E+02  0.51100000000E-03 0. -1.
        -11    1    3    3    0    0 -0.10129984943E+01 -0.17899520911E+01  0.49366128814E+01  0.53479193561E+01  0.51100000000E-03 0.  1.
        -12    1    3    3    0    0 -0.53761136858E+01  0.65808812768E+01  0.23709381990E+01  0.88222414774E+01  0.00000000000E+00 0.  1.
</event>
<event>
 7    1  0.1019486E-010  0.4778727E+02  0.7816164E-02  0.1312668E+00
        -11   -1    0    0    0    0  0.00000000000E+00  0.00000000000E+00  0.45593999997E+02  0.45594000000E+02  0.51100000000E-03 0. -1.
         11   -1    0    0    0    0 -0.00000000000E+00 -0.00000000000E+00 -0.45593999997E+02  0.45594000000E+02  0.51100000000E-03 0.  1.
    9900012    2    1    2    0    0 -0.16561206619E+02 -0.31970266578E+01  0.39989104209E+02  0.47787274205E+02  0.20000014408E+02 0.  0.
        -12    1    1    2    0    0  0.16561206619E+02  0.31970266578E+01 -0.39989104209E+02  0.43400725795E+02  0.00000000000E+00 0.  1.
         11    1    3    3    0    0 -0.61685781823E+01  0.40979896558E+01  0.23160385040E+01  0.77594400973E+01  0.51100000000E-03 0. -1.
        -11    1    3    3    0    0 -0.99428217377E+01 -0.49103817137E+01  0.30281453999E+02  0.32248069853E+02  0.51100000000E-03 0.  1.
        -12    1    3    3    0    0 -0.44980669939E+00 -0.23846345999E+01  0.73916117056E+01  0.77797642540E+01  0.00000000000E+00 0.  1.
</event>
<event>
 7    1  0.1307084E-010  0.4778727E+02  0.7816164E-02  0.1312668E+00
        -11   -1    0    0    0    0  0.00000000000E+00  0.00000000000E+00  0.45593999997E+02  0.45594000000E+02  0.51100000000E-03 0. -1.
         11   -1    0    0    0    0 -0.00000000000E+00 -0.00000000000E+00 -0.45593999997E+02  0.45594000000E+02  0.51100000000E-03 0.  1.
    9900012    2    1    2    0    0 -0.28233490767E+01  0.16210369065E+01 -0.43278448485E+02  0.47787272311E+02  0.20000005774E+02 0.  0.
         12    1    1    2    0    0  0.28233490767E+01 -0.16210369065E+01  0.43278448485E+02  0.43400727689E+02  0.00000000000E+00 0. -1.
         11    1    3    3    0    0 -0.60357750959E+01 -0.32885277292E+01 -0.14015993585E+02  0.15610671737E+02  0.51100000000E-03 0.  1.
        -11    1    3    3    0    0  0.58609774729E+01  0.16929406008E+00 -0.23655271550E+02  0.24371122046E+02  0.51100000000E-03 0. -1.
         12    1    3    3    0    0 -0.26485514538E+01  0.47402705756E+01 -0.56071833505E+01  0.78054785286E+01  0.00000000000E+00 0. -1.
</event>
<event>
 7    1  0.1019486E-010  0.4778727E+02  0.7816164E-02  0.1312668E+00
        -11   -1    0    0    0    0  0.00000000000E+00  0.00000000000E+00  0.45593999997E+02  0.45594000000E+02  0.51100000000E-03 0.  1.
         11   -1    0    0    0    0 -0.00000000000E+00 -0.00000000000E+00 -0.45593999997E+02  0.45594000000E+02  0.51100000000E-03 0. -1.
    9900012    2    1    2    0    0  0.26122840820E+02  0.34465982158E+02 -0.36491717962E+01  0.47787271971E+02  0.20000004225E+02 0.  0.
         12    1    1    2    0    0 -0.26122840820E+02 -0.34465982158E+02  0.36491717962E+01  0.43400728029E+02  0.00000000000E+00 0. -1.
         11    1    3    3    0    0  0.15751468725E+02  0.68777313787E+01  0.28880294602E+01  0.17428501667E+02  0.51100000000E-03 0. -1.
        -11    1    3    3    0    0  0.69233582339E-01  0.27924154668E+01 -0.73097481183E+00  0.28873347338E+01  0.51100000000E-03 0.  1.
         12    1    3    3    0    0  0.10302138513E+02  0.24795835312E+02 -0.58062264446E+01  0.27471435571E+02  0.00000000000E+00 0. -1.
</event>
<event>
 7    1  0.1019486E-010  0.4778727E+02  0.7816164E-02  0.1312668E+00
        -11   -1    0    0    0    0  0.00000000000E+00  0.00000000000E+00  0.45593999997E+02  0.45594000000E+02  0.51100000000E-03 0.  1.
         11   -1    0    0    0    0 -0.00000000000E+00 -0.00000000000E+00 -0.45593999997E+02  0.45594000000E+02  0.51100000000E-03 0. -1.
    9900012    2    1    2    0    0 -0.27376888727E+02  0.26971446816E+02 -0.20166068292E+02  0.47787270858E+02  0.19999999149E+02 0.  0.
         12    1    1    2    0    0  0.27376888727E+02 -0.26971446816E+02  0.20166068292E+02  0.43400729142E+02  0.00000000000E+00 0. -1.
         11    1    3    3    0    0 -0.13478011491E+02  0.10093187418E+02 -0.12043462909E+02  0.20702034323E+02  0.51100000000E-03 0. -1.
        -11    1    3    3    0    0 -0.51715493165E+01  0.16289382179E+02 -0.54748134828E+01  0.17946099215E+02  0.51100000000E-03 0.  1.
        -12    1    3    3    0    0 -0.87273279194E+01  0.58887721813E+00 -0.26477919000E+01  0.91391373191E+01  0.00000000000E+00 0.  1.
</event>
<event>
 7    1  0.1019486E-010  0.4778727E+02  0.7816164E-02  0.1312668E+00
        -11   -1    0    0    0    0  0.00000000000E+00  0.00000000000E+00  0.45593999997E+02  0.45594000000E+02  0.51100000000E-03 0. -1.
         11   -1    0    0    0    0 -0.00000000000E+00 -0.00000000000E+00 -0.45593999997E+02  0.45594000000E+02  0.51100000000E-03 0.  1.
    9900012    2    1    2    0    0 -0.36930071022E+02 -0.81384482805E+01 -0.21296919194E+02  0.47787271282E+02  0.20000001083E+02 0.  0.
         12    1    1    2    0    0  0.36930071022E+02  0.81384482805E+01  0.21296919194E+02  0.43400728718E+02  0.00000000000E+00 0. -1.
         11    1    3    3    0    0 -0.34094144214E+02 -0.32295744231E+01 -0.21599834631E+02  0.40489426730E+02  0.51100000000E-03 0. -1.
        -11    1    3    3    0    0 -0.24339597167E+01 -0.20605774990E+00 -0.54397657145E+00  0.25025048392E+01  0.51100000000E-03 0.  1.
         12    1    3    3    0    0 -0.40196709133E+00 -0.47028161075E+01  0.84689200793E+00  0.47953397123E+01  0.00000000000E+00 0. -1.
</event>
<event>
 7    1  0.1019486E-010  0.4778728E+02  0.7816164E-02  0.1312668E+00
        -11   -1    0    0    0    0  0.00000000000E+00  0.00000000000E+00  0.45593999997E+02  0.45594000000E+02  0.51100000000E-03 0. -1.
         11   -1    0    0    0    0 -0.00000000000E+00 -0.00000000000E+00 -0.45593999997E+02  0.45594000000E+02  0.51100000000E-03 0.  1.
    9900012    2    1    2    0    0 -0.19521644274E+02 -0.22535368245E+02  0.31538632896E+02  0.47787276710E+02  0.20000025833E+02 0.  0.
        -12    1    1    2    0    0  0.19521644274E+02  0.22535368245E+02 -0.31538632896E+02  0.43400723290E+02  0.00000000000E+00 0.  1.
         11    1    3    3    0    0 -0.12206784509E+02 -0.40071331351E+01  0.65699443714E+01  0.14430068375E+02  0.51100000000E-03 0. -1.
        -11    1    3    3    0    0  0.55058822766E+00 -0.90623388374E+01  0.14935463434E+02  0.17478478219E+02  0.51100000000E-03 0.  1.
        -12    1    3    3    0    0 -0.78654479934E+01 -0.94658962730E+01  0.10033225090E+02  0.15878730116E+02  0.00000000000E+00 0.  1.
</event>
<event>
 7    1  0.1019486E-010  0.4778727E+02  0.7816164E-02  0.1312668E+00
        -11   -1    0    0    0    0  0.00000000000E+00  0.00000000000E+00  0.45593999997E+02  0.45594000000E+02  0.51100000000E-03 0. -1.
         11   -1    0    0    0    0 -0.00000000000E+00 -0.00000000000E+00 -0.45593999997E+02  0.45594000000E+02  0.51100000000E-03 0.  1.
    9900012    2    1    2    0    0  0.14235840214E+02  0.31901943188E+02 -0.25753252301E+02  0.47787272704E+02  0.20000007565E+02 0.  0.
         12    1    1    2    0    0 -0.14235840214E+02 -0.31901943188E+02  0.25753252301E+02  0.43400727296E+02  0.00000000000E+00 0. -1.
         11    1    3    3    0    0  0.38847874557E+00 -0.48136344502E+00  0.37457041280E+00  0.72313882293E+00  0.51100000000E-03 0. -1.
        -11    1    3    3    0    0  0.41399939043E+00  0.18723765557E+02 -0.70055584732E+01  0.19995715589E+02  0.51100000000E-03 0.  1.
        -12    1    3    3    0    0  0.13433362078E+02  0.13659541076E+02 -0.19122264240E+02  0.27068418292E+02  0.00000000000E+00 0.  1.
</event>
<event>
 7    1  0.1019486E-010  0.4778726E+02  0.7816164E-02  0.1312668E+00
        -11   -1    0    0    0    0  0.00000000000E+00  0.00000000000E+00  0.45593999997E+02  0.45594000000E+02  0.51100000000E-03 0. -1.
         11   -1    0    0    0    0 -0.00000000000E+00 -0.00000000000E+00 -0.45593999997E+02  0.45594000000E+02  0.51100000000E-03 0.  1.
    9900012    2    1    2    0    0 -0.11256663316E+02  0.15117008020E+02  0.39094602547E+02  0.47787258660E+02  0.19999943536E+02 0.  0.
        -12    1    1    2    0    0  0.11256663316E+02 -0.15117008020E+02 -0.39094602547E+02  0.43400741340E+02  0.00000000000E+00 0.  1.
         11    1    3    3    0    0 -0.45033124625E+01  0.24282401186E+01  0.19045670503E+02  0.19720895983E+02  0.51100000000E-03 0. -1.
        -11    1    3    3    0    0 -0.81400603562E+01  0.12014478077E+02  0.93649183028E+01  0.17271651952E+02  0.51100000000E-03 0.  1.
        -12    1    3    3    0    0  0.13867095027E+01  0.67428982449E+00  0.10684013741E+02  0.10794710725E+02  0.00000000000E+00 0.  1.
</event>
<event>
 7    1  0.1019486E-010  0.4778727E+02  0.7816164E-02  0.1312668E+00
        -11   -1    0    0    0    0  0.00000000000E+00  0.00000000000E+00  0.45593999997E+02  0.45594000000E+02  0.51100000000E-03 0.  1.
         11   -1    0    0    0    0 -0.00000000000E+00 -0.00000000000E+00 -0.45593999997E+02  0.45594000000E+02  0.51100000000E-03 0. -1.
    9900012    2    1    2    0    0 -0.30053697138E+02 -0.29328691152E+02 -0.10964791119E+02  0.47787268662E+02  0.19999989138E+02 0.  0.
         12    1    1    2    0    0  0.30053697138E+02  0.29328691152E+02  0.10964791119E+02  0.43400731338E+02  0.00000000000E+00 0. -1.
         11    1    3    3    0    0  0.11538740042E+01 -0.24152235608E+01 -0.16641004036E+01  0.31518185990E+01  0.51100000000E-03 0. -1.
        -11    1    3    3    0    0 -0.25505857187E+02 -0.14287322740E+02 -0.29121011047E+01  0.29379528162E+02  0.51100000000E-03 0.  1.
        -12    1    3    3    0    0 -0.57017139557E+01 -0.12626144852E+02 -0.63885896103E+01  0.15255921901E+02  0.00000000000E+00 0.  1.
</event>
<event>
 7    1  0.1019486E-010  0.4778727E+02  0.7816164E-02  0.1312668E+00
        -11   -1    0    0    0    0  0.00000000000E+00  0.00000000000E+00  0.45593999997E+02  0.45594000000E+02  0.51100000000E-03 0. -1.
         11   -1    0    0    0    0 -0.00000000000E+00 -0.00000000000E+00 -0.45593999997E+02  0.45594000000E+02  0.51100000000E-03 0.  1.
    9900012    2    1    2    0    0  0.31342305633E+02  0.22744331855E+02  0.19595372557E+02  0.47787269827E+02  0.19999994449E+02 0.  0.
        -12    1    1    2    0    0 -0.31342305633E+02 -0.22744331855E+02 -0.19595372557E+02  0.43400730173E+02  0.00000000000E+00 0.  1.
         11    1    3    3    0    0  0.11581813329E+02  0.14915802550E+02  0.72149078080E+01  0.20215698371E+02  0.51100000000E-03 0. -1.
        -11    1    3    3    0    0  0.54339250912E+01  0.18773019580E+01  0.10465152172E+02  0.11940318873E+02  0.51100000000E-03 0.  1.
        -12    1    3    3    0    0  0.14326567213E+02  0.59512273471E+01  0.19153125763E+01  0.15631252583E+02  0.00000000000E+00 0.  1.
</event>
<event>
 7    1  0.1019486E-010  0.4778727E+02  0.7816164E-02  0.1312668E+00
        -11   -1    0    0    0    0  0.00000000000E+00  0.00000000000E+00  0.45593999997E+02  0.45594000000E+02  0.51100000000E-03 0. -1.
         11   -1    0    0    0    0 -0.00000000000E+00 -0.00000000000E+00 -0.45593999997E+02  0.45594000000E+02  0.51100000000E-03 0.  1.
    9900012    2    1    2    0    0  0.13103211115E+01  0.77800025122E+01  0.42677606483E+02  0.47787268720E+02  0.19999989402E+02 0.  0.
        -12    1    1    2    0    0 -0.13103211115E+01 -0.77800025122E+01 -0.42677606483E+02  0.43400731280E+02  0.00000000000E+00 0.  1.
         11    1    3    3    0    0 -0.51367304018E+01 -0.30025755683E+00  0.66042602925E+01  0.83721208838E+01  0.51100000000E-03 0. -1.
        -11    1    3    3    0    0 -0.35174097024E+00 -0.26586650307E+01  0.10770838068E+02  0.11099692537E+02  0.51100000000E-03 0.  1.
        -12    1    3    3    0    0  0.67987924835E+01  0.10738925100E+02  0.25302508122E+02  0.28315455299E+02  0.00000000000E+00 0.  1.
</event>
<event>
 7    1  0.1019486E-010  0.4778727E+02  0.7816164E-02  0.1312668E+00
        -11   -1    0    0    0    0  0.00000000000E+00  0.00000000000E+00  0.45593999997E+02  0.45594000000E+02  0.51100000000E-03 0. -1.
         11   -1    0    0    0    0 -0.00000000000E+00 -0.00000000000E+00 -0.45593999997E+02  0.45594000000E+02  0.51100000000E-03 0.  1.
    9900012    2    1    2    0    0  0.21642084932E-01 -0.25521460055E+02 -0.35103815838E+02  0.47787270996E+02  0.19999999778E+02 0.  0.
         12    1    1    2    0    0 -0.21642084932E-01  0.25521460055E+02  0.35103815838E+02  0.43400729004E+02  0.00000000000E+00 0. -1.
         11    1    3    3    0    0  0.38168043264E+01 -0.32912840455E+01 -0.16130916555E+02  0.16899911689E+02  0.51100000000E-03 0.  1.
        -11    1    3    3    0    0 -0.53910076143E+01 -0.13006096590E+02 -0.71002659096E+01  0.15768173257E+02  0.51100000000E-03 0. -1.
         12    1    3    3    0    0  0.15958453728E+01 -0.92240794194E+01 -0.11872633373E+02  0.15119186049E+02  0.00000000000E+00 0. -1.
</event>
<event>
 7    1  0.1019486E-010  0.4778727E+02  0.7816164E-02  0.1312668E+00
        -11   -1    0    0    0    0  0.00000000000E+00  0.00000000000E+00  0.45593999997E+02  0.45594000000E+02  0.51100000000E-03 0. -1.
         11   -1    0    0    0    0 -0.00000000000E+00 -0.00000000000E+00 -0.45593999997E+02  0.45594000000E+02  0.51100000000E-03 0.  1.
    9900012    2    1    2    0    0  0.17850757939E+02 -0.13031304504E+02  0.37351821989E+02  0.47787273486E+02  0.20000011132E+02 0.  0.
        -12    1    1    2    0    0 -0.17850757939E+02  0.13031304504E+02 -0.37351821989E+02  0.43400726514E+02  0.00000000000E+00 0.  1.
         11    1    3    3    0    0  0.51718707041E+01 -0.58634112538E+01  0.93565855951E+01  0.12193175647E+02  0.51100000000E-03 0. -1.
        -11    1    3    3    0    0  0.11935469022E+02 -0.19326399783E+01  0.27785439227E+02  0.30302164137E+02  0.51100000000E-03 0.  1.
        -12    1    3    3    0    0  0.74341821239E+00 -0.52352532715E+01  0.20979716691E+00  0.52919337020E+01  0.00000000000E+00 0.  1.
</event>
<event>
 7    1  0.1019486E-010  0.4778727E+02  0.7816164E-02  0.1312668E+00
        -11   -1    0    0    0    0  0.00000000000E+00  0.00000000000E+00  0.45593999997E+02  0.45594000000E+02  0.51100000000E-03 0. -1.
         11   -1    0    0    0    0 -0.00000000000E+00 -0.00000000000E+00 -0.45593999997E+02  0.45594000000E+02  0.51100000000E-03 0.  1.
    9900012    2    1    2    0    0  0.33910561651E+02  0.21127736178E+02 -0.16950393337E+02  0.47787271184E+02  0.20000000637E+02 0.  0.
        -12    1    1    2    0    0 -0.33910561651E+02 -0.21127736178E+02  0.16950393337E+02  0.43400728816E+02  0.00000000000E+00 0.  1.
         11    1    3    3    0    0  0.99990419418E+01  0.22358517478E+01 -0.36983552854E+01  0.10893011745E+02  0.51100000000E-03 0. -1.
        -11    1    3    3    0    0  0.25482428551E+02  0.19945373734E+02 -0.13337512327E+02  0.35000876183E+02  0.51100000000E-03 0.  1.
        -12    1    3    3    0    0 -0.15709088422E+01 -0.10534893037E+01  0.85474275953E-01  0.18933832563E+01  0.00000000000E+00 0.  1.
</event>
<event>
 7    1  0.1019486E-010  0.4778727E+02  0.7816164E-02  0.1312668E+00
        -11   -1    0    0    0    0  0.00000000000E+00  0.00000000000E+00  0.45593999997E+02  0.45594000000E+02  0.51100000000E-03 0. -1.
         11   -1    0    0    0    0 -0.00000000000E+00 -0.00000000000E+00 -0.45593999997E+02  0.45594000000E+02  0.51100000000E-03 0.  1.
    9900012    2    1    2    0    0 -0.94979860733E+01  0.29109621883E+02 -0.30757781837E+02  0.47787274555E+02  0.20000016007E+02 0.  0.
         12    1    1    2    0    0  0.94979860733E+01 -0.29109621883E+02  0.30757781837E+02  0.43400725445E+02  0.00000000000E+00 0. -1.
         11    1    3    3    0    0 -0.16500440474E+01 -0.22377150171E+01 -0.21140689184E+01  0.34927498491E+01  0.51100000000E-03 0. -1.
        -11    1    3    3    0    0 -0.59344796411E+01  0.21684817721E+02 -0.13484157655E+02  0.26215870691E+02  0.51100000000E-03 0.  1.
         12    1    3    3    0    0 -0.19134623848E+01  0.96625191791E+01 -0.15159555264E+02  0.18078654015E+02  0.00000000000E+00 0. -1.
</event>
<event>
 7    1  0.1019486E-010  0.4778727E+02  0.7816164E-02  0.1312668E+00
        -11   -1    0    0    0    0  0.00000000000E+00  0.00000000000E+00  0.45593999997E+02  0.45594000000E+02  0.51100000000E-03 0. -1.
         11   -1    0    0    0    0 -0.00000000000E+00 -0.00000000000E+00 -0.45593999997E+02  0.45594000000E+02  0.51100000000E-03 0.  1.
    9900012    2    1    2    0    0 -0.22289661969E+02 -0.11768343748E+02 -0.35331298550E+02  0.47787267259E+02  0.19999982740E+02 0.  0.
         12    1    1    2    0    0  0.22289661969E+02  0.11768343748E+02  0.35331298550E+02  0.43400732741E+02  0.00000000000E+00 0. -1.
         11    1    3    3    0    0 -0.22490858313E+01 -0.68897078124E+01 -0.70318547191E+01  0.10098190029E+02  0.51100000000E-03 0. -1.
        -11    1    3    3    0    0 -0.94870727735E+01 -0.26049095873E+01 -0.24231281461E+02  0.26152344164E+02  0.51100000000E-03 0.  1.
        -12    1    3    3    0    0 -0.10553503364E+02 -0.22737263483E+01 -0.40681623699E+01  0.11536733066E+02  0.00000000000E+00 0.  1.
</event>
<event>
 7    1  0.1019486E-010  0.4778727E+02  0.7816164E-02  0.1312668E+00
        -11   -1    0    0    0    0  0.00000000000E+00  0.00000000000E+00  0.45593999997E+02  0.45594000000E+02  0.51100000000E-03 0. -1.
         11   -1    0    0    0    0 -0.00000000000E+00 -0.00000000000E+00 -0.45593999997E+02  0.45594000000E+02  0.51100000000E-03 0.  1.
    9900012    2    1    2    0    0  0.18597175043E+02 -0.14641122271E+02  0.36378648245E+02  0.47787269256E+02  0.19999991848E+02 0.  0.
        -12    1    1    2    0    0 -0.18597175043E+02  0.14641122271E+02 -0.36378648245E+02  0.43400730744E+02  0.00000000000E+00 0.  1.
         11    1    3    3    0    0  0.34907670792E+01 -0.73495072659E+01  0.10841974151E+02  0.13555409090E+02  0.51100000000E-03 0. -1.
        -11    1    3    3    0    0  0.69211735270E+01 -0.29875621932E+01  0.23611545595E+02  0.24785747043E+02  0.51100000000E-03 0.  1.
        -12    1    3    3    0    0  0.81852344368E+01 -0.43040528119E+01  0.19251284993E+01  0.94461131230E+01  0.00000000000E+00 0.  1.
</event>
<event>
 7    1  0.1019486E-010  0.4778727E+02  0.7816164E-02  0.1312668E+00
        -11   -1    0    0    0    0  0.00000000000E+00  0.00000000000E+00  0.45593999997E+02  0.45594000000E+02  0.51100000000E-03 0. -1.
         11   -1    0    0    0    0 -0.00000000000E+00 -0.00000000000E+00 -0.45593999997E+02  0.45594000000E+02  0.51100000000E-03 0.  1.
    9900012    2    1    2    0    0  0.17020759818E+02  0.28358525590E+02  0.28101798196E+02  0.47787270741E+02  0.19999998614E+02 0.  0.
        -12    1    1    2    0    0 -0.17020759818E+02 -0.28358525590E+02 -0.28101798196E+02  0.43400729259E+02  0.00000000000E+00 0.  1.
         11    1    3    3    0    0  0.16021011018E+02  0.19389745191E+02  0.12626717165E+02  0.28143720423E+02  0.51100000000E-03 0. -1.
        -11    1    3    3    0    0 -0.15066935155E+01  0.43555052055E+01  0.17177695025E+01  0.49184635069E+01  0.51100000000E-03 0.  1.
         12    1    3    3    0    0  0.25064423148E+01  0.46132751933E+01  0.13757311528E+02  0.14725086810E+02  0.00000000000E+00 0. -1.
</event>
<event>
 7    1  0.1019486E-010  0.4778727E+02  0.7816164E-02  0.1312668E+00
        -11   -1    0    0    0    0  0.00000000000E+00  0.00000000000E+00  0.45593999997E+02  0.45594000000E+02  0.51100000000E-03 0.  1.
         11   -1    0    0    0    0 -0.00000000000E+00 -0.00000000000E+00 -0.45593999997E+02  0.45594000000E+02  0.51100000000E-03 0. -1.
    9900012    2    1    2    0    0  0.23394610205E+02 -0.32238167131E+02 -0.17234153662E+02  0.47787271215E+02  0.20000000779E+02 0.  0.
        -12    1    1    2    0    0 -0.23394610205E+02  0.32238167131E+02  0.17234153662E+02  0.43400728785E+02  0.00000000000E+00 0.  1.
         11    1    3    3    0    0  0.94588944769E+01 -0.10289784895E+02 -0.14233613886E+02  0.19948586978E+02  0.51100000000E-03 0. -1.
        -11    1    3    3    0    0  0.79786003329E+01 -0.14699055011E+02  0.25784140280E+01  0.16922425968E+02  0.51100000000E-03 0.  1.
        -12    1    3    3    0    0  0.59571153957E+01 -0.72493272246E+01 -0.55789538037E+01  0.10916258269E+02  0.00000000000E+00 0.  1.
</event>
<event>
 7    1  0.1019486E-010  0.4778727E+02  0.7816164E-02  0.1312668E+00
        -11   -1    0    0    0    0  0.00000000000E+00  0.00000000000E+00  0.45593999997E+02  0.45594000000E+02  0.51100000000E-03 0. -1.
         11   -1    0    0    0    0 -0.00000000000E+00 -0.00000000000E+00 -0.45593999997E+02  0.45594000000E+02  0.51100000000E-03 0.  1.
    9900012    2    1    2    0    0  0.10386710599E+02 -0.36062346398E+02  0.21800157030E+02  0.47787269230E+02  0.19999991728E+02 0.  0.
        -12    1    1    2    0    0 -0.10386710599E+02  0.36062346398E+02 -0.21800157030E+02  0.43400730770E+02  0.00000000000E+00 0.  1.
         11    1    3    3    0    0  0.40279187976E+01 -0.13906402749E+02  0.11988611719E+02  0.18797313065E+02  0.51100000000E-03 0. -1.
        -11    1    3    3    0    0  0.50453832526E+00 -0.94174812542E+00 -0.32345748358E+01  0.34064531529E+01  0.51100000000E-03 0.  1.
        -12    1    3    3    0    0  0.58542534762E+01 -0.21214195524E+02  0.13046120147E+02  0.25583503012E+02  0.00000000000E+00 0.  1.
</event>
<event>
 7    1  0.1019486E-010  0.4778727E+02  0.7816164E-02  0.1312668E+00
        -11   -1    0    0    0    0  0.00000000000E+00  0.00000000000E+00  0.45593999997E+02  0.45594000000E+02  0.51100000000E-03 0. -1.
         11   -1    0    0    0    0 -0.00000000000E+00 -0.00000000000E+00 -0.45593999997E+02  0.45594000000E+02  0.51100000000E-03 0.  1.
    9900012    2    1    2    0    0  0.75854888220E+01 -0.16496377470E+02  0.39420212744E+02  0.47787270938E+02  0.19999999515E+02 0.  0.
        -12    1    1    2    0    0 -0.75854888220E+01  0.16496377470E+02 -0.39420212744E+02  0.43400729062E+02  0.00000000000E+00 0.  1.
         11    1    3    3    0    0  0.21224728468E+01 -0.41423165858E+00  0.30856493113E+01  0.37679849768E+01  0.51100000000E-03 0. -1.
        -11    1    3    3    0    0  0.73378661304E+01 -0.19244434799E+01  0.23927594373E+02  0.25101345278E+02  0.51100000000E-03 0.  1.
        -12    1    3    3    0    0 -0.18748501552E+01 -0.14157702332E+02  0.12406969060E+02  0.18917940683E+02  0.00000000000E+00 0.  1.
</event>
<event>
 7    1  0.1121471E-010  0.4778727E+02  0.7816164E-02  0.1312668E+00
        -11   -1    0    0    0    0  0.00000000000E+00  0.00000000000E+00  0.45593999997E+02  0.45594000000E+02  0.51100000000E-03 0. -1.
         11   -1    0    0    0    0 -0.00000000000E+00 -0.00000000000E+00 -0.45593999997E+02  0.45594000000E+02  0.51100000000E-03 0.  1.
    9900012    2    1    2    0    0  0.27178129745E+01  0.21903606648E+02 -0.37369355862E+02  0.47787271330E+02  0.20000001300E+02 0.  0.
         12    1    1    2    0    0 -0.27178129745E+01 -0.21903606648E+02  0.37369355862E+02  0.43400728670E+02  0.00000000000E+00 0. -1.
         11    1    3    3    0    0 -0.25468688480E+01 -0.66144768714E+00  0.63638871785E-01  0.26321292025E+01  0.51100000000E-03 0. -1.
        -11    1    3    3    0    0  0.53144669435E+01  0.63867620681E+01 -0.18307585256E+02  0.20104774725E+02  0.51100000000E-03 0.  1.
         12    1    3    3    0    0 -0.49785121096E-01  0.16178292267E+02 -0.19125409478E+02  0.25050367402E+02  0.00000000000E+00 0. -1.
</event>
<event>
 7    1  0.1019486E-010  0.4778727E+02  0.7816164E-02  0.1312668E+00
        -11   -1    0    0    0    0  0.00000000000E+00  0.00000000000E+00  0.45593999997E+02  0.45594000000E+02  0.51100000000E-03 0.  1.
         11   -1    0    0    0    0 -0.00000000000E+00 -0.00000000000E+00 -0.45593999997E+02  0.45594000000E+02  0.51100000000E-03 0. -1.
    9900012    2    1    2    0    0 -0.27469674646E+02  0.16654380312E+02  0.29183417053E+02  0.47787271439E+02  0.20000001799E+02 0.  0.
        -12    1    1    2    0    0  0.27469674646E+02 -0.16654380312E+02 -0.29183417053E+02  0.43400728561E+02  0.00000000000E+00 0.  1.
         11    1    3    3    0    0 -0.20685544978E+02  0.19864568272E+02  0.17668102874E+02  0.33684636009E+02  0.51100000000E-03 0. -1.
        -11    1    3    3    0    0 -0.38190284629E+01 -0.34592075181E+01  0.69103641911E+01  0.86199900562E+01  0.51100000000E-03 0.  1.
         12    1    3    3    0    0 -0.29651012057E+01  0.24901955850E+00  0.46049499882E+01  0.54826453738E+01  0.00000000000E+00 0. -1.
</event>
<event>
 7    1  0.1019486E-010  0.4778727E+02  0.7816164E-02  0.1312668E+00
        -11   -1    0    0    0    0  0.00000000000E+00  0.00000000000E+00  0.45593999997E+02  0.45594000000E+02  0.51100000000E-03 0. -1.
         11   -1    0    0    0    0 -0.00000000000E+00 -0.00000000000E+00 -0.45593999997E+02  0.45594000000E+02  0.51100000000E-03 0.  1.
    9900012    2    1    2    0    0 -0.12384131289E+01 -0.35174350364E+02  0.25393992964E+02  0.47787268794E+02  0.19999989737E+02 0.  0.
        -12    1    1    2    0    0  0.12384131289E+01  0.35174350364E+02 -0.25393992964E+02  0.43400731206E+02  0.00000000000E+00 0.  1.
         11    1    3    3    0    0 -0.17550726909E+01 -0.12077801185E+02  0.67374103519E+01  0.13940812750E+02  0.51100000000E-03 0. -1.
        -11    1    3    3    0    0 -0.58322732828E+00 -0.14944916881E+02  0.20539779513E+02  0.25408133293E+02  0.51100000000E-03 0.  1.
        -12    1    3    3    0    0  0.10998868903E+01 -0.81516322970E+01 -0.18831969009E+01  0.84383227507E+01  0.00000000000E+00 0.  1.
</event>
<event>
 7    1  0.1019486E-010  0.4778727E+02  0.7816164E-02  0.1312668E+00
        -11   -1    0    0    0    0  0.00000000000E+00  0.00000000000E+00  0.45593999997E+02  0.45594000000E+02  0.51100000000E-03 0. -1.
         11   -1    0    0    0    0 -0.00000000000E+00 -0.00000000000E+00 -0.45593999997E+02  0.45594000000E+02  0.51100000000E-03 0.  1.
    9900012    2    1    2    0    0  0.11472115606E+02 -0.27225191121E+02 -0.31793130472E+02  0.47787267134E+02  0.19999982173E+02 0.  0.
         12    1    1    2    0    0 -0.11472115606E+02  0.27225191121E+02  0.31793130472E+02  0.43400732866E+02  0.00000000000E+00 0. -1.
         11    1    3    3    0    0 -0.22171440971E+01 -0.33505476537E+01 -0.83730831231E+01  0.92871103565E+01  0.51100000000E-03 0. -1.
        -11    1    3    3    0    0  0.10785253758E+02 -0.11893822278E+02 -0.59590037118E+01  0.17125841074E+02  0.51100000000E-03 0.  1.
        -12    1    3    3    0    0  0.29040059451E+01 -0.11980821189E+02 -0.17461043637E+02  0.21374315704E+02  0.00000000000E+00 0.  1.
</event>
<event>
 7    1  0.1019486E-010  0.4778727E+02  0.7816164E-02  0.1312668E+00
        -11   -1    0    0    0    0  0.00000000000E+00  0.00000000000E+00  0.45593999997E+02  0.45594000000E+02  0.51100000000E-03 0.  1.
         11   -1    0    0    0    0 -0.00000000000E+00 -0.00000000000E+00 -0.45593999997E+02  0.45594000000E+02  0.51100000000E-03 0. -1.
    9900012    2    1    2    0    0  0.14205430098E+02 -0.39501440431E+02 -0.11021144825E+02  0.47787266439E+02  0.19999979003E+02 0.  0.
         12    1    1    2    0    0 -0.14205430098E+02  0.39501440431E+02  0.11021144825E+02  0.43400733561E+02  0.00000000000E+00 0. -1.
         11    1    3    3    0    0 -0.23328394424E+01 -0.16981862068E+02 -0.33659846336E+01  0.17468704359E+02  0.51100000000E-03 0. -1.
        -11    1    3    3    0    0  0.46491172904E+01 -0.10139504683E+01 -0.14402105139E+01  0.49715785941E+01  0.51100000000E-03 0.  1.
         12    1    3    3    0    0  0.11889152250E+02 -0.21505627894E+02 -0.62149496776E+01  0.25346983486E+02  0.00000000000E+00 0. -1.
</event>
<event>
 7    1  0.1019486E-010  0.4778727E+02  0.7816164E-02  0.1312668E+00
        -11   -1    0    0    0    0  0.00000000000E+00  0.00000000000E+00  0.45593999997E+02  0.45594000000E+02  0.51100000000E-03 0. -1.
         11   -1    0    0    0    0 -0.00000000000E+00 -0.00000000000E+00 -0.45593999997E+02  0.45594000000E+02  0.51100000000E-03 0.  1.
    9900012    2    1    2    0    0 -0.72116118320E+01 -0.16401000044E+02  0.39530024976E+02  0.47787273943E+02  0.20000013214E+02 0.  0.
        -12    1    1    2    0    0  0.72116118320E+01  0.16401000044E+02 -0.39530024976E+02  0.43400726057E+02  0.00000000000E+00 0.  1.
         11    1    3    3    0    0 -0.81339751167E+00  0.14078356803E+01  0.10087002135E+02  0.10217202609E+02  0.51100000000E-03 0. -1.
        -11    1    3    3    0    0 -0.76016585285E+01 -0.28766112203E+01  0.12948631975E+02  0.15288138369E+02  0.51100000000E-03 0.  1.
        -12    1    3    3    0    0  0.12034442082E+01 -0.14932224504E+02  0.16494390866E+02  0.22281932965E+02  0.00000000000E+00 0.  1.
</event>
<event>
 7    1  0.1019486E-010  0.4778728E+02  0.7816164E-02  0.1312668E+00
        -11   -1    0    0    0    0  0.00000000000E+00  0.00000000000E+00  0.45593999997E+02  0.45594000000E+02  0.51100000000E-03 0. -1.
         11   -1    0    0    0    0 -0.00000000000E+00 -0.00000000000E+00 -0.45593999997E+02  0.45594000000E+02  0.51100000000E-03 0.  1.
    9900012    2    1    2    0    0 -0.13733417748E+02  0.58939316904E+00 -0.41166352961E+02  0.47787276924E+02  0.20000026809E+02 0.  0.
         12    1    1    2    0    0  0.13733417748E+02 -0.58939316904E+00  0.41166352961E+02  0.43400723076E+02  0.00000000000E+00 0. -1.
         11    1    3    3    0    0 -0.22030027701E+01 -0.45326403963E+01 -0.14746064167E+01  0.52509536765E+01  0.51100000000E-03 0. -1.
        -11    1    3    3    0    0 -0.72405762534E+01  0.71465588791E+01 -0.31105037065E+02  0.32726481317E+02  0.51100000000E-03 0.  1.
        -12    1    3    3    0    0 -0.42898387250E+01 -0.20245253138E+01 -0.85867094795E+01  0.98098419313E+01  0.00000000000E+00 0.  1.
</event>
<event>
 7    1  0.1019486E-010  0.4778727E+02  0.7816164E-02  0.1312668E+00
        -11   -1    0    0    0    0  0.00000000000E+00  0.00000000000E+00  0.45593999997E+02  0.45594000000E+02  0.51100000000E-03 0. -1.
         11   -1    0    0    0    0 -0.00000000000E+00 -0.00000000000E+00 -0.45593999997E+02  0.45594000000E+02  0.51100000000E-03 0.  1.
    9900012    2    1    2    0    0  0.20378863031E+02  0.41317214942E+01 -0.38095329798E+02  0.47787270359E+02  0.19999996876E+02 0.  0.
         12    1    1    2    0    0 -0.20378863031E+02 -0.41317214942E+01  0.38095329798E+02  0.43400729641E+02  0.00000000000E+00 0. -1.
         11    1    3    3    0    0  0.53416651673E+01  0.19936574359E+01 -0.23421205188E+02  0.24105205028E+02  0.51100000000E-03 0. -1.
        -11    1    3    3    0    0  0.11861088028E+02  0.15828619826E+01 -0.41346316531E+01  0.12660412333E+02  0.51100000000E-03 0.  1.
        -12    1    3    3    0    0  0.31761098355E+01  0.55520207568E+00 -0.10539492957E+02  0.11021652999E+02  0.00000000000E+00 0.  1.
</event>
<event>
 7    1  0.1019486E-010  0.4778727E+02  0.7816164E-02  0.1312668E+00
        -11   -1    0    0    0    0  0.00000000000E+00  0.00000000000E+00  0.45593999997E+02  0.45594000000E+02  0.51100000000E-03 0. -1.
         11   -1    0    0    0    0 -0.00000000000E+00 -0.00000000000E+00 -0.45593999997E+02  0.45594000000E+02  0.51100000000E-03 0.  1.
    9900012    2    1    2    0    0  0.21333842487E+02  0.39509950459E+01 -0.37588300045E+02  0.47787268469E+02  0.19999988260E+02 0.  0.
         12    1    1    2    0    0 -0.21333842487E+02 -0.39509950459E+01  0.37588300045E+02  0.43400731531E+02  0.00000000000E+00 0. -1.
         11    1    3    3    0    0  0.12824843150E+01  0.28039922805E+01 -0.98020666176E+01  0.10275585091E+02  0.51100000000E-03 0. -1.
        -11    1    3    3    0    0  0.98955453764E+01 -0.10537879089E+01 -0.24765320722E+02  0.26689949382E+02  0.51100000000E-03 0.  1.
        -12    1    3    3    0    0  0.10155812795E+02  0.22007906743E+01 -0.30209127052E+01  0.10821733997E+02  0.00000000000E+00 0.  1.
</event>
<event>
 7    1  0.1019486E-010  0.4778727E+02  0.7816164E-02  0.1312668E+00
        -11   -1    0    0    0    0  0.00000000000E+00  0.00000000000E+00  0.45593999997E+02  0.45594000000E+02  0.51100000000E-03 0. -1.
         11   -1    0    0    0    0 -0.00000000000E+00 -0.00000000000E+00 -0.45593999997E+02  0.45594000000E+02  0.51100000000E-03 0.  1.
    9900012    2    1    2    0    0 -0.39442730080E+02  0.43937480701E+01 -0.17566708706E+02  0.47787271515E+02  0.20000002146E+02 0.  0.
         12    1    1    2    0    0  0.39442730080E+02 -0.43937480701E+01  0.17566708706E+02  0.43400728485E+02  0.00000000000E+00 0. -1.
         11    1    3    3    0    0 -0.51165405993E+01  0.41762049531E+01  0.50236437205E+00  0.66235976431E+01  0.51100000000E-03 0. -1.
        -11    1    3    3    0    0 -0.34936412888E+02 -0.14417592365E+01 -0.16031740488E+02  0.38466197090E+02  0.51100000000E-03 0.  1.
        -12    1    3    3    0    0  0.61022340806E+00  0.16593023535E+01 -0.20373325902E+01  0.26974767823E+01  0.00000000000E+00 0.  1.
</event>
<event>
 7    1  0.1019486E-010  0.4778727E+02  0.7816164E-02  0.1312668E+00
        -11   -1    0    0    0    0  0.00000000000E+00  0.00000000000E+00  0.45593999997E+02  0.45594000000E+02  0.51100000000E-03 0. -1.
         11   -1    0    0    0    0 -0.00000000000E+00 -0.00000000000E+00 -0.45593999997E+02  0.45594000000E+02  0.51100000000E-03 0.  1.
    9900012    2    1    2    0    0  0.53413738116E+01 -0.17785159983E+02 -0.39227303747E+02  0.47787267874E+02  0.19999985544E+02 0.  0.
         12    1    1    2    0    0 -0.53413738116E+01  0.17785159983E+02  0.39227303747E+02  0.43400732126E+02  0.00000000000E+00 0. -1.
         11    1    3    3    0    0 -0.14714952555E+01 -0.58165325324E+01 -0.27975573262E+01  0.66199453353E+01  0.51100000000E-03 0. -1.
        -11    1    3    3    0    0  0.98984233038E+01 -0.11232809045E+02 -0.23577685316E+02  0.27929590546E+02  0.51100000000E-03 0.  1.
        -12    1    3    3    0    0 -0.30855542366E+01 -0.73581840642E+00 -0.12852061105E+02  0.13237731993E+02  0.00000000000E+00 0.  1.
</event>
<event>
 7    1  0.1019486E-010  0.4778728E+02  0.7816164E-02  0.1312668E+00
        -11   -1    0    0    0    0  0.00000000000E+00  0.00000000000E+00  0.45593999997E+02  0.45594000000E+02  0.51100000000E-03 0. -1.
         11   -1    0    0    0    0 -0.00000000000E+00 -0.00000000000E+00 -0.45593999997E+02  0.45594000000E+02  0.51100000000E-03 0.  1.
    9900012    2    1    2    0    0 -0.15627421418E+02  0.18221056125E+02 -0.36157979628E+02  0.47787277918E+02  0.20000031338E+02 0.  0.
         12    1    1    2    0    0  0.15627421418E+02 -0.18221056125E+02  0.36157979628E+02  0.43400722082E+02  0.00000000000E+00 0. -1.
         11    1    3    3    0    0 -0.22831299267E+01  0.16161540190E+02 -0.17355756659E+02  0.23824994292E+02  0.51100000000E-03 0. -1.
        -11    1    3    3    0    0 -0.10753024761E+02  0.11873003941E+01 -0.99530418617E+01  0.14700349189E+02  0.51100000000E-03 0.  1.
         12    1    3    3    0    0 -0.25912667311E+01  0.87221554114E+00 -0.88491811074E+01  0.92619344358E+01  0.00000000000E+00 0. -1.
</event>
<event>
 7    1  0.1019486E-010  0.4778727E+02  0.7816164E-02  0.1312668E+00
        -11   -1    0    0    0    0  0.00000000000E+00  0.00000000000E+00  0.45593999997E+02  0.45594000000E+02  0.51100000000E-03 0. -1.
         11   -1    0    0    0    0 -0.00000000000E+00 -0.00000000000E+00 -0.45593999997E+02  0.45594000000E+02  0.51100000000E-03 0.  1.
    9900012    2    1    2    0    0 -0.18089877168E+02  0.43129963981E+01 -0.39214506391E+02  0.47787272985E+02  0.20000008849E+02 0.  0.
         12    1    1    2    0    0  0.18089877168E+02 -0.43129963981E+01  0.39214506391E+02  0.43400727015E+02  0.00000000000E+00 0. -1.
         11    1    3    3    0    0 -0.16848535007E+01  0.24231662637E+00 -0.20467805131E+02  0.20538463813E+02  0.51100000000E-03 0. -1.
        -11    1    3    3    0    0 -0.12313012871E+02  0.75080651506E+01 -0.13299230831E+02  0.19617616298E+02  0.51100000000E-03 0.  1.
        -12    1    3    3    0    0 -0.40920107967E+01 -0.34373853789E+01 -0.54474704293E+01  0.76311928741E+01  0.00000000000E+00 0.  1.
</event>
<event>
 7    1  0.1019486E-010  0.4778727E+02  0.7816164E-02  0.1312668E+00
        -11   -1    0    0    0    0  0.00000000000E+00  0.00000000000E+00  0.45593999997E+02  0.45594000000E+02  0.51100000000E-03 0. -1.
         11   -1    0    0    0    0 -0.00000000000E+00 -0.00000000000E+00 -0.45593999997E+02  0.45594000000E+02  0.51100000000E-03 0.  1.
    9900012    2    1    2    0    0  0.45546408086E+01 -0.24148142809E+02 -0.35773534174E+02  0.47787270728E+02  0.19999998558E+02 0.  0.
         12    1    1    2    0    0 -0.45546408086E+01  0.24148142809E+02  0.35773534174E+02  0.43400729272E+02  0.00000000000E+00 0. -1.
         11    1    3    3    0    0  0.85948486520E+01 -0.13683551792E+02 -0.12866951054E+02  0.20655978377E+02  0.51100000000E-03 0. -1.
        -11    1    3    3    0    0 -0.12432935435E+01  0.56320083119E+00 -0.92794176856E+01  0.93792625966E+01  0.51100000000E-03 0.  1.
         12    1    3    3    0    0 -0.27969142999E+01 -0.11027791848E+02 -0.13627165434E+02  0.17752029755E+02  0.00000000000E+00 0. -1.
</event>
<event>
 7    1  0.1019486E-010  0.4778727E+02  0.7816164E-02  0.1312668E+00
        -11   -1    0    0    0    0  0.00000000000E+00  0.00000000000E+00  0.45593999997E+02  0.45594000000E+02  0.51100000000E-03 0. -1.
         11   -1    0    0    0    0 -0.00000000000E+00 -0.00000000000E+00 -0.45593999997E+02  0.45594000000E+02  0.51100000000E-03 0.  1.
    9900012    2    1    2    0    0 -0.42747573860E+02 -0.50612287055E+00 -0.74840968774E+01  0.47787274922E+02  0.20000017678E+02 0.  0.
         12    1    1    2    0    0  0.42747573860E+02  0.50612287055E+00  0.74840968774E+01  0.43400725078E+02  0.00000000000E+00 0. -1.
         11    1    3    3    0    0 -0.13363782885E+02 -0.32779782693E+01 -0.37694384954E+01  0.14266902304E+02  0.51100000000E-03 0. -1.
        -11    1    3    3    0    0  0.16616673464E+01 -0.94337582149E+00  0.48828089097E+00  0.19721852855E+01  0.51100000000E-03 0.  1.
        -12    1    3    3    0    0 -0.31045458321E+02  0.37152312202E+01 -0.42029392730E+01  0.31548187332E+02  0.00000000000E+00 0.  1.
</event>
<event>
 7    1  0.1019486E-010  0.4778727E+02  0.7816164E-02  0.1312668E+00
        -11   -1    0    0    0    0  0.00000000000E+00  0.00000000000E+00  0.45593999997E+02  0.45594000000E+02  0.51100000000E-03 0. -1.
         11   -1    0    0    0    0 -0.00000000000E+00 -0.00000000000E+00 -0.45593999997E+02  0.45594000000E+02  0.51100000000E-03 0.  1.
    9900012    2    1    2    0    0 -0.12266585124E+02 -0.31545240037E+02 -0.27167115653E+02  0.47787268987E+02  0.19999990618E+02 0.  0.
         12    1    1    2    0    0  0.12266585124E+02  0.31545240037E+02  0.27167115653E+02  0.43400731013E+02  0.00000000000E+00 0. -1.
         11    1    3    3    0    0 -0.31202629742E+01 -0.86096011001E+01 -0.18166117603E+02  0.20343773031E+02  0.51100000000E-03 0. -1.
        -11    1    3    3    0    0 -0.32661606301E+01 -0.12219613592E+02 -0.69993862036E+00  0.12667938898E+02  0.51100000000E-03 0.  1.
        -12    1    3    3    0    0 -0.58801615200E+01 -0.10716025344E+02 -0.83010594298E+01  0.14775557057E+02  0.00000000000E+00 0.  1.
</event>
<event>
 7    1  0.1019486E-010  0.4778727E+02  0.7816164E-02  0.1312668E+00
        -11   -1    0    0    0    0  0.00000000000E+00  0.00000000000E+00  0.45593999997E+02  0.45594000000E+02  0.51100000000E-03 0.  1.
         11   -1    0    0    0    0 -0.00000000000E+00 -0.00000000000E+00 -0.45593999997E+02  0.45594000000E+02  0.51100000000E-03 0. -1.
    9900012    2    1    2    0    0 -0.39733653744E+02 -0.61631071806E+01  0.16336344242E+02  0.47787271053E+02  0.20000000038E+02 0.  0.
        -12    1    1    2    0    0  0.39733653744E+02  0.61631071806E+01 -0.16336344242E+02  0.43400728947E+02  0.00000000000E+00 0.  1.
         11    1    3    3    0    0 -0.36135960733E+02 -0.94672100029E+01  0.13810276557E+02  0.39826617508E+02  0.51100000000E-03 0. -1.
        -11    1    3    3    0    0 -0.33378775996E+01  0.45858728855E+01  0.31755299863E+01  0.65004344429E+01  0.51100000000E-03 0.  1.
         12    1    3    3    0    0 -0.25981541148E+00 -0.12817700632E+01 -0.64946230158E+00  0.14602191014E+01  0.00000000000E+00 0. -1.
</event>
<event>
 7    1  0.1019486E-010  0.4778727E+02  0.7816164E-02  0.1312668E+00
        -11   -1    0    0    0    0  0.00000000000E+00  0.00000000000E+00  0.45593999997E+02  0.45594000000E+02  0.51100000000E-03 0. -1.
         11   -1    0    0    0    0 -0.00000000000E+00 -0.00000000000E+00 -0.45593999997E+02  0.45594000000E+02  0.51100000000E-03 0.  1.
    9900012    2    1    2    0    0 -0.30504701033E+01  0.23385820439E+02 -0.36433789001E+02  0.47787274817E+02  0.20000017199E+02 0.  0.
         12    1    1    2    0    0  0.30504701033E+01 -0.23385820439E+02  0.36433789001E+02  0.43400725183E+02  0.00000000000E+00 0. -1.
         11    1    3    3    0    0 -0.46249234428E-01  0.64815821779E+01 -0.49001178159E+01  0.81255277608E+01  0.51100000000E-03 0. -1.
        -11    1    3    3    0    0  0.61914515595E+01  0.24474314463E+01 -0.63356807177E+01  0.91904756958E+01  0.51100000000E-03 0.  1.
        -12    1    3    3    0    0 -0.91956724284E+01  0.14456806815E+02 -0.25197990468E+02  0.30471271360E+02  0.00000000000E+00 0.  1.
</event>
<event>
 7    1  0.1019486E-010  0.4778729E+02  0.7816164E-02  0.1312668E+00
        -11   -1    0    0    0    0  0.00000000000E+00  0.00000000000E+00  0.45593999997E+02  0.45594000000E+02  0.51100000000E-03 0. -1.
         11   -1    0    0    0    0 -0.00000000000E+00 -0.00000000000E+00 -0.45593999997E+02  0.45594000000E+02  0.51100000000E-03 0.  1.
    9900012    2    1    2    0    0  0.17666545394E+02  0.22389460316E+02  0.32714328542E+02  0.47787285129E+02  0.20000064215E+02 0.  0.
        -12    1    1    2    0    0 -0.17666545394E+02 -0.22389460316E+02 -0.32714328542E+02  0.43400714871E+02  0.00000000000E+00 0.  1.
         11    1    3    3    0    0  0.16722012203E+01 -0.28334627049E+01  0.72927904803E+00  0.33699578650E+01  0.51100000000E-03 0. -1.
        -11    1    3    3    0    0 -0.60378099720E-02  0.28941256585E+01  0.57251839863E+01  0.64151174362E+01  0.51100000000E-03 0.  1.
         12    1    3    3    0    0  0.16000381984E+02  0.22328797362E+02  0.26259865508E+02  0.38002209827E+02  0.00000000000E+00 0. -1.
</event>
<event>
 7    1  0.1019486E-010  0.4778727E+02  0.7816164E-02  0.1312668E+00
        -11   -1    0    0    0    0  0.00000000000E+00  0.00000000000E+00  0.45593999997E+02  0.45594000000E+02  0.51100000000E-03 0. -1.
         11   -1    0    0    0    0 -0.00000000000E+00 -0.00000000000E+00 -0.45593999997E+02  0.45594000000E+02  0.51100000000E-03 0.  1.
    9900012    2    1    2    0    0  0.33440334703E+01  0.87057292727E+01  0.42386923252E+02  0.47787267923E+02  0.19999985768E+02 0.  0.
        -12    1    1    2    0    0 -0.33440334703E+01 -0.87057292727E+01 -0.42386923252E+02  0.43400732077E+02  0.00000000000E+00 0.  1.
         11    1    3    3    0    0  0.25907522987E+01  0.60517897514E+01  0.24994066985E+02  0.25846460906E+02  0.51100000000E-03 0. -1.
        -11    1    3    3    0    0 -0.46346792603E+01 -0.27251402372E+01  0.47075784723E+01  0.71461833514E+01  0.51100000000E-03 0.  1.
        -12    1    3    3    0    0  0.53879604320E+01  0.53790797586E+01  0.12685277795E+02  0.14794623666E+02  0.00000000000E+00 0.  1.
</event>
<event>
 7    1  0.1019486E-010  0.4778727E+02  0.7816164E-02  0.1312668E+00
        -11   -1    0    0    0    0  0.00000000000E+00  0.00000000000E+00  0.45593999997E+02  0.45594000000E+02  0.51100000000E-03 0. -1.
         11   -1    0    0    0    0 -0.00000000000E+00 -0.00000000000E+00 -0.45593999997E+02  0.45594000000E+02  0.51100000000E-03 0.  1.
    9900012    2    1    2    0    0  0.19861280884E+02  0.27139990685E+02  0.27433075917E+02  0.47787271585E+02  0.20000002465E+02 0.  0.
        -12    1    1    2    0    0 -0.19861280884E+02 -0.27139990685E+02 -0.27433075917E+02  0.43400728415E+02  0.00000000000E+00 0.  1.
         11    1    3    3    0    0  0.38282585169E+01  0.13677890360E+02  0.14373358700E+02  0.20207268211E+02  0.51100000000E-03 0. -1.
        -11    1    3    3    0    0  0.76277062318E+01  0.35020220659E+01 -0.94859214590E+00  0.84466495269E+01  0.51100000000E-03 0.  1.
        -12    1    3    3    0    0  0.84053161351E+01  0.99600782590E+01  0.14008309362E+02  0.19133353847E+02  0.00000000000E+00 0.  1.
</event>
<event>
 7    1  0.1019486E-010  0.4778727E+02  0.7816164E-02  0.1312668E+00
        -11   -1    0    0    0    0  0.00000000000E+00  0.00000000000E+00  0.45593999997E+02  0.45594000000E+02  0.51100000000E-03 0.  1.
         11   -1    0    0    0    0 -0.00000000000E+00 -0.00000000000E+00 -0.45593999997E+02  0.45594000000E+02  0.51100000000E-03 0. -1.
    9900012    2    1    2    0    0 -0.38604402712E+02  0.16709900685E+02 -0.10681880283E+02  0.47787271250E+02  0.20000000935E+02 0.  0.
         12    1    1    2    0    0  0.38604402712E+02 -0.16709900685E+02  0.10681880283E+02  0.43400728750E+02  0.00000000000E+00 0. -1.
         11    1    3    3    0    0 -0.31950078703E+00  0.34046492809E+01  0.16897052278E+01  0.38142917425E+01  0.51100000000E-03 0. -1.
        -11    1    3    3    0    0 -0.35906455003E+02  0.13620483664E+02 -0.83658257032E+01  0.39303665556E+02  0.51100000000E-03 0.  1.
        -12    1    3    3    0    0 -0.23784469220E+01 -0.31523225962E+00 -0.40057598080E+01  0.46693139515E+01  0.00000000000E+00 0.  1.
</event>
<event>
 7    1  0.1019486E-010  0.4778726E+02  0.7816164E-02  0.1312668E+00
        -11   -1    0    0    0    0  0.00000000000E+00  0.00000000000E+00  0.45593999997E+02  0.45594000000E+02  0.51100000000E-03 0. -1.
         11   -1    0    0    0    0 -0.00000000000E+00 -0.00000000000E+00 -0.45593999997E+02  0.45594000000E+02  0.51100000000E-03 0.  1.
    9900012    2    1    2    0    0  0.23626951862E+02 -0.33975488217E+02 -0.13078912973E+02  0.47787255555E+02  0.19999929376E+02 0.  0.
         12    1    1    2    0    0 -0.23626951862E+02  0.33975488217E+02  0.13078912973E+02  0.43400744445E+02  0.00000000000E+00 0. -1.
         11    1    3    3    0    0  0.30446262430E+01 -0.93924307113E+00 -0.24039426345E+01  0.39913490147E+01  0.51100000000E-03 0. -1.
        -11    1    3    3    0    0 -0.28150411301E+01 -0.18887859348E+01  0.49252034569E-01  0.33903384633E+01  0.51100000000E-03 0.  1.
        -12    1    3    3    0    0  0.23397366749E+02 -0.31147459211E+02 -0.10724222373E+02  0.40405568077E+02  0.00000000000E+00 0.  1.
</event>
<event>
 7    1  0.1019486E-010  0.4778727E+02  0.7816164E-02  0.1312668E+00
        -11   -1    0    0    0    0  0.00000000000E+00  0.00000000000E+00  0.45593999997E+02  0.45594000000E+02  0.51100000000E-03 0. -1.
         11   -1    0    0    0    0 -0.00000000000E+00 -0.00000000000E+00 -0.45593999997E+02  0.45594000000E+02  0.51100000000E-03 0.  1.
    9900012    2    1    2    0    0  0.26800799470E+02 -0.31372311436E+02  0.13458027332E+02  0.47787271012E+02  0.19999999851E+02 0.  0.
        -12    1    1    2    0    0 -0.26800799470E+02  0.31372311436E+02 -0.13458027332E+02  0.43400728988E+02  0.00000000000E+00 0.  1.
         11    1    3    3    0    0  0.20854875573E+02 -0.18983531856E+02  0.33674954586E+01  0.28401414451E+02  0.51100000000E-03 0. -1.
        -11    1    3    3    0    0 -0.69144111187E+00 -0.85731767500E+01  0.71493516718E+01  0.11184394485E+02  0.51100000000E-03 0.  1.
        -12    1    3    3    0    0  0.66373650088E+01 -0.38156028296E+01  0.29411802011E+01  0.82014620763E+01  0.00000000000E+00 0.  1.
</event>
<event>
 7    1  0.1170715E-010  0.4778727E+02  0.7816164E-02  0.1312668E+00
        -11   -1    0    0    0    0  0.00000000000E+00  0.00000000000E+00  0.45593999997E+02  0.45594000000E+02  0.51100000000E-03 0. -1.
         11   -1    0    0    0    0 -0.00000000000E+00 -0.00000000000E+00 -0.45593999997E+02  0.45594000000E+02  0.51100000000E-03 0.  1.
    9900012    2    1    2    0    0  0.51386011393E+01  0.36634131346E+02 -0.22697100148E+02  0.47787272399E+02  0.20000006177E+02 0.  0.
         12    1    1    2    0    0 -0.51386011393E+01 -0.36634131346E+02  0.22697100148E+02  0.43400727601E+02  0.00000000000E+00 0. -1.
         11    1    3    3    0    0 -0.21915240121E+01  0.59452276039E+01  0.16446262914E+01  0.65462435532E+01  0.51100000000E-03 0. -1.
        -11    1    3    3    0    0  0.23485671762E+01  0.11402434852E+02 -0.15656586713E+02  0.19510509888E+02  0.51100000000E-03 0.  1.
         12    1    3    3    0    0  0.49815579752E+01  0.19286468890E+02 -0.86851397260E+01  0.21730518958E+02  0.00000000000E+00 0. -1.
</event>
<event>
 7    1  0.1019486E-010  0.4778727E+02  0.7816164E-02  0.1312668E+00
        -11   -1    0    0    0    0  0.00000000000E+00  0.00000000000E+00  0.45593999997E+02  0.45594000000E+02  0.51100000000E-03 0. -1.
         11   -1    0    0    0    0 -0.00000000000E+00 -0.00000000000E+00 -0.45593999997E+02  0.45594000000E+02  0.51100000000E-03 0.  1.
    9900012    2    1    2    0    0  0.19018999485E+02  0.34797748811E+02 -0.17635700800E+02  0.47787267213E+02  0.19999982532E+02 0.  0.
         12    1    1    2    0    0 -0.19018999485E+02 -0.34797748811E+02  0.17635700800E+02  0.43400732787E+02  0.00000000000E+00 0. -1.
         11    1    3    3    0    0  0.12811074067E+02  0.23007742042E+02 -0.17832553428E+02  0.31803769818E+02  0.51100000000E-03 0. -1.
        -11    1    3    3    0    0  0.53184834205E+01  0.11193971397E+02 -0.28819201680E+01  0.12723864415E+02  0.51100000000E-03 0.  1.
         12    1    3    3    0    0  0.88944199725E+00  0.59603537238E+00  0.30787727966E+01  0.32596329801E+01  0.00000000000E+00 0. -1.
</event>
<event>
 7    1  0.1019486E-010  0.4778727E+02  0.7816164E-02  0.1312668E+00
        -11   -1    0    0    0    0  0.00000000000E+00  0.00000000000E+00  0.45593999997E+02  0.45594000000E+02  0.51100000000E-03 0. -1.
         11   -1    0    0    0    0 -0.00000000000E+00 -0.00000000000E+00 -0.45593999997E+02  0.45594000000E+02  0.51100000000E-03 0.  1.
    9900012    2    1    2    0    0 -0.96816620695E+00 -0.36927144180E+01  0.43232507333E+02  0.47787272173E+02  0.20000005146E+02 0.  0.
        -12    1    1    2    0    0  0.96816620695E+00  0.36927144180E+01 -0.43232507333E+02  0.43400727827E+02  0.00000000000E+00 0.  1.
         11    1    3    3    0    0  0.11810913714E+01 -0.12132152618E+01  0.14452992785E+02  0.14551833864E+02  0.51100000000E-03 0. -1.
        -11    1    3    3    0    0 -0.64361960222E+01 -0.72318601216E+01  0.21263041399E+02  0.23363247844E+02  0.51100000000E-03 0.  1.
        -12    1    3    3    0    0  0.42869384438E+01  0.47523609654E+01  0.75164731494E+01  0.98721904647E+01  0.00000000000E+00 0.  1.
</event>
<event>
 7    1  0.1019486E-010  0.4778727E+02  0.7816164E-02  0.1312668E+00
        -11   -1    0    0    0    0  0.00000000000E+00  0.00000000000E+00  0.45593999997E+02  0.45594000000E+02  0.51100000000E-03 0. -1.
         11   -1    0    0    0    0 -0.00000000000E+00 -0.00000000000E+00 -0.45593999997E+02  0.45594000000E+02  0.51100000000E-03 0.  1.
    9900012    2    1    2    0    0  0.29115819587E+02 -0.17582409750E+01 -0.32137220205E+02  0.47787270927E+02  0.19999999464E+02 0.  0.
         12    1    1    2    0    0 -0.29115819587E+02  0.17582409750E+01  0.32137220205E+02  0.43400729073E+02  0.00000000000E+00 0. -1.
         11    1    3    3    0    0  0.39643955899E+01  0.39374733991E+01 -0.42074260498E+00  0.56033163183E+01  0.51100000000E-03 0. -1.
        -11    1    3    3    0    0  0.99173566156E+01 -0.48279935384E+01 -0.20385066580E+02  0.23177886521E+02  0.51100000000E-03 0.  1.
        -12    1    3    3    0    0  0.15234067382E+02 -0.86772083570E+00 -0.11331411020E+02  0.19006068087E+02  0.00000000000E+00 0.  1.
</event>
<event>
 7    1  0.1019486E-010  0.4778727E+02  0.7816164E-02  0.1312668E+00
        -11   -1    0    0    0    0  0.00000000000E+00  0.00000000000E+00  0.45593999997E+02  0.45594000000E+02  0.51100000000E-03 0. -1.
         11   -1    0    0    0    0 -0.00000000000E+00 -0.00000000000E+00 -0.45593999997E+02  0.45594000000E+02  0.51100000000E-03 0.  1.
    9900012    2    1    2    0    0  0.16658071750E+02  0.17222338140E+02 -0.36187332253E+02  0.47787270731E+02  0.19999998572E+02 0.  0.
         12    1    1    2    0    0 -0.16658071750E+02 -0.17222338140E+02  0.36187332253E+02  0.43400729269E+02  0.00000000000E+00 0. -1.
         11    1    3    3    0    0  0.61249781177E+01  0.15411362753E+02 -0.11980860173E+02  0.20458897077E+02  0.51100000000E-03 0. -1.
        -11    1    3    3    0    0  0.11483137169E+02  0.15268067757E+01 -0.21144343327E+02  0.24109683390E+02  0.51100000000E-03 0.  1.
         12    1    3    3    0    0 -0.95004353610E+00  0.28416861164E+00 -0.30621287532E+01  0.32186902649E+01  0.00000000000E+00 0. -1.
</event>
<event>
 7    1  0.1019486E-010  0.4778727E+02  0.7816164E-02  0.1312668E+00
        -11   -1    0    0    0    0  0.00000000000E+00  0.00000000000E+00  0.45593999997E+02  0.45594000000E+02  0.51100000000E-03 0. -1.
         11   -1    0    0    0    0 -0.00000000000E+00 -0.00000000000E+00 -0.45593999997E+02  0.45594000000E+02  0.51100000000E-03 0.  1.
    9900012    2    1    2    0    0  0.47096170435E+01 -0.23517310044E+02  0.36171523514E+02  0.47787268696E+02  0.19999989293E+02 0.  0.
        -12    1    1    2    0    0 -0.47096170435E+01  0.23517310044E+02 -0.36171523514E+02  0.43400731304E+02  0.00000000000E+00 0.  1.
         11    1    3    3    0    0  0.70650525360E+01 -0.10384208475E+02  0.23156671368E+02  0.26343465643E+02  0.51100000000E-03 0. -1.
        -11    1    3    3    0    0 -0.60971069467E+01 -0.46231576700E+01  0.70065761467E+01  0.10374989615E+02  0.51100000000E-03 0.  1.
         12    1    3    3    0    0  0.37416714542E+01 -0.85099438987E+01  0.60082759996E+01  0.11068813438E+02  0.00000000000E+00 0. -1.
</event>
<event>
 7    1  0.1019486E-010  0.4778727E+02  0.7816164E-02  0.1312668E+00
        -11   -1    0    0    0    0  0.00000000000E+00  0.00000000000E+00  0.45593999997E+02  0.45594000000E+02  0.51100000000E-03 0.  1.
         11   -1    0    0    0    0 -0.00000000000E+00 -0.00000000000E+00 -0.45593999997E+02  0.45594000000E+02  0.51100000000E-03 0. -1.
    9900012    2    1    2    0    0 -0.37915865374E+02 -0.14725862901E+02 -0.15138014929E+02  0.47787269808E+02  0.19999994361E+02 0.  0.
         12    1    1    2    0    0  0.37915865374E+02  0.14725862901E+02  0.15138014929E+02  0.43400730192E+02  0.00000000000E+00 0. -1.
         11    1    3    3    0    0 -0.35132856648E+01 -0.86511462769E+01 -0.12934907983E+01  0.94264853882E+01  0.51100000000E-03 0. -1.
        -11    1    3    3    0    0 -0.31348829239E+02 -0.30973705920E+01 -0.12469173169E+02  0.33879537763E+02  0.51100000000E-03 0.  1.
        -12    1    3    3    0    0 -0.30537504701E+01 -0.29773460320E+01 -0.13753509617E+01  0.44812466564E+01  0.00000000000E+00 0.  1.
</event>
<event>
 7    1  0.1019486E-010  0.4778728E+02  0.7816164E-02  0.1312668E+00
        -11   -1    0    0    0    0  0.00000000000E+00  0.00000000000E+00  0.45593999997E+02  0.45594000000E+02  0.51100000000E-03 0. -1.
         11   -1    0    0    0    0 -0.00000000000E+00 -0.00000000000E+00 -0.45593999997E+02  0.45594000000E+02  0.51100000000E-03 0.  1.
    9900012    2    1    2    0    0 -0.35822006961E+02  0.66564980957E+01 -0.23581713697E+02  0.47787281452E+02  0.20000047452E+02 0.  0.
         12    1    1    2    0    0  0.35822006961E+02 -0.66564980957E+01  0.23581713697E+02  0.43400718548E+02  0.00000000000E+00 0. -1.
         11    1    3    3    0    0 -0.33138939116E+01 -0.51202292613E+01 -0.21328646322E+01  0.64612500606E+01  0.51100000000E-03 0. -1.
        -11    1    3    3    0    0 -0.20305777706E+02  0.98495351637E+01 -0.16765840260E+02  0.28114610989E+02  0.51100000000E-03 0.  1.
         12    1    3    3    0    0 -0.12202335343E+02  0.19271921933E+01 -0.46830088055E+01  0.13211420402E+02  0.00000000000E+00 0. -1.
</event>
<event>
 7    1  0.1019486E-010  0.4778725E+02  0.7816164E-02  0.1312668E+00
        -11   -1    0    0    0    0  0.00000000000E+00  0.00000000000E+00  0.45593999997E+02  0.45594000000E+02  0.51100000000E-03 0. -1.
         11   -1    0    0    0    0 -0.00000000000E+00 -0.00000000000E+00 -0.45593999997E+02  0.45594000000E+02  0.51100000000E-03 0.  1.
    9900012    2    1    2    0    0  0.22040422182E+02  0.29492331215E+02  0.22979281708E+02  0.47787248874E+02  0.19999898917E+02 0.  0.
        -12    1    1    2    0    0 -0.22040422182E+02 -0.29492331215E+02 -0.22979281708E+02  0.43400751126E+02  0.00000000000E+00 0.  1.
         11    1    3    3    0    0  0.66330137728E+01  0.17296071558E+02  0.15249160476E+02  0.23993496171E+02  0.51100000000E-03 0. -1.
        -11    1    3    3    0    0  0.10041723881E+02  0.12329488618E+01  0.50044151102E+01  0.11287185312E+02  0.51100000000E-03 0.  1.
         12    1    3    3    0    0  0.53656845279E+01  0.10963310795E+02  0.27257061223E+01  0.12506567391E+02  0.00000000000E+00 0. -1.
</event>
<event>
 7    1  0.1019486E-010  0.4778727E+02  0.7816164E-02  0.1312668E+00
        -11   -1    0    0    0    0  0.00000000000E+00  0.00000000000E+00  0.45593999997E+02  0.45594000000E+02  0.51100000000E-03 0. -1.
         11   -1    0    0    0    0 -0.00000000000E+00 -0.00000000000E+00 -0.45593999997E+02  0.45594000000E+02  0.51100000000E-03 0.  1.
    9900012    2    1    2    0    0 -0.30942601877E+02 -0.19777350755E+02 -0.23130823139E+02  0.47787271977E+02  0.20000004254E+02 0.  0.
         12    1    1    2    0    0  0.30942601877E+02  0.19777350755E+02  0.23130823139E+02  0.43400728023E+02  0.00000000000E+00 0. -1.
         11    1    3    3    0    0 -0.17692315552E+02 -0.61271507580E+01 -0.19638546605E+02  0.27133604977E+02  0.51100000000E-03 0. -1.
        -11    1    3    3    0    0 -0.32780373009E+01 -0.58673583718E+00 -0.25457219052E+01  0.41917165658E+01  0.51100000000E-03 0.  1.
         12    1    3    3    0    0 -0.99722490243E+01 -0.13063464159E+02 -0.94655462810E+00  0.16461950435E+02  0.00000000000E+00 0. -1.
</event>
<event>
 7    1  0.1019486E-010  0.4778727E+02  0.7816164E-02  0.1312668E+00
        -11   -1    0    0    0    0  0.00000000000E+00  0.00000000000E+00  0.45593999997E+02  0.45594000000E+02  0.51100000000E-03 0. -1.
         11   -1    0    0    0    0 -0.00000000000E+00 -0.00000000000E+00 -0.45593999997E+02  0.45594000000E+02  0.51100000000E-03 0.  1.
    9900012    2    1    2    0    0 -0.30651650793E+02 -0.20157650197E+02 -0.23189842396E+02  0.47787270189E+02  0.19999996100E+02 0.  0.
         12    1    1    2    0    0  0.30651650793E+02  0.20157650197E+02  0.23189842396E+02  0.43400729811E+02  0.00000000000E+00 0. -1.
         11    1    3    3    0    0 -0.18948185314E+00  0.12902462784E+01 -0.98687593095E+00  0.16354091830E+01  0.51100000000E-03 0. -1.
        -11    1    3    3    0    0 -0.16359627374E+02 -0.82190974261E+01 -0.23836706327E+01  0.18462742382E+02  0.51100000000E-03 0.  1.
        -12    1    3    3    0    0 -0.14102541566E+02 -0.13228799049E+02 -0.19819295832E+02  0.27689118624E+02  0.00000000000E+00 0.  1.
</event>
<event>
 7    1  0.1019486E-010  0.4778727E+02  0.7816164E-02  0.1312668E+00
        -11   -1    0    0    0    0  0.00000000000E+00  0.00000000000E+00  0.45593999997E+02  0.45594000000E+02  0.51100000000E-03 0. -1.
         11   -1    0    0    0    0 -0.00000000000E+00 -0.00000000000E+00 -0.45593999997E+02  0.45594000000E+02  0.51100000000E-03 0.  1.
    9900012    2    1    2    0    0  0.19649977788E+02 -0.11473114774E+02  0.36957672866E+02  0.47787267594E+02  0.19999984267E+02 0.  0.
        -12    1    1    2    0    0 -0.19649977788E+02  0.11473114774E+02 -0.36957672866E+02  0.43400732406E+02  0.00000000000E+00 0.  1.
         11    1    3    3    0    0  0.94542422569E+01 -0.39100888615E+01  0.35948850448E+01  0.10844108553E+02  0.51100000000E-03 0.  1.
        -11    1    3    3    0    0  0.69965076402E+01 -0.11323727137E+01  0.24664873803E+02  0.25662996456E+02  0.51100000000E-03 0. -1.
         12    1    3    3    0    0  0.31992278912E+01 -0.64306531992E+01  0.86979140181E+01  0.11280162585E+02  0.00000000000E+00 0. -1.
</event>
<event>
 7    1  0.1019486E-010  0.4778727E+02  0.7816164E-02  0.1312668E+00
        -11   -1    0    0    0    0  0.00000000000E+00  0.00000000000E+00  0.45593999997E+02  0.45594000000E+02  0.51100000000E-03 0. -1.
         11   -1    0    0    0    0 -0.00000000000E+00 -0.00000000000E+00 -0.45593999997E+02  0.45594000000E+02  0.51100000000E-03 0.  1.
    9900012    2    1    2    0    0 -0.10174519118E+02 -0.19464023052E-01 -0.42191255975E+02  0.47787270756E+02  0.19999998684E+02 0.  0.
         12    1    1    2    0    0  0.10174519118E+02  0.19464023052E-01  0.42191255975E+02  0.43400729244E+02  0.00000000000E+00 0. -1.
         11    1    3    3    0    0 -0.15174238762E+02  0.16387509833E+01 -0.33420718527E+02  0.36740814552E+02  0.51100000000E-03 0.  1.
        -11    1    3    3    0    0  0.28425863035E+01  0.55252426088E+00 -0.17677303847E+01  0.33927055466E+01  0.51100000000E-03 0. -1.
        -12    1    3    3    0    0  0.21571333403E+01 -0.22107392672E+01 -0.70028070635E+01  0.76537506573E+01  0.00000000000E+00 0.  1.
</event>
<event>
 7    1  0.1019486E-010  0.4778727E+02  0.7816164E-02  0.1312668E+00
        -11   -1    0    0    0    0  0.00000000000E+00  0.00000000000E+00  0.45593999997E+02  0.45594000000E+02  0.51100000000E-03 0. -1.
         11   -1    0    0    0    0 -0.00000000000E+00 -0.00000000000E+00 -0.45593999997E+02  0.45594000000E+02  0.51100000000E-03 0.  1.
    9900012    2    1    2    0    0 -0.44856526066E+01  0.11653846069E+02  0.41565495406E+02  0.47787267105E+02  0.19999982039E+02 0.  0.
        -12    1    1    2    0    0  0.44856526066E+01 -0.11653846069E+02 -0.41565495406E+02  0.43400732895E+02  0.00000000000E+00 0.  1.
         11    1    3    3    0    0 -0.63968611789E+01  0.96981294779E+01  0.33746112135E+02  0.35689965435E+02  0.51100000000E-03 0. -1.
        -11    1    3    3    0    0  0.44124578849E+01  0.39267931333E+01  0.60452780668E+01  0.84519155263E+01  0.51100000000E-03 0.  1.
         12    1    3    3    0    0 -0.25012493126E+01 -0.19710765424E+01  0.17741052040E+01  0.36453861434E+01  0.00000000000E+00 0. -1.
</event>
<event>
 7    1  0.1019486E-010  0.4778727E+02  0.7816164E-02  0.1312668E+00
        -11   -1    0    0    0    0  0.00000000000E+00  0.00000000000E+00  0.45593999997E+02  0.45594000000E+02  0.51100000000E-03 0. -1.
         11   -1    0    0    0    0 -0.00000000000E+00 -0.00000000000E+00 -0.45593999997E+02  0.45594000000E+02  0.51100000000E-03 0.  1.
    9900012    2    1    2    0    0  0.38311311755E+02  0.37699348384E+01  0.20041306205E+02  0.47787274528E+02  0.20000015884E+02 0.  0.
        -12    1    1    2    0    0 -0.38311311755E+02 -0.37699348384E+01 -0.20041306205E+02  0.43400725472E+02  0.00000000000E+00 0.  1.
         11    1    3    3    0    0  0.23248128399E+01  0.39826754036E+00  0.19414081496E+01  0.30549038674E+01  0.51100000000E-03 0. -1.
        -11    1    3    3    0    0  0.30310051567E+02  0.42953294996E+01  0.22074339900E+02  0.37741562816E+02  0.51100000000E-03 0.  1.
        -12    1    3    3    0    0  0.56764473480E+01 -0.92366220156E+00 -0.39744418441E+01  0.69908078452E+01  0.00000000000E+00 0.  1.
</event>
<event>
 7    1  0.1118188E-010  0.4778727E+02  0.7816164E-02  0.1312668E+00
        -11   -1    0    0    0    0  0.00000000000E+00  0.00000000000E+00  0.45593999997E+02  0.45594000000E+02  0.51100000000E-03 0.  1.
         11   -1    0    0    0    0 -0.00000000000E+00 -0.00000000000E+00 -0.45593999997E+02  0.45594000000E+02  0.51100000000E-03 0. -1.
    9900012    2    1    2    0    0 -0.30353639217E+02 -0.13637039800E+02 -0.27862359911E+02  0.47787269959E+02  0.19999995053E+02 0.  0.
         12    1    1    2    0    0  0.30353639217E+02  0.13637039800E+02  0.27862359911E+02  0.43400730041E+02  0.00000000000E+00 0. -1.
         11    1    3    3    0    0 -0.92886791525E+01 -0.72842108297E+01 -0.17780975100E+01  0.11937374872E+02  0.51100000000E-03 0. -1.
        -11    1    3    3    0    0 -0.14478831174E+02  0.12235694359E+01 -0.14644895459E+02  0.20630236005E+02  0.51100000000E-03 0.  1.
         12    1    3    3    0    0 -0.65861288903E+01 -0.75763984067E+01 -0.11439366942E+02  0.15219659083E+02  0.00000000000E+00 0. -1.
</event>
<event>
 7    1  0.1019486E-010  0.4778727E+02  0.7816164E-02  0.1312668E+00
        -11   -1    0    0    0    0  0.00000000000E+00  0.00000000000E+00  0.45593999997E+02  0.45594000000E+02  0.51100000000E-03 0. -1.
         11   -1    0    0    0    0 -0.00000000000E+00 -0.00000000000E+00 -0.45593999997E+02  0.45594000000E+02  0.51100000000E-03 0.  1.
    9900012    2    1    2    0    0  0.12572430247E+02  0.27227837074E+02  0.31371994512E+02  0.47787272429E+02  0.20000006311E+02 0.  0.
        -12    1    1    2    0    0 -0.12572430247E+02 -0.27227837074E+02 -0.31371994512E+02  0.43400727571E+02  0.00000000000E+00 0.  1.
         11    1    3    3    0    0  0.11904962711E+02  0.11591132442E+02  0.25258171046E+02  0.30233387063E+02  0.51100000000E-03 0. -1.
        -11    1    3    3    0    0 -0.19019900093E+01  0.87283286275E+01  0.45250585660E+01  0.10013862487E+02  0.51100000000E-03 0.  1.
         12    1    3    3    0    0  0.25694575449E+01  0.69083760048E+01  0.15887648995E+01  0.75400228783E+01  0.00000000000E+00 0. -1.
</event>
<event>
 7    1  0.1019486E-010  0.4778727E+02  0.7816164E-02  0.1312668E+00
        -11   -1    0    0    0    0  0.00000000000E+00  0.00000000000E+00  0.45593999997E+02  0.45594000000E+02  0.51100000000E-03 0. -1.
         11   -1    0    0    0    0 -0.00000000000E+00 -0.00000000000E+00 -0.45593999997E+02  0.45594000000E+02  0.51100000000E-03 0.  1.
    9900012    2    1    2    0    0 -0.31058607839E+02  0.17288651006E+02 -0.24901581125E+02  0.47787270547E+02  0.19999997733E+02 0.  0.
         12    1    1    2    0    0  0.31058607839E+02 -0.17288651006E+02  0.24901581125E+02  0.43400729453E+02  0.00000000000E+00 0. -1.
         11    1    3    3    0    0 -0.14945740480E+02  0.18010101143E+02 -0.10617753363E+02  0.25699719618E+02  0.51100000000E-03 0. -1.
        -11    1    3    3    0    0 -0.13943656782E+02  0.11336819292E+01 -0.12026954407E+02  0.18448805700E+02  0.51100000000E-03 0.  1.
         12    1    3    3    0    0 -0.21692105765E+01 -0.18551320661E+01 -0.22568733552E+01  0.36387452301E+01  0.00000000000E+00 0. -1.
</event>
<event>
 7    1  0.1019486E-010  0.4778727E+02  0.7816164E-02  0.1312668E+00
        -11   -1    0    0    0    0  0.00000000000E+00  0.00000000000E+00  0.45593999997E+02  0.45594000000E+02  0.51100000000E-03 0.  1.
         11   -1    0    0    0    0 -0.00000000000E+00 -0.00000000000E+00 -0.45593999997E+02  0.45594000000E+02  0.51100000000E-03 0. -1.
    9900012    2    1    2    0    0 -0.36239955056E+02  0.22857377727E+02  0.69158614668E+01  0.47787271908E+02  0.20000003939E+02 0.  0.
         12    1    1    2    0    0  0.36239955056E+02 -0.22857377727E+02 -0.69158614668E+01  0.43400728092E+02  0.00000000000E+00 0. -1.
         11    1    3    3    0    0 -0.27825396695E+02  0.13837959744E+02 -0.47926420356E+00  0.31080082457E+02  0.51100000000E-03 0. -1.
        -11    1    3    3    0    0 -0.24941935445E+01 -0.14942801303E+01  0.12245705158E+01  0.31549085176E+01  0.51100000000E-03 0.  1.
         12    1    3    3    0    0 -0.59203648173E+01  0.10513698113E+02  0.61705551546E+01  0.13552280934E+02  0.00000000000E+00 0. -1.
</event>
<event>
 7    1  0.1019486E-010  0.4778727E+02  0.7816164E-02  0.1312668E+00
        -11   -1    0    0    0    0  0.00000000000E+00  0.00000000000E+00  0.45593999997E+02  0.45594000000E+02  0.51100000000E-03 0. -1.
         11   -1    0    0    0    0 -0.00000000000E+00 -0.00000000000E+00 -0.45593999997E+02  0.45594000000E+02  0.51100000000E-03 0.  1.
    9900012    2    1    2    0    0 -0.29094118324E+02 -0.31819244602E+02 -0.49690688354E+01  0.47787266214E+02  0.19999977975E+02 0.  0.
         12    1    1    2    0    0  0.29094118324E+02  0.31819244602E+02  0.49690688354E+01  0.43400733786E+02  0.00000000000E+00 0. -1.
         11    1    3    3    0    0 -0.15888140406E+02 -0.23867372078E+02  0.21893935288E+01  0.28755484690E+02  0.51100000000E-03 0. -1.
        -11    1    3    3    0    0 -0.12424846797E+02 -0.76880821248E+01 -0.31595807589E+01  0.14948791774E+02  0.51100000000E-03 0.  1.
         12    1    3    3    0    0 -0.78113112093E+00 -0.26379039995E+00 -0.39988816053E+01  0.40829897497E+01  0.00000000000E+00 0. -1.
</event>
<event>
 7    1  0.1019486E-010  0.4778726E+02  0.7816164E-02  0.1312668E+00
        -11   -1    0    0    0    0  0.00000000000E+00  0.00000000000E+00  0.45593999997E+02  0.45594000000E+02  0.51100000000E-03 0. -1.
         11   -1    0    0    0    0 -0.00000000000E+00 -0.00000000000E+00 -0.45593999997E+02  0.45594000000E+02  0.51100000000E-03 0.  1.
    9900012    2    1    2    0    0 -0.31770052360E+02  0.13515297669E+02 -0.26298756518E+02  0.47787261614E+02  0.19999957003E+02 0.  0.
         12    1    1    2    0    0  0.31770052360E+02 -0.13515297669E+02  0.26298756518E+02  0.43400738386E+02  0.00000000000E+00 0. -1.
         11    1    3    3    0    0 -0.17610392325E+02  0.11569995621E+02 -0.15358928150E+02  0.26074650346E+02  0.51100000000E-03 0. -1.
        -11    1    3    3    0    0 -0.11487042428E+02  0.52300409079E+01 -0.11925857430E+02  0.17364663756E+02  0.51100000000E-03 0.  1.
        -12    1    3    3    0    0 -0.26726176080E+01 -0.32847388604E+01  0.98602906227E+00  0.43479475125E+01  0.00000000000E+00 0.  1.
</event>
<event>
 7    1  0.1019486E-010  0.4778727E+02  0.7816164E-02  0.1312668E+00
        -11   -1    0    0    0    0  0.00000000000E+00  0.00000000000E+00  0.45593999997E+02  0.45594000000E+02  0.51100000000E-03 0. -1.
         11   -1    0    0    0    0 -0.00000000000E+00 -0.00000000000E+00 -0.45593999997E+02  0.45594000000E+02  0.51100000000E-03 0.  1.
    9900012    2    1    2    0    0 -0.16819758146E+02 -0.27280611877E+02  0.29265803723E+02  0.47787270559E+02  0.19999997787E+02 0.  0.
        -12    1    1    2    0    0  0.16819758146E+02  0.27280611877E+02 -0.29265803723E+02  0.43400729441E+02  0.00000000000E+00 0.  1.
         11    1    3    3    0    0 -0.96349891467E+01 -0.15938445764E+02  0.82213663733E+01  0.20358239967E+02  0.51100000000E-03 0.  1.
        -11    1    3    3    0    0 -0.82085090908E+01 -0.89924254817E+01  0.21610335629E+02  0.24804232377E+02  0.51100000000E-03 0. -1.
         12    1    3    3    0    0  0.10237400919E+01 -0.23497406314E+01 -0.56589827976E+00  0.26247982158E+01  0.00000000000E+00 0. -1.
</event>
<event>
 7    1  0.1019486E-010  0.4778727E+02  0.7816164E-02  0.1312668E+00
        -11   -1    0    0    0    0  0.00000000000E+00  0.00000000000E+00  0.45593999997E+02  0.45594000000E+02  0.51100000000E-03 0. -1.
         11   -1    0    0    0    0 -0.00000000000E+00 -0.00000000000E+00 -0.45593999997E+02  0.45594000000E+02  0.51100000000E-03 0.  1.
    9900012    2    1    2    0    0 -0.19494571953E+02  0.35481050850E+02 -0.15642249542E+02  0.47787271022E+02  0.19999999899E+02 0.  0.
         12    1    1    2    0    0  0.19494571953E+02 -0.35481050850E+02  0.15642249542E+02  0.43400728978E+02  0.00000000000E+00 0. -1.
         11    1    3    3    0    0 -0.16145360544E+01  0.11096271033E+02  0.24587797152E+01  0.11479527667E+02  0.51100000000E-03 0. -1.
        -11    1    3    3    0    0 -0.17361156032E+02  0.21882069540E+02 -0.13453453489E+02  0.31003711345E+02  0.51100000000E-03 0.  1.
         12    1    3    3    0    0 -0.51887986674E+00  0.25027102773E+01 -0.46475757678E+01  0.53040320102E+01  0.00000000000E+00 0. -1.
</event>
<event>
 7    1  0.1019486E-010  0.4778725E+02  0.7816164E-02  0.1312668E+00
        -11   -1    0    0    0    0  0.00000000000E+00  0.00000000000E+00  0.45593999997E+02  0.45594000000E+02  0.51100000000E-03 0. -1.
         11   -1    0    0    0    0 -0.00000000000E+00 -0.00000000000E+00 -0.45593999997E+02  0.45594000000E+02  0.51100000000E-03 0.  1.
    9900012    2    1    2    0    0 -0.39493977873E+02 -0.17349257852E+02 -0.47805863984E+01  0.47787250668E+02  0.19999907096E+02 0.  0.
         12    1    1    2    0    0  0.39493977873E+02  0.17349257852E+02  0.47805863984E+01  0.43400749332E+02  0.00000000000E+00 0. -1.
         11    1    3    3    0    0 -0.17391451949E+00  0.91349047464E+00 -0.18946975674E+01  0.21105900219E+01  0.51100000000E-03 0. -1.
        -11    1    3    3    0    0 -0.10989128862E+01 -0.10066626816E+01 -0.34271529793E+01  0.37371589598E+01  0.51100000000E-03 0.  1.
        -12    1    3    3    0    0 -0.38221150467E+02 -0.17256085645E+02  0.54126414829E+00  0.41939501687E+02  0.00000000000E+00 0.  1.
</event>
<event>
 7    1  0.1019486E-010  0.4778728E+02  0.7816164E-02  0.1312668E+00
        -11   -1    0    0    0    0  0.00000000000E+00  0.00000000000E+00  0.45593999997E+02  0.45594000000E+02  0.51100000000E-03 0. -1.
         11   -1    0    0    0    0 -0.00000000000E+00 -0.00000000000E+00 -0.45593999997E+02  0.45594000000E+02  0.51100000000E-03 0.  1.
    9900012    2    1    2    0    0 -0.27303857680E+02 -0.30622825485E+02 -0.14155012188E+02  0.47787280479E+02  0.20000043017E+02 0.  0.
         12    1    1    2    0    0  0.27303857680E+02  0.30622825485E+02  0.14155012188E+02  0.43400719521E+02  0.00000000000E+00 0. -1.
         11    1    3    3    0    0 -0.54971687455E+01 -0.13257436372E+02 -0.13192368598E+02  0.19494026594E+02  0.51100000000E-03 0. -1.
        -11    1    3    3    0    0 -0.10364565840E+02 -0.11203904430E+02 -0.10298821040E+01  0.15297462435E+02  0.51100000000E-03 0.  1.
         12    1    3    3    0    0 -0.11442123094E+02 -0.61614846834E+01  0.67238514097E-01  0.12995791450E+02  0.00000000000E+00 0. -1.
</event>
<event>
 7    1  0.1019486E-010  0.4778727E+02  0.7816164E-02  0.1312668E+00
        -11   -1    0    0    0    0  0.00000000000E+00  0.00000000000E+00  0.45593999997E+02  0.45594000000E+02  0.51100000000E-03 0.  1.
         11   -1    0    0    0    0 -0.00000000000E+00 -0.00000000000E+00 -0.45593999997E+02  0.45594000000E+02  0.51100000000E-03 0. -1.
    9900012    2    1    2    0    0 -0.89509366922E+01 -0.39908000076E+02  0.14520854696E+02  0.47787274673E+02  0.20000016545E+02 0.  0.
        -12    1    1    2    0    0  0.89509366922E+01  0.39908000076E+02 -0.14520854696E+02  0.43400725327E+02  0.00000000000E+00 0.  1.
         11    1    3    3    0    0  0.79993777205E+00 -0.42185447603E+01 -0.17751960162E+00  0.42973868576E+01  0.51100000000E-03 0.  1.
        -11    1    3    3    0    0 -0.68292048697E+01 -0.19196023645E+02 -0.11813341948E+01  0.20408844006E+02  0.51100000000E-03 0. -1.
        -12    1    3    3    0    0 -0.29216695946E+01 -0.16493431671E+02  0.15879708493E+02  0.23081043809E+02  0.00000000000E+00 0.  1.
</event>
<event>
 7    1  0.1019486E-010  0.4778725E+02  0.7816164E-02  0.1312668E+00
        -11   -1    0    0    0    0  0.00000000000E+00  0.00000000000E+00  0.45593999997E+02  0.45594000000E+02  0.51100000000E-03 0.  1.
         11   -1    0    0    0    0 -0.00000000000E+00 -0.00000000000E+00 -0.45593999997E+02  0.45594000000E+02  0.51100000000E-03 0. -1.
    9900012    2    1    2    0    0  0.42223956521E+02  0.74289063709E+01 -0.67508425097E+01  0.47787250828E+02  0.19999907823E+02 0.  0.
        -12    1    1    2    0    0 -0.42223956521E+02 -0.74289063709E+01  0.67508425097E+01  0.43400749172E+02  0.00000000000E+00 0.  1.
         11    1    3    3    0    0  0.13662922924E+02  0.20975027402E+01  0.12819128848E+01  0.13882301015E+02  0.51100000000E-03 0. -1.
        -11    1    3    3    0    0  0.29141392937E+02  0.77639143119E+01 -0.85599640196E+01  0.31349196673E+02  0.51100000000E-03 0.  1.
        -12    1    3    3    0    0 -0.58035934003E+00 -0.24325106811E+01  0.52720862514E+00  0.25557531399E+01  0.00000000000E+00 0.  1.
</event>
<event>
 7    1  0.1019486E-010  0.4778727E+02  0.7816164E-02  0.1312668E+00
        -11   -1    0    0    0    0  0.00000000000E+00  0.00000000000E+00  0.45593999997E+02  0.45594000000E+02  0.51100000000E-03 0. -1.
         11   -1    0    0    0    0 -0.00000000000E+00 -0.00000000000E+00 -0.45593999997E+02  0.45594000000E+02  0.51100000000E-03 0.  1.
    9900012    2    1    2    0    0 -0.11709786919E+02  0.42868436144E+01  0.41570747048E+02  0.47787272494E+02  0.20000006611E+02 0.  0.
        -12    1    1    2    0    0  0.11709786919E+02 -0.42868436144E+01 -0.41570747048E+02  0.43400727506E+02  0.00000000000E+00 0.  1.
         11    1    3    3    0    0 -0.69073258037E+01  0.71257416627E+01  0.30810616631E+02  0.32369452288E+02  0.51100000000E-03 0. -1.
        -11    1    3    3    0    0 -0.75349006922E+01 -0.27855406604E+01  0.94002605365E+01  0.12365228005E+02  0.51100000000E-03 0.  1.
         12    1    3    3    0    0  0.27324395766E+01 -0.53357387855E-01  0.13598698811E+01  0.30525922008E+01  0.00000000000E+00 0. -1.
</event>
<event>
 7    1  0.1019486E-010  0.4778727E+02  0.7816164E-02  0.1312668E+00
        -11   -1    0    0    0    0  0.00000000000E+00  0.00000000000E+00  0.45593999997E+02  0.45594000000E+02  0.51100000000E-03 0.  1.
         11   -1    0    0    0    0 -0.00000000000E+00 -0.00000000000E+00 -0.45593999997E+02  0.45594000000E+02  0.51100000000E-03 0. -1.
    9900012    2    1    2    0    0  0.19255489580E+02 -0.38838684435E+02  0.20991656434E+01  0.47787265168E+02  0.19999973205E+02 0.  0.
        -12    1    1    2    0    0 -0.19255489580E+02  0.38838684435E+02 -0.20991656434E+01  0.43400734832E+02  0.00000000000E+00 0.  1.
         11    1    3    3    0    0  0.47499013691E+01 -0.15673153187E+02  0.38529712043E+01  0.16824228993E+02  0.51100000000E-03 0. -1.
        -11    1    3    3    0    0  0.83155910170E+01 -0.66547659765E+01 -0.67827225604E+01  0.12626966768E+02  0.51100000000E-03 0.  1.
        -12    1    3    3    0    0  0.61899971942E+01 -0.16510765271E+02  0.50289169994E+01  0.18336069407E+02  0.00000000000E+00 0.  1.
</event>
<event>
 7    1  0.1019486E-010  0.4778727E+02  0.7816164E-02  0.1312668E+00
        -11   -1    0    0    0    0  0.00000000000E+00  0.00000000000E+00  0.45593999997E+02  0.45594000000E+02  0.51100000000E-03 0. -1.
         11   -1    0    0    0    0 -0.00000000000E+00 -0.00000000000E+00 -0.45593999997E+02  0.45594000000E+02  0.51100000000E-03 0.  1.
    9900012    2    1    2    0    0 -0.25818617462E+01 -0.77023581912E+01  0.42633683902E+02  0.47787270342E+02  0.19999996796E+02 0.  0.
        -12    1    1    2    0    0  0.25818617462E+01  0.77023581912E+01 -0.42633683902E+02  0.43400729658E+02  0.00000000000E+00 0.  1.
         11    1    3    3    0    0 -0.96292248422E+01 -0.22400899356E+01  0.20120152107E+02  0.22417861072E+02  0.51100000000E-03 0. -1.
        -11    1    3    3    0    0 -0.89432104842E+00 -0.61891773818E+00  0.87978285288E-01  0.10911506514E+01  0.51100000000E-03 0.  1.
         12    1    3    3    0    0  0.79416841444E+01 -0.48433505175E+01  0.22425553510E+02  0.24278258618E+02  0.00000000000E+00 0. -1.
</event>
<event>
 7    1  0.1019486E-010  0.4778726E+02  0.7816164E-02  0.1312668E+00
        -11   -1    0    0    0    0  0.00000000000E+00  0.00000000000E+00  0.45593999997E+02  0.45594000000E+02  0.51100000000E-03 0. -1.
         11   -1    0    0    0    0 -0.00000000000E+00 -0.00000000000E+00 -0.45593999997E+02  0.45594000000E+02  0.51100000000E-03 0.  1.
    9900012    2    1    2    0    0  0.13875235979E+02  0.24544043529E+01  0.41049700520E+02  0.47787260525E+02  0.19999952039E+02 0.  0.
        -12    1    1    2    0    0 -0.13875235979E+02 -0.24544043529E+01 -0.41049700520E+02  0.43400739475E+02  0.00000000000E+00 0.  1.
         11    1    3    3    0    0  0.93723491510E+01 -0.44820482844E+01  0.89164723903E+01  0.13690623272E+02  0.51100000000E-03 0. -1.
        -11    1    3    3    0    0 -0.18606223068E+01  0.67941458969E-01  0.79240449418E+01  0.81398415163E+01  0.51100000000E-03 0.  1.
         12    1    3    3    0    0  0.63635091346E+01  0.68685111783E+01  0.24209183188E+02  0.25956795737E+02  0.00000000000E+00 0. -1.
</event>
<event>
 7    1  0.1019486E-010  0.4778723E+02  0.7816164E-02  0.1312668E+00
        -11   -1    0    0    0    0  0.00000000000E+00  0.00000000000E+00  0.45593999997E+02  0.45594000000E+02  0.51100000000E-03 0.  1.
         11   -1    0    0    0    0 -0.00000000000E+00 -0.00000000000E+00 -0.45593999997E+02  0.45594000000E+02  0.51100000000E-03 0. -1.
    9900012    2    1    2    0    0  0.16010511973E+02  0.39392232243E+02  0.86915156534E+01  0.47787229280E+02  0.19999809578E+02 0.  0.
         12    1    1    2    0    0 -0.16010511973E+02 -0.39392232243E+02 -0.86915156534E+01  0.43400770720E+02  0.00000000000E+00 0. -1.
         11    1    3    3    0    0  0.10238244976E+02  0.83272911837E+01  0.93508692367E+01  0.16174182959E+02  0.51100000000E-03 0. -1.
        -11    1    3    3    0    0  0.45054580284E+01  0.25720119626E+02 -0.66214809815E+00  0.26120148276E+02  0.51100000000E-03 0.  1.
         12    1    3    3    0    0  0.12668089684E+01  0.53448214337E+01  0.27945148235E-02  0.54928980448E+01  0.00000000000E+00 0. -1.
</event>
<event>
 7    1  0.1019486E-010  0.4778728E+02  0.7816164E-02  0.1312668E+00
        -11   -1    0    0    0    0  0.00000000000E+00  0.00000000000E+00  0.45593999997E+02  0.45594000000E+02  0.51100000000E-03 0. -1.
         11   -1    0    0    0    0 -0.00000000000E+00 -0.00000000000E+00 -0.45593999997E+02  0.45594000000E+02  0.51100000000E-03 0.  1.
    9900012    2    1    2    0    0  0.16109048993E+02 -0.36640307086E+02 -0.16781195333E+02  0.47787284803E+02  0.20000062729E+02 0.  0.
         12    1    1    2    0    0 -0.16109048993E+02  0.36640307086E+02  0.16781195333E+02  0.43400715197E+02  0.00000000000E+00 0. -1.
         11    1    3    3    0    0  0.59103859554E+01 -0.15009011364E+02  0.23753803678E+01  0.16304769745E+02  0.51100000000E-03 0.  1.
        -11    1    3    3    0    0  0.68727794463E+01 -0.87299256442E+01 -0.12019561678E+02  0.16368156960E+02  0.51100000000E-03 0. -1.
        -12    1    3    3    0    0  0.33258835916E+01 -0.12901370077E+02 -0.71370140228E+01  0.15114358098E+02  0.00000000000E+00 0.  1.
</event>
<event>
 7    1  0.1019486E-010  0.4778727E+02  0.7816164E-02  0.1312668E+00
        -11   -1    0    0    0    0  0.00000000000E+00  0.00000000000E+00  0.45593999997E+02  0.45594000000E+02  0.51100000000E-03 0. -1.
         11   -1    0    0    0    0 -0.00000000000E+00 -0.00000000000E+00 -0.45593999997E+02  0.45594000000E+02  0.51100000000E-03 0.  1.
    9900012    2    1    2    0    0  0.27795045742E+02 -0.14739507608E+02  0.29896583743E+02  0.47787269916E+02  0.19999994855E+02 0.  0.
        -12    1    1    2    0    0 -0.27795045742E+02  0.14739507608E+02 -0.29896583743E+02  0.43400730084E+02  0.00000000000E+00 0.  1.
         11    1    3    3    0    0  0.18288529478E+02 -0.80819434869E+01  0.17864551882E+02  0.26812876295E+02  0.51100000000E-03 0. -1.
        -11    1    3    3    0    0 -0.12763371258E+01  0.26425739383E+01  0.18508055066E+01  0.34695410017E+01  0.51100000000E-03 0.  1.
        -12    1    3    3    0    0  0.10782853390E+02 -0.93001380599E+01  0.10181226354E+02  0.17504852620E+02  0.00000000000E+00 0.  1.
</event>
<event>
 7    1  0.1019486E-010  0.4778727E+02  0.7816164E-02  0.1312668E+00
        -11   -1    0    0    0    0  0.00000000000E+00  0.00000000000E+00  0.45593999997E+02  0.45594000000E+02  0.51100000000E-03 0.  1.
         11   -1    0    0    0    0 -0.00000000000E+00 -0.00000000000E+00 -0.45593999997E+02  0.45594000000E+02  0.51100000000E-03 0. -1.
    9900012    2    1    2    0    0  0.52444075822E+01  0.41917558908E+02  0.99517592269E+01  0.47787273423E+02  0.20000010845E+02 0.  0.
        -12    1    1    2    0    0 -0.52444075822E+01 -0.41917558908E+02 -0.99517592269E+01  0.43400726577E+02  0.00000000000E+00 0.  1.
         11    1    3    3    0    0 -0.23330207576E+01  0.34328379408E+02  0.71771228304E+01  0.35148139510E+02  0.51100000000E-03 0. -1.
        -11    1    3    3    0    0  0.15420395177E+01 -0.61776613783E+00  0.17300843586E+01  0.23984813996E+01  0.51100000000E-03 0.  1.
         12    1    3    3    0    0  0.60353888221E+01  0.82069456375E+01  0.10445520379E+01  0.10240652513E+02  0.00000000000E+00 0. -1.
</event>
<event>
 7    1  0.1019486E-010  0.4778728E+02  0.7816164E-02  0.1312668E+00
        -11   -1    0    0    0    0  0.00000000000E+00  0.00000000000E+00  0.45593999997E+02  0.45594000000E+02  0.51100000000E-03 0.  1.
         11   -1    0    0    0    0 -0.00000000000E+00 -0.00000000000E+00 -0.45593999997E+02  0.45594000000E+02  0.51100000000E-03 0. -1.
    9900012    2    1    2    0    0  0.43285914733E+02  0.47437492026E+00  0.31188884392E+01  0.47787275226E+02  0.20000019066E+02 0.  0.
         12    1    1    2    0    0 -0.43285914733E+02 -0.47437492026E+00 -0.31188884392E+01  0.43400724774E+02  0.00000000000E+00 0. -1.
         11    1    3    3    0    0  0.74791841461E+01 -0.52802981313E+00  0.49928369622E+01  0.90080759414E+01  0.51100000000E-03 0. -1.
        -11    1    3    3    0    0  0.30549428910E+02  0.63000721332E+01 -0.53730936189E+00  0.31196910380E+02  0.51100000000E-03 0.  1.
        -12    1    3    3    0    0  0.52573016763E+01 -0.52976673998E+01 -0.13366391611E+01  0.75822889052E+01  0.00000000000E+00 0.  1.
</event>
<event>
 7    1  0.1019486E-010  0.4778728E+02  0.7816164E-02  0.1312668E+00
        -11   -1    0    0    0    0  0.00000000000E+00  0.00000000000E+00  0.45593999997E+02  0.45594000000E+02  0.51100000000E-03 0. -1.
         11   -1    0    0    0    0 -0.00000000000E+00 -0.00000000000E+00 -0.45593999997E+02  0.45594000000E+02  0.51100000000E-03 0.  1.
    9900012    2    1    2    0    0  0.91028690823E+01  0.15271479712E+01  0.42407882115E+02  0.47787275675E+02  0.20000021112E+02 0.  0.
        -12    1    1    2    0    0 -0.91028690823E+01 -0.15271479712E+01 -0.42407882115E+02  0.43400724325E+02  0.00000000000E+00 0.  1.
         11    1    3    3    0    0  0.19566982250E+01  0.31927573801E+01  0.56678924726E+01  0.67931857750E+01  0.51100000000E-03 0. -1.
        -11    1    3    3    0    0  0.54640548340E+00  0.64059409317E+01  0.22132204740E+02  0.23047106654E+02  0.51100000000E-03 0.  1.
        -12    1    3    3    0    0  0.65997653739E+01 -0.80715503406E+01  0.14607784902E+02  0.17946983246E+02  0.00000000000E+00 0.  1.
</event>
<event>
 7    1  0.1019486E-010  0.4778727E+02  0.7816164E-02  0.1312668E+00
        -11   -1    0    0    0    0  0.00000000000E+00  0.00000000000E+00  0.45593999997E+02  0.45594000000E+02  0.51100000000E-03 0. -1.
         11   -1    0    0    0    0 -0.00000000000E+00 -0.00000000000E+00 -0.45593999997E+02  0.45594000000E+02  0.51100000000E-03 0.  1.
    9900012    2    1    2    0    0 -0.25903363549E+02  0.11107291002E+02 -0.33004045846E+02  0.47787271910E+02  0.20000003945E+02 0.  0.
         12    1    1    2    0    0  0.25903363549E+02 -0.11107291002E+02  0.33004045846E+02  0.43400728090E+02  0.00000000000E+00 0. -1.
         11    1    3    3    0    0  0.18469986327E+01  0.37386163876E+01 -0.49514444572E+01  0.64734425862E+01  0.51100000000E-03 0. -1.
        -11    1    3    3    0    0 -0.18410739853E+02  0.40488609390E+00 -0.19780640430E+02  0.27025784184E+02  0.51100000000E-03 0.  1.
        -12    1    3    3    0    0 -0.93396223284E+01  0.69637885207E+01 -0.82719609585E+01  0.14288045139E+02  0.00000000000E+00 0.  1.
</event>
<event>
 7    1  0.1019486E-010  0.4778727E+02  0.7816164E-02  0.1312668E+00
        -11   -1    0    0    0    0  0.00000000000E+00  0.00000000000E+00  0.45593999997E+02  0.45594000000E+02  0.51100000000E-03 0. -1.
         11   -1    0    0    0    0 -0.00000000000E+00 -0.00000000000E+00 -0.45593999997E+02  0.45594000000E+02  0.51100000000E-03 0.  1.
    9900012    2    1    2    0    0  0.23160982633E+02 -0.22017938638E+02 -0.29366693786E+02  0.47787269104E+02  0.19999991155E+02 0.  0.
         12    1    1    2    0    0 -0.23160982633E+02  0.22017938638E+02  0.29366693786E+02  0.43400730896E+02  0.00000000000E+00 0. -1.
         11    1    3    3    0    0  0.10273799290E+02  0.86947535269E-01 -0.10283943561E+02  0.14536781183E+02  0.51100000000E-03 0. -1.
        -11    1    3    3    0    0  0.12925765494E+02 -0.15007056892E+02 -0.16207193702E+02  0.25592192132E+02  0.51100000000E-03 0.  1.
         12    1    3    3    0    0 -0.38582151229E-01 -0.70978292813E+01 -0.28755565224E+01  0.76582957897E+01  0.00000000000E+00 0. -1.
</event>
<event>
 7    1  0.1019486E-010  0.4778727E+02  0.7816164E-02  0.1312668E+00
        -11   -1    0    0    0    0  0.00000000000E+00  0.00000000000E+00  0.45593999997E+02  0.45594000000E+02  0.51100000000E-03 0. -1.
         11   -1    0    0    0    0 -0.00000000000E+00 -0.00000000000E+00 -0.45593999997E+02  0.45594000000E+02  0.51100000000E-03 0.  1.
    9900012    2    1    2    0    0  0.51327788503E+01 -0.72784206802E+01 -0.42477084200E+02  0.47787268342E+02  0.19999987680E+02 0.  0.
         12    1    1    2    0    0 -0.51327788503E+01  0.72784206802E+01  0.42477084200E+02  0.43400731658E+02  0.00000000000E+00 0. -1.
         11    1    3    3    0    0  0.45668334547E+00  0.50443575629E+00 -0.32595693777E+02  0.32602795404E+02  0.51100000000E-03 0. -1.
        -11    1    3    3    0    0 -0.11449060246E+01 -0.17759433064E+01 -0.51679765437E+01  0.55832576736E+01  0.51100000000E-03 0.  1.
         12    1    3    3    0    0  0.58210015294E+01 -0.60069131301E+01 -0.47134138791E+01  0.96012152644E+01  0.00000000000E+00 0. -1.
</event>
<event>
 7    1  0.1019486E-010  0.4778727E+02  0.7816164E-02  0.1312668E+00
        -11   -1    0    0    0    0  0.00000000000E+00  0.00000000000E+00  0.45593999997E+02  0.45594000000E+02  0.51100000000E-03 0. -1.
         11   -1    0    0    0    0 -0.00000000000E+00 -0.00000000000E+00 -0.45593999997E+02  0.45594000000E+02  0.51100000000E-03 0.  1.
    9900012    2    1    2    0    0 -0.18035865541E+02 -0.23723769117E+02  0.31551759624E+02  0.47787271870E+02  0.20000003762E+02 0.  0.
        -12    1    1    2    0    0  0.18035865541E+02  0.23723769117E+02 -0.31551759624E+02  0.43400728130E+02  0.00000000000E+00 0.  1.
         11    1    3    3    0    0 -0.16930040034E+02 -0.12948166165E+02  0.21510595010E+02  0.30281792559E+02  0.51100000000E-03 0. -1.
        -11    1    3    3    0    0 -0.37435364972E+01 -0.39404969156E+01  0.47477322471E+00  0.54559134271E+01  0.51100000000E-03 0.  1.
         12    1    3    3    0    0  0.26377109907E+01 -0.68351060358E+01  0.95663913886E+01  0.12049565884E+02  0.00000000000E+00 0. -1.
</event>
<event>
 7    1  0.1019486E-010  0.4778728E+02  0.7816164E-02  0.1312668E+00
        -11   -1    0    0    0    0  0.00000000000E+00  0.00000000000E+00  0.45593999997E+02  0.45594000000E+02  0.51100000000E-03 0. -1.
         11   -1    0    0    0    0 -0.00000000000E+00 -0.00000000000E+00 -0.45593999997E+02  0.45594000000E+02  0.51100000000E-03 0.  1.
    9900012    2    1    2    0    0 -0.73731320408E+01  0.25558971697E+02 -0.34292836569E+02  0.47787277077E+02  0.20000027503E+02 0.  0.
         12    1    1    2    0    0  0.73731320408E+01 -0.25558971697E+02  0.34292836569E+02  0.43400722923E+02  0.00000000000E+00 0. -1.
         11    1    3    3    0    0  0.68963158018E+00 -0.38248819620E+00  0.85430832464E+00  0.11626400609E+01  0.51100000000E-03 0. -1.
        -11    1    3    3    0    0 -0.12007924290E+02  0.16703672310E+02 -0.22844249325E+02  0.30741871151E+02  0.51100000000E-03 0.  1.
        -12    1    3    3    0    0  0.39451606685E+01  0.92377875836E+01 -0.12302895569E+02  0.15882765865E+02  0.00000000000E+00 0.  1.
</event>
<event>
 7    1  0.1019486E-010  0.4778727E+02  0.7816164E-02  0.1312668E+00
        -11   -1    0    0    0    0  0.00000000000E+00  0.00000000000E+00  0.45593999997E+02  0.45594000000E+02  0.51100000000E-03 0. -1.
         11   -1    0    0    0    0 -0.00000000000E+00 -0.00000000000E+00 -0.45593999997E+02  0.45594000000E+02  0.51100000000E-03 0.  1.
    9900012    2    1    2    0    0  0.30386443447E+02  0.19755494792E+02 -0.23874840185E+02  0.47787268282E+02  0.19999987404E+02 0.  0.
         12    1    1    2    0    0 -0.30386443447E+02 -0.19755494792E+02  0.23874840185E+02  0.43400731718E+02  0.00000000000E+00 0. -1.
         11    1    3    3    0    0  0.83823536758E+01  0.17111534092E+02 -0.93792752896E+01  0.21237684840E+02  0.51100000000E-03 0. -1.
        -11    1    3    3    0    0  0.15567640947E+02  0.10004555014E+01 -0.10244234564E+02  0.18662708751E+02  0.51100000000E-03 0.  1.
         12    1    3    3    0    0  0.64364488237E+01  0.16435051982E+01 -0.42513303321E+01  0.78868746908E+01  0.00000000000E+00 0. -1.
</event>
<event>
 7    1  0.1019486E-010  0.4778728E+02  0.7816164E-02  0.1312668E+00
        -11   -1    0    0    0    0  0.00000000000E+00  0.00000000000E+00  0.45593999997E+02  0.45594000000E+02  0.51100000000E-03 0. -1.
         11   -1    0    0    0    0 -0.00000000000E+00 -0.00000000000E+00 -0.45593999997E+02  0.45594000000E+02  0.51100000000E-03 0.  1.
    9900012    2    1    2    0    0  0.23412398490E+02 -0.15070010245E+02  0.33292294846E+02  0.47787279868E+02  0.20000040232E+02 0.  0.
        -12    1    1    2    0    0 -0.23412398490E+02  0.15070010245E+02 -0.33292294846E+02  0.43400720132E+02  0.00000000000E+00 0.  1.
         11    1    3    3    0    0  0.10061653061E+02 -0.65984598262E+01  0.21271127558E+02  0.24438441076E+02  0.51100000000E-03 0. -1.
        -11    1    3    3    0    0  0.91565154640E+01 -0.70103441839E-01  0.15553681345E+01  0.92879416574E+01  0.51100000000E-03 0.  1.
        -12    1    3    3    0    0  0.41942299648E+01 -0.84014469774E+01  0.10465799153E+02  0.14060897135E+02  0.00000000000E+00 0.  1.
</event>
<event>
 7    1  0.1019486E-010  0.4778727E+02  0.7816164E-02  0.1312668E+00
        -11   -1    0    0    0    0  0.00000000000E+00  0.00000000000E+00  0.45593999997E+02  0.45594000000E+02  0.51100000000E-03 0.  1.
         11   -1    0    0    0    0 -0.00000000000E+00 -0.00000000000E+00 -0.45593999997E+02  0.45594000000E+02  0.51100000000E-03 0. -1.
    9900012    2    1    2    0    0  0.41600748697E+01 -0.39341129674E+02  0.17849156539E+02  0.47787273093E+02  0.20000009339E+02 0.  0.
        -12    1    1    2    0    0 -0.41600748697E+01  0.39341129674E+02 -0.17849156539E+02  0.43400726907E+02  0.00000000000E+00 0.  1.
         11    1    3    3    0    0 -0.10958365430E+01 -0.14641979611E+02  0.54573783796E+01  0.15664335405E+02  0.51100000000E-03 0. -1.
        -11    1    3    3    0    0 -0.44354717489E+01 -0.47778635488E+01 -0.41763662285E+00  0.65326725263E+01  0.51100000000E-03 0.  1.
        -12    1    3    3    0    0  0.96913831616E+01 -0.19921286514E+02  0.12809414782E+02  0.25590265161E+02  0.00000000000E+00 0.  1.
</event>
<event>
 7    1  0.1019486E-010  0.4778727E+02  0.7816164E-02  0.1312668E+00
        -11   -1    0    0    0    0  0.00000000000E+00  0.00000000000E+00  0.45593999997E+02  0.45594000000E+02  0.51100000000E-03 0. -1.
         11   -1    0    0    0    0 -0.00000000000E+00 -0.00000000000E+00 -0.45593999997E+02  0.45594000000E+02  0.51100000000E-03 0.  1.
    9900012    2    1    2    0    0  0.21815752768E+02  0.12637739191E+02 -0.35326812313E+02  0.47787272023E+02  0.20000004463E+02 0.  0.
         12    1    1    2    0    0 -0.21815752768E+02 -0.12637739191E+02  0.35326812313E+02  0.43400727977E+02  0.00000000000E+00 0. -1.
         11    1    3    3    0    0  0.53902387106E+01  0.84589119161E+01 -0.20720426348E+02  0.23020511125E+02  0.51100000000E-03 0.  1.
        -11    1    3    3    0    0  0.66372631035E+01 -0.12682669898E+01 -0.53132132363E+00  0.67782051660E+01  0.51100000000E-03 0. -1.
         12    1    3    3    0    0  0.97882509544E+01  0.54470942651E+01 -0.14075064641E+02  0.17988555732E+02  0.00000000000E+00 0. -1.
</event>
<event>
 7    1  0.1019486E-010  0.4778727E+02  0.7816164E-02  0.1312668E+00
        -11   -1    0    0    0    0  0.00000000000E+00  0.00000000000E+00  0.45593999997E+02  0.45594000000E+02  0.51100000000E-03 0. -1.
         11   -1    0    0    0    0 -0.00000000000E+00 -0.00000000000E+00 -0.45593999997E+02  0.45594000000E+02  0.51100000000E-03 0.  1.
    9900012    2    1    2    0    0 -0.96762007641E+00  0.69047682042E+01 -0.42837031645E+02  0.47787269675E+02  0.19999993755E+02 0.  0.
         12    1    1    2    0    0  0.96762007641E+00 -0.69047682042E+01  0.42837031645E+02  0.43400730325E+02  0.00000000000E+00 0. -1.
         11    1    3    3    0    0  0.37509846825E+01  0.66841830272E+00 -0.58895033226E+01  0.70144792226E+01  0.51100000000E-03 0. -1.
        -11    1    3    3    0    0 -0.66415181010E+01 -0.32530009886E+00 -0.56156865096E+01  0.87035348035E+01  0.51100000000E-03 0.  1.
        -12    1    3    3    0    0  0.19229133421E+01  0.65616500003E+01 -0.31331841813E+02  0.32069255649E+02  0.00000000000E+00 0.  1.
</event>
<event>
 7    1  0.1019486E-010  0.4778728E+02  0.7816164E-02  0.1312668E+00
        -11   -1    0    0    0    0  0.00000000000E+00  0.00000000000E+00  0.45593999997E+02  0.45594000000E+02  0.51100000000E-03 0. -1.
         11   -1    0    0    0    0 -0.00000000000E+00 -0.00000000000E+00 -0.45593999997E+02  0.45594000000E+02  0.51100000000E-03 0.  1.
    9900012    2    1    2    0    0 -0.31679983345E+02 -0.38287759600E+00 -0.29662347971E+02  0.47787276191E+02  0.20000023465E+02 0.  0.
         12    1    1    2    0    0  0.31679983345E+02  0.38287759600E+00  0.29662347971E+02  0.43400723809E+02  0.00000000000E+00 0. -1.
         11    1    3    3    0    0 -0.85307487119E+01  0.63733141866E+01 -0.49868225612E+01  0.11758452569E+02  0.51100000000E-03 0. -1.
        -11    1    3    3    0    0 -0.21343369631E+02 -0.41792831853E+01 -0.16593971938E+02  0.27356274237E+02  0.51100000000E-03 0.  1.
         12    1    3    3    0    0 -0.18058650020E+01 -0.25769085973E+01 -0.80815534714E+01  0.86725493850E+01  0.00000000000E+00 0. -1.
</event>
<event>
 7    1  0.1019486E-010  0.4778729E+02  0.7816164E-02  0.1312668E+00
        -11   -1    0    0    0    0  0.00000000000E+00  0.00000000000E+00  0.45593999997E+02  0.45594000000E+02  0.51100000000E-03 0. -1.
         11   -1    0    0    0    0 -0.00000000000E+00 -0.00000000000E+00 -0.45593999997E+02  0.45594000000E+02  0.51100000000E-03 0.  1.
    9900012    2    1    2    0    0  0.42562512914E+02  0.82006623837E+00 -0.84487870199E+01  0.47787285532E+02  0.20000066056E+02 0.  0.
         12    1    1    2    0    0 -0.42562512914E+02 -0.82006623837E+00  0.84487870199E+01  0.43400714468E+02  0.00000000000E+00 0. -1.
         11    1    3    3    0    0  0.17925319136E+02 -0.65144168817E+01 -0.92388051524E+01  0.21192220609E+02  0.51100000000E-03 0. -1.
        -11    1    3    3    0    0  0.17407824483E+02  0.57918689678E+01 -0.24782168416E+01  0.18512689118E+02  0.51100000000E-03 0.  1.
        -12    1    3    3    0    0  0.72293692945E+01  0.15426141523E+01  0.32682349741E+01  0.80823758057E+01  0.00000000000E+00 0.  1.
</event>
<event>
 7    1  0.1019486E-010  0.4778727E+02  0.7816164E-02  0.1312668E+00
        -11   -1    0    0    0    0  0.00000000000E+00  0.00000000000E+00  0.45593999997E+02  0.45594000000E+02  0.51100000000E-03 0. -1.
         11   -1    0    0    0    0 -0.00000000000E+00 -0.00000000000E+00 -0.45593999997E+02  0.45594000000E+02  0.51100000000E-03 0.  1.
    9900012    2    1    2    0    0  0.46901365950E+01  0.41300956089E+02 -0.12484257943E+02  0.47787273606E+02  0.20000011681E+02 0.  0.
         12    1    1    2    0    0 -0.46901365950E+01 -0.41300956089E+02  0.12484257943E+02  0.43400726394E+02  0.00000000000E+00 0. -1.
         11    1    3    3    0    0  0.34260222828E+01  0.19484929368E+02 -0.30669202407E+01  0.20020142387E+02  0.51100000000E-03 0. -1.
        -11    1    3    3    0    0 -0.52399678085E+01  0.84574397103E+01 -0.81395071065E+01  0.12854459354E+02  0.51100000000E-03 0.  1.
        -12    1    3    3    0    0  0.65040821207E+01  0.13358587010E+02 -0.12778305954E+01  0.14912671866E+02  0.00000000000E+00 0.  1.
</event>
<event>
 7    1  0.1019486E-010  0.4778727E+02  0.7816164E-02  0.1312668E+00
        -11   -1    0    0    0    0  0.00000000000E+00  0.00000000000E+00  0.45593999997E+02  0.45594000000E+02  0.51100000000E-03 0. -1.
         11   -1    0    0    0    0 -0.00000000000E+00 -0.00000000000E+00 -0.45593999997E+02  0.45594000000E+02  0.51100000000E-03 0.  1.
    9900012    2    1    2    0    0  0.17981871027E+02  0.26740240479E+02 -0.29072929350E+02  0.47787269966E+02  0.19999995082E+02 0.  0.
         12    1    1    2    0    0 -0.17981871027E+02 -0.26740240479E+02  0.29072929350E+02  0.43400730034E+02  0.00000000000E+00 0. -1.
         11    1    3    3    0    0  0.65993262194E+01  0.20922268734E+02 -0.23557042421E+02  0.32190475042E+02  0.51100000000E-03 0.  1.
        -11    1    3    3    0    0  0.45491649659E+01 -0.10106022532E+01 -0.32286774710E+01  0.56692660260E+01  0.51100000000E-03 0. -1.
        -12    1    3    3    0    0  0.68333798419E+01  0.68285739983E+01 -0.22872094579E+01  0.99275288979E+01  0.00000000000E+00 0.  1.
</event>
<event>
 7    1  0.1019486E-010  0.4778727E+02  0.7816164E-02  0.1312668E+00
        -11   -1    0    0    0    0  0.00000000000E+00  0.00000000000E+00  0.45593999997E+02  0.45594000000E+02  0.51100000000E-03 0. -1.
         11   -1    0    0    0    0 -0.00000000000E+00 -0.00000000000E+00 -0.45593999997E+02  0.45594000000E+02  0.51100000000E-03 0.  1.
    9900012    2    1    2    0    0 -0.21023553999E+02 -0.87950151640E+01  0.36936178613E+02  0.47787269534E+02  0.19999993112E+02 0.  0.
        -12    1    1    2    0    0  0.21023553999E+02  0.87950151640E+01 -0.36936178613E+02  0.43400730466E+02  0.00000000000E+00 0.  1.
         11    1    3    3    0    0 -0.61827415503E+01 -0.38197308431E+01  0.27089368241E+02  0.28047290578E+02  0.51100000000E-03 0.  1.
        -11    1    3    3    0    0 -0.10967762229E+02 -0.67179051617E+01  0.74097472283E+01  0.14843396253E+02  0.51100000000E-03 0. -1.
        -12    1    3    3    0    0 -0.38730502196E+01  0.17426208408E+01  0.24370631430E+01  0.48965827024E+01  0.00000000000E+00 0.  1.
</event>
<event>
 7    1  0.1019486E-010  0.4778728E+02  0.7816164E-02  0.1312668E+00
        -11   -1    0    0    0    0  0.00000000000E+00  0.00000000000E+00  0.45593999997E+02  0.45594000000E+02  0.51100000000E-03 0. -1.
         11   -1    0    0    0    0 -0.00000000000E+00 -0.00000000000E+00 -0.45593999997E+02  0.45594000000E+02  0.51100000000E-03 0.  1.
    9900012    2    1    2    0    0 -0.22633064153E+02  0.35321228066E+02  0.11125552432E+02  0.47787278094E+02  0.20000032143E+02 0.  0.
         12    1    1    2    0    0  0.22633064153E+02 -0.35321228066E+02 -0.11125552432E+02  0.43400721906E+02  0.00000000000E+00 0. -1.
         11    1    3    3    0    0 -0.14190649980E+02  0.16857151393E+02  0.13058060597E+02  0.25613493451E+02  0.51100000000E-03 0. -1.
        -11    1    3    3    0    0 -0.59692089558E+01  0.39946932494E+01 -0.21350355804E+01  0.74931573389E+01  0.51100000000E-03 0.  1.
         12    1    3    3    0    0 -0.24732052173E+01  0.14469383423E+02  0.20252741497E+00  0.14680627304E+02  0.00000000000E+00 0. -1.
</event>
<event>
 7    1  0.1019486E-010  0.4778727E+02  0.7816164E-02  0.1312668E+00
        -11   -1    0    0    0    0  0.00000000000E+00  0.00000000000E+00  0.45593999997E+02  0.45594000000E+02  0.51100000000E-03 0. -1.
         11   -1    0    0    0    0 -0.00000000000E+00 -0.00000000000E+00 -0.45593999997E+02  0.45594000000E+02  0.51100000000E-03 0.  1.
    9900012    2    1    2    0    0 -0.14971968087E+01 -0.19657111083E+02 -0.38664968073E+02  0.47787269931E+02  0.19999994924E+02 0.  0.
         12    1    1    2    0    0  0.14971968087E+01  0.19657111083E+02  0.38664968073E+02  0.43400730069E+02  0.00000000000E+00 0. -1.
         11    1    3    3    0    0  0.52151848673E+00  0.66259224466E+00 -0.34444296655E+01  0.35461395906E+01  0.51100000000E-03 0. -1.
        -11    1    3    3    0    0  0.29400814558E+01 -0.11664459516E+02 -0.61569864670E+01  0.13513407319E+02  0.51100000000E-03 0.  1.
        -12    1    3    3    0    0 -0.49587967513E+01 -0.86552438124E+01 -0.29063551941E+02  0.30727723021E+02  0.00000000000E+00 0.  1.
</event>
<event>
 7    1  0.1019486E-010  0.4778727E+02  0.7816164E-02  0.1312668E+00
        -11   -1    0    0    0    0  0.00000000000E+00  0.00000000000E+00  0.45593999997E+02  0.45594000000E+02  0.51100000000E-03 0. -1.
         11   -1    0    0    0    0 -0.00000000000E+00 -0.00000000000E+00 -0.45593999997E+02  0.45594000000E+02  0.51100000000E-03 0.  1.
    9900012    2    1    2    0    0  0.31745804944E+02 -0.62546620642E+01  0.28925885140E+02  0.47787265441E+02  0.19999974452E+02 0.  0.
        -12    1    1    2    0    0 -0.31745804944E+02  0.62546620642E+01 -0.28925885140E+02  0.43400734559E+02  0.00000000000E+00 0.  1.
         11    1    3    3    0    0  0.13035391121E+02  0.41121859881E+00  0.13167264191E+02  0.18532872658E+02  0.51100000000E-03 0. -1.
        -11    1    3    3    0    0  0.34186657487E+01 -0.82003905961E+01  0.83534434322E+01  0.12194822625E+02  0.51100000000E-03 0.  1.
        -12    1    3    3    0    0  0.15291748075E+02  0.15345099331E+01  0.74051775171E+01  0.17059570158E+02  0.00000000000E+00 0.  1.
</event>
<event>
 7    1  0.1019486E-010  0.4778727E+02  0.7816164E-02  0.1312668E+00
        -11   -1    0    0    0    0  0.00000000000E+00  0.00000000000E+00  0.45593999997E+02  0.45594000000E+02  0.51100000000E-03 0. -1.
         11   -1    0    0    0    0 -0.00000000000E+00 -0.00000000000E+00 -0.45593999997E+02  0.45594000000E+02  0.51100000000E-03 0.  1.
    9900012    2    1    2    0    0 -0.93486898215E+00 -0.40414216692E+02  0.15793682409E+02  0.47787270802E+02  0.19999998895E+02 0.  0.
        -12    1    1    2    0    0  0.93486898215E+00  0.40414216692E+02 -0.15793682409E+02  0.43400729198E+02  0.00000000000E+00 0.  1.
         11    1    3    3    0    0  0.39658334714E+01 -0.26617508398E+02  0.13415126456E+02  0.30069672538E+02  0.51100000000E-03 0. -1.
        -11    1    3    3    0    0 -0.19103220448E+01  0.11880153893E+01 -0.23676664232E-01  0.22497270336E+01  0.51100000000E-03 0.  1.
        -12    1    3    3    0    0 -0.29903804087E+01 -0.14984723683E+02  0.24022326172E+01  0.15467871230E+02  0.00000000000E+00 0.  1.
</event>
<event>
 7    1  0.1019486E-010  0.4778727E+02  0.7816164E-02  0.1312668E+00
        -11   -1    0    0    0    0  0.00000000000E+00  0.00000000000E+00  0.45593999997E+02  0.45594000000E+02  0.51100000000E-03 0. -1.
         11   -1    0    0    0    0 -0.00000000000E+00 -0.00000000000E+00 -0.45593999997E+02  0.45594000000E+02  0.51100000000E-03 0.  1.
    9900012    2    1    2    0    0 -0.65613275073E+01  0.28324562619E+02  0.32222534355E+02  0.47787267443E+02  0.19999983581E+02 0.  0.
        -12    1    1    2    0    0  0.65613275073E+01 -0.28324562619E+02 -0.32222534355E+02  0.43400732557E+02  0.00000000000E+00 0.  1.
         11    1    3    3    0    0 -0.26243710754E+01  0.21274017019E+01  0.65688743809E+01  0.73866956371E+01  0.51100000000E-03 0. -1.
        -11    1    3    3    0    0 -0.53553284973E+01  0.15880060735E+02  0.24826703937E+02  0.29953649208E+02  0.51100000000E-03 0.  1.
        -12    1    3    3    0    0  0.14183720654E+01  0.10317100182E+02  0.82695603724E+00  0.10446922598E+02  0.00000000000E+00 0.  1.
</event>
<event>
 7    1  0.1019486E-010  0.4778725E+02  0.7816164E-02  0.1312668E+00
        -11   -1    0    0    0    0  0.00000000000E+00  0.00000000000E+00  0.45593999997E+02  0.45594000000E+02  0.51100000000E-03 0. -1.
         11   -1    0    0    0    0 -0.00000000000E+00 -0.00000000000E+00 -0.45593999997E+02  0.45594000000E+02  0.51100000000E-03 0.  1.
    9900012    2    1    2    0    0  0.39392362011E+02 -0.97988091616E+01  0.15357423137E+02  0.47787247803E+02  0.19999894035E+02 0.  0.
        -12    1    1    2    0    0 -0.39392362011E+02  0.97988091616E+01 -0.15357423137E+02  0.43400752197E+02  0.00000000000E+00 0.  1.
         11    1    3    3    0    0  0.20645751592E+02 -0.14110667502E+01 -0.14914006246E+01  0.20747588878E+02  0.51100000000E-03 0. -1.
        -11    1    3    3    0    0  0.10927047376E+00 -0.80472434382E+00  0.25920892358E-01  0.81252289799E+00  0.51100000000E-03 0.  1.
         12    1    3    3    0    0  0.18637339946E+02 -0.75830180676E+01  0.16822902869E+02  0.26227136028E+02  0.00000000000E+00 0. -1.
</event>
<event>
 7    1  0.1019486E-010  0.4778727E+02  0.7816164E-02  0.1312668E+00
        -11   -1    0    0    0    0  0.00000000000E+00  0.00000000000E+00  0.45593999997E+02  0.45594000000E+02  0.51100000000E-03 0. -1.
         11   -1    0    0    0    0 -0.00000000000E+00 -0.00000000000E+00 -0.45593999997E+02  0.45594000000E+02  0.51100000000E-03 0.  1.
    9900012    2    1    2    0    0 -0.12252748523E+02  0.93626144328E+01 -0.40568891861E+02  0.47787269796E+02  0.19999994309E+02 0.  0.
         12    1    1    2    0    0  0.12252748523E+02 -0.93626144328E+01  0.40568891861E+02  0.43400730204E+02  0.00000000000E+00 0. -1.
         11    1    3    3    0    0  0.41715080810E+01 -0.15467973038E+01 -0.36723180776E+01  0.57688804714E+01  0.51100000000E-03 0. -1.
        -11    1    3    3    0    0 -0.14459087209E+02  0.91130732950E+01 -0.28737194126E+02  0.33435604291E+02  0.51100000000E-03 0.  1.
         12    1    3    3    0    0 -0.19651693951E+01  0.17963384416E+01 -0.81593796578E+01  0.85827850345E+01  0.00000000000E+00 0. -1.
</event>
<event>
 7    1  0.1019486E-010  0.4778727E+02  0.7816164E-02  0.1312668E+00
        -11   -1    0    0    0    0  0.00000000000E+00  0.00000000000E+00  0.45593999997E+02  0.45594000000E+02  0.51100000000E-03 0. -1.
         11   -1    0    0    0    0 -0.00000000000E+00 -0.00000000000E+00 -0.45593999997E+02  0.45594000000E+02  0.51100000000E-03 0.  1.
    9900012    2    1    2    0    0  0.19970688786E+02 -0.37159983679E+02  0.10194639327E+02  0.47787268801E+02  0.19999989769E+02 0.  0.
        -12    1    1    2    0    0 -0.19970688786E+02  0.37159983679E+02 -0.10194639327E+02  0.43400731199E+02  0.00000000000E+00 0.  1.
         11    1    3    3    0    0  0.18480493887E+02 -0.27200012361E+02  0.59152239696E+01  0.33411961954E+02  0.51100000000E-03 0. -1.
        -11    1    3    3    0    0  0.72850773452E+00 -0.85040675838E+01  0.71058380891E+01  0.11105981460E+02  0.51100000000E-03 0.  1.
        -12    1    3    3    0    0  0.76168716507E+00 -0.14559037343E+01 -0.28264227319E+01  0.32693253861E+01  0.00000000000E+00 0.  1.
</event>
<event>
 7    1  0.1019486E-010  0.4778727E+02  0.7816164E-02  0.1312668E+00
        -11   -1    0    0    0    0  0.00000000000E+00  0.00000000000E+00  0.45593999997E+02  0.45594000000E+02  0.51100000000E-03 0. -1.
         11   -1    0    0    0    0 -0.00000000000E+00 -0.00000000000E+00 -0.45593999997E+02  0.45594000000E+02  0.51100000000E-03 0.  1.
    9900012    2    1    2    0    0 -0.30204498197E+02 -0.26365479211E+01 -0.31054151168E+02  0.47787269579E+02  0.19999993320E+02 0.  0.
         12    1    1    2    0    0  0.30204498197E+02  0.26365479211E+01  0.31054151168E+02  0.43400730421E+02  0.00000000000E+00 0. -1.
         11    1    3    3    0    0 -0.31929979499E+01 -0.37982122941E+01 -0.63230827926E+01  0.80376009357E+01  0.51100000000E-03 0. -1.
        -11    1    3    3    0    0 -0.55768670044E+01  0.40941538182E+01 -0.35998867849E-01  0.69184418225E+01  0.51100000000E-03 0.  1.
        -12    1    3    3    0    0 -0.21434633243E+02 -0.29324894452E+01 -0.24695069508E+02  0.32831226821E+02  0.00000000000E+00 0.  1.
</event>
<event>
 7    1  0.1019486E-010  0.4778727E+02  0.7816164E-02  0.1312668E+00
        -11   -1    0    0    0    0  0.00000000000E+00  0.00000000000E+00  0.45593999997E+02  0.45594000000E+02  0.51100000000E-03 0. -1.
         11   -1    0    0    0    0 -0.00000000000E+00 -0.00000000000E+00 -0.45593999997E+02  0.45594000000E+02  0.51100000000E-03 0.  1.
    9900012    2    1    2    0    0 -0.76135473878E+01 -0.15259801907E+02 -0.39909843236E+02  0.47787271375E+02  0.20000001506E+02 0.  0.
         12    1    1    2    0    0  0.76135473878E+01  0.15259801907E+02  0.39909843236E+02  0.43400728625E+02  0.00000000000E+00 0. -1.
         11    1    3    3    0    0 -0.17196612839E+01 -0.13120171686E+02 -0.32021369972E+02  0.34647716738E+02  0.51100000000E-03 0.  1.
        -11    1    3    3    0    0 -0.97299066198E+00  0.13664530654E+01 -0.67953037862E+01  0.69992898652E+01  0.51100000000E-03 0. -1.
         12    1    3    3    0    0 -0.49208954419E+01 -0.35060832862E+01 -0.10931694783E+01  0.61402647719E+01  0.00000000000E+00 0. -1.
</event>
<event>
 7    1  0.1019486E-010  0.4778727E+02  0.7816164E-02  0.1312668E+00
        -11   -1    0    0    0    0  0.00000000000E+00  0.00000000000E+00  0.45593999997E+02  0.45594000000E+02  0.51100000000E-03 0. -1.
         11   -1    0    0    0    0 -0.00000000000E+00 -0.00000000000E+00 -0.45593999997E+02  0.45594000000E+02  0.51100000000E-03 0.  1.
    9900012    2    1    2    0    0 -0.75854092185E+01  0.26766982926E+00  0.42731873098E+02  0.47787273524E+02  0.20000011307E+02 0.  0.
        -12    1    1    2    0    0  0.75854092185E+01 -0.26766982926E+00 -0.42731873098E+02  0.43400726476E+02  0.00000000000E+00 0.  1.
         11    1    3    3    0    0  0.14117874730E+01  0.70678540762E+00  0.77054798780E+01  0.78655648172E+01  0.51100000000E-03 0. -1.
        -11    1    3    3    0    0 -0.23926568309E+01  0.77242583723E+01  0.20156262213E+02  0.21717824034E+02  0.51100000000E-03 0.  1.
        -12    1    3    3    0    0 -0.66045398606E+01 -0.81633739507E+01  0.14870131007E+02  0.18203884673E+02  0.00000000000E+00 0.  1.
</event>
<event>
 7    1  0.1019486E-010  0.4778727E+02  0.7816164E-02  0.1312668E+00
        -11   -1    0    0    0    0  0.00000000000E+00  0.00000000000E+00  0.45593999997E+02  0.45594000000E+02  0.51100000000E-03 0. -1.
         11   -1    0    0    0    0 -0.00000000000E+00 -0.00000000000E+00 -0.45593999997E+02  0.45594000000E+02  0.51100000000E-03 0.  1.
    9900012    2    1    2    0    0  0.36324862401E+02 -0.14215338747E+02  0.19027657321E+02  0.47787271581E+02  0.20000002449E+02 0.  0.
        -12    1    1    2    0    0 -0.36324862401E+02  0.14215338747E+02 -0.19027657321E+02  0.43400728419E+02  0.00000000000E+00 0.  1.
         11    1    3    3    0    0  0.13537390623E+01  0.23746371398E+01  0.53000593483E+01  0.59634000664E+01  0.51100000000E-03 0. -1.
        -11    1    3    3    0    0  0.18969206963E+02 -0.13264200779E+02  0.74543974126E+01  0.24317439754E+02  0.51100000000E-03 0.  1.
         12    1    3    3    0    0  0.16001916376E+02 -0.33257751073E+01  0.62732005597E+01  0.17506431762E+02  0.00000000000E+00 0. -1.
</event>
<event>
 7    1  0.1019486E-010  0.4778727E+02  0.7816164E-02  0.1312668E+00
        -11   -1    0    0    0    0  0.00000000000E+00  0.00000000000E+00  0.45593999997E+02  0.45594000000E+02  0.51100000000E-03 0. -1.
         11   -1    0    0    0    0 -0.00000000000E+00 -0.00000000000E+00 -0.45593999997E+02  0.45594000000E+02  0.51100000000E-03 0.  1.
    9900012    2    1    2    0    0  0.14430802924E+02  0.29302292737E+02  0.28578848173E+02  0.47787274251E+02  0.20000014618E+02 0.  0.
        -12    1    1    2    0    0 -0.14430802924E+02 -0.29302292737E+02 -0.28578848173E+02  0.43400725749E+02  0.00000000000E+00 0.  1.
         11    1    3    3    0    0  0.99199794086E+01  0.25018249974E+02  0.19708855049E+02  0.33358024384E+02  0.51100000000E-03 0. -1.
        -11    1    3    3    0    0  0.61252257435E+01  0.56394650082E+01  0.90697215803E+01  0.12311856310E+02  0.51100000000E-03 0.  1.
         12    1    3    3    0    0 -0.16144022279E+01 -0.13554222451E+01 -0.19972845619E+00  0.21173935563E+01  0.00000000000E+00 0. -1.
</event>
<event>
 7    1  0.1106648E-010  0.4778726E+02  0.7816164E-02  0.1312668E+00
        -11   -1    0    0    0    0  0.00000000000E+00  0.00000000000E+00  0.45593999997E+02  0.45594000000E+02  0.51100000000E-03 0. -1.
         11   -1    0    0    0    0 -0.00000000000E+00 -0.00000000000E+00 -0.45593999997E+02  0.45594000000E+02  0.51100000000E-03 0.  1.
    9900012    2    1    2    0    0 -0.21761006955E+02 -0.22019660578E+02 -0.30417379961E+02  0.47787264069E+02  0.19999968196E+02 0.  0.
         12    1    1    2    0    0  0.21761006955E+02  0.22019660578E+02  0.30417379961E+02  0.43400735931E+02  0.00000000000E+00 0. -1.
         11    1    3    3    0    0 -0.26630365822E+01 -0.86702350142E+00 -0.13350969960E+02  0.13641550232E+02  0.51100000000E-03 0. -1.
        -11    1    3    3    0    0 -0.37587159219E+01 -0.72577686340E+01 -0.83618376217E+01  0.11692881578E+02  0.51100000000E-03 0.  1.
         12    1    3    3    0    0 -0.15339254451E+02 -0.13894868443E+02 -0.87045723792E+01  0.22452832259E+02  0.00000000000E+00 0. -1.
</event>
<event>
 7    1  0.1019486E-010  0.4778727E+02  0.7816164E-02  0.1312668E+00
        -11   -1    0    0    0    0  0.00000000000E+00  0.00000000000E+00  0.45593999997E+02  0.45594000000E+02  0.51100000000E-03 0. -1.
         11   -1    0    0    0    0 -0.00000000000E+00 -0.00000000000E+00 -0.45593999997E+02  0.45594000000E+02  0.51100000000E-03 0.  1.
    9900012    2    1    2    0    0 -0.33389033758E+00  0.48898704483E+01  0.43123090132E+02  0.47787271685E+02  0.20000002919E+02 0.  0.
        -12    1    1    2    0    0  0.33389033758E+00 -0.48898704483E+01 -0.43123090132E+02  0.43400728315E+02  0.00000000000E+00 0.  1.
         11    1    3    3    0    0  0.24891045797E+01  0.22079872616E+01  0.12173666017E+02  0.12620182007E+02  0.51100000000E-03 0. -1.
        -11    1    3    3    0    0 -0.16980931840E+01 -0.62918085616E+01  0.69856402075E+01  0.95535095545E+01  0.51100000000E-03 0.  1.
        -12    1    3    3    0    0 -0.11249017333E+01  0.89736917483E+01  0.23963783908E+02  0.25613580123E+02  0.00000000000E+00 0.  1.
</event>
<event>
 7    1  0.1019486E-010  0.4778727E+02  0.7816164E-02  0.1312668E+00
        -11   -1    0    0    0    0  0.00000000000E+00  0.00000000000E+00  0.45593999997E+02  0.45594000000E+02  0.51100000000E-03 0. -1.
         11   -1    0    0    0    0 -0.00000000000E+00 -0.00000000000E+00 -0.45593999997E+02  0.45594000000E+02  0.51100000000E-03 0.  1.
    9900012    2    1    2    0    0 -0.81340305435E+01  0.12298069018E+01 -0.42613945918E+02  0.47787271151E+02  0.20000000485E+02 0.  0.
         12    1    1    2    0    0  0.81340305435E+01 -0.12298069018E+01  0.42613945918E+02  0.43400728849E+02  0.00000000000E+00 0. -1.
         11    1    3    3    0    0  0.30638534301E+01 -0.38548315782E+01 -0.93546982850E+01  0.10571532746E+02  0.51100000000E-03 0. -1.
        -11    1    3    3    0    0 -0.95326649964E+01  0.85387448349E+01 -0.26915445338E+02  0.29803071373E+02  0.51100000000E-03 0.  1.
        -12    1    3    3    0    0 -0.16652189772E+01 -0.34541063550E+01 -0.63438022960E+01  0.74126670318E+01  0.00000000000E+00 0.  1.
</event>
<event>
 7    1  0.1019486E-010  0.4778725E+02  0.7816164E-02  0.1312668E+00
        -11   -1    0    0    0    0  0.00000000000E+00  0.00000000000E+00  0.45593999997E+02  0.45594000000E+02  0.51100000000E-03 0. -1.
         11   -1    0    0    0    0 -0.00000000000E+00 -0.00000000000E+00 -0.45593999997E+02  0.45594000000E+02  0.51100000000E-03 0.  1.
    9900012    2    1    2    0    0  0.10492386913E+02  0.35137436908E+01 -0.41966516482E+02  0.47787250197E+02  0.19999904949E+02 0.  0.
         12    1    1    2    0    0 -0.10492386913E+02 -0.35137436908E+01  0.41966516482E+02  0.43400749803E+02  0.00000000000E+00 0. -1.
         11    1    3    3    0    0  0.42437442158E+01 -0.45742131132E+01 -0.31424755551E+01  0.69862682063E+01  0.51100000000E-03 0. -1.
        -11    1    3    3    0    0 -0.14229057627E+01  0.29742699614E+00 -0.28088111145E+01  0.31626798393E+01  0.51100000000E-03 0.  1.
         12    1    3    3    0    0  0.76715484597E+01  0.77905298078E+01 -0.36015229812E+02  0.37638302152E+02  0.00000000000E+00 0. -1.
</event>
<event>
 7    1  0.1019486E-010  0.4778727E+02  0.7816164E-02  0.1312668E+00
        -11   -1    0    0    0    0  0.00000000000E+00  0.00000000000E+00  0.45593999997E+02  0.45594000000E+02  0.51100000000E-03 0.  1.
         11   -1    0    0    0    0 -0.00000000000E+00 -0.00000000000E+00 -0.45593999997E+02  0.45594000000E+02  0.51100000000E-03 0. -1.
    9900012    2    1    2    0    0  0.37393524177E+02 -0.21618301300E+02 -0.42422599000E+01  0.47787269931E+02  0.19999994922E+02 0.  0.
         12    1    1    2    0    0 -0.37393524177E+02  0.21618301300E+02  0.42422599000E+01  0.43400730069E+02  0.00000000000E+00 0. -1.
         11    1    3    3    0    0  0.15261012732E+02 -0.18609643655E+02 -0.60704979212E+01  0.24820723032E+02  0.51100000000E-03 0. -1.
        -11    1    3    3    0    0  0.22000964472E+02 -0.32747966201E+01  0.23490680839E+01  0.22367048346E+02  0.51100000000E-03 0.  1.
        -12    1    3    3    0    0  0.13154697390E+00  0.26613897508E+00 -0.52083006261E+00  0.59949855256E+00  0.00000000000E+00 0.  1.
</event>
<event>
 7    1  0.1019486E-010  0.4778726E+02  0.7816164E-02  0.1312668E+00
        -11   -1    0    0    0    0  0.00000000000E+00  0.00000000000E+00  0.45593999997E+02  0.45594000000E+02  0.51100000000E-03 0. -1.
         11   -1    0    0    0    0 -0.00000000000E+00 -0.00000000000E+00 -0.45593999997E+02  0.45594000000E+02  0.51100000000E-03 0.  1.
    9900012    2    1    2    0    0 -0.99118815926E+01 -0.94773769655E+01  0.41177150626E+02  0.47787264931E+02  0.19999972128E+02 0.  0.
        -12    1    1    2    0    0  0.99118815926E+01  0.94773769655E+01 -0.41177150626E+02  0.43400735069E+02  0.00000000000E+00 0.  1.
         11    1    3    3    0    0 -0.77787665796E+01  0.35515468728E+01  0.17634223035E+02  0.19598176369E+02  0.51100000000E-03 0. -1.
        -11    1    3    3    0    0  0.29495569713E+01 -0.70813697728E+01  0.12131002741E+02  0.14352940881E+02  0.51100000000E-03 0.  1.
        -12    1    3    3    0    0 -0.50826719843E+01 -0.59475540655E+01  0.11411924850E+02  0.13836147681E+02  0.00000000000E+00 0.  1.
</event>
<event>
 7    1  0.1019486E-010  0.4778727E+02  0.7816164E-02  0.1312668E+00
        -11   -1    0    0    0    0  0.00000000000E+00  0.00000000000E+00  0.45593999997E+02  0.45594000000E+02  0.51100000000E-03 0.  1.
         11   -1    0    0    0    0 -0.00000000000E+00 -0.00000000000E+00 -0.45593999997E+02  0.45594000000E+02  0.51100000000E-03 0. -1.
    9900012    2    1    2    0    0 -0.22598233011E+02 -0.29637051112E+02  0.22239347898E+02  0.47787268108E+02  0.19999986612E+02 0.  0.
        -12    1    1    2    0    0  0.22598233011E+02  0.29637051112E+02 -0.22239347898E+02  0.43400731892E+02  0.00000000000E+00 0.  1.
         11    1    3    3    0    0 -0.29927020653E+01 -0.63133747107E+01  0.36003379916E+01  0.78598600372E+01  0.51100000000E-03 0. -1.
        -11    1    3    3    0    0 -0.52927281970E+01 -0.16878885420E+02  0.16305895267E+02  0.24058095634E+02  0.51100000000E-03 0.  1.
        -12    1    3    3    0    0 -0.14312802749E+02 -0.64447909812E+01  0.23331146390E+01  0.15869312437E+02  0.00000000000E+00 0.  1.
</event>
<event>
 7    1  0.1019486E-010  0.4778727E+02  0.7816164E-02  0.1312668E+00
        -11   -1    0    0    0    0  0.00000000000E+00  0.00000000000E+00  0.45593999997E+02  0.45594000000E+02  0.51100000000E-03 0. -1.
         11   -1    0    0    0    0 -0.00000000000E+00 -0.00000000000E+00 -0.45593999997E+02  0.45594000000E+02  0.51100000000E-03 0.  1.
    9900012    2    1    2    0    0  0.13043642566E+02 -0.19496958360E+02  0.36515134459E+02  0.47787273724E+02  0.20000012218E+02 0.  0.
        -12    1    1    2    0    0 -0.13043642566E+02  0.19496958360E+02 -0.36515134459E+02  0.43400726276E+02  0.00000000000E+00 0.  1.
         11    1    3    3    0    0  0.68160910822E+01  0.73671396170E+00  0.44343912232E+01  0.81649048301E+01  0.51100000000E-03 0. -1.
        -11    1    3    3    0    0 -0.16175822426E+01 -0.52965861307E+01  0.38875817214E+01  0.67663645226E+01  0.51100000000E-03 0.  1.
         12    1    3    3    0    0  0.78451337259E+01 -0.14937086191E+02  0.28193161515E+02  0.32856004372E+02  0.00000000000E+00 0. -1.
</event>
<event>
 7    1  0.1019486E-010  0.4778726E+02  0.7816164E-02  0.1312668E+00
        -11   -1    0    0    0    0  0.00000000000E+00  0.00000000000E+00  0.45593999997E+02  0.45594000000E+02  0.51100000000E-03 0. -1.
         11   -1    0    0    0    0 -0.00000000000E+00 -0.00000000000E+00 -0.45593999997E+02  0.45594000000E+02  0.51100000000E-03 0.  1.
    9900012    2    1    2    0    0 -0.11004338034E+02  0.14122517898E+02 -0.39535846166E+02  0.47787261534E+02  0.19999956637E+02 0.  0.
         12    1    1    2    0    0  0.11004338034E+02 -0.14122517898E+02  0.39535846166E+02  0.43400738466E+02  0.00000000000E+00 0. -1.
         11    1    3    3    0    0 -0.12785339702E+01  0.16596923041E+01 -0.26451905736E+02  0.26534742226E+02  0.51100000000E-03 0. -1.
        -11    1    3    3    0    0 -0.78823082421E+01  0.57364119521E+01 -0.81892613538E+01  0.12731897231E+02  0.51100000000E-03 0.  1.
         12    1    3    3    0    0 -0.18434958221E+01  0.67264136421E+01 -0.48946790762E+01  0.85206220776E+01  0.00000000000E+00 0. -1.
</event>
<event>
 7    1  0.1019486E-010  0.4778727E+02  0.7816164E-02  0.1312668E+00
        -11   -1    0    0    0    0  0.00000000000E+00  0.00000000000E+00  0.45593999997E+02  0.45594000000E+02  0.51100000000E-03 0. -1.
         11   -1    0    0    0    0 -0.00000000000E+00 -0.00000000000E+00 -0.45593999997E+02  0.45594000000E+02  0.51100000000E-03 0.  1.
    9900012    2    1    2    0    0  0.31813222224E+01 -0.67891511569E+01 -0.42748216279E+02  0.47787269827E+02  0.19999994451E+02 0.  0.
         12    1    1    2    0    0 -0.31813222224E+01  0.67891511569E+01  0.42748216279E+02  0.43400730173E+02  0.00000000000E+00 0. -1.
         11    1    3    3    0    0 -0.31646187454E+01 -0.38946412821E+00  0.17853796555E+00  0.31934887157E+01  0.51100000000E-03 0. -1.
        -11    1    3    3    0    0 -0.17081131963E+01 -0.22269341174E+01 -0.70504431076E+01  0.75885199169E+01  0.51100000000E-03 0.  1.
         12    1    3    3    0    0  0.80540541641E+01 -0.41727529113E+01 -0.35876311137E+02  0.37005261195E+02  0.00000000000E+00 0. -1.
</event>
<event>
 7    1  0.1313743E-010  0.4778727E+02  0.7816164E-02  0.1312668E+00
        -11   -1    0    0    0    0  0.00000000000E+00  0.00000000000E+00  0.45593999997E+02  0.45594000000E+02  0.51100000000E-03 0. -1.
         11   -1    0    0    0    0 -0.00000000000E+00 -0.00000000000E+00 -0.45593999997E+02  0.45594000000E+02  0.51100000000E-03 0.  1.
    9900012    2    1    2    0    0 -0.19969808982E+02  0.13991498793E+02 -0.35903597229E+02  0.47787267250E+02  0.19999982700E+02 0.  0.
         12    1    1    2    0    0  0.19969808982E+02 -0.13991498793E+02  0.35903597229E+02  0.43400732750E+02  0.00000000000E+00 0. -1.
         11    1    3    3    0    0 -0.23847389624E+00  0.83127248329E+01 -0.38340341195E+01  0.91574058464E+01  0.51100000000E-03 0. -1.
        -11    1    3    3    0    0 -0.98627361426E+01  0.25741547607E+00 -0.11271828876E+02  0.14979784825E+02  0.51100000000E-03 0.  1.
         12    1    3    3    0    0 -0.98685989437E+01  0.54213584838E+01 -0.20797734234E+02  0.23650076579E+02  0.00000000000E+00 0. -1.
</event>
<event>
 7    1  0.1019486E-010  0.4778727E+02  0.7816164E-02  0.1312668E+00
        -11   -1    0    0    0    0  0.00000000000E+00  0.00000000000E+00  0.45593999997E+02  0.45594000000E+02  0.51100000000E-03 0. -1.
         11   -1    0    0    0    0 -0.00000000000E+00 -0.00000000000E+00 -0.45593999997E+02  0.45594000000E+02  0.51100000000E-03 0.  1.
    9900012    2    1    2    0    0  0.12004893693E+02 -0.95930892808E+01  0.40589142807E+02  0.47787270187E+02  0.19999996090E+02 0.  0.
        -12    1    1    2    0    0 -0.12004893693E+02  0.95930892808E+01 -0.40589142807E+02  0.43400729813E+02  0.00000000000E+00 0.  1.
         11    1    3    3    0    0  0.68931396811E+01 -0.84256525544E+01  0.18242341014E+02  0.21243587304E+02  0.51100000000E-03 0. -1.
        -11    1    3    3    0    0  0.53850010238E+01  0.23695267523E+01  0.25170274882E+01  0.63990874891E+01  0.51100000000E-03 0.  1.
        -12    1    3    3    0    0 -0.27324701217E+00 -0.35369634787E+01  0.19829774305E+02  0.20144595393E+02  0.00000000000E+00 0.  1.
</event>
<event>
 7    1  0.1019486E-010  0.4778726E+02  0.7816164E-02  0.1312668E+00
        -11   -1    0    0    0    0  0.00000000000E+00  0.00000000000E+00  0.45593999997E+02  0.45594000000E+02  0.51100000000E-03 0. -1.
         11   -1    0    0    0    0 -0.00000000000E+00 -0.00000000000E+00 -0.45593999997E+02  0.45594000000E+02  0.51100000000E-03 0.  1.
    9900012    2    1    2    0    0  0.54194006879E+01  0.58732626266E+01 -0.42658631092E+02  0.47787263551E+02  0.19999965835E+02 0.  0.
         12    1    1    2    0    0 -0.54194006879E+01 -0.58732626266E+01  0.42658631092E+02  0.43400736449E+02  0.00000000000E+00 0. -1.
         11    1    3    3    0    0 -0.30034206533E+00  0.33688866076E+00  0.51693539662E+00  0.68623741617E+00  0.51100000000E-03 0. -1.
        -11    1    3    3    0    0  0.68123587347E+01  0.80703076552E+01 -0.43063130102E+02  0.44339274595E+02  0.51100000000E-03 0.  1.
        -12    1    3    3    0    0 -0.10926159815E+01 -0.25339336894E+01 -0.11243638613E+00  0.27617515396E+01  0.00000000000E+00 0.  1.
</event>
<event>
 7    1  0.1019486E-010  0.4778727E+02  0.7816164E-02  0.1312668E+00
        -11   -1    0    0    0    0  0.00000000000E+00  0.00000000000E+00  0.45593999997E+02  0.45594000000E+02  0.51100000000E-03 0. -1.
         11   -1    0    0    0    0 -0.00000000000E+00 -0.00000000000E+00 -0.45593999997E+02  0.45594000000E+02  0.51100000000E-03 0.  1.
    9900012    2    1    2    0    0 -0.17713454018E+01  0.12566038133E+02  0.41503977670E+02  0.47787272571E+02  0.20000006960E+02 0.  0.
        -12    1    1    2    0    0  0.17713454018E+01 -0.12566038133E+02 -0.41503977670E+02  0.43400727429E+02  0.00000000000E+00 0.  1.
         11    1    3    3    0    0  0.17923197660E+01 -0.26153793398E+00  0.10324620696E+02  0.10482299606E+02  0.51100000000E-03 0. -1.
        -11    1    3    3    0    0 -0.38983908448E+01  0.15156414292E+02  0.17719196916E+02  0.23640733596E+02  0.51100000000E-03 0.  1.
        -12    1    3    3    0    0  0.33472567697E+00 -0.23288382243E+01  0.13460160058E+02  0.13664239369E+02  0.00000000000E+00 0.  1.
</event>
<event>
 7    1  0.1019486E-010  0.4778727E+02  0.7816164E-02  0.1312668E+00
        -11   -1    0    0    0    0  0.00000000000E+00  0.00000000000E+00  0.45593999997E+02  0.45594000000E+02  0.51100000000E-03 0. -1.
         11   -1    0    0    0    0 -0.00000000000E+00 -0.00000000000E+00 -0.45593999997E+02  0.45594000000E+02  0.51100000000E-03 0.  1.
    9900012    2    1    2    0    0  0.56205182757E+01  0.21598873855E+02  0.37222597552E+02  0.47787270214E+02  0.19999996212E+02 0.  0.
        -12    1    1    2    0    0 -0.56205182757E+01 -0.21598873855E+02 -0.37222597552E+02  0.43400729786E+02  0.00000000000E+00 0.  1.
         11    1    3    3    0    0  0.10059525501E+02  0.14403355169E+02  0.20661089652E+02  0.27120680657E+02  0.51100000000E-03 0. -1.
        -11    1    3    3    0    0  0.75233029493E+00 -0.97260868070E+00  0.68371626543E+01  0.69468526644E+01  0.51100000000E-03 0.  1.
         12    1    3    3    0    0 -0.51913375208E+01  0.81681273669E+01  0.97243452458E+01  0.13719736892E+02  0.00000000000E+00 0. -1.
</event>
<event>
 7    1  0.1019486E-010  0.4778728E+02  0.7816164E-02  0.1312668E+00
        -11   -1    0    0    0    0  0.00000000000E+00  0.00000000000E+00  0.45593999997E+02  0.45594000000E+02  0.51100000000E-03 0.  1.
         11   -1    0    0    0    0 -0.00000000000E+00 -0.00000000000E+00 -0.45593999997E+02  0.45594000000E+02  0.51100000000E-03 0. -1.
    9900012    2    1    2    0    0 -0.80980687020E+01  0.40659737503E+02  0.12838602229E+02  0.47787277913E+02  0.20000031316E+02 0.  0.
         12    1    1    2    0    0  0.80980687020E+01 -0.40659737503E+02 -0.12838602229E+02  0.43400722087E+02  0.00000000000E+00 0. -1.
         11    1    3    3    0    0 -0.10051296781E+01  0.42521605712E+01 -0.17595051944E+01  0.47103093299E+01  0.51100000000E-03 0. -1.
        -11    1    3    3    0    0 -0.77541447574E+01  0.36190520207E+02  0.98801137092E+01  0.38307925563E+02  0.51100000000E-03 0.  1.
        -12    1    3    3    0    0  0.66120573346E+00  0.21705672477E+00  0.47179937141E+01  0.47690430203E+01  0.00000000000E+00 0.  1.
</event>
<event>
 7    1  0.1019486E-010  0.4778726E+02  0.7816164E-02  0.1312668E+00
        -11   -1    0    0    0    0  0.00000000000E+00  0.00000000000E+00  0.45593999997E+02  0.45594000000E+02  0.51100000000E-03 0. -1.
         11   -1    0    0    0    0 -0.00000000000E+00 -0.00000000000E+00 -0.45593999997E+02  0.45594000000E+02  0.51100000000E-03 0.  1.
    9900012    2    1    2    0    0  0.33715630227E+02  0.42263274998E+01  0.27000340663E+02  0.47787263121E+02  0.19999963874E+02 0.  0.
        -12    1    1    2    0    0 -0.33715630227E+02 -0.42263274998E+01 -0.27000340663E+02  0.43400736879E+02  0.00000000000E+00 0.  1.
         11    1    3    3    0    0  0.49033016670E+01 -0.54389886364E+01  0.94774807268E+01  0.11976961460E+02  0.51100000000E-03 0. -1.
        -11    1    3    3    0    0  0.94678701103E+01  0.13665681206E+01  0.23155364715E+01  0.98422447777E+01  0.51100000000E-03 0.  1.
         12    1    3    3    0    0  0.19344458450E+02  0.82987480155E+01  0.15207323464E+02  0.25968056883E+02  0.00000000000E+00 0. -1.
</event>
<event>
 7    1  0.1019486E-010  0.4778727E+02  0.7816164E-02  0.1312668E+00
        -11   -1    0    0    0    0  0.00000000000E+00  0.00000000000E+00  0.45593999997E+02  0.45594000000E+02  0.51100000000E-03 0. -1.
         11   -1    0    0    0    0 -0.00000000000E+00 -0.00000000000E+00 -0.45593999997E+02  0.45594000000E+02  0.51100000000E-03 0.  1.
    9900012    2    1    2    0    0  0.15720958028E+02 -0.78437852848E+01  0.39685643043E+02  0.47787265529E+02  0.19999974852E+02 0.  0.
        -12    1    1    2    0    0 -0.15720958028E+02  0.78437852848E+01 -0.39685643043E+02  0.43400734471E+02  0.00000000000E+00 0.  1.
         11    1    3    3    0    0  0.19867186340E+01 -0.74966763713E+01  0.61520092045E+01  0.98992133556E+01  0.51100000000E-03 0. -1.
        -11    1    3    3    0    0  0.84404804417E+01  0.45808648288E+01  0.13331519803E+02  0.16430321153E+02  0.51100000000E-03 0.  1.
         12    1    3    3    0    0  0.52937589526E+01 -0.49279737423E+01  0.20202114035E+02  0.21457731020E+02  0.00000000000E+00 0. -1.
</event>
<event>
 7    1  0.1019486E-010  0.4778728E+02  0.7816164E-02  0.1312668E+00
        -11   -1    0    0    0    0  0.00000000000E+00  0.00000000000E+00  0.45593999997E+02  0.45594000000E+02  0.51100000000E-03 0. -1.
         11   -1    0    0    0    0 -0.00000000000E+00 -0.00000000000E+00 -0.45593999997E+02  0.45594000000E+02  0.51100000000E-03 0.  1.
    9900012    2    1    2    0    0 -0.37892295050E+02 -0.45837154153E+01 -0.20658798331E+02  0.47787280886E+02  0.20000044871E+02 0.  0.
         12    1    1    2    0    0  0.37892295050E+02  0.45837154153E+01  0.20658798331E+02  0.43400719114E+02  0.00000000000E+00 0. -1.
         11    1    3    3    0    0 -0.13844436513E+02  0.64360878750E+01 -0.25257501409E+01  0.15474852617E+02  0.51100000000E-03 0. -1.
        -11    1    3    3    0    0 -0.39657652885E+00 -0.23459410413E+00  0.20128217386E+00  0.50281419188E+00  0.51100000000E-03 0.  1.
         12    1    3    3    0    0 -0.23651282008E+02 -0.10785209186E+02 -0.18334330364E+02  0.31809614077E+02  0.00000000000E+00 0. -1.
</event>
<event>
 7    1  0.1019486E-010  0.4778727E+02  0.7816164E-02  0.1312668E+00
        -11   -1    0    0    0    0  0.00000000000E+00  0.00000000000E+00  0.45593999997E+02  0.45594000000E+02  0.51100000000E-03 0. -1.
         11   -1    0    0    0    0 -0.00000000000E+00 -0.00000000000E+00 -0.45593999997E+02  0.45594000000E+02  0.51100000000E-03 0.  1.
    9900012    2    1    2    0    0 -0.95785612843E+01 -0.15184948771E+02  0.39513181938E+02  0.47787273597E+02  0.20000011637E+02 0.  0.
        -12    1    1    2    0    0  0.95785612843E+01  0.15184948771E+02 -0.39513181938E+02  0.43400726403E+02  0.00000000000E+00 0.  1.
         11    1    3    3    0    0 -0.13195812786E+02 -0.17665239251E+02  0.31504501429E+02  0.38454177451E+02  0.51100000000E-03 0. -1.
        -11    1    3    3    0    0  0.14833440658E+01  0.16275863469E+01  0.23244730904E+01  0.32019560183E+01  0.51100000000E-03 0.  1.
         12    1    3    3    0    0  0.21339074356E+01  0.85270413358E+00  0.56842074183E+01  0.61311401271E+01  0.00000000000E+00 0. -1.
</event>
<event>
 7    1  0.1019486E-010  0.4778727E+02  0.7816164E-02  0.1312668E+00
        -11   -1    0    0    0    0  0.00000000000E+00  0.00000000000E+00  0.45593999997E+02  0.45594000000E+02  0.51100000000E-03 0. -1.
         11   -1    0    0    0    0 -0.00000000000E+00 -0.00000000000E+00 -0.45593999997E+02  0.45594000000E+02  0.51100000000E-03 0.  1.
    9900012    2    1    2    0    0 -0.13564508343E+02 -0.11843822764E+02  0.39488626450E+02  0.47787266790E+02  0.19999980604E+02 0.  0.
        -12    1    1    2    0    0  0.13564508343E+02  0.11843822764E+02 -0.39488626450E+02  0.43400733210E+02  0.00000000000E+00 0.  1.
         11    1    3    3    0    0 -0.14216716687E+02 -0.60019153605E+01  0.20220751899E+02  0.25436525490E+02  0.51100000000E-03 0. -1.
        -11    1    3    3    0    0  0.29452219029E+01 -0.61860937650E+01  0.67429014843E+01  0.96129500578E+01  0.51100000000E-03 0.  1.
         12    1    3    3    0    0 -0.22930135587E+01  0.34418636192E+00  0.12524973066E+02  0.12737791243E+02  0.00000000000E+00 0. -1.
</event>
<event>
 7    1  0.1019486E-010  0.4778727E+02  0.7816164E-02  0.1312668E+00
        -11   -1    0    0    0    0  0.00000000000E+00  0.00000000000E+00  0.45593999997E+02  0.45594000000E+02  0.51100000000E-03 0.  1.
         11   -1    0    0    0    0 -0.00000000000E+00 -0.00000000000E+00 -0.45593999997E+02  0.45594000000E+02  0.51100000000E-03 0. -1.
    9900012    2    1    2    0    0  0.26130513891E+02  0.18403449548E+02  0.29362094203E+02  0.47787270888E+02  0.19999999286E+02 0.  0.
        -12    1    1    2    0    0 -0.26130513891E+02 -0.18403449548E+02 -0.29362094203E+02  0.43400729112E+02  0.00000000000E+00 0.  1.
         11    1    3    3    0    0  0.11586777327E+02  0.11523443280E+02  0.73764655817E+01  0.17929177298E+02  0.51100000000E-03 0. -1.
        -11    1    3    3    0    0  0.16484600144E+02  0.49806157191E+01  0.20462839509E+02  0.26744651351E+02  0.51100000000E-03 0.  1.
        -12    1    3    3    0    0 -0.19408635800E+01  0.18993905495E+01  0.15227891125E+01  0.31134422392E+01  0.00000000000E+00 0.  1.
</event>
<event>
 7    1  0.1019486E-010  0.4778727E+02  0.7816164E-02  0.1312668E+00
        -11   -1    0    0    0    0  0.00000000000E+00  0.00000000000E+00  0.45593999997E+02  0.45594000000E+02  0.51100000000E-03 0. -1.
         11   -1    0    0    0    0 -0.00000000000E+00 -0.00000000000E+00 -0.45593999997E+02  0.45594000000E+02  0.51100000000E-03 0.  1.
    9900012    2    1    2    0    0  0.18749381992E+02  0.39130397238E+02  0.94657715771E+00  0.47787270497E+02  0.19999997502E+02 0.  0.
        -12    1    1    2    0    0 -0.18749381992E+02 -0.39130397238E+02 -0.94657715771E+00  0.43400729503E+02  0.00000000000E+00 0.  1.
         11    1    3    3    0    0  0.60408141078E+01  0.11776015609E+02 -0.17278118782E+01  0.13347333548E+02  0.51100000000E-03 0. -1.
        -11    1    3    3    0    0 -0.83594477021E+00  0.84260432900E+01 -0.51191377895E+01  0.98945733184E+01  0.51100000000E-03 0.  1.
        -12    1    3    3    0    0  0.13544512655E+02  0.18928338339E+02  0.77935268253E+01  0.24545363630E+02  0.00000000000E+00 0.  1.
</event>
<event>
 7    1  0.1019486E-010  0.4778727E+02  0.7816164E-02  0.1312668E+00
        -11   -1    0    0    0    0  0.00000000000E+00  0.00000000000E+00  0.45593999997E+02  0.45594000000E+02  0.51100000000E-03 0. -1.
         11   -1    0    0    0    0 -0.00000000000E+00 -0.00000000000E+00 -0.45593999997E+02  0.45594000000E+02  0.51100000000E-03 0.  1.
    9900012    2    1    2    0    0  0.11381177044E+02 -0.27118271821E+02  0.31916945038E+02  0.47787271457E+02  0.20000001881E+02 0.  0.
        -12    1    1    2    0    0 -0.11381177044E+02  0.27118271821E+02 -0.31916945038E+02  0.43400728543E+02  0.00000000000E+00 0.  1.
         11    1    3    3    0    0  0.11658165454E+02 -0.16514472499E+02  0.21187928640E+02  0.29284278103E+02  0.51100000000E-03 0. -1.
        -11    1    3    3    0    0 -0.23428955649E+01 -0.13091948258E+01  0.82336064377E+01  0.86599899511E+01  0.51100000000E-03 0.  1.
        -12    1    3    3    0    0  0.20659071556E+01 -0.92946044966E+01  0.24954099599E+01  0.98430034030E+01  0.00000000000E+00 0.  1.
</event>
<event>
 7    1  0.1019486E-010  0.4778727E+02  0.7816164E-02  0.1312668E+00
        -11   -1    0    0    0    0  0.00000000000E+00  0.00000000000E+00  0.45593999997E+02  0.45594000000E+02  0.51100000000E-03 0.  1.
         11   -1    0    0    0    0 -0.00000000000E+00 -0.00000000000E+00 -0.45593999997E+02  0.45594000000E+02  0.51100000000E-03 0. -1.
    9900012    2    1    2    0    0 -0.18679889462E+02  0.38944498659E+02  0.42439709052E+01  0.47787268034E+02  0.19999986275E+02 0.  0.
         12    1    1    2    0    0  0.18679889462E+02 -0.38944498659E+02 -0.42439709052E+01  0.43400731966E+02  0.00000000000E+00 0. -1.
         11    1    3    3    0    0 -0.18493420329E+01  0.11893993705E+01  0.35325673944E+01  0.41609817921E+01  0.51100000000E-03 0. -1.
        -11    1    3    3    0    0 -0.37310229933E+01  0.19398669816E+02 -0.49712564874E+01  0.20370132904E+02  0.51100000000E-03 0.  1.
        -12    1    3    3    0    0 -0.13099524436E+02  0.18356429472E+02  0.56826599983E+01  0.23256153338E+02  0.00000000000E+00 0.  1.
</event>
<event>
 7    1  0.1019486E-010  0.4778725E+02  0.7816164E-02  0.1312668E+00
        -11   -1    0    0    0    0  0.00000000000E+00  0.00000000000E+00  0.45593999997E+02  0.45594000000E+02  0.51100000000E-03 0. -1.
         11   -1    0    0    0    0 -0.00000000000E+00 -0.00000000000E+00 -0.45593999997E+02  0.45594000000E+02  0.51100000000E-03 0.  1.
    9900012    2    1    2    0    0 -0.14020679139E+01 -0.24721440103E+02  0.35644205475E+02  0.47787253703E+02  0.19999920932E+02 0.  0.
        -12    1    1    2    0    0  0.14020679139E+01  0.24721440103E+02 -0.35644205475E+02  0.43400746297E+02  0.00000000000E+00 0.  1.
         11    1    3    3    0    0  0.25940636966E+01 -0.13064881268E+02  0.78915201166E+01  0.15482130959E+02  0.51100000000E-03 0.  1.
        -11    1    3    3    0    0 -0.64804084559E+01 -0.12216131275E+02  0.24891454993E+02  0.28474797436E+02  0.51100000000E-03 0. -1.
        -12    1    3    3    0    0  0.24842768455E+01  0.55957243988E+00  0.28612303658E+01  0.38303253083E+01  0.00000000000E+00 0.  1.
</event>
<event>
 7    1  0.1019486E-010  0.4778728E+02  0.7816164E-02  0.1312668E+00
        -11   -1    0    0    0    0  0.00000000000E+00  0.00000000000E+00  0.45593999997E+02  0.45594000000E+02  0.51100000000E-03 0. -1.
         11   -1    0    0    0    0 -0.00000000000E+00 -0.00000000000E+00 -0.45593999997E+02  0.45594000000E+02  0.51100000000E-03 0.  1.
    9900012    2    1    2    0    0 -0.84657337431E+01  0.38844311293E+02 -0.17409010228E+02  0.47787276449E+02  0.20000024639E+02 0.  0.
         12    1    1    2    0    0  0.84657337431E+01 -0.38844311293E+02  0.17409010228E+02  0.43400723551E+02  0.00000000000E+00 0. -1.
         11    1    3    3    0    0 -0.86557350154E+00  0.13937576243E+01  0.17989411111E+01  0.24347417079E+01  0.51100000000E-03 0. -1.
        -11    1    3    3    0    0 -0.11665528209E+00  0.95954835030E+01 -0.12466866470E+02  0.15732440115E+02  0.51100000000E-03 0.  1.
        -12    1    3    3    0    0 -0.74835049595E+01  0.27855070166E+02 -0.67410848686E+01  0.29620094626E+02  0.00000000000E+00 0.  1.
</event>
<event>
 7    1  0.1019486E-010  0.4778727E+02  0.7816164E-02  0.1312668E+00
        -11   -1    0    0    0    0  0.00000000000E+00  0.00000000000E+00  0.45593999997E+02  0.45594000000E+02  0.51100000000E-03 0. -1.
         11   -1    0    0    0    0 -0.00000000000E+00 -0.00000000000E+00 -0.45593999997E+02  0.45594000000E+02  0.51100000000E-03 0.  1.
    9900012    2    1    2    0    0 -0.17794037664E+02  0.29456089009E+02 -0.26444933170E+02  0.47787269056E+02  0.19999990935E+02 0.  0.
         12    1    1    2    0    0  0.17794037664E+02 -0.29456089009E+02  0.26444933170E+02  0.43400730944E+02  0.00000000000E+00 0. -1.
         11    1    3    3    0    0 -0.72083503210E+01  0.27960310853E+02 -0.19494165216E+02  0.34839084016E+02  0.51100000000E-03 0. -1.
        -11    1    3    3    0    0 -0.41692365384E+01  0.15509720799E+00 -0.39262286926E+01  0.57290366088E+01  0.51100000000E-03 0.  1.
         12    1    3    3    0    0 -0.64164508044E+01  0.13406809484E+01 -0.30245392606E+01  0.72191484310E+01  0.00000000000E+00 0. -1.
</event>
<event>
 7    1  0.1019486E-010  0.4778727E+02  0.7816164E-02  0.1312668E+00
        -11   -1    0    0    0    0  0.00000000000E+00  0.00000000000E+00  0.45593999997E+02  0.45594000000E+02  0.51100000000E-03 0. -1.
         11   -1    0    0    0    0 -0.00000000000E+00 -0.00000000000E+00 -0.45593999997E+02  0.45594000000E+02  0.51100000000E-03 0.  1.
    9900012    2    1    2    0    0  0.36703135281E+02  0.16951439064E+02  0.15784544411E+02  0.47787271111E+02  0.20000000304E+02 0.  0.
        -12    1    1    2    0    0 -0.36703135281E+02 -0.16951439064E+02 -0.15784544411E+02  0.43400728889E+02  0.00000000000E+00 0.  1.
         11    1    3    3    0    0  0.18664538265E+02  0.12377124504E+02  0.67680008919E+01  0.23395812359E+02  0.51100000000E-03 0. -1.
        -11    1    3    3    0    0 -0.18830898642E+01  0.14232682927E+01  0.16780083457E+00  0.23664060198E+01  0.51100000000E-03 0.  1.
        -12    1    3    3    0    0  0.19921686881E+02  0.31510462677E+01  0.88487426845E+01  0.22025052732E+02  0.00000000000E+00 0.  1.
</event>
<event>
 7    1  0.1019486E-010  0.4778727E+02  0.7816164E-02  0.1312668E+00
        -11   -1    0    0    0    0  0.00000000000E+00  0.00000000000E+00  0.45593999997E+02  0.45594000000E+02  0.51100000000E-03 0. -1.
         11   -1    0    0    0    0 -0.00000000000E+00 -0.00000000000E+00 -0.45593999997E+02  0.45594000000E+02  0.51100000000E-03 0.  1.
    9900012    2    1    2    0    0 -0.86502705624E+00  0.33884995582E+02 -0.27105017227E+02  0.47787272399E+02  0.20000006178E+02 0.  0.
         12    1    1    2    0    0  0.86502705624E+00 -0.33884995582E+02  0.27105017227E+02  0.43400727601E+02  0.00000000000E+00 0. -1.
         11    1    3    3    0    0 -0.38505343164E+01  0.21986576193E+01 -0.18272012452E+01  0.47957663100E+01  0.51100000000E-03 0. -1.
        -11    1    3    3    0    0  0.74623453766E+01  0.15560870661E+02 -0.17356819697E+02  0.24476243267E+02  0.51100000000E-03 0.  1.
        -12    1    3    3    0    0 -0.44768381164E+01  0.16125467301E+02 -0.79209962855E+01  0.18515262822E+02  0.00000000000E+00 0.  1.
</event>
<event>
 7    1  0.1019486E-010  0.4778727E+02  0.7816164E-02  0.1312668E+00
        -11   -1    0    0    0    0  0.00000000000E+00  0.00000000000E+00  0.45593999997E+02  0.45594000000E+02  0.51100000000E-03 0. -1.
         11   -1    0    0    0    0 -0.00000000000E+00 -0.00000000000E+00 -0.45593999997E+02  0.45594000000E+02  0.51100000000E-03 0.  1.
    9900012    2    1    2    0    0 -0.18149628710E+02  0.15440783805E+02  0.36273906273E+02  0.47787273012E+02  0.20000008970E+02 0.  0.
        -12    1    1    2    0    0  0.18149628710E+02 -0.15440783805E+02 -0.36273906273E+02  0.43400726988E+02  0.00000000000E+00 0.  1.
         11    1    3    3    0    0 -0.39909402871E+01 -0.16467496684E+01  0.15937529879E+02  0.16511942580E+02  0.51100000000E-03 0. -1.
        -11    1    3    3    0    0 -0.13828676868E+02  0.17847278529E+02  0.20420634141E+02  0.30442732364E+02  0.51100000000E-03 0.  1.
        -12    1    3    3    0    0 -0.33001155460E+00 -0.75974505491E+00 -0.84257747650E-01  0.83259806789E+00  0.00000000000E+00 0.  1.
</event>
<event>
 7    1  0.1019486E-010  0.4778727E+02  0.7816164E-02  0.1312668E+00
        -11   -1    0    0    0    0  0.00000000000E+00  0.00000000000E+00  0.45593999997E+02  0.45594000000E+02  0.51100000000E-03 0. -1.
         11   -1    0    0    0    0 -0.00000000000E+00 -0.00000000000E+00 -0.45593999997E+02  0.45594000000E+02  0.51100000000E-03 0.  1.
    9900012    2    1    2    0    0 -0.19806124962E+02  0.10676298097E+02 -0.37112769642E+02  0.47787267315E+02  0.19999982997E+02 0.  0.
         12    1    1    2    0    0  0.19806124962E+02 -0.10676298097E+02  0.37112769642E+02  0.43400732685E+02  0.00000000000E+00 0. -1.
         11    1    3    3    0    0 -0.23540602373E+02  0.83585300457E+01 -0.27223704507E+02  0.36948004979E+02  0.51100000000E-03 0. -1.
        -11    1    3    3    0    0  0.21120383320E+01  0.10120766562E+01 -0.48121270635E+01  0.53517821528E+01  0.51100000000E-03 0.  1.
         12    1    3    3    0    0  0.16224390784E+01  0.13056913954E+01 -0.50769380717E+01  0.54874801837E+01  0.00000000000E+00 0. -1.
</event>
<event>
 7    1  0.1019486E-010  0.4778727E+02  0.7816164E-02  0.1312668E+00
        -11   -1    0    0    0    0  0.00000000000E+00  0.00000000000E+00  0.45593999997E+02  0.45594000000E+02  0.51100000000E-03 0. -1.
         11   -1    0    0    0    0 -0.00000000000E+00 -0.00000000000E+00 -0.45593999997E+02  0.45594000000E+02  0.51100000000E-03 0.  1.
    9900012    2    1    2    0    0  0.14432037844E+02 -0.10563552043E+02  0.39544291307E+02  0.47787270478E+02  0.19999997416E+02 0.  0.
        -12    1    1    2    0    0 -0.14432037844E+02  0.10563552043E+02 -0.39544291307E+02  0.43400729522E+02  0.00000000000E+00 0.  1.
         11    1    3    3    0    0  0.48374991909E+01  0.40061483943E+01  0.78518772439E+01  0.10054978861E+02  0.51100000000E-03 0. -1.
        -11    1    3    3    0    0  0.29101965308E+01 -0.10952001714E+02  0.11448071386E+02  0.16108194315E+02  0.51100000000E-03 0.  1.
         12    1    3    3    0    0  0.66843421218E+01 -0.36176987240E+01  0.20244342677E+02  0.21624097301E+02  0.00000000000E+00 0. -1.
</event>
<event>
 7    1  0.1019486E-010  0.4778727E+02  0.7816164E-02  0.1312668E+00
        -11   -1    0    0    0    0  0.00000000000E+00  0.00000000000E+00  0.45593999997E+02  0.45594000000E+02  0.51100000000E-03 0. -1.
         11   -1    0    0    0    0 -0.00000000000E+00 -0.00000000000E+00 -0.45593999997E+02  0.45594000000E+02  0.51100000000E-03 0.  1.
    9900012    2    1    2    0    0  0.62438739537E+01  0.19562538253E+01 -0.42904665983E+02  0.47787271272E+02  0.20000001038E+02 0.  0.
         12    1    1    2    0    0 -0.62438739537E+01 -0.19562538253E+01  0.42904665983E+02  0.43400728728E+02  0.00000000000E+00 0. -1.
         11    1    3    3    0    0  0.10819813706E+02  0.15925648765E+01 -0.22828974136E+02  0.25313369825E+02  0.51100000000E-03 0. -1.
        -11    1    3    3    0    0  0.82186799026E+00  0.26016410327E+01 -0.17553989313E+01  0.32442917140E+01  0.51100000000E-03 0.  1.
         12    1    3    3    0    0 -0.53978077430E+01 -0.22379520839E+01 -0.18320292916E+02  0.19229609733E+02  0.00000000000E+00 0. -1.
</event>
<event>
 7    1  0.1019486E-010  0.4778727E+02  0.7816164E-02  0.1312668E+00
        -11   -1    0    0    0    0  0.00000000000E+00  0.00000000000E+00  0.45593999997E+02  0.45594000000E+02  0.51100000000E-03 0.  1.
         11   -1    0    0    0    0 -0.00000000000E+00 -0.00000000000E+00 -0.45593999997E+02  0.45594000000E+02  0.51100000000E-03 0. -1.
    9900012    2    1    2    0    0  0.35092882098E+02  0.25425982037E+02  0.23732655370E+01  0.47787270446E+02  0.19999997271E+02 0.  0.
        -12    1    1    2    0    0 -0.35092882098E+02 -0.25425982037E+02 -0.23732655370E+01  0.43400729554E+02  0.00000000000E+00 0.  1.
         11    1    3    3    0    0  0.30770821560E+01  0.52957479727E+01  0.47414003917E+01  0.77455961114E+01  0.51100000000E-03 0.  1.
        -11    1    3    3    0    0  0.10979941793E+02  0.56500012609E+01 -0.68384713128E+01  0.14115464080E+02  0.51100000000E-03 0. -1.
        -12    1    3    3    0    0  0.21035858149E+02  0.14480232804E+02  0.44703364582E+01  0.25926210254E+02  0.00000000000E+00 0.  1.
</event>
<event>
 7    1  0.1019486E-010  0.4778727E+02  0.7816164E-02  0.1312668E+00
        -11   -1    0    0    0    0  0.00000000000E+00  0.00000000000E+00  0.45593999997E+02  0.45594000000E+02  0.51100000000E-03 0. -1.
         11   -1    0    0    0    0 -0.00000000000E+00 -0.00000000000E+00 -0.45593999997E+02  0.45594000000E+02  0.51100000000E-03 0.  1.
    9900012    2    1    2    0    0  0.15689503293E+01  0.31305847433E+02  0.30018422022E+02  0.47787270175E+02  0.19999996034E+02 0.  0.
        -12    1    1    2    0    0 -0.15689503293E+01 -0.31305847433E+02 -0.30018422022E+02  0.43400729825E+02  0.00000000000E+00 0.  1.
         11    1    3    3    0    0 -0.36094055174E+01  0.11055623617E+02  0.51624498241E+01  0.12724209610E+02  0.51100000000E-03 0. -1.
        -11    1    3    3    0    0  0.29543250708E+01  0.53746233072E+01  0.17045112455E+02  0.18114923991E+02  0.51100000000E-03 0.  1.
        -12    1    3    3    0    0  0.22240307759E+01  0.14875600509E+02  0.78108597430E+01  0.16948136574E+02  0.00000000000E+00 0.  1.
</event>
<event>
 7    1  0.1019486E-010  0.4778728E+02  0.7816164E-02  0.1312668E+00
        -11   -1    0    0    0    0  0.00000000000E+00  0.00000000000E+00  0.45593999997E+02  0.45594000000E+02  0.51100000000E-03 0. -1.
         11   -1    0    0    0    0 -0.00000000000E+00 -0.00000000000E+00 -0.45593999997E+02  0.45594000000E+02  0.51100000000E-03 0.  1.
    9900012    2    1    2    0    0  0.76042505183E+01  0.21324308846E+02  0.37027986528E+02  0.47787279269E+02  0.20000037497E+02 0.  0.
        -12    1    1    2    0    0 -0.76042505183E+01 -0.21324308846E+02 -0.37027986528E+02  0.43400720731E+02  0.00000000000E+00 0.  1.
         11    1    3    3    0    0  0.14131710119E+01  0.11145365846E+02  0.15358269933E+02  0.19028733215E+02  0.51100000000E-03 0. -1.
        -11    1    3    3    0    0 -0.19030320654E+01  0.24847053856E+01 -0.11647749347E+01  0.33394599571E+01  0.51100000000E-03 0.  1.
        -12    1    3    3    0    0  0.80941115719E+01  0.76942376143E+01  0.22834491529E+02  0.25419086097E+02  0.00000000000E+00 0.  1.
</event>
<event>
 7    1  0.1019486E-010  0.4778727E+02  0.7816164E-02  0.1312668E+00
        -11   -1    0    0    0    0  0.00000000000E+00  0.00000000000E+00  0.45593999997E+02  0.45594000000E+02  0.51100000000E-03 0. -1.
         11   -1    0    0    0    0 -0.00000000000E+00 -0.00000000000E+00 -0.45593999997E+02  0.45594000000E+02  0.51100000000E-03 0.  1.
    9900012    2    1    2    0    0 -0.73411046355E+01  0.91261032222E+01  0.41790498675E+02  0.47787270089E+02  0.19999995645E+02 0.  0.
        -12    1    1    2    0    0  0.73411046355E+01 -0.91261032222E+01 -0.41790498675E+02  0.43400729911E+02  0.00000000000E+00 0.  1.
         11    1    3    3    0    0 -0.89492705462E+01  0.19977646753E+00  0.88746198839E+01  0.12605087556E+02  0.51100000000E-03 0.  1.
        -11    1    3    3    0    0  0.51219401189E+01  0.54474644714E+01  0.19578056060E+02  0.20957323758E+02  0.51100000000E-03 0. -1.
         12    1    3    3    0    0 -0.35137742082E+01  0.34788622833E+01  0.13337822731E+02  0.14224858776E+02  0.00000000000E+00 0. -1.
</event>
<event>
 7    1  0.1019486E-010  0.4778727E+02  0.7816164E-02  0.1312668E+00
        -11   -1    0    0    0    0  0.00000000000E+00  0.00000000000E+00  0.45593999997E+02  0.45594000000E+02  0.51100000000E-03 0. -1.
         11   -1    0    0    0    0 -0.00000000000E+00 -0.00000000000E+00 -0.45593999997E+02  0.45594000000E+02  0.51100000000E-03 0.  1.
    9900012    2    1    2    0    0  0.40059777468E+02 -0.16537172497E+02  0.23150531413E+01  0.47787270559E+02  0.19999997785E+02 0.  0.
        -12    1    1    2    0    0 -0.40059777468E+02  0.16537172497E+02 -0.23150531413E+01  0.43400729441E+02  0.00000000000E+00 0.  1.
         11    1    3    3    0    0  0.11143676972E+02 -0.71478540404E+01  0.75574398782E+01  0.15244285868E+02  0.51100000000E-03 0. -1.
        -11    1    3    3    0    0  0.14448579880E+02 -0.45497208772E+01 -0.78579963302E+01  0.17064862355E+02  0.51100000000E-03 0.  1.
        -12    1    3    3    0    0  0.14467520616E+02 -0.48395975793E+01  0.26156095934E+01  0.15478122336E+02  0.00000000000E+00 0.  1.
</event>
<event>
 7    1  0.1019486E-010  0.4778727E+02  0.7816164E-02  0.1312668E+00
        -11   -1    0    0    0    0  0.00000000000E+00  0.00000000000E+00  0.45593999997E+02  0.45594000000E+02  0.51100000000E-03 0. -1.
         11   -1    0    0    0    0 -0.00000000000E+00 -0.00000000000E+00 -0.45593999997E+02  0.45594000000E+02  0.51100000000E-03 0.  1.
    9900012    2    1    2    0    0  0.30443644373E+02  0.16774207554E+02 -0.25989117147E+02  0.47787265769E+02  0.19999975946E+02 0.  0.
         12    1    1    2    0    0 -0.30443644373E+02 -0.16774207554E+02  0.25989117147E+02  0.43400734231E+02  0.00000000000E+00 0. -1.
         11    1    3    3    0    0  0.21041034725E+01 -0.15993563761E+01 -0.16490447340E+01  0.31152112347E+01  0.51100000000E-03 0. -1.
        -11    1    3    3    0    0  0.12513927950E+02  0.14706534339E+02 -0.20121634139E+02  0.27888361474E+02  0.51100000000E-03 0.  1.
        -12    1    3    3    0    0  0.15825612950E+02  0.36670295910E+01 -0.42184382731E+01  0.16783693060E+02  0.00000000000E+00 0.  1.
</event>
<event>
 7    1  0.1019486E-010  0.4778727E+02  0.7816164E-02  0.1312668E+00
        -11   -1    0    0    0    0  0.00000000000E+00  0.00000000000E+00  0.45593999997E+02  0.45594000000E+02  0.51100000000E-03 0. -1.
         11   -1    0    0    0    0 -0.00000000000E+00 -0.00000000000E+00 -0.45593999997E+02  0.45594000000E+02  0.51100000000E-03 0.  1.
    9900012    2    1    2    0    0  0.29103818885E+02 -0.77630531535E+00 -0.32186776512E+02  0.47787268372E+02  0.19999987815E+02 0.  0.
         12    1    1    2    0    0 -0.29103818885E+02  0.77630531535E+00  0.32186776512E+02  0.43400731628E+02  0.00000000000E+00 0. -1.
         11    1    3    3    0    0  0.21784656019E+01 -0.23431377328E+01  0.89235002361E+00  0.33214899727E+01  0.51100000000E-03 0. -1.
        -11    1    3    3    0    0  0.17046664089E+02  0.69561196581E+01 -0.21774410300E+02  0.28514931201E+02  0.51100000000E-03 0.  1.
        -12    1    3    3    0    0  0.98786891937E+01 -0.53892872407E+01 -0.11304716236E+02  0.15950847198E+02  0.00000000000E+00 0.  1.
</event>
