<event>
 7    1  0.3505640E-015  0.9000776E+02  0.7816164E-02  0.1186339E+00
        -11   -1    0    0    0    0  0.00000000000E+00  0.00000000000E+00  0.45593999997E+02  0.45594000000E+02  0.51100000000E-03 0. -1.
         11   -1    0    0    0    0 -0.00000000000E+00 -0.00000000000E+00 -0.45593999997E+02  0.45594000000E+02  0.51100000000E-03 0.  1.
    9900012    2    1    2    0    0  0.11186842229E+01  0.31049410016E+00 -0.21239374635E+00  0.90007757618E+02  0.90000019219E+02 0.  0.
        -12    1    1    2    0    0 -0.11186842229E+01 -0.31049410016E+00  0.21239374635E+00  0.11802423820E+01  0.00000000000E+00 0.  1.
         11    1    3    3    0    0  0.11882632876E+02 -0.35626999168E+02  0.11829250691E+01  0.37574982978E+02  0.51100000000E-03 0. -1.
        -11    1    3    3    0    0 -0.15251078755E+02 -0.49347763627E+00  0.27093290958E+01  0.15497722020E+02  0.51100000000E-03 0.  1.
        -12    1    3    3    0    0  0.44871301022E+01  0.36430970905E+02 -0.41046479112E+01  0.36935052621E+02  0.00000000000E+00 0.  1.
</event>
<event>
 7    1  0.3505640E-015  0.9000774E+02  0.7816164E-02  0.1186339E+00
        -11   -1    0    0    0    0  0.00000000000E+00  0.00000000000E+00  0.45593999997E+02  0.45594000000E+02  0.51100000000E-03 0.  1.
         11   -1    0    0    0    0 -0.00000000000E+00 -0.00000000000E+00 -0.45593999997E+02  0.45594000000E+02  0.51100000000E-03 0. -1.
    9900012    2    1    2    0    0  0.21758182314E+00  0.72226822132E+00 -0.90774342528E+00  0.90007740978E+02  0.90000002359E+02 0.  0.
        -12    1    1    2    0    0 -0.21758182314E+00 -0.72226822132E+00  0.90774342528E+00  0.11802590222E+01  0.00000000000E+00 0.  1.
         11    1    3    3    0    0 -0.13976573514E+02  0.18630141658E+00  0.11328050154E+02  0.17991776899E+02  0.51100000000E-03 0. -1.
        -11    1    3    3    0    0 -0.58917641406E+01  0.18086979929E+01  0.27120567026E+02  0.27812037487E+02  0.51100000000E-03 0.  1.
         12    1    3    3    0    0  0.20085919478E+02 -0.12727311882E+01 -0.39356360606E+02  0.44203926591E+02  0.00000000000E+00 0. -1.
</event>
<event>
 7    1  0.3505640E-015  0.9000775E+02  0.7816164E-02  0.1186339E+00
        -11   -1    0    0    0    0  0.00000000000E+00  0.00000000000E+00  0.45593999997E+02  0.45594000000E+02  0.51100000000E-03 0. -1.
         11   -1    0    0    0    0 -0.00000000000E+00 -0.00000000000E+00 -0.45593999997E+02  0.45594000000E+02  0.51100000000E-03 0.  1.
    9900012    2    1    2    0    0  0.32400048312E+00  0.10794879147E+01  0.35031799340E+00  0.90007748685E+02  0.90000010167E+02 0.  0.
        -12    1    1    2    0    0 -0.32400048312E+00 -0.10794879147E+01 -0.35031799340E+00  0.11802513154E+01  0.00000000000E+00 0.  1.
         11    1    3    3    0    0  0.39640118517E+01 -0.40741180042E+01 -0.34245609457E+01  0.66362222239E+01  0.51100000000E-03 0. -1.
        -11    1    3    3    0    0  0.23848047615E+02 -0.26857068175E+02 -0.12670761952E+02  0.38086476533E+02  0.51100000000E-03 0.  1.
         12    1    3    3    0    0 -0.27488058983E+02  0.32010674094E+02  0.16445640891E+02  0.45285049928E+02  0.00000000000E+00 0. -1.
</event>
<event>
 7    1  0.3505640E-015  0.9000773E+02  0.7816164E-02  0.1186339E+00
        -11   -1    0    0    0    0  0.00000000000E+00  0.00000000000E+00  0.45593999997E+02  0.45594000000E+02  0.51100000000E-03 0.  1.
         11   -1    0    0    0    0 -0.00000000000E+00 -0.00000000000E+00 -0.45593999997E+02  0.45594000000E+02  0.51100000000E-03 0. -1.
    9900012    2    1    2    0    0  0.13609775986E+00 -0.29861742899E+00 -0.11337245529E+01  0.90007734635E+02  0.89999995933E+02 0.  0.
        -12    1    1    2    0    0 -0.13609775986E+00  0.29861742899E+00  0.11337245529E+01  0.11802653646E+01  0.00000000000E+00 0.  1.
         11    1    3    3    0    0  0.59005839189E+01  0.95806402624E+01  0.24562660711E+01  0.11516892015E+02  0.51100000000E-03 0. -1.
        -11    1    3    3    0    0 -0.26847389802E+02  0.22711449067E+02  0.11271608909E+02  0.36927515832E+02  0.51100000000E-03 0.  1.
         12    1    3    3    0    0  0.21082903642E+02 -0.32590706758E+02 -0.14861599533E+02  0.41563326788E+02  0.00000000000E+00 0. -1.
</event>
<event>
 7    1  0.3505640E-015  0.9000778E+02  0.7816164E-02  0.1186339E+00
        -11   -1    0    0    0    0  0.00000000000E+00  0.00000000000E+00  0.45593999997E+02  0.45594000000E+02  0.51100000000E-03 0.  1.
         11   -1    0    0    0    0 -0.00000000000E+00 -0.00000000000E+00 -0.45593999997E+02  0.45594000000E+02  0.51100000000E-03 0. -1.
    9900012    2    1    2    0    0  0.43860340407E-01 -0.11035896404E+01 -0.41603745228E+00  0.90007779264E+02  0.90000041150E+02 0.  0.
        -12    1    1    2    0    0 -0.43860340407E-01  0.11035896404E+01  0.41603745228E+00  0.11802207359E+01  0.00000000000E+00 0.  1.
         11    1    3    3    0    0  0.30703569220E+01 -0.16117770272E+01  0.92680399548E+01  0.98955283678E+01  0.51100000000E-03 0. -1.
        -11    1    3    3    0    0 -0.17800225943E+02  0.20579373903E+02  0.25302930986E+02  0.37156385596E+02  0.51100000000E-03 0.  1.
         12    1    3    3    0    0  0.14773729361E+02 -0.20071186516E+02 -0.34987008393E+02  0.42955865300E+02  0.00000000000E+00 0. -1.
</event>
<event>
 7    1  0.3505640E-015  0.9000782E+02  0.7816164E-02  0.1186339E+00
        -11   -1    0    0    0    0  0.00000000000E+00  0.00000000000E+00  0.45593999997E+02  0.45594000000E+02  0.51100000000E-03 0. -1.
         11   -1    0    0    0    0 -0.00000000000E+00 -0.00000000000E+00 -0.45593999997E+02  0.45594000000E+02  0.51100000000E-03 0.  1.
    9900012    2    1    2    0    0  0.35002985838E+00 -0.72550340404E+00  0.86252844025E+00  0.90007817217E+02  0.90000079604E+02 0.  0.
        -12    1    1    2    0    0 -0.35002985838E+00  0.72550340404E+00 -0.86252844025E+00  0.11801827830E+01  0.00000000000E+00 0.  1.
         11    1    3    3    0    0 -0.20672224469E+02  0.99901420636E+01  0.28697245788E+02  0.36751540363E+02  0.51100000000E-03 0. -1.
        -11    1    3    3    0    0 -0.64914393036E+01  0.17385034220E+01  0.51998322212E+01  0.84970249953E+01  0.51100000000E-03 0.  1.
        -12    1    3    3    0    0  0.27513693631E+02 -0.12454148890E+02 -0.33034549569E+02  0.44759251859E+02  0.00000000000E+00 0.  1.
</event>
<event>
 7    1  0.3505640E-015  0.9000779E+02  0.7816164E-02  0.1186339E+00
        -11   -1    0    0    0    0  0.00000000000E+00  0.00000000000E+00  0.45593999997E+02  0.45594000000E+02  0.51100000000E-03 0.  1.
         11   -1    0    0    0    0 -0.00000000000E+00 -0.00000000000E+00 -0.45593999997E+02  0.45594000000E+02  0.51100000000E-03 0. -1.
    9900012    2    1    2    0    0 -0.26958980299E+00  0.11240287027E+01  0.23828097924E+00  0.90007789421E+02  0.90000051441E+02 0.  0.
        -12    1    1    2    0    0  0.26958980299E+00 -0.11240287027E+01 -0.23828097924E+00  0.11802105792E+01  0.00000000000E+00 0.  1.
         11    1    3    3    0    0  0.10919843281E+02 -0.35459835208E+02  0.61981320628E+01  0.37617279694E+02  0.51100000000E-03 0. -1.
        -11    1    3    3    0    0 -0.51579049544E+01 -0.62057272511E+01  0.23104036572E+01  0.83936285095E+01  0.51100000000E-03 0.  1.
        -12    1    3    3    0    0 -0.60315281300E+01  0.42789591162E+02 -0.82702547408E+01  0.43996881217E+02  0.00000000000E+00 0.  1.
</event>
<event>
 7    1  0.3505640E-015  0.9000769E+02  0.7816164E-02  0.1186339E+00
        -11   -1    0    0    0    0  0.00000000000E+00  0.00000000000E+00  0.45593999997E+02  0.45594000000E+02  0.51100000000E-03 0.  1.
         11   -1    0    0    0    0 -0.00000000000E+00 -0.00000000000E+00 -0.45593999997E+02  0.45594000000E+02  0.51100000000E-03 0. -1.
    9900012    2    1    2    0    0  0.73639566316E+00 -0.89792691797E+00 -0.21112782226E+00  0.90007692294E+02  0.89999953033E+02 0.  0.
        -12    1    1    2    0    0 -0.73639566316E+00  0.89792691797E+00  0.21112782226E+00  0.11803077057E+01  0.00000000000E+00 0.  1.
         11    1    3    3    0    0  0.23084037829E+02 -0.82653934570E+01 -0.24650095658E+02  0.34768042045E+02  0.51100000000E-03 0. -1.
        -11    1    3    3    0    0  0.93084378342E+01 -0.38477480287E+01 -0.43820257242E+01  0.10984276468E+02  0.51100000000E-03 0.  1.
        -12    1    3    3    0    0 -0.31656080000E+02  0.11215214568E+02  0.28820993560E+02  0.44255373781E+02  0.00000000000E+00 0.  1.
</event>
<event>
 7    1  0.3505640E-015  0.9000776E+02  0.7816164E-02  0.1186339E+00
        -11   -1    0    0    0    0  0.00000000000E+00  0.00000000000E+00  0.45593999997E+02  0.45594000000E+02  0.51100000000E-03 0.  1.
         11   -1    0    0    0    0 -0.00000000000E+00 -0.00000000000E+00 -0.45593999997E+02  0.45594000000E+02  0.51100000000E-03 0. -1.
    9900012    2    1    2    0    0 -0.24719395523E+00 -0.11349679209E+01  0.20905691343E+00  0.90007761962E+02  0.90000023620E+02 0.  0.
        -12    1    1    2    0    0  0.24719395523E+00  0.11349679209E+01 -0.20905691343E+00  0.11802380378E+01  0.00000000000E+00 0.  1.
         11    1    3    3    0    0 -0.84776356738E+00  0.50629458671E+01  0.10246252946E+02  0.11460271533E+02  0.51100000000E-03 0. -1.
        -11    1    3    3    0    0 -0.25356152811E+02  0.24209591952E+02  0.58209607814E+01  0.35537619680E+02  0.51100000000E-03 0.  1.
         12    1    3    3    0    0  0.25956722423E+02 -0.30407505740E+02 -0.15858156814E+02  0.43009870749E+02  0.00000000000E+00 0. -1.
</event>
<event>
 7    1  0.3505640E-015  0.9000772E+02  0.7816164E-02  0.1186339E+00
        -11   -1    0    0    0    0  0.00000000000E+00  0.00000000000E+00  0.45593999997E+02  0.45594000000E+02  0.51100000000E-03 0.  1.
         11   -1    0    0    0    0 -0.00000000000E+00 -0.00000000000E+00 -0.45593999997E+02  0.45594000000E+02  0.51100000000E-03 0. -1.
    9900012    2    1    2    0    0 -0.25112438216E+00  0.10727045160E+01  0.42342831916E+00  0.90007724619E+02  0.89999985784E+02 0.  0.
        -12    1    1    2    0    0  0.25112438216E+00 -0.10727045160E+01 -0.42342831916E+00  0.11802753812E+01  0.00000000000E+00 0.  1.
         11    1    3    3    0    0  0.17156544905E+02  0.27656757747E+02 -0.28630168695E+02  0.43346624343E+02  0.51100000000E-03 0. -1.
        -11    1    3    3    0    0  0.59206456077E+00  0.12722601941E+00  0.83482471953E+01  0.83701826981E+01  0.51100000000E-03 0.  1.
        -12    1    3    3    0    0 -0.17999733848E+02 -0.26711279251E+02  0.20705349819E+02  0.38290917578E+02  0.00000000000E+00 0.  1.
</event>
<event>
 7    1  0.3505640E-015  0.9000774E+02  0.7816164E-02  0.1186339E+00
        -11   -1    0    0    0    0  0.00000000000E+00  0.00000000000E+00  0.45593999997E+02  0.45594000000E+02  0.51100000000E-03 0.  1.
         11   -1    0    0    0    0 -0.00000000000E+00 -0.00000000000E+00 -0.45593999997E+02  0.45594000000E+02  0.51100000000E-03 0. -1.
    9900012    2    1    2    0    0 -0.11551488425E+01 -0.13080527114E-01  0.24182988379E+00  0.90007736622E+02  0.89999997946E+02 0.  0.
        -12    1    1    2    0    0  0.11551488425E+01  0.13080527114E-01 -0.24182988379E+00  0.11802633779E+01  0.00000000000E+00 0.  1.
         11    1    3    3    0    0 -0.69310841025E+01 -0.64798386704E+01  0.55981666322E+01  0.11016701227E+02  0.51100000000E-03 0. -1.
        -11    1    3    3    0    0  0.40513740418E+01 -0.35174454514E+02  0.57231612942E+01  0.35866564617E+02  0.51100000000E-03 0.  1.
         12    1    3    3    0    0  0.17245612182E+01  0.41641212657E+02 -0.11079498043E+02  0.43124470777E+02  0.00000000000E+00 0. -1.
</event>
<event>
 7    1  0.3505640E-015  0.9000665E+02  0.7816164E-02  0.1186341E+00
        -11   -1    0    0    0    0  0.00000000000E+00  0.00000000000E+00  0.45593999997E+02  0.45594000000E+02  0.51100000000E-03 0.  1.
         11   -1    0    0    0    0 -0.00000000000E+00 -0.00000000000E+00 -0.45593999997E+02  0.45594000000E+02  0.51100000000E-03 0. -1.
    9900012    2    1    2    0    0  0.42809037467E+00  0.60848586185E+00  0.91765038680E+00  0.90006645419E+02  0.89998892332E+02 0.  0.
        -12    1    1    2    0    0 -0.42809037467E+00 -0.60848586185E+00 -0.91765038680E+00  0.11813545807E+01  0.00000000000E+00 0.  1.
         11    1    3    3    0    0  0.86269257947E+01  0.17969865180E+01  0.93850283112E+00  0.88619296453E+01  0.51100000000E-03 0. -1.
        -11    1    3    3    0    0 -0.47465004065E+01 -0.19882304129E+02  0.35438477728E+02  0.40911135252E+02  0.51100000000E-03 0.  1.
         12    1    3    3    0    0 -0.34523350135E+01  0.18693803473E+02 -0.35459330173E+02  0.40233580522E+02  0.00000000000E+00 0. -1.
</event>
<event>
 7    1  0.3505640E-015  0.9000771E+02  0.7816164E-02  0.1186339E+00
        -11   -1    0    0    0    0  0.00000000000E+00  0.00000000000E+00  0.45593999997E+02  0.45594000000E+02  0.51100000000E-03 0.  1.
         11   -1    0    0    0    0 -0.00000000000E+00 -0.00000000000E+00 -0.45593999997E+02  0.45594000000E+02  0.51100000000E-03 0. -1.
    9900012    2    1    2    0    0 -0.20180827771E+00  0.28128157463E+00 -0.11283825802E+01  0.90007706328E+02  0.89999967251E+02 0.  0.
        -12    1    1    2    0    0  0.20180827771E+00 -0.28128157463E+00  0.11283825802E+01  0.11802936721E+01  0.00000000000E+00 0.  1.
         11    1    3    3    0    0 -0.30666636312E+02 -0.12816785094E+01 -0.60119595350E+01  0.31276651678E+02  0.51100000000E-03 0. -1.
        -11    1    3    3    0    0 -0.12268319195E+02 -0.69749440610E+01  0.55069895592E+01  0.15148875694E+02  0.51100000000E-03 0.  1.
        -12    1    3    3    0    0  0.42733147229E+02  0.85379041450E+01 -0.62341260431E+00  0.43582178956E+02  0.00000000000E+00 0.  1.
</event>
<event>
 7    1  0.3505640E-015  0.9000750E+02  0.7816164E-02  0.1186340E+00
        -11   -1    0    0    0    0  0.00000000000E+00  0.00000000000E+00  0.45593999997E+02  0.45594000000E+02  0.51100000000E-03 0. -1.
         11   -1    0    0    0    0 -0.00000000000E+00 -0.00000000000E+00 -0.45593999997E+02  0.45594000000E+02  0.51100000000E-03 0.  1.
    9900012    2    1    2    0    0 -0.93334395441E+00  0.71616708351E+00  0.97801418702E-01  0.90007495300E+02  0.89999753438E+02 0.  0.
        -12    1    1    2    0    0  0.93334395441E+00 -0.71616708351E+00 -0.97801418702E-01  0.11805046998E+01  0.00000000000E+00 0.  1.
         11    1    3    3    0    0  0.62750652702E+01  0.60851851568E+01  0.68270006063E+01  0.11091161349E+02  0.51100000000E-03 0. -1.
        -11    1    3    3    0    0  0.34134444522E+02  0.73132806091E+01 -0.73185297173E+01  0.35667986396E+02  0.51100000000E-03 0.  1.
         12    1    3    3    0    0 -0.41342853746E+02 -0.12682298682E+02  0.58933052974E+00  0.43248347555E+02  0.00000000000E+00 0. -1.
</event>
<event>
 7    1  0.3505640E-015  0.9000774E+02  0.7816164E-02  0.1186339E+00
        -11   -1    0    0    0    0  0.00000000000E+00  0.00000000000E+00  0.45593999997E+02  0.45594000000E+02  0.51100000000E-03 0.  1.
         11   -1    0    0    0    0 -0.00000000000E+00 -0.00000000000E+00 -0.45593999997E+02  0.45594000000E+02  0.51100000000E-03 0. -1.
    9900012    2    1    2    0    0 -0.56027751147E+00 -0.41611425845E+00 -0.95181193851E+00  0.90007742430E+02  0.90000003830E+02 0.  0.
        -12    1    1    2    0    0  0.56027751147E+00  0.41611425845E+00  0.95181193851E+00  0.11802575703E+01  0.00000000000E+00 0.  1.
         11    1    3    3    0    0  0.12342245811E+02 -0.23632802162E+02  0.26826776030E+02  0.37822166545E+02  0.51100000000E-03 0. -1.
        -11    1    3    3    0    0  0.20686056097E+01 -0.70632278928E+01  0.14679075059E+01  0.75048697618E+01  0.51100000000E-03 0.  1.
        -12    1    3    3    0    0 -0.14971128932E+02  0.30279915796E+02 -0.29246495475E+02  0.44680706123E+02  0.00000000000E+00 0.  1.
</event>
<event>
 7    1  0.3505640E-015  0.9000773E+02  0.7816164E-02  0.1186339E+00
        -11   -1    0    0    0    0  0.00000000000E+00  0.00000000000E+00  0.45593999997E+02  0.45594000000E+02  0.51100000000E-03 0. -1.
         11   -1    0    0    0    0 -0.00000000000E+00 -0.00000000000E+00 -0.45593999997E+02  0.45594000000E+02  0.51100000000E-03 0.  1.
    9900012    2    1    2    0    0  0.65265495590E+00 -0.89957723451E+00  0.39727869424E+00  0.90007733906E+02  0.89999995193E+02 0.  0.
        -12    1    1    2    0    0 -0.65265495590E+00  0.89957723451E+00 -0.39727869424E+00  0.11802660942E+01  0.00000000000E+00 0.  1.
         11    1    3    3    0    0 -0.16833676248E+01  0.93811662489E+01 -0.38923118376E+01  0.10295149268E+02  0.51100000000E-03 0. -1.
        -11    1    3    3    0    0 -0.12758842003E+02  0.28161951929E+02 -0.14725845176E+02  0.34245205535E+02  0.51100000000E-03 0.  1.
         12    1    3    3    0    0  0.15094864584E+02 -0.38442695412E+02  0.19015435707E+02  0.45467379103E+02  0.00000000000E+00 0. -1.
</event>
<event>
 7    1  0.3505640E-015  0.9000758E+02  0.7816164E-02  0.1186339E+00
        -11   -1    0    0    0    0  0.00000000000E+00  0.00000000000E+00  0.45593999997E+02  0.45594000000E+02  0.51100000000E-03 0.  1.
         11   -1    0    0    0    0 -0.00000000000E+00 -0.00000000000E+00 -0.45593999997E+02  0.45594000000E+02  0.51100000000E-03 0. -1.
    9900012    2    1    2    0    0 -0.34382732752E+00  0.10716532712E+01  0.35600273640E+00  0.90007578078E+02  0.89999837309E+02 0.  0.
        -12    1    1    2    0    0  0.34382732752E+00 -0.10716532712E+01 -0.35600273640E+00  0.11804219216E+01  0.00000000000E+00 0.  1.
         11    1    3    3    0    0  0.22451382202E+02 -0.10203871003E+02 -0.27607370831E+02  0.37018245105E+02  0.51100000000E-03 0. -1.
        -11    1    3    3    0    0 -0.55378727669E+00  0.65592799984E+01 -0.80505333764E+01  0.10399130846E+02  0.51100000000E-03 0.  1.
        -12    1    3    3    0    0 -0.22241422252E+02  0.47162442760E+01  0.36013906944E+02  0.42590202127E+02  0.00000000000E+00 0.  1.
</event>
<event>
 7    1  0.3505640E-015  0.9000773E+02  0.7816164E-02  0.1186339E+00
        -11   -1    0    0    0    0  0.00000000000E+00  0.00000000000E+00  0.45593999997E+02  0.45594000000E+02  0.51100000000E-03 0.  1.
         11   -1    0    0    0    0 -0.00000000000E+00 -0.00000000000E+00 -0.45593999997E+02  0.45594000000E+02  0.51100000000E-03 0. -1.
    9900012    2    1    2    0    0 -0.59000416006E+00 -0.10218521107E+01  0.27250901202E-01  0.90007733396E+02  0.89999994677E+02 0.  0.
        -12    1    1    2    0    0  0.59000416006E+00  0.10218521107E+01 -0.27250901202E-01  0.11802666040E+01  0.00000000000E+00 0.  1.
         11    1    3    3    0    0  0.10024384007E+02 -0.11419398182E+02 -0.10709210431E+02  0.18589731517E+02  0.51100000000E-03 0. -1.
        -11    1    3    3    0    0  0.28091776612E+02 -0.57094443548E+01  0.51185733633E+01  0.29119503114E+02  0.51100000000E-03 0.  1.
         12    1    3    3    0    0 -0.38706164779E+02  0.16106990426E+02  0.56178879688E+01  0.42298498765E+02  0.00000000000E+00 0. -1.
</event>
<event>
 7    1  0.3505640E-015  0.9000776E+02  0.7816164E-02  0.1186339E+00
        -11   -1    0    0    0    0  0.00000000000E+00  0.00000000000E+00  0.45593999997E+02  0.45594000000E+02  0.51100000000E-03 0. -1.
         11   -1    0    0    0    0 -0.00000000000E+00 -0.00000000000E+00 -0.45593999997E+02  0.45594000000E+02  0.51100000000E-03 0.  1.
    9900012    2    1    2    0    0  0.23301307545E+00  0.39331972686E+00  0.10881075335E+01  0.90007757014E+02  0.90000018607E+02 0.  0.
        -12    1    1    2    0    0 -0.23301307545E+00 -0.39331972686E+00 -0.10881075335E+01  0.11802429857E+01  0.00000000000E+00 0.  1.
         11    1    3    3    0    0 -0.41150209068E+02 -0.46003766498E+01  0.14991767449E+01  0.41433690432E+02  0.51100000000E-03 0. -1.
        -11    1    3    3    0    0 -0.28624095925E+01  0.31632733300E+01  0.38488942136E+00  0.42834363498E+01  0.51100000000E-03 0.  1.
        -12    1    3    3    0    0  0.44245631736E+02  0.18304230467E+01 -0.79595863278E+00  0.44290630232E+02  0.00000000000E+00 0.  1.
</event>
<event>
 8    1  0.3505640E-015  0.9000776E+02  0.7816164E-02  0.1186339E+00
        -11   -1    0    0    0    0  0.00000000000E+00  0.00000000000E+00  0.45593999997E+02  0.45594000000E+02  0.51100000000E-03 0. -1.
         11   -1    0    0    0    0 -0.00000000000E+00 -0.00000000000E+00 -0.45593999997E+02  0.45594000000E+02  0.51100000000E-03 0.  1.
    9900012    2    1    2    0    0  0.26403476661E+00  0.92469148242E-01  0.11466034126E+01  0.90007760919E+02  0.90000022564E+02 0.  0.
         23    2    3    3    0    0  0.49796077418E-01 -0.26804928867E+02 -0.27928641576E+01  0.62822556801E+02  0.56748276288E+02 0.  0.
        -12    1    1    2    0    0 -0.26403476661E+00 -0.92469148242E-01 -0.11466034126E+01  0.11802390805E+01  0.00000000000E+00 0.  1.
         11    1    4    4    0    0 -0.17715569491E+01  0.11641074152E+02  0.16100029090E+02  0.19946527478E+02  0.51100000000E-03 0. -1.
        -11    1    4    4    0    0  0.18213530265E+01 -0.38446003019E+02 -0.18892893248E+02  0.42876029324E+02  0.51100000000E-03 0.  1.
         12    1    3    3    0    0  0.21423868919E+00  0.26897398015E+02  0.39394675702E+01  0.27185204118E+02  0.00000000000E+00 0. -1.
</event>
<event>
 7    1  0.3505640E-015  0.9000778E+02  0.7816164E-02  0.1186339E+00
        -11   -1    0    0    0    0  0.00000000000E+00  0.00000000000E+00  0.45593999997E+02  0.45594000000E+02  0.51100000000E-03 0.  1.
         11   -1    0    0    0    0 -0.00000000000E+00 -0.00000000000E+00 -0.45593999997E+02  0.45594000000E+02  0.51100000000E-03 0. -1.
    9900012    2    1    2    0    0 -0.59866351974E+00  0.97691191998E+00 -0.28311823407E+00  0.90007783561E+02  0.90000045504E+02 0.  0.
        -12    1    1    2    0    0  0.59866351974E+00 -0.97691191998E+00  0.28311823407E+00  0.11802164394E+01  0.00000000000E+00 0.  1.
         11    1    3    3    0    0 -0.16396589940E+02 -0.28869048956E+02 -0.11631245067E+02  0.35178914301E+02  0.51100000000E-03 0. -1.
        -11    1    3    3    0    0 -0.26281885927E+01 -0.89678525194E+01 -0.25232263056E+01  0.96796913865E+01  0.51100000000E-03 0.  1.
        -12    1    3    3    0    0  0.18426115013E+02  0.38813813396E+02  0.13871353138E+02  0.45149177874E+02  0.00000000000E+00 0.  1.
</event>
<event>
 7    1  0.3505640E-015  0.9000779E+02  0.7816164E-02  0.1186339E+00
        -11   -1    0    0    0    0  0.00000000000E+00  0.00000000000E+00  0.45593999997E+02  0.45594000000E+02  0.51100000000E-03 0. -1.
         11   -1    0    0    0    0 -0.00000000000E+00 -0.00000000000E+00 -0.45593999997E+02  0.45594000000E+02  0.51100000000E-03 0.  1.
    9900012    2    1    2    0    0 -0.10566810012E+01  0.52486222505E+00  0.28922006043E-01  0.90007791723E+02  0.90000053774E+02 0.  0.
        -12    1    1    2    0    0  0.10566810012E+01 -0.52486222505E+00 -0.28922006043E-01  0.11802082765E+01  0.00000000000E+00 0.  1.
         11    1    3    3    0    0 -0.63373092044E+00  0.68417966191E+01  0.76499304724E+01  0.10282666597E+02  0.51100000000E-03 0. -1.
        -11    1    3    3    0    0  0.38526023036E+02 -0.85450888966E-01  0.36593553816E+01  0.38699517244E+02  0.51100000000E-03 0.  1.
         12    1    3    3    0    0 -0.38948973117E+02 -0.62314835051E+01 -0.11280363848E+02  0.41025607882E+02  0.00000000000E+00 0. -1.
</event>
<event>
 7    1  0.3505640E-015  0.9000766E+02  0.7816164E-02  0.1186339E+00
        -11   -1    0    0    0    0  0.00000000000E+00  0.00000000000E+00  0.45593999997E+02  0.45594000000E+02  0.51100000000E-03 0.  1.
         11   -1    0    0    0    0 -0.00000000000E+00 -0.00000000000E+00 -0.45593999997E+02  0.45594000000E+02  0.51100000000E-03 0. -1.
    9900012    2    1    2    0    0  0.75705332600E+00  0.86395965352E+00  0.27136342345E+00  0.90007663553E+02  0.89999923912E+02 0.  0.
        -12    1    1    2    0    0 -0.75705332600E+00 -0.86395965352E+00 -0.27136342345E+00  0.11803364473E+01  0.00000000000E+00 0.  1.
         11    1    3    3    0    0  0.47869732390E+00 -0.39172285635E+02 -0.95809737885E+01  0.40329792610E+02  0.51100000000E-03 0. -1.
        -11    1    3    3    0    0  0.35427790755E+01 -0.52073395948E+00  0.82096209811E+01  0.89565799471E+01  0.51100000000E-03 0.  1.
        -12    1    3    3    0    0 -0.32644230734E+01  0.40556979248E+02  0.16427162308E+01  0.40721290995E+02  0.00000000000E+00 0.  1.
</event>
<event>
 7    1  0.3505640E-015  0.9000776E+02  0.7816164E-02  0.1186339E+00
        -11   -1    0    0    0    0  0.00000000000E+00  0.00000000000E+00  0.45593999997E+02  0.45594000000E+02  0.51100000000E-03 0.  1.
         11   -1    0    0    0    0 -0.00000000000E+00 -0.00000000000E+00 -0.45593999997E+02  0.45594000000E+02  0.51100000000E-03 0. -1.
    9900012    2    1    2    0    0 -0.10113909544E+01 -0.57542829859E+00  0.19732521084E+00  0.90007759928E+02  0.90000021559E+02 0.  0.
        -12    1    1    2    0    0  0.10113909544E+01  0.57542829859E+00 -0.19732521084E+00  0.11802400723E+01  0.00000000000E+00 0.  1.
         11    1    3    3    0    0  0.73113593236E+01  0.59685425744E+01 -0.41959475398E+00  0.94475147864E+01  0.51100000000E-03 0. -1.
        -11    1    3    3    0    0  0.35277469002E+02 -0.10053142042E+02  0.26010973050E+01  0.36774055957E+02  0.51100000000E-03 0.  1.
         12    1    3    3    0    0 -0.43600219280E+02  0.35091711686E+01 -0.19841773401E+01  0.43786189184E+02  0.00000000000E+00 0. -1.
</event>
<event>
 7    1  0.3505640E-015  0.9000765E+02  0.7816164E-02  0.1186339E+00
        -11   -1    0    0    0    0  0.00000000000E+00  0.00000000000E+00  0.45593999997E+02  0.45594000000E+02  0.51100000000E-03 0. -1.
         11   -1    0    0    0    0 -0.00000000000E+00 -0.00000000000E+00 -0.45593999997E+02  0.45594000000E+02  0.51100000000E-03 0.  1.
    9900012    2    1    2    0    0  0.24219633563E-02  0.11161520270E+01  0.38394878350E+00  0.90007653491E+02  0.89999913717E+02 0.  0.
        -12    1    1    2    0    0 -0.24219633563E-02 -0.11161520270E+01 -0.38394878350E+00  0.11803465092E+01  0.00000000000E+00 0.  1.
         11    1    3    3    0    0  0.13700762510E+02 -0.59465034682E+01 -0.36843268691E+01  0.15383304638E+02  0.51100000000E-03 0. -1.
        -11    1    3    3    0    0 -0.16387226206E+02 -0.17536545108E+02 -0.26197504113E+02  0.35529998861E+02  0.51100000000E-03 0.  1.
         12    1    3    3    0    0  0.26888856598E+01  0.24599200604E+02  0.30265779766E+02  0.39094349991E+02  0.00000000000E+00 0. -1.
</event>
<event>
 7    1  0.3505640E-015  0.9000789E+02  0.7816164E-02  0.1186339E+00
        -11   -1    0    0    0    0  0.00000000000E+00  0.00000000000E+00  0.45593999997E+02  0.45594000000E+02  0.51100000000E-03 0. -1.
         11   -1    0    0    0    0 -0.00000000000E+00 -0.00000000000E+00 -0.45593999997E+02  0.45594000000E+02  0.51100000000E-03 0.  1.
    9900012    2    1    2    0    0  0.10780097091E+01  0.40200378150E-02  0.48014509344E+00  0.90007889664E+02  0.90000153008E+02 0.  0.
        -12    1    1    2    0    0 -0.10780097091E+01 -0.40200378150E-02 -0.48014509344E+00  0.11801103357E+01  0.00000000000E+00 0.  1.
         11    1    3    3    0    0  0.14450850229E+02  0.37921335210E+01 -0.15912529527E+01  0.15024627622E+02  0.51100000000E-03 0. -1.
        -11    1    3    3    0    0  0.38821692205E+01  0.60163961921E+01 -0.33496475848E+02  0.34253206500E+02  0.51100000000E-03 0.  1.
         12    1    3    3    0    0 -0.17255009740E+02 -0.98045096752E+01  0.35567873894E+02  0.40730055542E+02  0.00000000000E+00 0. -1.
</event>
<event>
 7    1  0.3505640E-015  0.9000773E+02  0.7816164E-02  0.1186339E+00
        -11   -1    0    0    0    0  0.00000000000E+00  0.00000000000E+00  0.45593999997E+02  0.45594000000E+02  0.51100000000E-03 0.  1.
         11   -1    0    0    0    0 -0.00000000000E+00 -0.00000000000E+00 -0.45593999997E+02  0.45594000000E+02  0.51100000000E-03 0. -1.
    9900012    2    1    2    0    0 -0.77038149825E+00  0.88493515971E+00 -0.12819284756E+00  0.90007732532E+02  0.89999993801E+02 0.  0.
        -12    1    1    2    0    0  0.77038149825E+00 -0.88493515971E+00  0.12819284756E+00  0.11802674680E+01  0.00000000000E+00 0.  1.
         11    1    3    3    0    0  0.14332731534E+02 -0.20926628591E+02 -0.26598338473E+02  0.36753538431E+02  0.51100000000E-03 0. -1.
        -11    1    3    3    0    0  0.67176027064E+01  0.12850804685E+01 -0.59834272328E+01  0.90872999094E+01  0.51100000000E-03 0.  1.
        -12    1    3    3    0    0 -0.21820715739E+02  0.20526483282E+02  0.32453572858E+02  0.44166894192E+02  0.00000000000E+00 0.  1.
</event>
<event>
 7    1  0.3505640E-015  0.9000775E+02  0.7816164E-02  0.1186339E+00
        -11   -1    0    0    0    0  0.00000000000E+00  0.00000000000E+00  0.45593999997E+02  0.45594000000E+02  0.51100000000E-03 0.  1.
         11   -1    0    0    0    0 -0.00000000000E+00 -0.00000000000E+00 -0.45593999997E+02  0.45594000000E+02  0.51100000000E-03 0. -1.
    9900012    2    1    2    0    0  0.49912029321E+00  0.10445234915E+01  0.22988799182E+00  0.90007746265E+02  0.90000007715E+02 0.  0.
        -12    1    1    2    0    0 -0.49912029321E+00 -0.10445234915E+01 -0.22988799182E+00  0.11802537355E+01  0.00000000000E+00 0.  1.
         11    1    3    3    0    0 -0.51213729224E+01  0.92384248462E+01  0.45254581562E+01  0.11491593712E+02  0.51100000000E-03 0. -1.
        -11    1    3    3    0    0  0.32953794262E+02  0.10685963080E+02  0.17472183120E+02  0.38799736423E+02  0.51100000000E-03 0.  1.
         12    1    3    3    0    0 -0.27333301047E+02 -0.18879864435E+02 -0.21767753284E+02  0.39716416130E+02  0.00000000000E+00 0. -1.
</event>
<event>
 7    1  0.3505640E-015  0.9000766E+02  0.7816164E-02  0.1186339E+00
        -11   -1    0    0    0    0  0.00000000000E+00  0.00000000000E+00  0.45593999997E+02  0.45594000000E+02  0.51100000000E-03 0. -1.
         11   -1    0    0    0    0 -0.00000000000E+00 -0.00000000000E+00 -0.45593999997E+02  0.45594000000E+02  0.51100000000E-03 0.  1.
    9900012    2    1    2    0    0  0.14413104188E-02 -0.66139469481E+00  0.97762744394E+00  0.90007660880E+02  0.89999921203E+02 0.  0.
        -12    1    1    2    0    0 -0.14413104188E-02  0.66139469481E+00 -0.97762744394E+00  0.11803391203E+01  0.00000000000E+00 0.  1.
         11    1    3    3    0    0 -0.45970683176E+01 -0.67036839046E+01  0.39411549110E+02  0.40241056379E+02  0.51100000000E-03 0. -1.
        -11    1    3    3    0    0 -0.80350502767E+01 -0.11271568392E+01  0.58171788777E+00  0.81345504763E+01  0.51100000000E-03 0.  1.
        -12    1    3    3    0    0  0.12633559905E+02  0.71694460490E+01 -0.39015639554E+02  0.41632054024E+02  0.00000000000E+00 0.  1.
</event>
<event>
 7    1  0.3505640E-015  0.9000774E+02  0.7816164E-02  0.1186339E+00
        -11   -1    0    0    0    0  0.00000000000E+00  0.00000000000E+00  0.45593999997E+02  0.45594000000E+02  0.51100000000E-03 0. -1.
         11   -1    0    0    0    0 -0.00000000000E+00 -0.00000000000E+00 -0.45593999997E+02  0.45594000000E+02  0.51100000000E-03 0.  1.
    9900012    2    1    2    0    0 -0.52612166625E+00 -0.19050512449E+00  0.10391914606E+01  0.90007739392E+02  0.90000000752E+02 0.  0.
        -12    1    1    2    0    0  0.52612166625E+00  0.19050512449E+00 -0.10391914606E+01  0.11802606076E+01  0.00000000000E+00 0.  1.
         11    1    3    3    0    0  0.55479704414E+01 -0.52206594698E+01 -0.75731302695E+01  0.10741860344E+02  0.51100000000E-03 0. -1.
        -11    1    3    3    0    0 -0.34140518052E+02 -0.21296571437E+02  0.26518445939E+01  0.40325565189E+02  0.51100000000E-03 0.  1.
         12    1    3    3    0    0  0.28066425944E+02  0.26326725783E+02  0.59604771362E+01  0.38940313859E+02  0.00000000000E+00 0. -1.
</event>
<event>
 7    1  0.3505640E-015  0.9000760E+02  0.7816164E-02  0.1186339E+00
        -11   -1    0    0    0    0  0.00000000000E+00  0.00000000000E+00  0.45593999997E+02  0.45594000000E+02  0.51100000000E-03 0.  1.
         11   -1    0    0    0    0 -0.00000000000E+00 -0.00000000000E+00 -0.45593999997E+02  0.45594000000E+02  0.51100000000E-03 0. -1.
    9900012    2    1    2    0    0  0.72794825926E-01 -0.37957720793E+00 -0.11153359164E+01  0.90007596616E+02  0.89999856091E+02 0.  0.
        -12    1    1    2    0    0 -0.72794825926E-01  0.37957720793E+00  0.11153359164E+01  0.11804033844E+01  0.00000000000E+00 0.  1.
         11    1    3    3    0    0  0.85666742984E+00  0.79480907081E+01 -0.16341664359E+01  0.81594439266E+01  0.51100000000E-03 0. -1.
        -11    1    3    3    0    0 -0.21870843601E+02  0.30575212056E+02  0.63628175767E+00  0.37597636187E+02  0.51100000000E-03 0.  1.
         12    1    3    3    0    0  0.21086970997E+02 -0.38902879972E+02 -0.11745123825E+00  0.44250516502E+02  0.00000000000E+00 0. -1.
</event>
<event>
 7    1  0.3505640E-015  0.9000775E+02  0.7816164E-02  0.1186339E+00
        -11   -1    0    0    0    0  0.00000000000E+00  0.00000000000E+00  0.45593999997E+02  0.45594000000E+02  0.51100000000E-03 0. -1.
         11   -1    0    0    0    0 -0.00000000000E+00 -0.00000000000E+00 -0.45593999997E+02  0.45594000000E+02  0.51100000000E-03 0.  1.
    9900012    2    1    2    0    0  0.20819411550E+00  0.46123352080E+00  0.10662624050E+01  0.90007747202E+02  0.90000008665E+02 0.  0.
        -12    1    1    2    0    0 -0.20819411550E+00 -0.46123352080E+00 -0.10662624050E+01  0.11802527978E+01  0.00000000000E+00 0.  1.
         11    1    3    3    0    0 -0.27910001705E+02 -0.12776110727E+02  0.10403169664E+02  0.32410232024E+02  0.51100000000E-03 0. -1.
        -11    1    3    3    0    0 -0.63074429919E+01  0.19736585421E+02 -0.89273814736E+01  0.22561355930E+02  0.51100000000E-03 0.  1.
        -12    1    3    3    0    0  0.34425638813E+02 -0.64992411729E+01 -0.40952578540E+00  0.35036159248E+02  0.00000000000E+00 0.  1.
</event>
<event>
 7    1  0.3505640E-015  0.9000773E+02  0.7816164E-02  0.1186339E+00
        -11   -1    0    0    0    0  0.00000000000E+00  0.00000000000E+00  0.45593999997E+02  0.45594000000E+02  0.51100000000E-03 0.  1.
         11   -1    0    0    0    0 -0.00000000000E+00 -0.00000000000E+00 -0.45593999997E+02  0.45594000000E+02  0.51100000000E-03 0. -1.
    9900012    2    1    2    0    0 -0.58967113008E+00 -0.33854012707E+00 -0.96473853626E+00  0.90007728039E+02  0.89999989249E+02 0.  0.
        -12    1    1    2    0    0  0.58967113008E+00  0.33854012707E+00  0.96473853626E+00  0.11802719613E+01  0.00000000000E+00 0.  1.
         11    1    3    3    0    0  0.15455864961E+02 -0.14847077659E+01 -0.36443911947E+02  0.39613720314E+02  0.51100000000E-03 0. -1.
        -11    1    3    3    0    0 -0.66296716010E+01  0.20856035753E+01 -0.51674034270E+01  0.86605049651E+01  0.51100000000E-03 0.  1.
        -12    1    3    3    0    0 -0.94158644900E+01 -0.93943593645E+00  0.40646576838E+02  0.41733502760E+02  0.00000000000E+00 0.  1.
</event>
<event>
 7    1  0.3505640E-015  0.9000779E+02  0.7816164E-02  0.1186339E+00
        -11   -1    0    0    0    0  0.00000000000E+00  0.00000000000E+00  0.45593999997E+02  0.45594000000E+02  0.51100000000E-03 0.  1.
         11   -1    0    0    0    0 -0.00000000000E+00 -0.00000000000E+00 -0.45593999997E+02  0.45594000000E+02  0.51100000000E-03 0. -1.
    9900012    2    1    2    0    0  0.40857419527E+00  0.76811398167E+00 -0.79747012870E+00  0.90007792150E+02  0.90000054207E+02 0.  0.
        -12    1    1    2    0    0 -0.40857419527E+00 -0.76811398167E+00  0.79747012870E+00  0.11802078495E+01  0.00000000000E+00 0.  1.
         11    1    3    3    0    0 -0.20784154607E+02 -0.27549210179E+02  0.30613085862E+01  0.34645514496E+02  0.51100000000E-03 0. -1.
        -11    1    3    3    0    0 -0.66839478330E+01 -0.69362018780E+01  0.25493868618E+01  0.99642073823E+01  0.51100000000E-03 0.  1.
        -12    1    3    3    0    0  0.27876676635E+02  0.35253526038E+02 -0.64081655767E+01  0.45398070272E+02  0.00000000000E+00 0.  1.
</event>
<event>
 7    1  0.3505640E-015  0.9000781E+02  0.7816164E-02  0.1186339E+00
        -11   -1    0    0    0    0  0.00000000000E+00  0.00000000000E+00  0.45593999997E+02  0.45594000000E+02  0.51100000000E-03 0. -1.
         11   -1    0    0    0    0 -0.00000000000E+00 -0.00000000000E+00 -0.45593999997E+02  0.45594000000E+02  0.51100000000E-03 0.  1.
    9900012    2    1    2    0    0  0.10302775454E+01  0.50148685687E+00 -0.28264808522E+00  0.90007808987E+02  0.90000071265E+02 0.  0.
        -12    1    1    2    0    0 -0.10302775454E+01 -0.50148685687E+00  0.28264808522E+00  0.11801910135E+01  0.00000000000E+00 0.  1.
         11    1    3    3    0    0 -0.65725645488E+01 -0.32322499483E+02 -0.17579384143E+02  0.37376159844E+02  0.51100000000E-03 0. -1.
        -11    1    3    3    0    0  0.98160011196E-01 -0.80543977879E+01  0.40100017106E+01  0.89979482714E+01  0.51100000000E-03 0.  1.
        -12    1    3    3    0    0  0.75046820830E+01  0.40878384128E+02  0.13286734347E+02  0.43633700871E+02  0.00000000000E+00 0.  1.
</event>
<event>
 7    1  0.3505640E-015  0.9000780E+02  0.7816164E-02  0.1186339E+00
        -11   -1    0    0    0    0  0.00000000000E+00  0.00000000000E+00  0.45593999997E+02  0.45594000000E+02  0.51100000000E-03 0. -1.
         11   -1    0    0    0    0 -0.00000000000E+00 -0.00000000000E+00 -0.45593999997E+02  0.45594000000E+02  0.51100000000E-03 0.  1.
    9900012    2    1    2    0    0  0.97565485365E+00  0.36132229448E+00  0.55715807121E+00  0.90007796073E+02  0.90000058181E+02 0.  0.
        -12    1    1    2    0    0 -0.97565485365E+00 -0.36132229448E+00 -0.55715807121E+00  0.11802039274E+01  0.00000000000E+00 0.  1.
         11    1    3    3    0    0 -0.74607073239E+01 -0.10457835254E+02  0.14408566753E+02  0.19303763056E+02  0.51100000000E-03 0. -1.
        -11    1    3    3    0    0  0.20643338543E+02 -0.22163187780E+02 -0.18092842519E+02  0.35280380801E+02  0.51100000000E-03 0.  1.
         12    1    3    3    0    0 -0.12206976365E+02  0.32982345328E+02  0.42414338375E+01  0.35423652216E+02  0.00000000000E+00 0. -1.
</event>
<event>
 7    1  0.3623054E-015  0.9000772E+02  0.7816164E-02  0.1186339E+00
        -11   -1    0    0    0    0  0.00000000000E+00  0.00000000000E+00  0.45593999997E+02  0.45594000000E+02  0.51100000000E-03 0. -1.
         11   -1    0    0    0    0 -0.00000000000E+00 -0.00000000000E+00 -0.45593999997E+02  0.45594000000E+02  0.51100000000E-03 0.  1.
    9900012    2    1    2    0    0  0.89283457845E+00  0.45043798084E+00  0.62691367922E+00  0.90007716678E+02  0.89999977738E+02 0.  0.
        -12    1    1    2    0    0 -0.89283457845E+00 -0.45043798084E+00 -0.62691367922E+00  0.11802833220E+01  0.00000000000E+00 0.  1.
         11    1    3    3    0    0 -0.11262913110E+01  0.73366053167E+01 -0.52149397775E+01  0.90713784418E+01  0.51100000000E-03 0. -1.
        -11    1    3    3    0    0 -0.38597638529E+02  0.87629388351E+00  0.83802290899E+01  0.39506630214E+02  0.51100000000E-03 0.  1.
         12    1    3    3    0    0  0.40616764418E+02 -0.77624612194E+01 -0.25383756332E+01  0.41429708023E+02  0.00000000000E+00 0. -1.
</event>
<event>
 7    1  0.3505640E-015  0.9000780E+02  0.7816164E-02  0.1186339E+00
        -11   -1    0    0    0    0  0.00000000000E+00  0.00000000000E+00  0.45593999997E+02  0.45594000000E+02  0.51100000000E-03 0.  1.
         11   -1    0    0    0    0 -0.00000000000E+00 -0.00000000000E+00 -0.45593999997E+02  0.45594000000E+02  0.51100000000E-03 0. -1.
    9900012    2    1    2    0    0  0.48429511797E+00  0.22593709541E+00 -0.10522720577E+01  0.90007802637E+02  0.90000064832E+02 0.  0.
        -12    1    1    2    0    0 -0.48429511797E+00 -0.22593709541E+00  0.10522720577E+01  0.11801973631E+01  0.00000000000E+00 0.  1.
         11    1    3    3    0    0  0.26569551315E+01 -0.50965219224E+01  0.15319455327E+01  0.59481764981E+01  0.51100000000E-03 0. -1.
        -11    1    3    3    0    0  0.30856657909E+02  0.20771071905E+02 -0.21519356879E+02  0.42972706293E+02  0.51100000000E-03 0.  1.
         12    1    3    3    0    0 -0.33029317923E+02 -0.15448612887E+02  0.18935139289E+02  0.41086919846E+02  0.00000000000E+00 0. -1.
</event>
<event>
 7    1  0.3505640E-015  0.9000807E+02  0.7816164E-02  0.1186338E+00
        -11   -1    0    0    0    0  0.00000000000E+00  0.00000000000E+00  0.45593999997E+02  0.45594000000E+02  0.51100000000E-03 0. -1.
         11   -1    0    0    0    0 -0.00000000000E+00 -0.00000000000E+00 -0.45593999997E+02  0.45594000000E+02  0.51100000000E-03 0.  1.
    9900012    2    1    2    0    0  0.11443491072E+01  0.15637358695E+00 -0.24133226909E+00  0.90008072527E+02  0.90000338284E+02 0.  0.
        -12    1    1    2    0    0 -0.11443491072E+01 -0.15637358695E+00  0.24133226909E+00  0.11799274732E+01  0.00000000000E+00 0.  1.
         11    1    3    3    0    0  0.28562633634E+01  0.79616514701E+01 -0.47611781112E+01  0.97064386775E+01  0.51100000000E-03 0. -1.
        -11    1    3    3    0    0  0.30647181133E+02  0.15675995242E+01 -0.21722677596E+02  0.37597630270E+02  0.51100000000E-03 0.  1.
         12    1    3    3    0    0 -0.32359095389E+02 -0.93728774073E+01  0.26242523438E+02  0.42704003580E+02  0.00000000000E+00 0. -1.
</event>
<event>
 7    1  0.3505640E-015  0.9000734E+02  0.7816164E-02  0.1186340E+00
        -11   -1    0    0    0    0  0.00000000000E+00  0.00000000000E+00  0.45593999997E+02  0.45594000000E+02  0.51100000000E-03 0.  1.
         11   -1    0    0    0    0 -0.00000000000E+00 -0.00000000000E+00 -0.45593999997E+02  0.45594000000E+02  0.51100000000E-03 0. -1.
    9900012    2    1    2    0    0 -0.60314620986E+00 -0.45033200409E+00 -0.90960611733E+00  0.90007335969E+02  0.89999592003E+02 0.  0.
        -12    1    1    2    0    0  0.60314620986E+00  0.45033200409E+00  0.90960611733E+00  0.11806640306E+01  0.00000000000E+00 0.  1.
         11    1    3    3    0    0  0.14072437249E+01 -0.74380523764E+01 -0.57437798515E+01  0.95024189183E+01  0.51100000000E-03 0. -1.
        -11    1    3    3    0    0  0.27700302981E+02 -0.55328897374E+00  0.30006251325E+02  0.40841009204E+02  0.51100000000E-03 0.  1.
         12    1    3    3    0    0 -0.29710692916E+02  0.75410093460E+01 -0.25172077590E+02  0.39663907848E+02  0.00000000000E+00 0. -1.
</event>
<event>
 7    1  0.3505640E-015  0.9000781E+02  0.7816164E-02  0.1186339E+00
        -11   -1    0    0    0    0  0.00000000000E+00  0.00000000000E+00  0.45593999997E+02  0.45594000000E+02  0.51100000000E-03 0. -1.
         11   -1    0    0    0    0 -0.00000000000E+00 -0.00000000000E+00 -0.45593999997E+02  0.45594000000E+02  0.51100000000E-03 0.  1.
    9900012    2    1    2    0    0  0.80319011895E+00  0.85882028638E+00  0.10075869891E+00  0.90007814012E+02  0.90000076357E+02 0.  0.
        -12    1    1    2    0    0 -0.80319011895E+00 -0.85882028638E+00 -0.10075869891E+00  0.11801859883E+01  0.00000000000E+00 0.  1.
         11    1    3    3    0    0 -0.25240825048E+02 -0.18127797348E+02  0.19060247356E+02  0.36455580030E+02  0.51100000000E-03 0. -1.
        -11    1    3    3    0    0 -0.95387468545E+01  0.22636063918E+01  0.22192333768E+00  0.98061641675E+01  0.51100000000E-03 0.  1.
        -12    1    3    3    0    0  0.35582762021E+02  0.16723011243E+02 -0.19181411995E+02  0.43746069814E+02  0.00000000000E+00 0.  1.
</event>
<event>
 8    1  0.3505640E-015  0.9000770E+02  0.7816164E-02  0.1186339E+00
        -11   -1    0    0    0    0  0.00000000000E+00  0.00000000000E+00  0.45593999997E+02  0.45594000000E+02  0.51100000000E-03 0. -1.
         11   -1    0    0    0    0 -0.00000000000E+00 -0.00000000000E+00 -0.45593999997E+02  0.45594000000E+02  0.51100000000E-03 0.  1.
    9900012    2    1    2    0    0 -0.24898217095E+00  0.10606494844E+01  0.45403515758E+00  0.90007696067E+02  0.89999956855E+02 0.  0.
         23    2    3    3    0    0 -0.27817253402E+02 -0.35028830662E+01 -0.23132368784E+01  0.61927574939E+02  0.55168865281E+02 0.  0.
        -12    1    1    2    0    0  0.24898217095E+00 -0.10606494844E+01 -0.45403515758E+00  0.11803039332E+01  0.00000000000E+00 0.  1.
         11    1    4    4    0    0 -0.16926398020E+02 -0.20912577921E+02 -0.21025367079E+02  0.34145349995E+02  0.51100000000E-03 0.  1.
        -11    1    4    4    0    0 -0.10890855382E+02  0.17409694855E+02  0.18712130201E+02  0.27782224944E+02  0.51100000000E-03 0. -1.
        -12    1    3    3    0    0  0.27568271231E+02  0.45635325506E+01  0.27672720360E+01  0.28080121128E+02  0.00000000000E+00 0.  1.
</event>
<event>
 7    1  0.3505640E-015  0.9000773E+02  0.7816164E-02  0.1186339E+00
        -11   -1    0    0    0    0  0.00000000000E+00  0.00000000000E+00  0.45593999997E+02  0.45594000000E+02  0.51100000000E-03 0.  1.
         11   -1    0    0    0    0 -0.00000000000E+00 -0.00000000000E+00 -0.45593999997E+02  0.45594000000E+02  0.51100000000E-03 0. -1.
    9900012    2    1    2    0    0  0.92376834769E+00  0.70512897171E+00  0.20610476423E+00  0.90007731386E+02  0.89999992640E+02 0.  0.
        -12    1    1    2    0    0 -0.92376834769E+00 -0.70512897171E+00 -0.20610476423E+00  0.11802686138E+01  0.00000000000E+00 0.  1.
         11    1    3    3    0    0  0.96567255571E+01  0.97787395976E+01  0.50871634700E+01  0.14654532713E+02  0.51100000000E-03 0. -1.
        -11    1    3    3    0    0 -0.36662370443E+01 -0.89486975219E+01  0.34406680913E+02  0.35739896098E+02  0.51100000000E-03 0.  1.
         12    1    3    3    0    0 -0.50667201650E+01 -0.12491310405E+00 -0.39287739619E+02  0.39613302575E+02  0.00000000000E+00 0. -1.
</event>
<event>
 7    1  0.3505640E-015  0.9000772E+02  0.7816164E-02  0.1186339E+00
        -11   -1    0    0    0    0  0.00000000000E+00  0.00000000000E+00  0.45593999997E+02  0.45594000000E+02  0.51100000000E-03 0. -1.
         11   -1    0    0    0    0 -0.00000000000E+00 -0.00000000000E+00 -0.45593999997E+02  0.45594000000E+02  0.51100000000E-03 0.  1.
    9900012    2    1    2    0    0 -0.97384449184E+00 -0.58783119645E+00 -0.31486136252E+00  0.90007721945E+02  0.89999983075E+02 0.  0.
        -12    1    1    2    0    0  0.97384449184E+00  0.58783119645E+00  0.31486136252E+00  0.11802780551E+01  0.00000000000E+00 0.  1.
         11    1    3    3    0    0 -0.11134747867E+01 -0.37437384801E+01 -0.15213528116E+02  0.15706904275E+02  0.51100000000E-03 0. -1.
        -11    1    3    3    0    0 -0.29542535816E+02 -0.59388016239E+01 -0.12758862353E+02  0.32723376293E+02  0.51100000000E-03 0.  1.
         12    1    3    3    0    0  0.29682166111E+02  0.90947089076E+01  0.27657529107E+02  0.41577441377E+02  0.00000000000E+00 0. -1.
</event>
<event>
 7    1  0.3505640E-015  0.9000785E+02  0.7816164E-02  0.1186339E+00
        -11   -1    0    0    0    0  0.00000000000E+00  0.00000000000E+00  0.45593999997E+02  0.45594000000E+02  0.51100000000E-03 0.  1.
         11   -1    0    0    0    0 -0.00000000000E+00 -0.00000000000E+00 -0.45593999997E+02  0.45594000000E+02  0.51100000000E-03 0. -1.
    9900012    2    1    2    0    0 -0.40759130750E+00 -0.10960703461E+01  0.15888526256E+00  0.90007853651E+02  0.90000116520E+02 0.  0.
        -12    1    1    2    0    0  0.40759130750E+00  0.10960703461E+01 -0.15888526256E+00  0.11801463486E+01  0.00000000000E+00 0.  1.
         11    1    3    3    0    0 -0.37814185851E+02 -0.12909368471E+02 -0.88390439061E+01  0.40923014837E+02  0.51100000000E-03 0. -1.
        -11    1    3    3    0    0 -0.16314934190E+01  0.87604300869E+01  0.18001167498E-01  0.89110734700E+01  0.51100000000E-03 0.  1.
        -12    1    3    3    0    0  0.39038087963E+02  0.30528680377E+01  0.89799280011E+01  0.40173765344E+02  0.00000000000E+00 0.  1.
</event>
<event>
 7    1  0.3505640E-015  0.9000765E+02  0.7816164E-02  0.1186339E+00
        -11   -1    0    0    0    0  0.00000000000E+00  0.00000000000E+00  0.45593999997E+02  0.45594000000E+02  0.51100000000E-03 0.  1.
         11   -1    0    0    0    0 -0.00000000000E+00 -0.00000000000E+00 -0.45593999997E+02  0.45594000000E+02  0.51100000000E-03 0. -1.
    9900012    2    1    2    0    0 -0.11077669331E+01  0.81930983266E-01  0.39919626380E+00  0.90007653474E+02  0.89999913700E+02 0.  0.
        -12    1    1    2    0    0  0.11077669331E+01 -0.81930983266E-01 -0.39919626380E+00  0.11803465259E+01  0.00000000000E+00 0.  1.
         11    1    3    3    0    0  0.13145356341E+02 -0.25920952834E+02  0.16489516102E+02  0.33415570184E+02  0.51100000000E-03 0. -1.
        -11    1    3    3    0    0  0.15293348630E+01 -0.82986494477E+01  0.81427286200E+01  0.11726486150E+02  0.51100000000E-03 0.  1.
        -12    1    3    3    0    0 -0.15782458137E+02  0.34301533265E+02 -0.24233048459E+02  0.44865597141E+02  0.00000000000E+00 0.  1.
</event>
<event>
 7    1  0.3505640E-015  0.9000779E+02  0.7816164E-02  0.1186339E+00
        -11   -1    0    0    0    0  0.00000000000E+00  0.00000000000E+00  0.45593999997E+02  0.45594000000E+02  0.51100000000E-03 0. -1.
         11   -1    0    0    0    0 -0.00000000000E+00 -0.00000000000E+00 -0.45593999997E+02  0.45594000000E+02  0.51100000000E-03 0.  1.
    9900012    2    1    2    0    0  0.61149704206E+00  0.99161280142E+00 -0.18887002755E+00  0.90007789651E+02  0.90000051674E+02 0.  0.
        -12    1    1    2    0    0 -0.61149704206E+00 -0.99161280142E+00  0.18887002755E+00  0.11802103489E+01  0.00000000000E+00 0.  1.
         11    1    3    3    0    0  0.89624067544E+01 -0.62554395801E+01 -0.41180793283E+01  0.11679633418E+02  0.51100000000E-03 0. -1.
        -11    1    3    3    0    0  0.47609385891E+01  0.36002549611E+02 -0.17330383165E+02  0.40239188557E+02  0.51100000000E-03 0.  1.
         12    1    3    3    0    0 -0.13111848301E+02 -0.28755497230E+02  0.21259592466E+02  0.38088967676E+02  0.00000000000E+00 0. -1.
</event>
<event>
 7    1  0.3505640E-015  0.9000779E+02  0.7816164E-02  0.1186339E+00
        -11   -1    0    0    0    0  0.00000000000E+00  0.00000000000E+00  0.45593999997E+02  0.45594000000E+02  0.51100000000E-03 0.  1.
         11   -1    0    0    0    0 -0.00000000000E+00 -0.00000000000E+00 -0.45593999997E+02  0.45594000000E+02  0.51100000000E-03 0. -1.
    9900012    2    1    2    0    0 -0.75826646591E+00 -0.73584839848E-01 -0.90139064211E+00  0.90007793301E+02  0.90000055373E+02 0.  0.
        -12    1    1    2    0    0  0.75826646591E+00  0.73584839848E-01  0.90139064211E+00  0.11802066987E+01  0.00000000000E+00 0.  1.
         11    1    3    3    0    0  0.36098484985E+02  0.10864938294E+02  0.35814206071E+00  0.37699811250E+02  0.51100000000E-03 0. -1.
        -11    1    3    3    0    0  0.20141330639E+01  0.48887592434E+01 -0.82114456348E+01  0.97665008377E+01  0.51100000000E-03 0.  1.
        -12    1    3    3    0    0 -0.38870884515E+02 -0.15827282377E+02  0.69519129320E+01  0.42541481213E+02  0.00000000000E+00 0.  1.
</event>
<event>
 7    1  0.3505640E-015  0.9000776E+02  0.7816164E-02  0.1186339E+00
        -11   -1    0    0    0    0  0.00000000000E+00  0.00000000000E+00  0.45593999997E+02  0.45594000000E+02  0.51100000000E-03 0. -1.
         11   -1    0    0    0    0 -0.00000000000E+00 -0.00000000000E+00 -0.45593999997E+02  0.45594000000E+02  0.51100000000E-03 0.  1.
    9900012    2    1    2    0    0  0.13034767126E+00 -0.11506398111E+01  0.22806175161E+00  0.90007756528E+02  0.90000018114E+02 0.  0.
        -12    1    1    2    0    0 -0.13034767126E+00  0.11506398111E+01 -0.22806175161E+00  0.11802434719E+01  0.00000000000E+00 0.  1.
         11    1    3    3    0    0 -0.11563702170E+01 -0.11086487124E+02 -0.91303790818E+01  0.14408719973E+02  0.51100000000E-03 0. -1.
        -11    1    3    3    0    0 -0.29338719443E+02  0.38069491981E+01 -0.17528506095E+02  0.34387524583E+02  0.51100000000E-03 0.  1.
         12    1    3    3    0    0  0.30625437332E+02  0.61288981149E+01  0.26886946928E+02  0.41211511972E+02  0.00000000000E+00 0. -1.
</event>
<event>
 7    1  0.3505640E-015  0.9000773E+02  0.7816164E-02  0.1186339E+00
        -11   -1    0    0    0    0  0.00000000000E+00  0.00000000000E+00  0.45593999997E+02  0.45594000000E+02  0.51100000000E-03 0.  1.
         11   -1    0    0    0    0 -0.00000000000E+00 -0.00000000000E+00 -0.45593999997E+02  0.45594000000E+02  0.51100000000E-03 0. -1.
    9900012    2    1    2    0    0 -0.22190990398E+00  0.11510204431E+01 -0.13764668145E+00  0.90007729406E+02  0.89999990634E+02 0.  0.
        -12    1    1    2    0    0  0.22190990398E+00 -0.11510204431E+01  0.13764668145E+00  0.11802705939E+01  0.00000000000E+00 0.  1.
         11    1    3    3    0    0 -0.16453871063E+02 -0.59937657284E+01 -0.37741756882E+02  0.41606433558E+02  0.51100000000E-03 0. -1.
        -11    1    3    3    0    0  0.24484433582E+01 -0.88182604433E+01  0.87555949176E+01  0.12665584659E+02  0.51100000000E-03 0.  1.
        -12    1    3    3    0    0  0.13783517801E+02  0.15963046615E+02  0.28848515283E+02  0.35735711190E+02  0.00000000000E+00 0.  1.
</event>
<event>
 7    1  0.3505640E-015  0.9000777E+02  0.7816164E-02  0.1186339E+00
        -11   -1    0    0    0    0  0.00000000000E+00  0.00000000000E+00  0.45593999997E+02  0.45594000000E+02  0.51100000000E-03 0.  1.
         11   -1    0    0    0    0 -0.00000000000E+00 -0.00000000000E+00 -0.45593999997E+02  0.45594000000E+02  0.51100000000E-03 0. -1.
    9900012    2    1    2    0    0 -0.98564331432E+00 -0.58655317023E+00 -0.27820602881E+00  0.90007772921E+02  0.90000034723E+02 0.  0.
        -12    1    1    2    0    0  0.98564331432E+00  0.58655317023E+00  0.27820602881E+00  0.11802270794E+01  0.00000000000E+00 0.  1.
         11    1    3    3    0    0  0.24739212387E+01 -0.38853757658E+02  0.71295646118E+01  0.39579861827E+02  0.51100000000E-03 0. -1.
        -11    1    3    3    0    0 -0.43590503769E+01  0.32803880944E+01  0.99606849035E+01  0.11356826592E+02  0.51100000000E-03 0.  1.
        -12    1    3    3    0    0  0.89948582385E+00  0.34986816393E+02 -0.17368455544E+02  0.39071084501E+02  0.00000000000E+00 0.  1.
</event>
<event>
 7    1  0.3505640E-015  0.9000771E+02  0.7816164E-02  0.1186339E+00
        -11   -1    0    0    0    0  0.00000000000E+00  0.00000000000E+00  0.45593999997E+02  0.45594000000E+02  0.51100000000E-03 0.  1.
         11   -1    0    0    0    0 -0.00000000000E+00 -0.00000000000E+00 -0.45593999997E+02  0.45594000000E+02  0.51100000000E-03 0. -1.
    9900012    2    1    2    0    0 -0.20354551204E+00  0.11425766057E+01  0.21486095427E+00  0.90007713041E+02  0.89999974053E+02 0.  0.
        -12    1    1    2    0    0  0.20354551204E+00 -0.11425766057E+01 -0.21486095427E+00  0.11802869588E+01  0.00000000000E+00 0.  1.
         11    1    3    3    0    0 -0.10052620965E+02  0.54004046610E+01 -0.37139765294E+02  0.38853336088E+02  0.51100000000E-03 0. -1.
        -11    1    3    3    0    0 -0.83734411171E+01 -0.48974296981E+01  0.12711992646E+00  0.97013140103E+01  0.51100000000E-03 0.  1.
        -12    1    3    3    0    0  0.18222516570E+02  0.63960164279E+00  0.37227506322E+02  0.41453062943E+02  0.00000000000E+00 0.  1.
</event>
<event>
 7    1  0.3505640E-015  0.9000775E+02  0.7816164E-02  0.1186339E+00
        -11   -1    0    0    0    0  0.00000000000E+00  0.00000000000E+00  0.45593999997E+02  0.45594000000E+02  0.51100000000E-03 0. -1.
         11   -1    0    0    0    0 -0.00000000000E+00 -0.00000000000E+00 -0.45593999997E+02  0.45594000000E+02  0.51100000000E-03 0.  1.
    9900012    2    1    2    0    0 -0.78912811619E-03 -0.11618001626E+01  0.20788271415E+00  0.90007747712E+02  0.90000009182E+02 0.  0.
        -12    1    1    2    0    0  0.78912811619E-03  0.11618001626E+01 -0.20788271415E+00  0.11802522880E+01  0.00000000000E+00 0.  1.
         11    1    3    3    0    0  0.23109023493E+01 -0.31876966985E+02 -0.19442490455E+02  0.37409781197E+02  0.51100000000E-03 0. -1.
        -11    1    3    3    0    0  0.99278825311E+01 -0.49313574866E+01  0.39231146288E+01  0.11758910105E+02  0.51100000000E-03 0.  1.
        -12    1    3    3    0    0 -0.12239574009E+02  0.35646524309E+02  0.15727258541E+02  0.40839056410E+02  0.00000000000E+00 0.  1.
</event>
<event>
 7    1  0.3505640E-015  0.9000770E+02  0.7816164E-02  0.1186339E+00
        -11   -1    0    0    0    0  0.00000000000E+00  0.00000000000E+00  0.45593999997E+02  0.45594000000E+02  0.51100000000E-03 0. -1.
         11   -1    0    0    0    0 -0.00000000000E+00 -0.00000000000E+00 -0.45593999997E+02  0.45594000000E+02  0.51100000000E-03 0.  1.
    9900012    2    1    2    0    0 -0.34987980295E+00  0.35116375706E+00  0.10711608185E+01  0.90007696073E+02  0.89999956861E+02 0.  0.
        -12    1    1    2    0    0  0.34987980295E+00 -0.35116375706E+00 -0.10711608185E+01  0.11803039269E+01  0.00000000000E+00 0.  1.
         11    1    3    3    0    0  0.80017423272E+01 -0.27577119830E+01  0.19486432156E+01  0.86850484336E+01  0.51100000000E-03 0. -1.
        -11    1    3    3    0    0  0.25554899006E+02 -0.20140430235E+02  0.16744496642E+02  0.36593277543E+02  0.51100000000E-03 0.  1.
         12    1    3    3    0    0 -0.33906521137E+02  0.23249305975E+02 -0.17621979039E+02  0.44729370096E+02  0.00000000000E+00 0. -1.
</event>
<event>
 7    1  0.3505640E-015  0.9000770E+02  0.7816164E-02  0.1186339E+00
        -11   -1    0    0    0    0  0.00000000000E+00  0.00000000000E+00  0.45593999997E+02  0.45594000000E+02  0.51100000000E-03 0.  1.
         11   -1    0    0    0    0 -0.00000000000E+00 -0.00000000000E+00 -0.45593999997E+02  0.45594000000E+02  0.51100000000E-03 0. -1.
    9900012    2    1    2    0    0  0.12756901813E+00 -0.10151341288E+01 -0.58849987682E+00  0.90007702047E+02  0.89999962914E+02 0.  0.
        -12    1    1    2    0    0 -0.12756901813E+00  0.10151341288E+01  0.58849987682E+00  0.11802979535E+01  0.00000000000E+00 0.  1.
         11    1    3    3    0    0 -0.57684810065E+01  0.56960135661E+01 -0.27668673101E+01  0.85659499555E+01  0.51100000000E-03 0. -1.
        -11    1    3    3    0    0 -0.28533523352E+02  0.98426584098E+01 -0.20988663499E+02  0.36763621628E+02  0.51100000000E-03 0.  1.
         12    1    3    3    0    0  0.34429573377E+02 -0.16553806105E+02  0.23167030932E+02  0.44678130463E+02  0.00000000000E+00 0. -1.
</event>
<event>
 7    1  0.3505640E-015  0.9000774E+02  0.7816164E-02  0.1186339E+00
        -11   -1    0    0    0    0  0.00000000000E+00  0.00000000000E+00  0.45593999997E+02  0.45594000000E+02  0.51100000000E-03 0. -1.
         11   -1    0    0    0    0 -0.00000000000E+00 -0.00000000000E+00 -0.45593999997E+02  0.45594000000E+02  0.51100000000E-03 0.  1.
    9900012    2    1    2    0    0  0.98937895666E+00 -0.55362671375E+00  0.32810170980E+00  0.90007735627E+02  0.89999996937E+02 0.  0.
        -12    1    1    2    0    0 -0.98937895666E+00  0.55362671375E+00 -0.32810170980E+00  0.11802643729E+01  0.00000000000E+00 0.  1.
         11    1    3    3    0    0 -0.16907043648E+02 -0.36238750090E+02 -0.35909592936E+01  0.40149596784E+02  0.51100000000E-03 0. -1.
        -11    1    3    3    0    0  0.56795291463E+01 -0.13261051673E+01  0.88219418051E+01  0.10575550279E+02  0.51100000000E-03 0.  1.
        -12    1    3    3    0    0  0.12216893458E+02  0.37011228544E+02 -0.49028808017E+01  0.39282588564E+02  0.00000000000E+00 0.  1.
</event>
<event>
 7    1  0.3505640E-015  0.9000772E+02  0.7816164E-02  0.1186339E+00
        -11   -1    0    0    0    0  0.00000000000E+00  0.00000000000E+00  0.45593999997E+02  0.45594000000E+02  0.51100000000E-03 0.  1.
         11   -1    0    0    0    0 -0.00000000000E+00 -0.00000000000E+00 -0.45593999997E+02  0.45594000000E+02  0.51100000000E-03 0. -1.
    9900012    2    1    2    0    0 -0.54867915433E+00  0.72063533976E+00 -0.75676896568E+00  0.90007718942E+02  0.89999980033E+02 0.  0.
        -12    1    1    2    0    0  0.54867915433E+00 -0.72063533976E+00  0.75676896568E+00  0.11802810575E+01  0.00000000000E+00 0.  1.
         11    1    3    3    0    0  0.33956518570E+01 -0.65825796332E+01 -0.83495340335E+01  0.11161340645E+02  0.51100000000E-03 0. -1.
        -11    1    3    3    0    0 -0.17803441311E+01  0.35981901438E+02  0.26240807503E+02  0.44569572973E+02  0.51100000000E-03 0.  1.
         12    1    3    3    0    0 -0.21639868803E+01 -0.28678686465E+02 -0.18648042435E+02  0.34276805324E+02  0.00000000000E+00 0. -1.
</event>
<event>
 7    1  0.3505640E-015  0.9000775E+02  0.7816164E-02  0.1186339E+00
        -11   -1    0    0    0    0  0.00000000000E+00  0.00000000000E+00  0.45593999997E+02  0.45594000000E+02  0.51100000000E-03 0. -1.
         11   -1    0    0    0    0 -0.00000000000E+00 -0.00000000000E+00 -0.45593999997E+02  0.45594000000E+02  0.51100000000E-03 0.  1.
    9900012    2    1    2    0    0  0.67662180989E+00  0.65112196735E+00  0.71499097790E+00  0.90007750455E+02  0.90000011961E+02 0.  0.
        -12    1    1    2    0    0 -0.67662180989E+00 -0.65112196735E+00 -0.71499097790E+00  0.11802495450E+01  0.00000000000E+00 0.  1.
         11    1    3    3    0    0 -0.54668325611E+01 -0.23025187776E+02 -0.39844160748E+01  0.23998356237E+02  0.51100000000E-03 0. -1.
        -11    1    3    3    0    0  0.22071158037E+02 -0.54318625675E+01  0.19242619207E+02  0.29781194440E+02  0.51100000000E-03 0.  1.
        -12    1    3    3    0    0 -0.15927703666E+02  0.29108172311E+02 -0.14543212154E+02  0.36228199778E+02  0.00000000000E+00 0.  1.
</event>
<event>
 7    1  0.3505640E-015  0.9000765E+02  0.7816164E-02  0.1186339E+00
        -11   -1    0    0    0    0  0.00000000000E+00  0.00000000000E+00  0.45593999997E+02  0.45594000000E+02  0.51100000000E-03 0. -1.
         11   -1    0    0    0    0 -0.00000000000E+00 -0.00000000000E+00 -0.45593999997E+02  0.45594000000E+02  0.51100000000E-03 0.  1.
    9900012    2    1    2    0    0  0.62192995229E+00  0.11265557403E-01  0.10031441726E+01  0.90007651742E+02  0.89999911945E+02 0.  0.
        -12    1    1    2    0    0 -0.62192995229E+00 -0.11265557403E-01 -0.10031441726E+01  0.11803482576E+01  0.00000000000E+00 0.  1.
         11    1    3    3    0    0 -0.24334755634E+02 -0.17772388567E+01  0.26173234946E+02  0.35782357909E+02  0.51100000000E-03 0. -1.
        -11    1    3    3    0    0 -0.11313632325E+02 -0.18192285390E+01 -0.76986476979E+01  0.13804964524E+02  0.51100000000E-03 0.  1.
        -12    1    3    3    0    0  0.36270317911E+02  0.36077329531E+01 -0.17471443075E+02  0.40420329310E+02  0.00000000000E+00 0.  1.
</event>
<event>
 7    1  0.3505640E-015  0.9000772E+02  0.7816164E-02  0.1186339E+00
        -11   -1    0    0    0    0  0.00000000000E+00  0.00000000000E+00  0.45593999997E+02  0.45594000000E+02  0.51100000000E-03 0.  1.
         11   -1    0    0    0    0 -0.00000000000E+00 -0.00000000000E+00 -0.45593999997E+02  0.45594000000E+02  0.51100000000E-03 0. -1.
    9900012    2    1    2    0    0  0.49857310585E+00  0.10693948811E+01  0.29651889439E-01  0.90007720462E+02  0.89999981572E+02 0.  0.
        -12    1    1    2    0    0 -0.49857310585E+00 -0.10693948811E+01 -0.29651889439E-01  0.11802795381E+01  0.00000000000E+00 0.  1.
         11    1    3    3    0    0  0.33797237172E+02  0.18934139780E+02 -0.10950590282E+02  0.40257549819E+02  0.51100000000E-03 0. -1.
        -11    1    3    3    0    0 -0.42986609546E+01  0.28003546685E+01 -0.79193285692E+01  0.94359015213E+01  0.51100000000E-03 0.  1.
        -12    1    3    3    0    0 -0.29000003111E+02 -0.20665099568E+02  0.18899570741E+02  0.40314269121E+02  0.00000000000E+00 0.  1.
</event>
<event>
 7    1  0.3505640E-015  0.9000792E+02  0.7816164E-02  0.1186339E+00
        -11   -1    0    0    0    0  0.00000000000E+00  0.00000000000E+00  0.45593999997E+02  0.45594000000E+02  0.51100000000E-03 0. -1.
         11   -1    0    0    0    0 -0.00000000000E+00 -0.00000000000E+00 -0.45593999997E+02  0.45594000000E+02  0.51100000000E-03 0.  1.
    9900012    2    1    2    0    0  0.45896555322E+00  0.10871192100E+01  0.10524733581E-01  0.90007920204E+02  0.90000183950E+02 0.  0.
        -12    1    1    2    0    0 -0.45896555322E+00 -0.10871192100E+01 -0.10524733581E-01  0.11800797963E+01  0.00000000000E+00 0.  1.
         11    1    3    3    0    0  0.22204680577E+02  0.28827886915E+02  0.15193292894E+01  0.36419819676E+02  0.51100000000E-03 0. -1.
        -11    1    3    3    0    0  0.16591128490E+01  0.92651751770E+01 -0.26788435336E+01  0.97863338102E+01  0.51100000000E-03 0.  1.
        -12    1    3    3    0    0 -0.23404827873E+02 -0.37005942882E+02  0.11700389778E+01  0.43801766717E+02  0.00000000000E+00 0.  1.
</event>
<event>
 7    1  0.3505640E-015  0.9000775E+02  0.7816164E-02  0.1186339E+00
        -11   -1    0    0    0    0  0.00000000000E+00  0.00000000000E+00  0.45593999997E+02  0.45594000000E+02  0.51100000000E-03 0.  1.
         11   -1    0    0    0    0 -0.00000000000E+00 -0.00000000000E+00 -0.45593999997E+02  0.45594000000E+02  0.51100000000E-03 0. -1.
    9900012    2    1    2    0    0  0.96016971823E+00  0.44463416259E+00 -0.52284666957E+00  0.90007748304E+02  0.90000009781E+02 0.  0.
        -12    1    1    2    0    0 -0.96016971823E+00 -0.44463416259E+00  0.52284666957E+00  0.11802516961E+01  0.00000000000E+00 0.  1.
         11    1    3    3    0    0  0.31848030972E+01  0.85176905857E+01 -0.42901871737E+01  0.10054836146E+02  0.51100000000E-03 0. -1.
        -11    1    3    3    0    0  0.31575004951E+02  0.21034753768E+01  0.23589294857E+02  0.39469740035E+02  0.51100000000E-03 0.  1.
         12    1    3    3    0    0 -0.33799638330E+02 -0.10176531800E+02 -0.19821954353E+02  0.40483172122E+02  0.00000000000E+00 0. -1.
</event>
<event>
 7    1  0.3505640E-015  0.9000766E+02  0.7816164E-02  0.1186339E+00
        -11   -1    0    0    0    0  0.00000000000E+00  0.00000000000E+00  0.45593999997E+02  0.45594000000E+02  0.51100000000E-03 0.  1.
         11   -1    0    0    0    0 -0.00000000000E+00 -0.00000000000E+00 -0.45593999997E+02  0.45594000000E+02  0.51100000000E-03 0. -1.
    9900012    2    1    2    0    0 -0.86019911075E+00 -0.68027067476E-01 -0.80537309097E+00  0.90007662757E+02  0.89999923105E+02 0.  0.
        -12    1    1    2    0    0  0.86019911075E+00  0.68027067476E-01  0.80537309097E+00  0.11803372432E+01  0.00000000000E+00 0.  1.
         11    1    3    3    0    0  0.34447331950E+02  0.15167603297E+02  0.10755956618E+02  0.39145439980E+02  0.51100000000E-03 0. -1.
        -11    1    3    3    0    0 -0.10356799311E+01  0.80371657918E+01 -0.19627925146E+01  0.83379386902E+01  0.51100000000E-03 0.  1.
        -12    1    3    3    0    0 -0.34271851129E+02 -0.23272796156E+02 -0.95985371942E+01  0.42524284086E+02  0.00000000000E+00 0.  1.
</event>
<event>
 7    1  0.3505640E-015  0.9000767E+02  0.7816164E-02  0.1186339E+00
        -11   -1    0    0    0    0  0.00000000000E+00  0.00000000000E+00  0.45593999997E+02  0.45594000000E+02  0.51100000000E-03 0.  1.
         11   -1    0    0    0    0 -0.00000000000E+00 -0.00000000000E+00 -0.45593999997E+02  0.45594000000E+02  0.51100000000E-03 0. -1.
    9900012    2    1    2    0    0  0.69373796670E+00 -0.91446508085E+00 -0.27505003645E+00  0.90007673235E+02  0.89999933721E+02 0.  0.
        -12    1    1    2    0    0 -0.69373796670E+00  0.91446508085E+00  0.27505003645E+00  0.11803267654E+01  0.00000000000E+00 0.  1.
         11    1    3    3    0    0 -0.25637029142E+02  0.14075752053E+02 -0.20882460488E+02  0.35936906035E+02  0.51100000000E-03 0. -1.
        -11    1    3    3    0    0  0.12329250153E+02  0.12575831054E+02  0.13883074119E+01  0.17666050315E+02  0.51100000000E-03 0.  1.
        -12    1    3    3    0    0  0.14001516956E+02 -0.27566048187E+02  0.19219103040E+02  0.36404716884E+02  0.00000000000E+00 0.  1.
</event>
<event>
 7    1  0.3505640E-015  0.9000756E+02  0.7816164E-02  0.1186339E+00
        -11   -1    0    0    0    0  0.00000000000E+00  0.00000000000E+00  0.45593999997E+02  0.45594000000E+02  0.51100000000E-03 0. -1.
         11   -1    0    0    0    0 -0.00000000000E+00 -0.00000000000E+00 -0.45593999997E+02  0.45594000000E+02  0.51100000000E-03 0.  1.
    9900012    2    1    2    0    0 -0.57825251048E+00 -0.29246743148E+00  0.98666986143E+00  0.90007563394E+02  0.89999822431E+02 0.  0.
        -12    1    1    2    0    0  0.57825251048E+00  0.29246743148E+00 -0.98666986143E+00  0.11804366056E+01  0.00000000000E+00 0.  1.
         11    1    3    3    0    0  0.75153062301E+01 -0.49086149391E+01  0.24416510495E+01  0.93024721693E+01  0.51100000000E-03 0. -1.
        -11    1    3    3    0    0  0.35253791846E+02 -0.29660586276E+01  0.65440954526E+01  0.35978500925E+02  0.51100000000E-03 0.  1.
         12    1    3    3    0    0 -0.43347350586E+02  0.75822061352E+01 -0.79990766406E+01  0.44726590300E+02  0.00000000000E+00 0. -1.
</event>
<event>
 7    1  0.3505640E-015  0.9000770E+02  0.7816164E-02  0.1186339E+00
        -11   -1    0    0    0    0  0.00000000000E+00  0.00000000000E+00  0.45593999997E+02  0.45594000000E+02  0.51100000000E-03 0.  1.
         11   -1    0    0    0    0 -0.00000000000E+00 -0.00000000000E+00 -0.45593999997E+02  0.45594000000E+02  0.51100000000E-03 0. -1.
    9900012    2    1    2    0    0  0.13874384284E+00  0.83572686882E+00 -0.82183429377E+00  0.90007703063E+02  0.89999963943E+02 0.  0.
        -12    1    1    2    0    0 -0.13874384284E+00 -0.83572686882E+00  0.82183429377E+00  0.11802969371E+01  0.00000000000E+00 0.  1.
         11    1    3    3    0    0  0.82969454140E+01  0.29321424611E+01  0.61665883730E+01  0.10745397854E+02  0.51100000000E-03 0. -1.
        -11    1    3    3    0    0 -0.33796211732E+02  0.95578404294E+01  0.19863925353E+02  0.40349867061E+02  0.51100000000E-03 0.  1.
         12    1    3    3    0    0  0.25638010161E+02 -0.11654256022E+02 -0.26852348020E+02  0.38912438148E+02  0.00000000000E+00 0. -1.
</event>
<event>
 7    1  0.3505640E-015  0.9000805E+02  0.7816164E-02  0.1186338E+00
        -11   -1    0    0    0    0  0.00000000000E+00  0.00000000000E+00  0.45593999997E+02  0.45594000000E+02  0.51100000000E-03 0. -1.
         11   -1    0    0    0    0 -0.00000000000E+00 -0.00000000000E+00 -0.45593999997E+02  0.45594000000E+02  0.51100000000E-03 0.  1.
    9900012    2    1    2    0    0  0.11026175281E+01  0.30617578768E+00  0.28771019655E+00  0.90008048228E+02  0.90000313664E+02 0.  0.
        -12    1    1    2    0    0 -0.11026175281E+01 -0.30617578768E+00 -0.28771019655E+00  0.11799517716E+01  0.00000000000E+00 0.  1.
         11    1    3    3    0    0  0.28567706839E+02  0.31486619712E+02 -0.91607118829E-02  0.42514952418E+02  0.51100000000E-03 0. -1.
        -11    1    3    3    0    0 -0.69763913772E+01  0.37699950433E+00  0.62811252327E+01  0.93949294689E+01  0.51100000000E-03 0.  1.
        -12    1    3    3    0    0 -0.20488697934E+02 -0.31557443428E+02 -0.59842543243E+01  0.38098166341E+02  0.00000000000E+00 0.  1.
</event>
<event>
 7    1  0.3505640E-015  0.9000769E+02  0.7816164E-02  0.1186339E+00
        -11   -1    0    0    0    0  0.00000000000E+00  0.00000000000E+00  0.45593999997E+02  0.45594000000E+02  0.51100000000E-03 0.  1.
         11   -1    0    0    0    0 -0.00000000000E+00 -0.00000000000E+00 -0.45593999997E+02  0.45594000000E+02  0.51100000000E-03 0. -1.
    9900012    2    1    2    0    0 -0.29757682120E+00 -0.25400360967E+00 -0.11135796296E+01  0.90007690977E+02  0.89999951698E+02 0.  0.
        -12    1    1    2    0    0  0.29757682120E+00  0.25400360967E+00  0.11135796296E+01  0.11803090230E+01  0.00000000000E+00 0.  1.
         11    1    3    3    0    0  0.30385284244E+02 -0.25601811611E+02 -0.13895020794E+02  0.42092634266E+02  0.51100000000E-03 0. -1.
        -11    1    3    3    0    0 -0.10852083822E+01  0.21870826774E+01  0.99287122689E+01  0.10224496831E+02  0.51100000000E-03 0.  1.
        -12    1    3    3    0    0 -0.29597652683E+02  0.23160725324E+02  0.28527288957E+01  0.37690559879E+02  0.00000000000E+00 0.  1.
</event>
<event>
 7    1  0.3505640E-015  0.9000758E+02  0.7816164E-02  0.1186339E+00
        -11   -1    0    0    0    0  0.00000000000E+00  0.00000000000E+00  0.45593999997E+02  0.45594000000E+02  0.51100000000E-03 0. -1.
         11   -1    0    0    0    0 -0.00000000000E+00 -0.00000000000E+00 -0.45593999997E+02  0.45594000000E+02  0.51100000000E-03 0.  1.
    9900012    2    1    2    0    0  0.17091906595E+00  0.10994330599E+01 -0.39425048422E+00  0.90007576421E+02  0.89999835630E+02 0.  0.
        -12    1    1    2    0    0 -0.17091906595E+00 -0.10994330599E+01  0.39425048422E+00  0.11804235785E+01  0.00000000000E+00 0.  1.
         11    1    3    3    0    0  0.27704769104E+01  0.91652158849E+01 -0.31349123095E+01  0.10074939205E+02  0.51100000000E-03 0. -1.
        -11    1    3    3    0    0 -0.37701755010E+02  0.97502833843E+01 -0.65432127661E+01  0.39488023380E+02  0.51100000000E-03 0.  1.
         12    1    3    3    0    0  0.35102197165E+02 -0.17816066209E+02  0.92838745914E+01  0.40444613837E+02  0.00000000000E+00 0. -1.
</event>
<event>
 7    1  0.3505640E-015  0.9000775E+02  0.7816164E-02  0.1186339E+00
        -11   -1    0    0    0    0  0.00000000000E+00  0.00000000000E+00  0.45593999997E+02  0.45594000000E+02  0.51100000000E-03 0. -1.
         11   -1    0    0    0    0 -0.00000000000E+00 -0.00000000000E+00 -0.45593999997E+02  0.45594000000E+02  0.51100000000E-03 0.  1.
    9900012    2    1    2    0    0 -0.91478248532E+00  0.98094617119E-01  0.73928038361E+00  0.90007752130E+02  0.90000013658E+02 0.  0.
        -12    1    1    2    0    0  0.91478248532E+00 -0.98094617119E-01 -0.73928038361E+00  0.11802478701E+01  0.00000000000E+00 0.  1.
         11    1    3    3    0    0 -0.74716746993E+01 -0.60775140041E+01  0.40438843363E+02  0.41569966948E+02  0.51100000000E-03 0. -1.
        -11    1    3    3    0    0 -0.47728015113E+01  0.73829497014E+01 -0.19483712790E+01  0.90046505463E+01  0.51100000000E-03 0.  1.
        -12    1    3    3    0    0  0.11329693725E+02 -0.12073410802E+01 -0.37751191700E+02  0.39433134635E+02  0.00000000000E+00 0.  1.
</event>
<event>
 7    1  0.3505640E-015  0.9000776E+02  0.7816164E-02  0.1186339E+00
        -11   -1    0    0    0    0  0.00000000000E+00  0.00000000000E+00  0.45593999997E+02  0.45594000000E+02  0.51100000000E-03 0.  1.
         11   -1    0    0    0    0 -0.00000000000E+00 -0.00000000000E+00 -0.45593999997E+02  0.45594000000E+02  0.51100000000E-03 0. -1.
    9900012    2    1    2    0    0  0.90890597399E+00 -0.37792247134E+00 -0.65118439820E+00  0.90007755710E+02  0.90000017285E+02 0.  0.
        -12    1    1    2    0    0 -0.90890597399E+00  0.37792247134E+00  0.65118439820E+00  0.11802442901E+01  0.00000000000E+00 0.  1.
         11    1    3    3    0    0 -0.13999505384E+02 -0.63418444451E+01 -0.33958962392E+02  0.37274874500E+02  0.51100000000E-03 0. -1.
        -11    1    3    3    0    0 -0.80020633003E+01  0.43789167378E+01 -0.31453234763E+01  0.96488853704E+01  0.51100000000E-03 0.  1.
        -12    1    3    3    0    0  0.22910474658E+02  0.15850052359E+01  0.36453101471E+02  0.43083995839E+02  0.00000000000E+00 0.  1.
</event>
<event>
 7    1  0.3505640E-015  0.9000774E+02  0.7816164E-02  0.1186339E+00
        -11   -1    0    0    0    0  0.00000000000E+00  0.00000000000E+00  0.45593999997E+02  0.45594000000E+02  0.51100000000E-03 0.  1.
         11   -1    0    0    0    0 -0.00000000000E+00 -0.00000000000E+00 -0.45593999997E+02  0.45594000000E+02  0.51100000000E-03 0. -1.
    9900012    2    1    2    0    0  0.19831465552E+00 -0.70812412467E+00 -0.92316510647E+00  0.90007744819E+02  0.90000006251E+02 0.  0.
        -12    1    1    2    0    0 -0.19831465552E+00  0.70812412467E+00  0.92316510647E+00  0.11802551810E+01  0.00000000000E+00 0.  1.
         11    1    3    3    0    0 -0.99001422657E+01 -0.22023740604E+01  0.79943723930E+00  0.10173611382E+02  0.51100000000E-03 0. -1.
        -11    1    3    3    0    0 -0.20086082117E+02  0.31003572624E+02  0.43122219667E+01  0.37192303892E+02  0.51100000000E-03 0.  1.
         12    1    3    3    0    0  0.30184539039E+02 -0.29509322688E+02 -0.60348243125E+01  0.42641829545E+02  0.00000000000E+00 0. -1.
</event>
<event>
 7    1  0.3505640E-015  0.9000774E+02  0.7816164E-02  0.1186339E+00
        -11   -1    0    0    0    0  0.00000000000E+00  0.00000000000E+00  0.45593999997E+02  0.45594000000E+02  0.51100000000E-03 0. -1.
         11   -1    0    0    0    0 -0.00000000000E+00 -0.00000000000E+00 -0.45593999997E+02  0.45594000000E+02  0.51100000000E-03 0.  1.
    9900012    2    1    2    0    0  0.11520015441E+00  0.10479748135E+01  0.53056868787E+00  0.90007735022E+02  0.89999996325E+02 0.  0.
        -12    1    1    2    0    0 -0.11520015441E+00 -0.10479748135E+01 -0.53056868787E+00  0.11802649778E+01  0.00000000000E+00 0.  1.
         11    1    3    3    0    0 -0.33834787429E+02 -0.66966110037E+01 -0.22366607460E+02  0.41108424548E+02  0.51100000000E-03 0. -1.
        -11    1    3    3    0    0  0.83314820096E+01  0.95756004301E+00 -0.55214182999E+01  0.10040745690E+02  0.51100000000E-03 0.  1.
        -12    1    3    3    0    0  0.25618505573E+02  0.67870257742E+01  0.28418594448E+02  0.38858564784E+02  0.00000000000E+00 0.  1.
</event>
<event>
 7    1  0.3505640E-015  0.9000772E+02  0.7816164E-02  0.1186339E+00
        -11   -1    0    0    0    0  0.00000000000E+00  0.00000000000E+00  0.45593999997E+02  0.45594000000E+02  0.51100000000E-03 0.  1.
         11   -1    0    0    0    0 -0.00000000000E+00 -0.00000000000E+00 -0.45593999997E+02  0.45594000000E+02  0.51100000000E-03 0. -1.
    9900012    2    1    2    0    0 -0.57294807789E+00  0.57117969894E+00 -0.85938962606E+00  0.90007717713E+02  0.89999978786E+02 0.  0.
        -12    1    1    2    0    0  0.57294807789E+00 -0.57117969894E+00  0.85938962606E+00  0.11802822873E+01  0.00000000000E+00 0.  1.
         11    1    3    3    0    0 -0.64113369998E+01 -0.37235939203E+02 -0.13115328392E+02  0.39995402855E+02  0.51100000000E-03 0. -1.
        -11    1    3    3    0    0  0.97196466856E+01 -0.71358279651E+00  0.18144610251E+01  0.99132739886E+01  0.51100000000E-03 0.  1.
        -12    1    3    3    0    0 -0.38812577637E+01  0.38520701699E+02  0.10441477740E+02  0.40099040869E+02  0.00000000000E+00 0.  1.
</event>
<event>
 7    1  0.3505640E-015  0.9000779E+02  0.7816164E-02  0.1186339E+00
        -11   -1    0    0    0    0  0.00000000000E+00  0.00000000000E+00  0.45593999997E+02  0.45594000000E+02  0.51100000000E-03 0. -1.
         11   -1    0    0    0    0 -0.00000000000E+00 -0.00000000000E+00 -0.45593999997E+02  0.45594000000E+02  0.51100000000E-03 0.  1.
    9900012    2    1    2    0    0 -0.81695292709E+00 -0.79636286335E+00 -0.30212739317E+00  0.90007793723E+02  0.90000055800E+02 0.  0.
        -12    1    1    2    0    0  0.81695292709E+00  0.79636286335E+00  0.30212739317E+00  0.11802062773E+01  0.00000000000E+00 0.  1.
         11    1    3    3    0    0 -0.16307320133E+02 -0.30061156795E+02  0.16656313640E+02  0.38039908282E+02  0.51100000000E-03 0. -1.
        -11    1    3    3    0    0 -0.28156046967E+01 -0.62292199733E+01  0.28286776297E+01  0.73981233214E+01  0.51100000000E-03 0.  1.
        -12    1    3    3    0    0  0.18305971902E+02  0.35494013905E+02 -0.19787118663E+02  0.44569762119E+02  0.00000000000E+00 0.  1.
</event>
<event>
 7    1  0.3505640E-015  0.9000788E+02  0.7816164E-02  0.1186339E+00
        -11   -1    0    0    0    0  0.00000000000E+00  0.00000000000E+00  0.45593999997E+02  0.45594000000E+02  0.51100000000E-03 0. -1.
         11   -1    0    0    0    0 -0.00000000000E+00 -0.00000000000E+00 -0.45593999997E+02  0.45594000000E+02  0.51100000000E-03 0.  1.
    9900012    2    1    2    0    0 -0.64867764392E+00 -0.68215898882E+00 -0.71172375110E+00  0.90007883790E+02  0.90000147056E+02 0.  0.
        -12    1    1    2    0    0  0.64867764392E+00  0.68215898882E+00  0.71172375110E+00  0.11801162102E+01  0.00000000000E+00 0.  1.
         11    1    3    3    0    0 -0.84867841110E+01 -0.68380825405E+00  0.23927355322E+00  0.85176493453E+01  0.51100000000E-03 0. -1.
        -11    1    3    3    0    0 -0.51744289678E+01  0.26193224337E+02 -0.30074920900E+02  0.40216421817E+02  0.51100000000E-03 0.  1.
         12    1    3    3    0    0  0.13012535435E+02 -0.26191575072E+02  0.29123923596E+02  0.41273812628E+02  0.00000000000E+00 0. -1.
</event>
<event>
 7    1  0.3505640E-015  0.9000778E+02  0.7816164E-02  0.1186339E+00
        -11   -1    0    0    0    0  0.00000000000E+00  0.00000000000E+00  0.45593999997E+02  0.45594000000E+02  0.51100000000E-03 0.  1.
         11   -1    0    0    0    0 -0.00000000000E+00 -0.00000000000E+00 -0.45593999997E+02  0.45594000000E+02  0.51100000000E-03 0. -1.
    9900012    2    1    2    0    0 -0.49041848496E-01 -0.11392901827E+01 -0.30420384840E+00  0.90007776629E+02  0.90000038481E+02 0.  0.
        -12    1    1    2    0    0  0.49041848496E-01  0.11392901827E+01  0.30420384840E+00  0.11802233706E+01  0.00000000000E+00 0.  1.
         11    1    3    3    0    0 -0.20716798294E+02 -0.14158392895E+02  0.19115737668E+02  0.31544528016E+02  0.51100000000E-03 0. -1.
        -11    1    3    3    0    0 -0.77642662965E+01 -0.50324162525E+01  0.10086532102E+02  0.13687482405E+02  0.51100000000E-03 0.  1.
         12    1    3    3    0    0  0.28432022742E+02  0.18051518965E+02 -0.29506473618E+02  0.44775766208E+02  0.00000000000E+00 0. -1.
</event>
<event>
 7    1  0.3505640E-015  0.9000767E+02  0.7816164E-02  0.1186339E+00
        -11   -1    0    0    0    0  0.00000000000E+00  0.00000000000E+00  0.45593999997E+02  0.45594000000E+02  0.51100000000E-03 0. -1.
         11   -1    0    0    0    0 -0.00000000000E+00 -0.00000000000E+00 -0.45593999997E+02  0.45594000000E+02  0.51100000000E-03 0.  1.
    9900012    2    1    2    0    0  0.91469476470E-01 -0.10639632315E+01  0.50278926155E+00  0.90007668917E+02  0.89999929347E+02 0.  0.
        -12    1    1    2    0    0 -0.91469476470E-01  0.10639632315E+01 -0.50278926155E+00  0.11803310826E+01  0.00000000000E+00 0.  1.
         11    1    3    3    0    0  0.33073194529E+02 -0.81482023929E+01  0.74268962875E+01  0.34862417978E+02  0.51100000000E-03 0. -1.
        -11    1    3    3    0    0  0.82055994445E+01 -0.51291321012E+01  0.45298422390E+01  0.10684536926E+02  0.51100000000E-03 0.  1.
        -12    1    3    3    0    0 -0.41187324497E+02  0.12213371263E+02 -0.11453949265E+02  0.44460714013E+02  0.00000000000E+00 0.  1.
</event>
<event>
 7    1  0.3505640E-015  0.9000771E+02  0.7816164E-02  0.1186339E+00
        -11   -1    0    0    0    0  0.00000000000E+00  0.00000000000E+00  0.45593999997E+02  0.45594000000E+02  0.51100000000E-03 0. -1.
         11   -1    0    0    0    0 -0.00000000000E+00 -0.00000000000E+00 -0.45593999997E+02  0.45594000000E+02  0.51100000000E-03 0.  1.
    9900012    2    1    2    0    0  0.50878070320E+00  0.10577904252E+01 -0.12369674321E+00  0.90007712208E+02  0.89999973209E+02 0.  0.
        -12    1    1    2    0    0 -0.50878070320E+00 -0.10577904252E+01  0.12369674321E+00  0.11802877920E+01  0.00000000000E+00 0.  1.
         11    1    3    3    0    0  0.35298901431E+02  0.16437598065E+02 -0.13812574712E+02  0.41315787452E+02  0.51100000000E-03 0. -1.
        -11    1    3    3    0    0 -0.11348962050E+02 -0.26481346996E+01 -0.81467708288E+01  0.14219051734E+02  0.51100000000E-03 0.  1.
        -12    1    3    3    0    0 -0.23441158677E+02 -0.12731672941E+02  0.21835648797E+02  0.34472873022E+02  0.00000000000E+00 0.  1.
</event>
<event>
 7    1  0.3505640E-015  0.9000772E+02  0.7816164E-02  0.1186339E+00
        -11   -1    0    0    0    0  0.00000000000E+00  0.00000000000E+00  0.45593999997E+02  0.45594000000E+02  0.51100000000E-03 0. -1.
         11   -1    0    0    0    0 -0.00000000000E+00 -0.00000000000E+00 -0.45593999997E+02  0.45594000000E+02  0.51100000000E-03 0.  1.
    9900012    2    1    2    0    0 -0.88543425410E+00 -0.21180053399E+00  0.75113045917E+00  0.90007724502E+02  0.89999985665E+02 0.  0.
        -12    1    1    2    0    0  0.88543425410E+00  0.21180053399E+00 -0.75113045917E+00  0.11802754980E+01  0.00000000000E+00 0.  1.
         11    1    3    3    0    0 -0.34634690696E+02  0.50873849794E+01  0.13685961445E+02  0.37586551139E+02  0.51100000000E-03 0. -1.
        -11    1    3    3    0    0 -0.72231753695E+01 -0.32396291800E+01 -0.77364402209E+01  0.11068964143E+02  0.51100000000E-03 0.  1.
        -12    1    3    3    0    0  0.40972431812E+02 -0.20595563333E+01 -0.51983907652E+01  0.41352209220E+02  0.00000000000E+00 0.  1.
</event>
<event>
 7    1  0.3505640E-015  0.9000748E+02  0.7816164E-02  0.1186340E+00
        -11   -1    0    0    0    0  0.00000000000E+00  0.00000000000E+00  0.45593999997E+02  0.45594000000E+02  0.51100000000E-03 0.  1.
         11   -1    0    0    0    0 -0.00000000000E+00 -0.00000000000E+00 -0.45593999997E+02  0.45594000000E+02  0.51100000000E-03 0. -1.
    9900012    2    1    2    0    0  0.37364734020E+00  0.62118817705E+00 -0.93173730772E+00  0.90007482530E+02  0.89999740499E+02 0.  0.
        -12    1    1    2    0    0 -0.37364734020E+00 -0.62118817705E+00  0.93173730772E+00  0.11805174699E+01  0.00000000000E+00 0.  1.
         11    1    3    3    0    0 -0.44344808532E+01 -0.22498329958E+01 -0.86501660169E+01  0.99775618929E+01  0.51100000000E-03 0. -1.
        -11    1    3    3    0    0 -0.24076883828E+02 -0.18463700286E+02 -0.18527624687E+02  0.35551053992E+02  0.51100000000E-03 0.  1.
         12    1    3    3    0    0  0.28885012022E+02  0.21334721459E+02  0.26246053396E+02  0.44478866646E+02  0.00000000000E+00 0. -1.
</event>
<event>
 7    1  0.3505640E-015  0.9000770E+02  0.7816164E-02  0.1186339E+00
        -11   -1    0    0    0    0  0.00000000000E+00  0.00000000000E+00  0.45593999997E+02  0.45594000000E+02  0.51100000000E-03 0.  1.
         11   -1    0    0    0    0 -0.00000000000E+00 -0.00000000000E+00 -0.45593999997E+02  0.45594000000E+02  0.51100000000E-03 0. -1.
    9900012    2    1    2    0    0  0.10293144306E+01 -0.11247580557E+00 -0.56653112197E+00  0.90007704903E+02  0.89999965808E+02 0.  0.
        -12    1    1    2    0    0 -0.10293144306E+01  0.11247580557E+00  0.56653112197E+00  0.11802950970E+01  0.00000000000E+00 0.  1.
         11    1    3    3    0    0  0.13374923128E+01 -0.12856073995E+02  0.57176623804E+01  0.14133619055E+02  0.51100000000E-03 0. -1.
        -11    1    3    3    0    0  0.32841156121E+02  0.73770477588E+01  0.14207025802E+02  0.36534941513E+02  0.51100000000E-03 0.  1.
         12    1    3    3    0    0 -0.33149334003E+02  0.53665504304E+01 -0.20491219304E+02  0.39339144334E+02  0.00000000000E+00 0. -1.
</event>
<event>
 7    1  0.3505640E-015  0.9000779E+02  0.7816164E-02  0.1186339E+00
        -11   -1    0    0    0    0  0.00000000000E+00  0.00000000000E+00  0.45593999997E+02  0.45594000000E+02  0.51100000000E-03 0. -1.
         11   -1    0    0    0    0 -0.00000000000E+00 -0.00000000000E+00 -0.45593999997E+02  0.45594000000E+02  0.51100000000E-03 0.  1.
    9900012    2    1    2    0    0  0.86129119269E-01  0.10420704973E+01 -0.54732189232E+00  0.90007792222E+02  0.90000054279E+02 0.  0.
        -12    1    1    2    0    0 -0.86129119269E-01 -0.10420704973E+01  0.54732189232E+00  0.11802077784E+01  0.00000000000E+00 0.  1.
         11    1    3    3    0    0 -0.32415018139E+01  0.83182873461E+01  0.36296926526E+01  0.96372147115E+01  0.51100000000E-03 0. -1.
        -11    1    3    3    0    0  0.74750414006E+01  0.15760897072E+01 -0.41290480421E+02  0.41991238090E+02  0.51100000000E-03 0.  1.
         12    1    3    3    0    0 -0.41474104674E+01 -0.88523065560E+01  0.37113465876E+02  0.38379339420E+02  0.00000000000E+00 0. -1.
</event>
<event>
 7    1  0.3505640E-015  0.9000745E+02  0.7816164E-02  0.1186340E+00
        -11   -1    0    0    0    0  0.00000000000E+00  0.00000000000E+00  0.45593999997E+02  0.45594000000E+02  0.51100000000E-03 0. -1.
         11   -1    0    0    0    0 -0.00000000000E+00 -0.00000000000E+00 -0.45593999997E+02  0.45594000000E+02  0.51100000000E-03 0.  1.
    9900012    2    1    2    0    0  0.99507925982E+00  0.63189594679E+00  0.64937793890E-01  0.90007452611E+02  0.89999710185E+02 0.  0.
        -12    1    1    2    0    0 -0.99507925982E+00 -0.63189594679E+00 -0.64937793890E-01  0.11805473891E+01  0.00000000000E+00 0.  1.
         11    1    3    3    0    0  0.94984059433E+01 -0.25779444477E+01  0.23174644116E+01  0.10111189574E+02  0.51100000000E-03 0. -1.
        -11    1    3    3    0    0 -0.13391961941E+01  0.55699964861E+01 -0.40504540572E+02  0.40907653495E+02  0.51100000000E-03 0.  1.
         12    1    3    3    0    0 -0.71641304893E+01 -0.23601560916E+01  0.38252013954E+02  0.38988609542E+02  0.00000000000E+00 0. -1.
</event>
<event>
 7    1  0.3505640E-015  0.9000748E+02  0.7816164E-02  0.1186340E+00
        -11   -1    0    0    0    0  0.00000000000E+00  0.00000000000E+00  0.45593999997E+02  0.45594000000E+02  0.51100000000E-03 0. -1.
         11   -1    0    0    0    0 -0.00000000000E+00 -0.00000000000E+00 -0.45593999997E+02  0.45594000000E+02  0.51100000000E-03 0.  1.
    9900012    2    1    2    0    0  0.89284999808E+00  0.20169932068E+00  0.74549668414E+00  0.90007479335E+02  0.89999737262E+02 0.  0.
        -12    1    1    2    0    0 -0.89284999808E+00 -0.20169932068E+00 -0.74549668414E+00  0.11805206653E+01  0.00000000000E+00 0.  1.
         11    1    3    3    0    0 -0.56874941582E+01 -0.58439232600E+01  0.38384312108E+00  0.81637224763E+01  0.51100000000E-03 0. -1.
        -11    1    3    3    0    0  0.10477268938E+02 -0.33826389874E+02 -0.15630199757E+02  0.38707892748E+02  0.51100000000E-03 0.  1.
         12    1    3    3    0    0 -0.38969247821E+01  0.39872012454E+02  0.15991853320E+02  0.43135864110E+02  0.00000000000E+00 0. -1.
</event>
<event>
 7    1  0.3505640E-015  0.9000774E+02  0.7816164E-02  0.1186339E+00
        -11   -1    0    0    0    0  0.00000000000E+00  0.00000000000E+00  0.45593999997E+02  0.45594000000E+02  0.51100000000E-03 0. -1.
         11   -1    0    0    0    0 -0.00000000000E+00 -0.00000000000E+00 -0.45593999997E+02  0.45594000000E+02  0.51100000000E-03 0.  1.
    9900012    2    1    2    0    0  0.19959930957E+00  0.11190496669E+01  0.31765542933E+00  0.90007738583E+02  0.89999999932E+02 0.  0.
        -12    1    1    2    0    0 -0.19959930957E+00 -0.11190496669E+01 -0.31765542933E+00  0.11802614173E+01  0.00000000000E+00 0.  1.
         11    1    3    3    0    0  0.67094042281E+01  0.69697446383E+01 -0.33911098321E+01  0.10251491188E+02  0.51100000000E-03 0. -1.
        -11    1    3    3    0    0  0.30674700171E+02 -0.23355561049E+02  0.26209937915E+01  0.38643098623E+02  0.51100000000E-03 0.  1.
         12    1    3    3    0    0 -0.37184505089E+02  0.17504866078E+02  0.10877714700E+01  0.41113148772E+02  0.00000000000E+00 0. -1.
</event>
<event>
 7    1  0.3505640E-015  0.9000777E+02  0.7816164E-02  0.1186339E+00
        -11   -1    0    0    0    0  0.00000000000E+00  0.00000000000E+00  0.45593999997E+02  0.45594000000E+02  0.51100000000E-03 0.  1.
         11   -1    0    0    0    0 -0.00000000000E+00 -0.00000000000E+00 -0.45593999997E+02  0.45594000000E+02  0.51100000000E-03 0. -1.
    9900012    2    1    2    0    0 -0.11412649519E+00  0.11585675624E+01 -0.19401118367E+00  0.90007769517E+02  0.90000031275E+02 0.  0.
        -12    1    1    2    0    0  0.11412649519E+00 -0.11585675624E+01  0.19401118367E+00  0.11802304830E+01  0.00000000000E+00 0.  1.
         11    1    3    3    0    0  0.15035164200E+02 -0.17911787165E+02 -0.29432031339E+02  0.37591657997E+02  0.51100000000E-03 0. -1.
        -11    1    3    3    0    0 -0.62663732911E+00 -0.47841920121E+01 -0.58419710312E+01  0.75769250584E+01  0.51100000000E-03 0.  1.
        -12    1    3    3    0    0 -0.14522653366E+02  0.23854546739E+02  0.35079991186E+02  0.44839186462E+02  0.00000000000E+00 0.  1.
</event>
<event>
 7    1  0.3505640E-015  0.9000793E+02  0.7816164E-02  0.1186339E+00
        -11   -1    0    0    0    0  0.00000000000E+00  0.00000000000E+00  0.45593999997E+02  0.45594000000E+02  0.51100000000E-03 0.  1.
         11   -1    0    0    0    0 -0.00000000000E+00 -0.00000000000E+00 -0.45593999997E+02  0.45594000000E+02  0.51100000000E-03 0. -1.
    9900012    2    1    2    0    0 -0.54815817016E+00  0.26348054303E+00 -0.10112689811E+01  0.90007930371E+02  0.90000194252E+02 0.  0.
        -12    1    1    2    0    0  0.54815817016E+00 -0.26348054303E+00  0.10112689811E+01  0.11800696285E+01  0.00000000000E+00 0.  1.
         11    1    3    3    0    0  0.18655997311E+01 -0.82659728120E+01 -0.68187504645E+00  0.85012777114E+01  0.51100000000E-03 0. -1.
        -11    1    3    3    0    0  0.13533036842E+02  0.80782797624E+01  0.37377139761E+02  0.40564174675E+02  0.51100000000E-03 0.  1.
         12    1    3    3    0    0 -0.15946794744E+02  0.45117359268E+00 -0.37706533696E+02  0.40942477985E+02  0.00000000000E+00 0. -1.
</event>
<event>
 7    1  0.3505640E-015  0.9000773E+02  0.7816164E-02  0.1186339E+00
        -11   -1    0    0    0    0  0.00000000000E+00  0.00000000000E+00  0.45593999997E+02  0.45594000000E+02  0.51100000000E-03 0. -1.
         11   -1    0    0    0    0 -0.00000000000E+00 -0.00000000000E+00 -0.45593999997E+02  0.45594000000E+02  0.51100000000E-03 0.  1.
    9900012    2    1    2    0    0  0.15990455007E+00 -0.94071663429E+00  0.69464447084E+00  0.90007725374E+02  0.89999986549E+02 0.  0.
        -12    1    1    2    0    0 -0.15990455007E+00  0.94071663429E+00 -0.69464447084E+00  0.11802746257E+01  0.00000000000E+00 0.  1.
         11    1    3    3    0    0  0.77676503349E+01 -0.34708491766E+02  0.81138123635E+01  0.36480813365E+02  0.51100000000E-03 0. -1.
        -11    1    3    3    0    0 -0.60452197756E+01 -0.76896771729E+01 -0.70170832262E+01  0.12038076027E+02  0.51100000000E-03 0.  1.
        -12    1    3    3    0    0 -0.15625260092E+01  0.41457452305E+02 -0.40208466644E+00  0.41488835983E+02  0.00000000000E+00 0.  1.
</event>
<event>
 7    1  0.3505640E-015  0.9000776E+02  0.7816164E-02  0.1186339E+00
        -11   -1    0    0    0    0  0.00000000000E+00  0.00000000000E+00  0.45593999997E+02  0.45594000000E+02  0.51100000000E-03 0.  1.
         11   -1    0    0    0    0 -0.00000000000E+00 -0.00000000000E+00 -0.45593999997E+02  0.45594000000E+02  0.51100000000E-03 0. -1.
    9900012    2    1    2    0    0  0.23062519434E+00 -0.69939531363E+00 -0.92229561435E+00  0.90007758082E+02  0.90000019689E+02 0.  0.
        -12    1    1    2    0    0 -0.23062519434E+00  0.69939531363E+00  0.92229561435E+00  0.11802419181E+01  0.00000000000E+00 0.  1.
         11    1    3    3    0    0 -0.88098368402E+01 -0.65676259192E+01 -0.36234564798E+02  0.37864107302E+02  0.51100000000E-03 0. -1.
        -11    1    3    3    0    0  0.10623842595E+01 -0.47330306553E+01 -0.65946507326E+01  0.81865534901E+01  0.51100000000E-03 0.  1.
        -12    1    3    3    0    0  0.79780777750E+01  0.10601261261E+02  0.41906919916E+02  0.43957097290E+02  0.00000000000E+00 0.  1.
</event>
<event>
 7    1  0.3505640E-015  0.9000775E+02  0.7816164E-02  0.1186339E+00
        -11   -1    0    0    0    0  0.00000000000E+00  0.00000000000E+00  0.45593999997E+02  0.45594000000E+02  0.51100000000E-03 0.  1.
         11   -1    0    0    0    0 -0.00000000000E+00 -0.00000000000E+00 -0.45593999997E+02  0.45594000000E+02  0.51100000000E-03 0. -1.
    9900012    2    1    2    0    0 -0.10175252418E+01 -0.55115288101E+00 -0.23208992798E+00  0.90007748819E+02  0.90000010303E+02 0.  0.
        -12    1    1    2    0    0  0.10175252418E+01  0.55115288101E+00  0.23208992798E+00  0.11802511812E+01  0.00000000000E+00 0.  1.
         11    1    3    3    0    0  0.29756684974E+01 -0.17011909369E+01  0.34958015158E+01  0.48958433501E+01  0.51100000000E-03 0. -1.
        -11    1    3    3    0    0 -0.24978950205E+01  0.39545351543E+02  0.14997702187E+02  0.42367503813E+02  0.51100000000E-03 0.  1.
         12    1    3    3    0    0 -0.14952987187E+01 -0.38395313487E+02 -0.18725593631E+02  0.42744401655E+02  0.00000000000E+00 0. -1.
</event>
<event>
 7    1  0.3505640E-015  0.9000774E+02  0.7816164E-02  0.1186339E+00
        -11   -1    0    0    0    0  0.00000000000E+00  0.00000000000E+00  0.45593999997E+02  0.45594000000E+02  0.51100000000E-03 0.  1.
         11   -1    0    0    0    0 -0.00000000000E+00 -0.00000000000E+00 -0.45593999997E+02  0.45594000000E+02  0.51100000000E-03 0. -1.
    9900012    2    1    2    0    0  0.50543557301E+00  0.86855380003E+00 -0.61899444915E+00  0.90007743693E+02  0.90000005110E+02 0.  0.
        -12    1    1    2    0    0 -0.50543557301E+00 -0.86855380003E+00  0.61899444915E+00  0.11802563070E+01  0.00000000000E+00 0.  1.
         11    1    3    3    0    0  0.16835592743E+02 -0.19548523995E+02 -0.14410251042E+02  0.29550588974E+02  0.51100000000E-03 0. -1.
        -11    1    3    3    0    0  0.16418143740E+02 -0.51192225603E+01  0.21707240948E+01  0.17334183766E+02  0.51100000000E-03 0.  1.
        -12    1    3    3    0    0 -0.32748300909E+02  0.25536300355E+02  0.11620532498E+02  0.43122970953E+02  0.00000000000E+00 0.  1.
</event>
<event>
 7    1  0.3505640E-015  0.9000768E+02  0.7816164E-02  0.1186339E+00
        -11   -1    0    0    0    0  0.00000000000E+00  0.00000000000E+00  0.45593999997E+02  0.45594000000E+02  0.51100000000E-03 0.  1.
         11   -1    0    0    0    0 -0.00000000000E+00 -0.00000000000E+00 -0.45593999997E+02  0.45594000000E+02  0.51100000000E-03 0. -1.
    9900012    2    1    2    0    0  0.74302947067E+00 -0.53463737074E+00  0.74513833672E+00  0.90007677564E+02  0.89999938108E+02 0.  0.
        -12    1    1    2    0    0 -0.74302947067E+00  0.53463737074E+00 -0.74513833672E+00  0.11803224362E+01  0.00000000000E+00 0.  1.
         11    1    3    3    0    0  0.20579418201E+02  0.31793644948E+02 -0.62665547989E+01  0.38387732701E+02  0.51100000000E-03 0. -1.
        -11    1    3    3    0    0 -0.12580999495E+01  0.60731102621E+01  0.64624693048E+01  0.89570638892E+01  0.51100000000E-03 0.  1.
        -12    1    3    3    0    0 -0.18578288781E+02 -0.38401392581E+02  0.54922383083E+00  0.42662880974E+02  0.00000000000E+00 0.  1.
</event>
<event>
 7    1  0.3505640E-015  0.9000773E+02  0.7816164E-02  0.1186339E+00
        -11   -1    0    0    0    0  0.00000000000E+00  0.00000000000E+00  0.45593999997E+02  0.45594000000E+02  0.51100000000E-03 0.  1.
         11   -1    0    0    0    0 -0.00000000000E+00 -0.00000000000E+00 -0.45593999997E+02  0.45594000000E+02  0.51100000000E-03 0. -1.
    9900012    2    1    2    0    0 -0.80120357556E+00  0.37331514715E+00 -0.78214073208E+00  0.90007730754E+02  0.89999992000E+02 0.  0.
        -12    1    1    2    0    0  0.80120357556E+00 -0.37331514715E+00  0.78214073208E+00  0.11802692461E+01  0.00000000000E+00 0.  1.
         11    1    3    3    0    0 -0.15043825950E+01  0.20105728919E+01 -0.89785193685E+01  0.93230564011E+01  0.51100000000E-03 0. -1.
        -11    1    3    3    0    0 -0.20697680911E+02 -0.30912233930E+02 -0.12109990272E+02  0.39123037539E+02  0.51100000000E-03 0.  1.
         12    1    3    3    0    0  0.21400859930E+02  0.29274976185E+02  0.20306368909E+02  0.41561636814E+02  0.00000000000E+00 0. -1.
</event>
<event>
 7    1  0.3505640E-015  0.9000773E+02  0.7816164E-02  0.1186339E+00
        -11   -1    0    0    0    0  0.00000000000E+00  0.00000000000E+00  0.45593999997E+02  0.45594000000E+02  0.51100000000E-03 0. -1.
         11   -1    0    0    0    0 -0.00000000000E+00 -0.00000000000E+00 -0.45593999997E+02  0.45594000000E+02  0.51100000000E-03 0.  1.
    9900012    2    1    2    0    0 -0.11251244216E+01  0.71162223049E-01  0.34936958710E+00  0.90007733871E+02  0.89999995158E+02 0.  0.
        -12    1    1    2    0    0  0.11251244216E+01 -0.71162223049E-01 -0.34936958710E+00  0.11802661287E+01  0.00000000000E+00 0.  1.
         11    1    3    3    0    0 -0.44077100238E+01  0.21852597246E+01 -0.86256410396E+01  0.99300025842E+01  0.51100000000E-03 0. -1.
        -11    1    3    3    0    0 -0.11597336894E+02  0.35278541076E+02  0.13644562999E+02  0.39563212499E+02  0.51100000000E-03 0.  1.
         12    1    3    3    0    0  0.14879922496E+02 -0.37392638578E+02 -0.46695523728E+01  0.40514518789E+02  0.00000000000E+00 0. -1.
</event>
<event>
 7    1  0.3505640E-015  0.9000775E+02  0.7816164E-02  0.1186339E+00
        -11   -1    0    0    0    0  0.00000000000E+00  0.00000000000E+00  0.45593999997E+02  0.45594000000E+02  0.51100000000E-03 0. -1.
         11   -1    0    0    0    0 -0.00000000000E+00 -0.00000000000E+00 -0.45593999997E+02  0.45594000000E+02  0.51100000000E-03 0.  1.
    9900012    2    1    2    0    0  0.10040801798E+01 -0.61679828681E+00  0.66112833545E-01  0.90007750856E+02  0.90000012368E+02 0.  0.
        -12    1    1    2    0    0 -0.10040801798E+01  0.61679828681E+00 -0.66112833545E-01  0.11802491435E+01  0.00000000000E+00 0.  1.
         11    1    3    3    0    0 -0.17453278286E+01 -0.22143244837E+02  0.37584374289E+02  0.43657240546E+02  0.51100000000E-03 0. -1.
        -11    1    3    3    0    0 -0.54800463134E+01  0.50300940666E+01 -0.49766748168E+01  0.89498629268E+01  0.51100000000E-03 0.  1.
        -12    1    3    3    0    0  0.82294543218E+01  0.16496352484E+02 -0.32541586639E+02  0.37400647383E+02  0.00000000000E+00 0.  1.
</event>
<event>
 7    1  0.3505640E-015  0.9000762E+02  0.7816164E-02  0.1186339E+00
        -11   -1    0    0    0    0  0.00000000000E+00  0.00000000000E+00  0.45593999997E+02  0.45594000000E+02  0.51100000000E-03 0.  1.
         11   -1    0    0    0    0 -0.00000000000E+00 -0.00000000000E+00 -0.45593999997E+02  0.45594000000E+02  0.51100000000E-03 0. -1.
    9900012    2    1    2    0    0  0.11368919182E+01  0.31606668922E+00  0.29783854515E-01  0.90007615121E+02  0.89999874840E+02 0.  0.
        -12    1    1    2    0    0 -0.11368919182E+01 -0.31606668922E+00 -0.29783854515E-01  0.11803848795E+01  0.00000000000E+00 0.  1.
         11    1    3    3    0    0  0.36992397716E+00  0.48272348766E+01  0.65681235608E+01  0.81596132061E+01  0.51100000000E-03 0. -1.
        -11    1    3    3    0    0  0.39941450663E+01  0.30065100457E+01  0.37107144706E+02  0.37442388893E+02  0.51100000000E-03 0.  1.
         12    1    3    3    0    0 -0.32271771253E+01 -0.75176782331E+01 -0.43645484413E+02  0.44405613022E+02  0.00000000000E+00 0. -1.
</event>
<event>
 7    1  0.3505640E-015  0.9000770E+02  0.7816164E-02  0.1186339E+00
        -11   -1    0    0    0    0  0.00000000000E+00  0.00000000000E+00  0.45593999997E+02  0.45594000000E+02  0.51100000000E-03 0. -1.
         11   -1    0    0    0    0 -0.00000000000E+00 -0.00000000000E+00 -0.45593999997E+02  0.45594000000E+02  0.51100000000E-03 0.  1.
    9900012    2    1    2    0    0  0.77499202445E-01 -0.11743521306E+01  0.89416375745E-01  0.90007701588E+02  0.89999962449E+02 0.  0.
        -12    1    1    2    0    0 -0.77499202445E-01  0.11743521306E+01 -0.89416375745E-01  0.11802984120E+01  0.00000000000E+00 0.  1.
         11    1    3    3    0    0  0.21597158150E+02  0.26360965112E+02 -0.54899614495E+01  0.34517783804E+02  0.51100000000E-03 0. -1.
        -11    1    3    3    0    0  0.74636254043E+01  0.63419421742E+01 -0.26653379485E+01  0.10150367548E+02  0.51100000000E-03 0.  1.
        -12    1    3    3    0    0 -0.28983284352E+02 -0.33877259417E+02  0.82447157737E+01  0.45339550236E+02  0.00000000000E+00 0.  1.
</event>
<event>
 7    1  0.3505640E-015  0.9000770E+02  0.7816164E-02  0.1186339E+00
        -11   -1    0    0    0    0  0.00000000000E+00  0.00000000000E+00  0.45593999997E+02  0.45594000000E+02  0.51100000000E-03 0.  1.
         11   -1    0    0    0    0 -0.00000000000E+00 -0.00000000000E+00 -0.45593999997E+02  0.45594000000E+02  0.51100000000E-03 0. -1.
    9900012    2    1    2    0    0  0.93215855911E+00 -0.20331115170E+00 -0.69488084771E+00  0.90007697329E+02  0.89999958133E+02 0.  0.
        -12    1    1    2    0    0 -0.93215855911E+00  0.20331115170E+00  0.69488084771E+00  0.11803026715E+01  0.00000000000E+00 0.  1.
         11    1    3    3    0    0  0.16362386914E+02 -0.10326382050E+02 -0.24446860189E+02  0.31177088464E+02  0.51100000000E-03 0. -1.
        -11    1    3    3    0    0  0.16678219455E+02  0.10465774822E+02  0.14662449305E+01  0.19744501039E+02  0.51100000000E-03 0.  1.
        -12    1    3    3    0    0 -0.32108447810E+02 -0.34270392417E+00  0.22285734411E+02  0.39086107826E+02  0.00000000000E+00 0.  1.
</event>
<event>
 7    1  0.3505640E-015  0.9000772E+02  0.7816164E-02  0.1186339E+00
        -11   -1    0    0    0    0  0.00000000000E+00  0.00000000000E+00  0.45593999997E+02  0.45594000000E+02  0.51100000000E-03 0.  1.
         11   -1    0    0    0    0 -0.00000000000E+00 -0.00000000000E+00 -0.45593999997E+02  0.45594000000E+02  0.51100000000E-03 0. -1.
    9900012    2    1    2    0    0 -0.79139316700E-01 -0.95926368271E+00 -0.68308359670E+00  0.90007723319E+02  0.89999984466E+02 0.  0.
        -12    1    1    2    0    0  0.79139316700E-01  0.95926368271E+00  0.68308359670E+00  0.11802766813E+01  0.00000000000E+00 0.  1.
         11    1    3    3    0    0  0.31478992694E+02 -0.16514385599E+02  0.96118559614E+01  0.36824444164E+02  0.51100000000E-03 0. -1.
        -11    1    3    3    0    0  0.14978058230E+00  0.20128296133E+02 -0.34066933891E+01  0.20415099793E+02  0.51100000000E-03 0.  1.
        -12    1    3    3    0    0 -0.31707912593E+02 -0.45731742167E+01 -0.68882461690E+01  0.32768179362E+02  0.00000000000E+00 0.  1.
</event>
<event>
 7    1  0.3505640E-015  0.9000777E+02  0.7816164E-02  0.1186339E+00
        -11   -1    0    0    0    0  0.00000000000E+00  0.00000000000E+00  0.45593999997E+02  0.45594000000E+02  0.51100000000E-03 0. -1.
         11   -1    0    0    0    0 -0.00000000000E+00 -0.00000000000E+00 -0.45593999997E+02  0.45594000000E+02  0.51100000000E-03 0.  1.
    9900012    2    1    2    0    0 -0.40517469350E+00 -0.42499031542E-01  0.11076822509E+01  0.90007774314E+02  0.90000036135E+02 0.  0.
        -12    1    1    2    0    0  0.40517469350E+00  0.42499031542E-01 -0.11076822509E+01  0.11802256856E+01  0.00000000000E+00 0.  1.
         11    1    3    3    0    0  0.79089156125E+00  0.76840845153E+01 -0.35795841584E+01  0.85137587062E+01  0.51100000000E-03 0. -1.
        -11    1    3    3    0    0  0.38221799858E+02 -0.95516160145E+01 -0.76851078435E+01  0.40139758790E+02  0.51100000000E-03 0.  1.
         12    1    3    3    0    0 -0.39417866113E+02  0.18250324676E+01  0.12372374253E+02  0.41354256819E+02  0.00000000000E+00 0. -1.
</event>
<event>
 7    1  0.3505640E-015  0.9000756E+02  0.7816164E-02  0.1186339E+00
        -11   -1    0    0    0    0  0.00000000000E+00  0.00000000000E+00  0.45593999997E+02  0.45594000000E+02  0.51100000000E-03 0.  1.
         11   -1    0    0    0    0 -0.00000000000E+00 -0.00000000000E+00 -0.45593999997E+02  0.45594000000E+02  0.51100000000E-03 0. -1.
    9900012    2    1    2    0    0  0.39378629423E+00 -0.46999392452E+00 -0.10086948893E+01  0.90007564778E+02  0.89999823832E+02 0.  0.
        -12    1    1    2    0    0 -0.39378629423E+00  0.46999392452E+00  0.10086948893E+01  0.11804352224E+01  0.00000000000E+00 0.  1.
         11    1    3    3    0    0  0.48510078379E+01 -0.83880410938E+01 -0.14761492516E+02  0.17657666097E+02  0.51100000000E-03 0. -1.
        -11    1    3    3    0    0 -0.34632264140E+01 -0.30364790793E+02  0.14977895517E+02  0.34034567890E+02  0.51100000000E-03 0.  1.
         12    1    3    3    0    0 -0.99399512970E+00  0.38282837962E+02 -0.12250978897E+01  0.38315330790E+02  0.00000000000E+00 0. -1.
</event>
<event>
 7    1  0.3505640E-015  0.9000769E+02  0.7816164E-02  0.1186339E+00
        -11   -1    0    0    0    0  0.00000000000E+00  0.00000000000E+00  0.45593999997E+02  0.45594000000E+02  0.51100000000E-03 0.  1.
         11   -1    0    0    0    0 -0.00000000000E+00 -0.00000000000E+00 -0.45593999997E+02  0.45594000000E+02  0.51100000000E-03 0. -1.
    9900012    2    1    2    0    0 -0.42042888036E+00  0.23627242242E+00 -0.10772823597E+01  0.90007693945E+02  0.89999954705E+02 0.  0.
        -12    1    1    2    0    0  0.42042888036E+00 -0.23627242242E+00  0.10772823597E+01  0.11803060551E+01  0.00000000000E+00 0.  1.
         11    1    3    3    0    0 -0.16453824034E+01 -0.13228422976E+01  0.10487547990E+02  0.10697937095E+02  0.51100000000E-03 0. -1.
        -11    1    3    3    0    0  0.32134577034E+02 -0.13270104810E+02  0.13018098841E+02  0.37124084103E+02  0.51100000000E-03 0.  1.
         12    1    3    3    0    0 -0.30909623511E+02  0.14829219530E+02 -0.24582929191E+02  0.42185672746E+02  0.00000000000E+00 0. -1.
</event>
<event>
 7    1  0.3505640E-015  0.9000772E+02  0.7816164E-02  0.1186339E+00
        -11   -1    0    0    0    0  0.00000000000E+00  0.00000000000E+00  0.45593999997E+02  0.45594000000E+02  0.51100000000E-03 0. -1.
         11   -1    0    0    0    0 -0.00000000000E+00 -0.00000000000E+00 -0.45593999997E+02  0.45594000000E+02  0.51100000000E-03 0.  1.
    9900012    2    1    2    0    0  0.12260867110E+00 -0.61078469242E+00  0.10024777047E+01  0.90007723602E+02  0.89999984754E+02 0.  0.
        -12    1    1    2    0    0 -0.12260867110E+00  0.61078469242E+00 -0.10024777047E+01  0.11802763978E+01  0.00000000000E+00 0.  1.
         11    1    3    3    0    0 -0.10684223430E+02 -0.34234910963E+02  0.13367707261E+02  0.38273716264E+02  0.51100000000E-03 0. -1.
        -11    1    3    3    0    0 -0.10601324491E+02  0.12851334177E+01 -0.65227340725E+01  0.12513421151E+02  0.51100000000E-03 0.  1.
        -12    1    3    3    0    0  0.21408156591E+02  0.32338992853E+02 -0.58424954837E+01  0.39220586187E+02  0.00000000000E+00 0.  1.
</event>
<event>
 7    1  0.3505640E-015  0.9000776E+02  0.7816164E-02  0.1186339E+00
        -11   -1    0    0    0    0  0.00000000000E+00  0.00000000000E+00  0.45593999997E+02  0.45594000000E+02  0.51100000000E-03 0.  1.
         11   -1    0    0    0    0 -0.00000000000E+00 -0.00000000000E+00 -0.45593999997E+02  0.45594000000E+02  0.51100000000E-03 0. -1.
    9900012    2    1    2    0    0 -0.59935123355E+00 -0.38382477307E+00 -0.94149767485E+00  0.90007762215E+02  0.90000023876E+02 0.  0.
        -12    1    1    2    0    0  0.59935123355E+00  0.38382477307E+00  0.94149767485E+00  0.11802377851E+01  0.00000000000E+00 0.  1.
         11    1    3    3    0    0  0.40335760401E+01  0.21560786078E+01  0.71921970699E+01  0.85232687150E+01  0.51100000000E-03 0. -1.
        -11    1    3    3    0    0  0.30064449792E+02  0.27126277244E+01  0.20250272759E+02  0.36349732290E+02  0.51100000000E-03 0.  1.
         12    1    3    3    0    0 -0.34697377066E+02 -0.52525311053E+01 -0.28383967503E+02  0.45134761210E+02  0.00000000000E+00 0. -1.
</event>
<event>
 7    1  0.3505640E-015  0.9000795E+02  0.7816164E-02  0.1186339E+00
        -11   -1    0    0    0    0  0.00000000000E+00  0.00000000000E+00  0.45593999997E+02  0.45594000000E+02  0.51100000000E-03 0. -1.
         11   -1    0    0    0    0 -0.00000000000E+00 -0.00000000000E+00 -0.45593999997E+02  0.45594000000E+02  0.51100000000E-03 0.  1.
    9900012    2    1    2    0    0 -0.50317329436E+00  0.31363762529E+00  0.10202789692E+01  0.90007948688E+02  0.90000212810E+02 0.  0.
        -12    1    1    2    0    0  0.50317329436E+00 -0.31363762529E+00 -0.10202789692E+01  0.11800513121E+01  0.00000000000E+00 0.  1.
         11    1    3    3    0    0  0.59202431858E+01 -0.42140106452E+01  0.81620240498E+01  0.10928211288E+02  0.51100000000E-03 0. -1.
        -11    1    3    3    0    0  0.95638117625E+01 -0.23655816707E+02  0.23349375790E+02  0.34586955772E+02  0.51100000000E-03 0.  1.
         12    1    3    3    0    0 -0.15987228243E+02  0.28183464978E+02 -0.30491120871E+02  0.44492781628E+02  0.00000000000E+00 0. -1.
</event>
<event>
 7    1  0.3505640E-015  0.9000774E+02  0.7816164E-02  0.1186339E+00
        -11   -1    0    0    0    0  0.00000000000E+00  0.00000000000E+00  0.45593999997E+02  0.45594000000E+02  0.51100000000E-03 0.  1.
         11   -1    0    0    0    0 -0.00000000000E+00 -0.00000000000E+00 -0.45593999997E+02  0.45594000000E+02  0.51100000000E-03 0. -1.
    9900012    2    1    2    0    0 -0.71500998311E+00  0.64705980093E+00 -0.68050610722E+00  0.90007739764E+02  0.90000001129E+02 0.  0.
        -12    1    1    2    0    0  0.71500998311E+00 -0.64705980093E+00  0.68050610722E+00  0.11802602357E+01  0.00000000000E+00 0.  1.
         11    1    3    3    0    0  0.21273379569E+01  0.22927957915E+00  0.78800683603E+01  0.81653912051E+01  0.51100000000E-03 0. -1.
        -11    1    3    3    0    0 -0.59094941758E+01  0.34135717469E+02  0.17785523867E+02  0.38942190334E+02  0.51100000000E-03 0.  1.
         12    1    3    3    0    0  0.30671462357E+01 -0.33717937248E+02 -0.26346098334E+02  0.42900158225E+02  0.00000000000E+00 0. -1.
</event>
<event>
 7    1  0.3505640E-015  0.9000803E+02  0.7816164E-02  0.1186338E+00
        -11   -1    0    0    0    0  0.00000000000E+00  0.00000000000E+00  0.45593999997E+02  0.45594000000E+02  0.51100000000E-03 0.  1.
         11   -1    0    0    0    0 -0.00000000000E+00 -0.00000000000E+00 -0.45593999997E+02  0.45594000000E+02  0.51100000000E-03 0. -1.
    9900012    2    1    2    0    0  0.10915606161E+01 -0.19076057964E+00 -0.40551026890E+00  0.90008028494E+02  0.90000293669E+02 0.  0.
        -12    1    1    2    0    0 -0.10915606161E+01  0.19076057964E+00  0.40551026890E+00  0.11799715062E+01  0.00000000000E+00 0.  1.
         11    1    3    3    0    0  0.10523649965E+02 -0.28348988892E+02 -0.27406952713E+02  0.40811192546E+02  0.51100000000E-03 0. -1.
        -11    1    3    3    0    0  0.23133833369E+01  0.73619630095E+01 -0.50520339392E+01  0.92235182550E+01  0.51100000000E-03 0.  1.
        -12    1    3    3    0    0 -0.11745472685E+02  0.20796265302E+02  0.32053476383E+02  0.39973317693E+02  0.00000000000E+00 0.  1.
</event>
<event>
 8    1  0.3505640E-015  0.9000759E+02  0.7816164E-02  0.1186339E+00
        -11   -1    0    0    0    0  0.00000000000E+00  0.00000000000E+00  0.45593999997E+02  0.45594000000E+02  0.51100000000E-03 0.  1.
         11   -1    0    0    0    0 -0.00000000000E+00 -0.00000000000E+00 -0.45593999997E+02  0.45594000000E+02  0.51100000000E-03 0. -1.
    9900012    2    1    2    0    0  0.56270810470E+00 -0.50013360651E+00 -0.90917454998E+00  0.90007588039E+02  0.89999847401E+02 0.  0.
         23    2    3    3    0    0  0.27391481695E+02 -0.21719830209E+01  0.62708022166E+01  0.62184391976E+02  0.55430721313E+02 0.  0.
        -12    1    1    2    0    0 -0.56270810470E+00  0.50013360651E+00  0.90917454998E+00  0.11804119611E+01  0.00000000000E+00 0.  1.
         11    1    4    4    0    0  0.27724067878E+02 -0.20309208138E+02 -0.12034566687E+02  0.36413166170E+02  0.51100000000E-03 0. -1.
        -11    1    4    4    0    0 -0.33258618340E+00  0.18137225117E+02  0.18305368904E+02  0.25771225805E+02  0.51100000000E-03 0.  1.
        -12    1    3    3    0    0 -0.26828773590E+02  0.16718494144E+01 -0.71799767666E+01  0.27823196063E+02  0.00000000000E+00 0.  1.
</event>
<event>
 7    1  0.3505640E-015  0.9000769E+02  0.7816164E-02  0.1186339E+00
        -11   -1    0    0    0    0  0.00000000000E+00  0.00000000000E+00  0.45593999997E+02  0.45594000000E+02  0.51100000000E-03 0. -1.
         11   -1    0    0    0    0 -0.00000000000E+00 -0.00000000000E+00 -0.45593999997E+02  0.45594000000E+02  0.51100000000E-03 0.  1.
    9900012    2    1    2    0    0 -0.23764276354E+00 -0.26439744655E+00  0.11254993389E+01  0.90007691204E+02  0.89999951928E+02 0.  0.
        -12    1    1    2    0    0  0.23764276354E+00  0.26439744655E+00 -0.11254993389E+01  0.11803087963E+01  0.00000000000E+00 0.  1.
         11    1    3    3    0    0 -0.73381431433E+01 -0.51849589735E+01 -0.28601792429E+01  0.94293568132E+01  0.51100000000E-03 0. -1.
        -11    1    3    3    0    0 -0.74377322806E+01  0.40655477531E+02 -0.27250219336E+01  0.41419964505E+02  0.51100000000E-03 0.  1.
         12    1    3    3    0    0  0.14538232660E+02 -0.35734916004E+02  0.67107005154E+01  0.39158369886E+02  0.00000000000E+00 0. -1.
</event>
<event>
 7    1  0.3505640E-015  0.9000786E+02  0.7816164E-02  0.1186339E+00
        -11   -1    0    0    0    0  0.00000000000E+00  0.00000000000E+00  0.45593999997E+02  0.45594000000E+02  0.51100000000E-03 0.  1.
         11   -1    0    0    0    0 -0.00000000000E+00 -0.00000000000E+00 -0.45593999997E+02  0.45594000000E+02  0.51100000000E-03 0. -1.
    9900012    2    1    2    0    0 -0.10078432006E+01 -0.27756136717E+00  0.54766136927E+00  0.90007863904E+02  0.90000126908E+02 0.  0.
        -12    1    1    2    0    0  0.10078432006E+01  0.27756136717E+00 -0.54766136927E+00  0.11801360959E+01  0.00000000000E+00 0.  1.
         11    1    3    3    0    0 -0.19865045275E+02  0.29897480010E+02  0.50415496448E+01  0.36247711070E+02  0.51100000000E-03 0. -1.
        -11    1    3    3    0    0 -0.78682461691E+01  0.39115822018E+01 -0.56209806674E+01  0.10430972966E+02  0.51100000000E-03 0.  1.
        -12    1    3    3    0    0  0.26725448243E+02 -0.34086623579E+02  0.11270923919E+01  0.43329179868E+02  0.00000000000E+00 0.  1.
</event>
<event>
 7    1  0.3505640E-015  0.9000795E+02  0.7816164E-02  0.1186339E+00
        -11   -1    0    0    0    0  0.00000000000E+00  0.00000000000E+00  0.45593999997E+02  0.45594000000E+02  0.51100000000E-03 0.  1.
         11   -1    0    0    0    0 -0.00000000000E+00 -0.00000000000E+00 -0.45593999997E+02  0.45594000000E+02  0.51100000000E-03 0. -1.
    9900012    2    1    2    0    0  0.30952255581E+00  0.57567386779E+00 -0.98250687612E+00  0.90007947299E+02  0.90000211403E+02 0.  0.
        -12    1    1    2    0    0 -0.30952255581E+00 -0.57567386779E+00  0.98250687612E+00  0.11800527006E+01  0.00000000000E+00 0.  1.
         11    1    3    3    0    0  0.12557115276E+02  0.35714228611E+02  0.13599233093E+02  0.40225942006E+02  0.51100000000E-03 0. -1.
        -11    1    3    3    0    0 -0.49873837316E+01  0.41297945222E+01 -0.62268959062E+01  0.89835089007E+01  0.51100000000E-03 0.  1.
        -12    1    3    3    0    0 -0.72602089891E+01 -0.39268349265E+02 -0.83548440627E+01  0.40798496392E+02  0.00000000000E+00 0.  1.
</event>
<event>
 7    1  0.3505640E-015  0.9000772E+02  0.7816164E-02  0.1186339E+00
        -11   -1    0    0    0    0  0.00000000000E+00  0.00000000000E+00  0.45593999997E+02  0.45594000000E+02  0.51100000000E-03 0.  1.
         11   -1    0    0    0    0 -0.00000000000E+00 -0.00000000000E+00 -0.45593999997E+02  0.45594000000E+02  0.51100000000E-03 0. -1.
    9900012    2    1    2    0    0 -0.10301679300E+00  0.15096711425E+00 -0.11660457488E+01  0.90007717738E+02  0.89999978812E+02 0.  0.
        -12    1    1    2    0    0  0.10301679300E+00 -0.15096711425E+00  0.11660457488E+01  0.11802822618E+01  0.00000000000E+00 0.  1.
         11    1    3    3    0    0 -0.11310936379E+02  0.15790663008E+02  0.29910025738E+01  0.19652694896E+02  0.51100000000E-03 0. -1.
        -11    1    3    3    0    0  0.92468200300E+01 -0.12497265905E+02  0.31171328270E+02  0.34832987844E+02  0.51100000000E-03 0.  1.
        -12    1    3    3    0    0  0.19610995562E+01 -0.31424299893E+01 -0.35328376593E+02  0.35522034998E+02  0.00000000000E+00 0.  1.
</event>
<event>
 7    1  0.3505640E-015  0.9000764E+02  0.7816164E-02  0.1186339E+00
        -11   -1    0    0    0    0  0.00000000000E+00  0.00000000000E+00  0.45593999997E+02  0.45594000000E+02  0.51100000000E-03 0.  1.
         11   -1    0    0    0    0 -0.00000000000E+00 -0.00000000000E+00 -0.45593999997E+02  0.45594000000E+02  0.51100000000E-03 0. -1.
    9900012    2    1    2    0    0 -0.10940859957E+01 -0.25236855847E+00 -0.36404347835E+00  0.90007643397E+02  0.89999903490E+02 0.  0.
        -12    1    1    2    0    0  0.10940859957E+01  0.25236855847E+00  0.36404347835E+00  0.11803566027E+01  0.00000000000E+00 0.  1.
         11    1    3    3    0    0 -0.33918071831E+01  0.40240419367E+01 -0.36932149481E+02  0.37305240048E+02  0.51100000000E-03 0. -1.
        -11    1    3    3    0    0 -0.22057914395E+01 -0.22780305812E+01 -0.76132301775E+01  0.82471942623E+01  0.51100000000E-03 0.  1.
        -12    1    3    3    0    0  0.45035126269E+01 -0.19983799140E+01  0.44181336181E+02  0.44455209087E+02  0.00000000000E+00 0.  1.
</event>
<event>
 7    1  0.3505640E-015  0.9000773E+02  0.7816164E-02  0.1186339E+00
        -11   -1    0    0    0    0  0.00000000000E+00  0.00000000000E+00  0.45593999997E+02  0.45594000000E+02  0.51100000000E-03 0. -1.
         11   -1    0    0    0    0 -0.00000000000E+00 -0.00000000000E+00 -0.45593999997E+02  0.45594000000E+02  0.51100000000E-03 0.  1.
    9900012    2    1    2    0    0  0.31735431197E+00 -0.14368414774E+00  0.11276879431E+01  0.90007729272E+02  0.89999990499E+02 0.  0.
        -12    1    1    2    0    0 -0.31735431197E+00  0.14368414774E+00 -0.11276879431E+01  0.11802707277E+01  0.00000000000E+00 0.  1.
         11    1    3    3    0    0  0.73042993569E+01 -0.54335963705E+01 -0.39370339675E+01  0.99185177993E+01  0.51100000000E-03 0. -1.
        -11    1    3    3    0    0  0.27239605318E+02 -0.82376427641E+01 -0.20677526749E+02  0.35176909598E+02  0.51100000000E-03 0.  1.
         12    1    3    3    0    0 -0.34226550363E+02  0.13527554987E+02  0.25742248659E+02  0.44912301875E+02  0.00000000000E+00 0. -1.
</event>
<event>
 7    1  0.3505640E-015  0.9000775E+02  0.7816164E-02  0.1186339E+00
        -11   -1    0    0    0    0  0.00000000000E+00  0.00000000000E+00  0.45593999997E+02  0.45594000000E+02  0.51100000000E-03 0. -1.
         11   -1    0    0    0    0 -0.00000000000E+00 -0.00000000000E+00 -0.45593999997E+02  0.45594000000E+02  0.51100000000E-03 0.  1.
    9900012    2    1    2    0    0 -0.57982527908E+00  0.25516660309E+00  0.99582996444E+00  0.90007752285E+02  0.90000013816E+02 0.  0.
        -12    1    1    2    0    0  0.57982527908E+00 -0.25516660309E+00 -0.99582996444E+00  0.11802477145E+01  0.00000000000E+00 0.  1.
         11    1    3    3    0    0  0.47139466469E+01 -0.21127681658E+02  0.21844593023E+02  0.30753641570E+02  0.51100000000E-03 0. -1.
        -11    1    3    3    0    0 -0.26558793346E+01 -0.12917471250E+02  0.70572017503E+01  0.14957234214E+02  0.51100000000E-03 0.  1.
        -12    1    3    3    0    0 -0.26378925914E+01  0.34300319511E+02 -0.27905964809E+02  0.44296876501E+02  0.00000000000E+00 0.  1.
</event>
<event>
 7    1  0.3505640E-015  0.9000768E+02  0.7816164E-02  0.1186339E+00
        -11   -1    0    0    0    0  0.00000000000E+00  0.00000000000E+00  0.45593999997E+02  0.45594000000E+02  0.51100000000E-03 0.  1.
         11   -1    0    0    0    0 -0.00000000000E+00 -0.00000000000E+00 -0.45593999997E+02  0.45594000000E+02  0.51100000000E-03 0. -1.
    9900012    2    1    2    0    0  0.20571818454E+00  0.11251275118E+01  0.29141401095E+00  0.90007680545E+02  0.89999941128E+02 0.  0.
        -12    1    1    2    0    0 -0.20571818454E+00 -0.11251275118E+01 -0.29141401095E+00  0.11803194547E+01  0.00000000000E+00 0.  1.
         11    1    3    3    0    0 -0.27966014932E+01  0.74907802586E+01  0.50429071665E+01  0.94532365751E+01  0.51100000000E-03 0. -1.
        -11    1    3    3    0    0 -0.13971805497E+02  0.29926840877E+02  0.14539546904E+02  0.36086362772E+02  0.51100000000E-03 0.  1.
         12    1    3    3    0    0  0.16974125174E+02 -0.36292493623E+02 -0.19291040060E+02  0.44468081198E+02  0.00000000000E+00 0. -1.
</event>
<event>
 7    1  0.3505640E-015  0.9000772E+02  0.7816164E-02  0.1186339E+00
        -11   -1    0    0    0    0  0.00000000000E+00  0.00000000000E+00  0.45593999997E+02  0.45594000000E+02  0.51100000000E-03 0.  1.
         11   -1    0    0    0    0 -0.00000000000E+00 -0.00000000000E+00 -0.45593999997E+02  0.45594000000E+02  0.51100000000E-03 0. -1.
    9900012    2    1    2    0    0 -0.53664241840E+00 -0.66473189665E+00 -0.81437662424E+00  0.90007719158E+02  0.89999980251E+02 0.  0.
        -12    1    1    2    0    0  0.53664241840E+00  0.66473189665E+00  0.81437662424E+00  0.11802808419E+01  0.00000000000E+00 0.  1.
         11    1    3    3    0    0  0.24409768146E+01 -0.15240896947E+02 -0.31988774689E+02  0.35517953403E+02  0.51100000000E-03 0. -1.
        -11    1    3    3    0    0 -0.15761354207E+01 -0.34570418414E+01 -0.93606099258E+01  0.10102294769E+02  0.51100000000E-03 0.  1.
        -12    1    3    3    0    0 -0.14014838124E+01  0.18033206892E+02  0.40535007991E+02  0.44387470986E+02  0.00000000000E+00 0.  1.
</event>
<event>
 7    1  0.3505640E-015  0.9000770E+02  0.7816164E-02  0.1186339E+00
        -11   -1    0    0    0    0  0.00000000000E+00  0.00000000000E+00  0.45593999997E+02  0.45594000000E+02  0.51100000000E-03 0.  1.
         11   -1    0    0    0    0 -0.00000000000E+00 -0.00000000000E+00 -0.45593999997E+02  0.45594000000E+02  0.51100000000E-03 0. -1.
    9900012    2    1    2    0    0 -0.64377837659E+00 -0.73539262173E+00 -0.66169917733E+00  0.90007703975E+02  0.89999964867E+02 0.  0.
        -12    1    1    2    0    0  0.64377837659E+00  0.73539262173E+00  0.66169917733E+00  0.11802960254E+01  0.00000000000E+00 0.  1.
         11    1    3    3    0    0  0.71128856876E+01 -0.50344724273E+00  0.75442653113E+01  0.10380873821E+02  0.51100000000E-03 0. -1.
        -11    1    3    3    0    0  0.23210520008E+02  0.83607328134E+01  0.23793829738E+02  0.34275011686E+02  0.51100000000E-03 0.  1.
         12    1    3    3    0    0 -0.30967184072E+02 -0.85926781924E+01 -0.31999794226E+02  0.45351818468E+02  0.00000000000E+00 0. -1.
</event>
<event>
 7    1  0.3505640E-015  0.9000774E+02  0.7816164E-02  0.1186339E+00
        -11   -1    0    0    0    0  0.00000000000E+00  0.00000000000E+00  0.45593999997E+02  0.45594000000E+02  0.51100000000E-03 0.  1.
         11   -1    0    0    0    0 -0.00000000000E+00 -0.00000000000E+00 -0.45593999997E+02  0.45594000000E+02  0.51100000000E-03 0. -1.
    9900012    2    1    2    0    0  0.28416547785E-01 -0.11773176671E+01 -0.78251715637E-01  0.90007742519E+02  0.90000003921E+02 0.  0.
        -12    1    1    2    0    0 -0.28416547785E-01  0.11773176671E+01  0.78251715637E-01  0.11802574806E+01  0.00000000000E+00 0.  1.
         11    1    3    3    0    0 -0.51815091202E+01 -0.49566080803E+01  0.62304739106E+01  0.94992002735E+01  0.51100000000E-03 0. -1.
        -11    1    3    3    0    0  0.20786786544E+02  0.35000142395E+02  0.10114993067E+02  0.41945363838E+02  0.51100000000E-03 0.  1.
         12    1    3    3    0    0 -0.15576860876E+02 -0.31220851982E+02 -0.16423718693E+02  0.38563178408E+02  0.00000000000E+00 0. -1.
</event>
<event>
 7    1  0.3505640E-015  0.9000776E+02  0.7816164E-02  0.1186339E+00
        -11   -1    0    0    0    0  0.00000000000E+00  0.00000000000E+00  0.45593999997E+02  0.45594000000E+02  0.51100000000E-03 0.  1.
         11   -1    0    0    0    0 -0.00000000000E+00 -0.00000000000E+00 -0.45593999997E+02  0.45594000000E+02  0.51100000000E-03 0. -1.
    9900012    2    1    2    0    0 -0.57402844159E-01  0.11695545312E+01  0.14768524717E+00  0.90007761117E+02  0.90000022764E+02 0.  0.
        -12    1    1    2    0    0  0.57402844159E-01 -0.11695545312E+01 -0.14768524717E+00  0.11802388827E+01  0.00000000000E+00 0.  1.
         11    1    3    3    0    0  0.10284261436E+02 -0.25047825864E+02 -0.22590250617E+02  0.35262998128E+02  0.51100000000E-03 0. -1.
        -11    1    3    3    0    0  0.44376995443E+01 -0.66298739723E+01 -0.48835737351E+01  0.93540204630E+01  0.51100000000E-03 0.  1.
        -12    1    3    3    0    0 -0.14779363824E+02  0.32847254368E+02  0.27621509599E+02  0.45390742526E+02  0.00000000000E+00 0.  1.
</event>
<event>
 7    1  0.3505640E-015  0.9000778E+02  0.7816164E-02  0.1186339E+00
        -11   -1    0    0    0    0  0.00000000000E+00  0.00000000000E+00  0.45593999997E+02  0.45594000000E+02  0.51100000000E-03 0. -1.
         11   -1    0    0    0    0 -0.00000000000E+00 -0.00000000000E+00 -0.45593999997E+02  0.45594000000E+02  0.51100000000E-03 0.  1.
    9900012    2    1    2    0    0 -0.11622946717E+01  0.75537780115E-01 -0.19049714604E+00  0.90007777977E+02  0.90000039847E+02 0.  0.
        -12    1    1    2    0    0  0.11622946717E+01 -0.75537780115E-01  0.19049714604E+00  0.11802220226E+01  0.00000000000E+00 0.  1.
         11    1    3    3    0    0 -0.20611641908E+02 -0.36144804314E+02  0.67169106100E+01  0.42147402642E+02  0.51100000000E-03 0. -1.
        -11    1    3    3    0    0  0.89021663924E+01 -0.70841070170E+00 -0.18962428533E+01  0.91294112308E+01  0.51100000000E-03 0.  1.
        -12    1    3    3    0    0  0.10547180844E+02  0.36928752796E+02 -0.50111649027E+01  0.38730964105E+02  0.00000000000E+00 0.  1.
</event>
<event>
 7    1  0.3505640E-015  0.9000744E+02  0.7816164E-02  0.1186340E+00
        -11   -1    0    0    0    0  0.00000000000E+00  0.00000000000E+00  0.45593999997E+02  0.45594000000E+02  0.51100000000E-03 0. -1.
         11   -1    0    0    0    0 -0.00000000000E+00 -0.00000000000E+00 -0.45593999997E+02  0.45594000000E+02  0.51100000000E-03 0.  1.
    9900012    2    1    2    0    0  0.37110923426E-01 -0.11725224219E+01  0.13240069249E+00  0.90007442507E+02  0.89999699948E+02 0.  0.
        -12    1    1    2    0    0 -0.37110923426E-01  0.11725224219E+01 -0.13240069249E+00  0.11805574928E+01  0.00000000000E+00 0.  1.
         11    1    3    3    0    0 -0.24013085934E+00 -0.34698672371E+00 -0.82711531102E+00  0.92853789092E+00  0.51100000000E-03 0. -1.
        -11    1    3    3    0    0 -0.24038154590E+02 -0.19614238091E+02 -0.31616802257E+02  0.44296426461E+02  0.51100000000E-03 0.  1.
         12    1    3    3    0    0  0.24315396373E+02  0.18788702393E+02  0.32576318260E+02  0.44782478156E+02  0.00000000000E+00 0. -1.
</event>
<event>
 7    1  0.3505640E-015  0.9000796E+02  0.7816164E-02  0.1186339E+00
        -11   -1    0    0    0    0  0.00000000000E+00  0.00000000000E+00  0.45593999997E+02  0.45594000000E+02  0.51100000000E-03 0. -1.
         11   -1    0    0    0    0 -0.00000000000E+00 -0.00000000000E+00 -0.45593999997E+02  0.45594000000E+02  0.51100000000E-03 0.  1.
    9900012    2    1    2    0    0 -0.11006046292E+00  0.11446131822E+01  0.26504106292E+00  0.90007957879E+02  0.90000222123E+02 0.  0.
        -12    1    1    2    0    0  0.11006046292E+00 -0.11446131822E+01 -0.26504106292E+00  0.11800421210E+01  0.00000000000E+00 0.  1.
         11    1    3    3    0    0 -0.14348732793E+02  0.25832992075E+02  0.22523377346E+02  0.37155512911E+02  0.51100000000E-03 0. -1.
        -11    1    3    3    0    0 -0.26429256273E+01 -0.50721019270E+01  0.99851820030E+01  0.11507177487E+02  0.51100000000E-03 0.  1.
        -12    1    3    3    0    0  0.16881597957E+02 -0.19616276966E+02 -0.32243518286E+02  0.41345267481E+02  0.00000000000E+00 0.  1.
</event>
<event>
 7    1  0.3505640E-015  0.9000769E+02  0.7816164E-02  0.1186339E+00
        -11   -1    0    0    0    0  0.00000000000E+00  0.00000000000E+00  0.45593999997E+02  0.45594000000E+02  0.51100000000E-03 0. -1.
         11   -1    0    0    0    0 -0.00000000000E+00 -0.00000000000E+00 -0.45593999997E+02  0.45594000000E+02  0.51100000000E-03 0.  1.
    9900012    2    1    2    0    0  0.10291703857E+01 -0.36209105431E+00 -0.45036031940E+00  0.90007692400E+02  0.89999953139E+02 0.  0.
        -12    1    1    2    0    0 -0.10291703857E+01  0.36209105431E+00  0.45036031940E+00  0.11803076004E+01  0.00000000000E+00 0.  1.
         11    1    3    3    0    0  0.27237951585E+01 -0.75200791440E+01  0.36596776631E+01  0.87956745765E+01  0.51100000000E-03 0. -1.
        -11    1    3    3    0    0 -0.47740211665E-01 -0.21586845368E+02 -0.33638937270E+02  0.39969641892E+02  0.51100000000E-03 0.  1.
         12    1    3    3    0    0 -0.16468845612E+01  0.28744833458E+02  0.29528899288E+02  0.41242375931E+02  0.00000000000E+00 0. -1.
</event>
<event>
 7    1  0.3505640E-015  0.9000774E+02  0.7816164E-02  0.1186339E+00
        -11   -1    0    0    0    0  0.00000000000E+00  0.00000000000E+00  0.45593999997E+02  0.45594000000E+02  0.51100000000E-03 0.  1.
         11   -1    0    0    0    0 -0.00000000000E+00 -0.00000000000E+00 -0.45593999997E+02  0.45594000000E+02  0.51100000000E-03 0. -1.
    9900012    2    1    2    0    0  0.73595145095E+00 -0.22309179427E+00 -0.89532674492E+00  0.90007743898E+02  0.90000005317E+02 0.  0.
        -12    1    1    2    0    0 -0.73595145095E+00  0.22309179427E+00  0.89532674492E+00  0.11802561023E+01  0.00000000000E+00 0.  1.
         11    1    3    3    0    0 -0.19938800051E+02 -0.82264527348E+01 -0.29345684369E+02  0.36419767481E+02  0.51100000000E-03 0. -1.
        -11    1    3    3    0    0  0.12361800481E+01 -0.39678187786E+00 -0.97901023323E+01  0.98758129239E+01  0.51100000000E-03 0.  1.
        -12    1    3    3    0    0  0.19438571453E+02  0.84001428184E+01  0.38240459956E+02  0.43712163492E+02  0.00000000000E+00 0.  1.
</event>
<event>
 7    1  0.3505640E-015  0.9000773E+02  0.7816164E-02  0.1186339E+00
        -11   -1    0    0    0    0  0.00000000000E+00  0.00000000000E+00  0.45593999997E+02  0.45594000000E+02  0.51100000000E-03 0. -1.
         11   -1    0    0    0    0 -0.00000000000E+00 -0.00000000000E+00 -0.45593999997E+02  0.45594000000E+02  0.51100000000E-03 0.  1.
    9900012    2    1    2    0    0 -0.28020035282E+00 -0.84188254825E+00  0.77829924943E+00  0.90007733850E+02  0.89999995137E+02 0.  0.
        -12    1    1    2    0    0  0.28020035282E+00  0.84188254825E+00 -0.77829924943E+00  0.11802661498E+01  0.00000000000E+00 0.  1.
         11    1    3    3    0    0  0.25292110915E+01 -0.27145476871E+01  0.10603909378E+02  0.11234258865E+02  0.51100000000E-03 0. -1.
        -11    1    3    3    0    0  0.35612505415E+02 -0.18578648450E+01 -0.17006725650E+02  0.39508618317E+02  0.51100000000E-03 0.  1.
         12    1    3    3    0    0 -0.38421916859E+02  0.37305299838E+01  0.71811155214E+01  0.39264856669E+02  0.00000000000E+00 0. -1.
</event>
<event>
 7    1  0.3505640E-015  0.9000778E+02  0.7816164E-02  0.1186339E+00
        -11   -1    0    0    0    0  0.00000000000E+00  0.00000000000E+00  0.45593999997E+02  0.45594000000E+02  0.51100000000E-03 0.  1.
         11   -1    0    0    0    0 -0.00000000000E+00 -0.00000000000E+00 -0.45593999997E+02  0.45594000000E+02  0.51100000000E-03 0. -1.
    9900012    2    1    2    0    0 -0.68054878853E+00  0.60275914522E+00  0.75263190417E+00  0.90007779671E+02  0.90000041563E+02 0.  0.
        -12    1    1    2    0    0  0.68054878853E+00 -0.60275914522E+00 -0.75263190417E+00  0.11802203285E+01  0.00000000000E+00 0.  1.
         11    1    3    3    0    0  0.28445488926E+02 -0.18733175968E+02  0.16831008497E+02  0.37991585508E+02  0.51100000000E-03 0. -1.
        -11    1    3    3    0    0  0.25023628357E+01 -0.67847917719E+01  0.15047602174E+01  0.73864418175E+01  0.51100000000E-03 0.  1.
        -12    1    3    3    0    0 -0.31628400550E+02  0.26120726886E+02 -0.17583136811E+02  0.44629752346E+02  0.00000000000E+00 0.  1.
</event>
<event>
 7    1  0.3505640E-015  0.9000780E+02  0.7816164E-02  0.1186339E+00
        -11   -1    0    0    0    0  0.00000000000E+00  0.00000000000E+00  0.45593999997E+02  0.45594000000E+02  0.51100000000E-03 0. -1.
         11   -1    0    0    0    0 -0.00000000000E+00 -0.00000000000E+00 -0.45593999997E+02  0.45594000000E+02  0.51100000000E-03 0.  1.
    9900012    2    1    2    0    0  0.10779946646E+01 -0.30769536393E+00  0.36894738426E+00  0.90007800396E+02  0.90000062561E+02 0.  0.
        -12    1    1    2    0    0 -0.10779946646E+01  0.30769536393E+00 -0.36894738426E+00  0.11801996044E+01  0.00000000000E+00 0.  1.
         11    1    3    3    0    0  0.83488607334E+01 -0.30386025463E+00  0.11124629212E+01  0.84281303153E+01  0.51100000000E-03 0. -1.
        -11    1    3    3    0    0 -0.20584016516E+02  0.26450212034E+02 -0.26189001898E+02  0.42534448077E+02  0.51100000000E-03 0.  1.
         12    1    3    3    0    0  0.13313150447E+02 -0.26454047144E+02  0.25445486361E+02  0.39045222003E+02  0.00000000000E+00 0. -1.
</event>
<event>
 7    1  0.3505640E-015  0.9000796E+02  0.7816164E-02  0.1186339E+00
        -11   -1    0    0    0    0  0.00000000000E+00  0.00000000000E+00  0.45593999997E+02  0.45594000000E+02  0.51100000000E-03 0.  1.
         11   -1    0    0    0    0 -0.00000000000E+00 -0.00000000000E+00 -0.45593999997E+02  0.45594000000E+02  0.51100000000E-03 0. -1.
    9900012    2    1    2    0    0 -0.69606395005E+00  0.35075573298E+00 -0.88598138329E+00  0.90007958637E+02  0.90000222891E+02 0.  0.
        -12    1    1    2    0    0  0.69606395005E+00 -0.35075573298E+00  0.88598138329E+00  0.11800413630E+01  0.00000000000E+00 0.  1.
         11    1    3    3    0    0  0.92957793669E+01  0.23205618448E+02  0.23469460610E+02  0.34288887751E+02  0.51100000000E-03 0. -1.
        -11    1    3    3    0    0  0.82867018652E+01  0.85934583364E+01  0.10017520246E-01  0.11938050703E+02  0.51100000000E-03 0.  1.
        -12    1    3    3    0    0 -0.18278545182E+02 -0.31448321052E+02 -0.24365459514E+02  0.43781020183E+02  0.00000000000E+00 0.  1.
</event>
<event>
 7    1  0.3505640E-015  0.9000760E+02  0.7816164E-02  0.1186339E+00
        -11   -1    0    0    0    0  0.00000000000E+00  0.00000000000E+00  0.45593999997E+02  0.45594000000E+02  0.51100000000E-03 0.  1.
         11   -1    0    0    0    0 -0.00000000000E+00 -0.00000000000E+00 -0.45593999997E+02  0.45594000000E+02  0.51100000000E-03 0. -1.
    9900012    2    1    2    0    0  0.32050195946E+00  0.98195963519E+00 -0.57129541369E+00  0.90007599779E+02  0.89999859296E+02 0.  0.
        -12    1    1    2    0    0 -0.32050195946E+00 -0.98195963519E+00  0.57129541369E+00  0.11804002206E+01  0.00000000000E+00 0.  1.
         11    1    3    3    0    0 -0.16355713562E+00 -0.10198428480E+02 -0.29450076632E+01  0.10616391326E+02  0.51100000000E-03 0. -1.
        -11    1    3    3    0    0  0.74404017636E+01 -0.28507787160E+02 -0.17704071481E+02  0.34372774901E+02  0.51100000000E-03 0.  1.
         12    1    3    3    0    0 -0.69563426686E+01  0.39688175275E+02  0.20077783730E+02  0.45018433552E+02  0.00000000000E+00 0. -1.
</event>
<event>
 7    1  0.3505640E-015  0.9000774E+02  0.7816164E-02  0.1186339E+00
        -11   -1    0    0    0    0  0.00000000000E+00  0.00000000000E+00  0.45593999997E+02  0.45594000000E+02  0.51100000000E-03 0.  1.
         11   -1    0    0    0    0 -0.00000000000E+00 -0.00000000000E+00 -0.45593999997E+02  0.45594000000E+02  0.51100000000E-03 0. -1.
    9900012    2    1    2    0    0 -0.46902720704E+00  0.82625391058E+00  0.70024475845E+00  0.90007735298E+02  0.89999996604E+02 0.  0.
        -12    1    1    2    0    0  0.46902720704E+00 -0.82625391058E+00 -0.70024475845E+00  0.11802647023E+01  0.00000000000E+00 0.  1.
         11    1    3    3    0    0 -0.75645124816E+01  0.10966564198E+01  0.51540449255E+01  0.92189307267E+01  0.51100000000E-03 0. -1.
        -11    1    3    3    0    0 -0.74640542840E+01 -0.33868905932E+02  0.16707832876E+02  0.38496318980E+02  0.51100000000E-03 0.  1.
         12    1    3    3    0    0  0.14559539559E+02  0.33598503423E+02 -0.21161633043E+02  0.42292485591E+02  0.00000000000E+00 0. -1.
</event>
<event>
 7    1  0.3505640E-015  0.9000775E+02  0.7816164E-02  0.1186339E+00
        -11   -1    0    0    0    0  0.00000000000E+00  0.00000000000E+00  0.45593999997E+02  0.45594000000E+02  0.51100000000E-03 0. -1.
         11   -1    0    0    0    0 -0.00000000000E+00 -0.00000000000E+00 -0.45593999997E+02  0.45594000000E+02  0.51100000000E-03 0.  1.
    9900012    2    1    2    0    0  0.10166670320E+00 -0.10096038533E+01  0.60278275394E+00  0.90007752946E+02  0.90000014485E+02 0.  0.
        -12    1    1    2    0    0 -0.10166670320E+00  0.10096038533E+01 -0.60278275394E+00  0.11802470536E+01  0.00000000000E+00 0.  1.
         11    1    3    3    0    0  0.27782219077E+02 -0.31481456813E+01  0.29911730108E+02  0.40944769097E+02  0.51100000000E-03 0. -1.
        -11    1    3    3    0    0 -0.53894882587E+01 -0.82008167504E+01  0.12030994519E+01  0.98867298747E+01  0.51100000000E-03 0.  1.
        -12    1    3    3    0    0 -0.22291064115E+02  0.10339358578E+02 -0.30512046806E+02  0.39176253975E+02  0.00000000000E+00 0.  1.
</event>
<event>
 7    1  0.3505640E-015  0.9000775E+02  0.7816164E-02  0.1186339E+00
        -11   -1    0    0    0    0  0.00000000000E+00  0.00000000000E+00  0.45593999997E+02  0.45594000000E+02  0.51100000000E-03 0. -1.
         11   -1    0    0    0    0 -0.00000000000E+00 -0.00000000000E+00 -0.45593999997E+02  0.45594000000E+02  0.51100000000E-03 0.  1.
    9900012    2    1    2    0    0  0.67725487576E-01 -0.37013081541E+00  0.11186634339E+01  0.90007749416E+02  0.90000010909E+02 0.  0.
        -12    1    1    2    0    0 -0.67725487576E-01  0.37013081541E+00 -0.11186634339E+01  0.11802505838E+01  0.00000000000E+00 0.  1.
         11    1    3    3    0    0  0.41208161799E+00  0.15878152820E+02  0.25718624181E+01  0.16090370561E+02  0.51100000000E-03 0. -1.
        -11    1    3    3    0    0 -0.10409978151E+01 -0.14432512661E+02 -0.36268137942E+02  0.39048161650E+02  0.51100000000E-03 0.  1.
         12    1    3    3    0    0  0.69664168467E+00 -0.18157709749E+01  0.34814938958E+02  0.34869217205E+02  0.00000000000E+00 0. -1.
</event>
<event>
 7    1  0.3505640E-015  0.9000782E+02  0.7816164E-02  0.1186339E+00
        -11   -1    0    0    0    0  0.00000000000E+00  0.00000000000E+00  0.45593999997E+02  0.45594000000E+02  0.51100000000E-03 0.  1.
         11   -1    0    0    0    0 -0.00000000000E+00 -0.00000000000E+00 -0.45593999997E+02  0.45594000000E+02  0.51100000000E-03 0. -1.
    9900012    2    1    2    0    0 -0.48886016377E-01 -0.23045854170E+00 -0.11564280471E+01  0.90007819162E+02  0.90000081575E+02 0.  0.
        -12    1    1    2    0    0  0.48886016377E-01  0.23045854170E+00  0.11564280471E+01  0.11801808379E+01  0.00000000000E+00 0.  1.
         11    1    3    3    0    0 -0.65177271616E+01  0.49495412084E+01 -0.57919349210E+01  0.10026227402E+02  0.51100000000E-03 0. -1.
        -11    1    3    3    0    0 -0.40496214525E+01  0.23304003989E+02  0.31532369111E+02  0.39417842887E+02  0.51100000000E-03 0.  1.
         12    1    3    3    0    0  0.10518462598E+02 -0.28484003739E+02 -0.26896862237E+02  0.40563748873E+02  0.00000000000E+00 0. -1.
</event>
<event>
 7    1  0.3505640E-015  0.9000776E+02  0.7816164E-02  0.1186339E+00
        -11   -1    0    0    0    0  0.00000000000E+00  0.00000000000E+00  0.45593999997E+02  0.45594000000E+02  0.51100000000E-03 0.  1.
         11   -1    0    0    0    0 -0.00000000000E+00 -0.00000000000E+00 -0.45593999997E+02  0.45594000000E+02  0.51100000000E-03 0. -1.
    9900012    2    1    2    0    0 -0.73546380336E-01 -0.11456068266E+01 -0.27410265200E+00  0.90007764288E+02  0.90000025977E+02 0.  0.
        -12    1    1    2    0    0  0.73546380336E-01  0.11456068266E+01  0.27410265200E+00  0.11802357116E+01  0.00000000000E+00 0.  1.
         11    1    3    3    0    0  0.41861182477E+02  0.26005079185E+01  0.17459322816E+00  0.41942242702E+02  0.51100000000E-03 0. -1.
        -11    1    3    3    0    0 -0.32934446145E+01  0.17276611267E+01 -0.75326681037E+01  0.84007546934E+01  0.51100000000E-03 0.  1.
        -12    1    3    3    0    0 -0.38641284243E+02 -0.54737758718E+01  0.70839722235E+01  0.39664766893E+02  0.00000000000E+00 0.  1.
</event>
<event>
 7    1  0.4201828E-015  0.9000770E+02  0.7816164E-02  0.1186339E+00
        -11   -1    0    0    0    0  0.00000000000E+00  0.00000000000E+00  0.45593999997E+02  0.45594000000E+02  0.51100000000E-03 0.  1.
         11   -1    0    0    0    0 -0.00000000000E+00 -0.00000000000E+00 -0.45593999997E+02  0.45594000000E+02  0.51100000000E-03 0. -1.
    9900012    2    1    2    0    0 -0.77642090319E-01 -0.70843781710E+00 -0.94085322320E+00  0.90007696131E+02  0.89999956920E+02 0.  0.
        -12    1    1    2    0    0  0.77642090319E-01  0.70843781710E+00  0.94085322320E+00  0.11803038687E+01  0.00000000000E+00 0.  1.
         11    1    3    3    0    0  0.93904596227E+01  0.23175998560E+01 -0.11432669819E+00  0.96729040042E+01  0.51100000000E-03 0. -1.
        -11    1    3    3    0    0  0.17334212210E+02 -0.22319037984E+02  0.25528851274E+02  0.38083285272E+02  0.51100000000E-03 0.  1.
         12    1    3    3    0    0 -0.26802313923E+02  0.19293000311E+02 -0.26355377799E+02  0.42251506855E+02  0.00000000000E+00 0. -1.
</event>
<event>
 7    1  0.3505640E-015  0.9000749E+02  0.7816164E-02  0.1186340E+00
        -11   -1    0    0    0    0  0.00000000000E+00  0.00000000000E+00  0.45593999997E+02  0.45594000000E+02  0.51100000000E-03 0. -1.
         11   -1    0    0    0    0 -0.00000000000E+00 -0.00000000000E+00 -0.45593999997E+02  0.45594000000E+02  0.51100000000E-03 0.  1.
    9900012    2    1    2    0    0 -0.95644197624E+00 -0.69183907164E+00 -0.13372640775E-01  0.90007491049E+02  0.89999749131E+02 0.  0.
        -12    1    1    2    0    0  0.95644197624E+00  0.69183907164E+00  0.13372640775E-01  0.11805089506E+01  0.00000000000E+00 0.  1.
         11    1    3    3    0    0 -0.25406515153E+01 -0.56030941414E+00  0.98771713590E+01  0.10214077104E+02  0.51100000000E-03 0. -1.
        -11    1    3    3    0    0  0.35481819689E+02 -0.11226770728E+02  0.10552757032E+02  0.38682820355E+02  0.51100000000E-03 0.  1.
         12    1    3    3    0    0 -0.33897610150E+02  0.11095241070E+02 -0.20443301032E+02  0.41110593590E+02  0.00000000000E+00 0. -1.
</event>
<event>
 7    1  0.3505640E-015  0.9000781E+02  0.7816164E-02  0.1186339E+00
        -11   -1    0    0    0    0  0.00000000000E+00  0.00000000000E+00  0.45593999997E+02  0.45594000000E+02  0.51100000000E-03 0.  1.
         11   -1    0    0    0    0 -0.00000000000E+00 -0.00000000000E+00 -0.45593999997E+02  0.45594000000E+02  0.51100000000E-03 0. -1.
    9900012    2    1    2    0    0  0.86364873413E+00 -0.19112367645E+00 -0.78130235804E+00  0.90007809011E+02  0.90000071290E+02 0.  0.
        -12    1    1    2    0    0 -0.86364873413E+00  0.19112367645E+00  0.78130235804E+00  0.11801909889E+01  0.00000000000E+00 0.  1.
         11    1    3    3    0    0 -0.30059584781E+01 -0.97584614530E+00  0.94271470174E+01  0.99427945378E+01  0.51100000000E-03 0. -1.
        -11    1    3    3    0    0  0.32434591394E+01 -0.15300745714E+02  0.31603071574E+02  0.35261692809E+02  0.51100000000E-03 0.  1.
         12    1    3    3    0    0  0.62614807287E+00  0.16085468183E+02 -0.41811520949E+02  0.44803321664E+02  0.00000000000E+00 0. -1.
</event>
<event>
 7    1  0.3505640E-015  0.9000782E+02  0.7816164E-02  0.1186339E+00
        -11   -1    0    0    0    0  0.00000000000E+00  0.00000000000E+00  0.45593999997E+02  0.45594000000E+02  0.51100000000E-03 0. -1.
         11   -1    0    0    0    0 -0.00000000000E+00 -0.00000000000E+00 -0.45593999997E+02  0.45594000000E+02  0.51100000000E-03 0.  1.
    9900012    2    1    2    0    0 -0.36685429011E-01 -0.10870665509E+01  0.45800035657E+00  0.90007820423E+02  0.90000082853E+02 0.  0.
        -12    1    1    2    0    0  0.36685429011E-01  0.10870665509E+01 -0.45800035657E+00  0.11801795768E+01  0.00000000000E+00 0.  1.
         11    1    3    3    0    0 -0.50450628277E+01  0.35535907885E+01 -0.84389666136E+01  0.10454512145E+02  0.51100000000E-03 0. -1.
        -11    1    3    3    0    0 -0.23865136410E+01  0.63177391775E+01 -0.34000622042E+02  0.34664846389E+02  0.51100000000E-03 0.  1.
         12    1    3    3    0    0  0.73948910397E+01 -0.10958396517E+02  0.42897589012E+02  0.44888461889E+02  0.00000000000E+00 0. -1.
</event>
<event>
 7    1  0.3505640E-015  0.9000775E+02  0.7816164E-02  0.1186339E+00
        -11   -1    0    0    0    0  0.00000000000E+00  0.00000000000E+00  0.45593999997E+02  0.45594000000E+02  0.51100000000E-03 0. -1.
         11   -1    0    0    0    0 -0.00000000000E+00 -0.00000000000E+00 -0.45593999997E+02  0.45594000000E+02  0.51100000000E-03 0.  1.
    9900012    2    1    2    0    0 -0.52148193742E+00 -0.29794267822E+00  0.10160121446E+01  0.90007748362E+02  0.90000009841E+02 0.  0.
        -12    1    1    2    0    0  0.52148193742E+00  0.29794267822E+00 -0.10160121446E+01  0.11802516378E+01  0.00000000000E+00 0.  1.
         11    1    3    3    0    0  0.10257024903E+02 -0.17055158210E+02  0.39026608276E+02  0.43808231364E+02  0.51100000000E-03 0. -1.
        -11    1    3    3    0    0  0.89286581334E+00  0.89304214389E+01 -0.48892092085E+01  0.10220274134E+02  0.51100000000E-03 0.  1.
        -12    1    3    3    0    0 -0.11671372654E+02  0.78267940930E+01 -0.33121386923E+02  0.35979242864E+02  0.00000000000E+00 0.  1.
</event>
<event>
 7    1  0.3505640E-015  0.9000767E+02  0.7816164E-02  0.1186339E+00
        -11   -1    0    0    0    0  0.00000000000E+00  0.00000000000E+00  0.45593999997E+02  0.45594000000E+02  0.51100000000E-03 0. -1.
         11   -1    0    0    0    0 -0.00000000000E+00 -0.00000000000E+00 -0.45593999997E+02  0.45594000000E+02  0.51100000000E-03 0.  1.
    9900012    2    1    2    0    0  0.27135953555E+00 -0.88584342663E+00  0.73131075173E+00  0.90007673778E+02  0.89999934272E+02 0.  0.
        -12    1    1    2    0    0 -0.27135953555E+00  0.88584342663E+00 -0.73131075173E+00  0.11803262217E+01  0.00000000000E+00 0.  1.
         11    1    3    3    0    0  0.14970158358E+02  0.35474333204E+01  0.37637824844E+02  0.40660740077E+02  0.51100000000E-03 0. -1.
        -11    1    3    3    0    0  0.66540190581E+01 -0.72619661705E+01 -0.55510093463E+01  0.11306008461E+02  0.51100000000E-03 0.  1.
        -12    1    3    3    0    0 -0.21352817881E+02  0.28286894234E+01 -0.31355504746E+02  0.38040925240E+02  0.00000000000E+00 0.  1.
</event>
<event>
 7    1  0.3505640E-015  0.9000776E+02  0.7816164E-02  0.1186339E+00
        -11   -1    0    0    0    0  0.00000000000E+00  0.00000000000E+00  0.45593999997E+02  0.45594000000E+02  0.51100000000E-03 0. -1.
         11   -1    0    0    0    0 -0.00000000000E+00 -0.00000000000E+00 -0.45593999997E+02  0.45594000000E+02  0.51100000000E-03 0.  1.
    9900012    2    1    2    0    0  0.67898357773E+00 -0.87592970120E+00  0.40581963109E+00  0.90007762264E+02  0.90000023926E+02 0.  0.
        -12    1    1    2    0    0 -0.67898357773E+00  0.87592970120E+00 -0.40581963109E+00  0.11802377359E+01  0.00000000000E+00 0.  1.
         11    1    3    3    0    0  0.12283671627E+02  0.10978763265E+02  0.41091060727E+02  0.44270725128E+02  0.51100000000E-03 0. -1.
        -11    1    3    3    0    0  0.64830437479E+00  0.16897891963E+01 -0.88624054981E+01  0.90453257302E+01  0.51100000000E-03 0.  1.
        -12    1    3    3    0    0 -0.12252992424E+02 -0.13544482162E+02 -0.31822835598E+02  0.36691711406E+02  0.00000000000E+00 0.  1.
</event>
<event>
 7    1  0.3505640E-015  0.9000774E+02  0.7816164E-02  0.1186339E+00
        -11   -1    0    0    0    0  0.00000000000E+00  0.00000000000E+00  0.45593999997E+02  0.45594000000E+02  0.51100000000E-03 0. -1.
         11   -1    0    0    0    0 -0.00000000000E+00 -0.00000000000E+00 -0.45593999997E+02  0.45594000000E+02  0.51100000000E-03 0.  1.
    9900012    2    1    2    0    0 -0.81462553593E+00  0.31723355031E+00  0.79294809732E+00  0.90007737921E+02  0.89999999262E+02 0.  0.
        -12    1    1    2    0    0  0.81462553593E+00 -0.31723355031E+00 -0.79294809732E+00  0.11802620786E+01  0.00000000000E+00 0.  1.
         11    1    3    3    0    0 -0.13249846227E+02  0.27885616522E+02  0.16956596119E+02  0.35223460733E+02  0.51100000000E-03 0. -1.
        -11    1    3    3    0    0 -0.19357963499E+01  0.93320606326E+01  0.40120370094E+01  0.10340749701E+02  0.51100000000E-03 0.  1.
        -12    1    3    3    0    0  0.14371017041E+02 -0.36900443604E+02 -0.20175685031E+02  0.44443527487E+02  0.00000000000E+00 0.  1.
</event>
<event>
 7    1  0.3505640E-015  0.9000760E+02  0.7816164E-02  0.1186339E+00
        -11   -1    0    0    0    0  0.00000000000E+00  0.00000000000E+00  0.45593999997E+02  0.45594000000E+02  0.51100000000E-03 0.  1.
         11   -1    0    0    0    0 -0.00000000000E+00 -0.00000000000E+00 -0.45593999997E+02  0.45594000000E+02  0.51100000000E-03 0. -1.
    9900012    2    1    2    0    0  0.42440335975E+00  0.36442688724E+00 -0.10394320277E+01  0.90007600022E+02  0.89999859542E+02 0.  0.
        -12    1    1    2    0    0 -0.42440335975E+00 -0.36442688724E+00  0.10394320277E+01  0.11803999781E+01  0.00000000000E+00 0.  1.
         11    1    3    3    0    0  0.26958658065E+01 -0.55361494761E+01  0.94908014180E+00  0.62303608920E+01  0.51100000000E-03 0. -1.
        -11    1    3    3    0    0  0.96076278320E+01 -0.28333823940E+02  0.24680512706E+02  0.38784530412E+02  0.51100000000E-03 0.  1.
         12    1    3    3    0    0 -0.11879090279E+02  0.34234400303E+02 -0.26669024875E+02  0.44992708718E+02  0.00000000000E+00 0. -1.
</event>
<event>
 7    1  0.3505640E-015  0.9000776E+02  0.7816164E-02  0.1186339E+00
        -11   -1    0    0    0    0  0.00000000000E+00  0.00000000000E+00  0.45593999997E+02  0.45594000000E+02  0.51100000000E-03 0.  1.
         11   -1    0    0    0    0 -0.00000000000E+00 -0.00000000000E+00 -0.45593999997E+02  0.45594000000E+02  0.51100000000E-03 0. -1.
    9900012    2    1    2    0    0  0.69751584024E+00 -0.10082643733E+00 -0.94671910913E+00  0.90007757911E+02  0.90000019515E+02 0.  0.
        -12    1    1    2    0    0 -0.69751584024E+00  0.10082643733E+00  0.94671910913E+00  0.11802420893E+01  0.00000000000E+00 0.  1.
         11    1    3    3    0    0  0.16107522812E+02 -0.20766615190E+02  0.29624147783E+02  0.39601701097E+02  0.51100000000E-03 0. -1.
        -11    1    3    3    0    0 -0.16309852748E+02 -0.13112391480E+01 -0.59987199188E+01  0.17427429119E+02  0.51100000000E-03 0.  1.
        -12    1    3    3    0    0  0.89984577590E+00  0.21977027901E+02 -0.24572146974E+02  0.32978627695E+02  0.00000000000E+00 0.  1.
</event>
<event>
 7    1  0.3505640E-015  0.9000776E+02  0.7816164E-02  0.1186339E+00
        -11   -1    0    0    0    0  0.00000000000E+00  0.00000000000E+00  0.45593999997E+02  0.45594000000E+02  0.51100000000E-03 0.  1.
         11   -1    0    0    0    0 -0.00000000000E+00 -0.00000000000E+00 -0.45593999997E+02  0.45594000000E+02  0.51100000000E-03 0. -1.
    9900012    2    1    2    0    0  0.85249784691E-01  0.11696268598E+01 -0.13295533529E+00  0.90007757805E+02  0.90000019408E+02 0.  0.
        -12    1    1    2    0    0 -0.85249784691E-01 -0.11696268598E+01  0.13295533529E+00  0.11802421947E+01  0.00000000000E+00 0.  1.
         11    1    3    3    0    0 -0.11225989671E+02 -0.17952445535E+02 -0.23153632335E+02  0.31375210522E+02  0.51100000000E-03 0. -1.
        -11    1    3    3    0    0 -0.63746133271E+01 -0.72424911011E+01 -0.92482516086E+01  0.13364861784E+02  0.51100000000E-03 0.  1.
        -12    1    3    3    0    0  0.17685852783E+02  0.26364563496E+02  0.32268928608E+02  0.45267685499E+02  0.00000000000E+00 0.  1.
</event>
<event>
 7    1  0.3505640E-015  0.9000773E+02  0.7816164E-02  0.1186339E+00
        -11   -1    0    0    0    0  0.00000000000E+00  0.00000000000E+00  0.45593999997E+02  0.45594000000E+02  0.51100000000E-03 0.  1.
         11   -1    0    0    0    0 -0.00000000000E+00 -0.00000000000E+00 -0.45593999997E+02  0.45594000000E+02  0.51100000000E-03 0. -1.
    9900012    2    1    2    0    0  0.49369234755E+00 -0.25104329422E+00 -0.10422540232E+01  0.90007725321E+02  0.89999986495E+02 0.  0.
        -12    1    1    2    0    0 -0.49369234755E+00  0.25104329422E+00  0.10422540232E+01  0.11802746792E+01  0.00000000000E+00 0.  1.
         11    1    3    3    0    0  0.29180046054E+02  0.49128546277E+01 -0.16053393891E+02  0.33664858294E+02  0.51100000000E-03 0. -1.
        -11    1    3    3    0    0 -0.32565186471E+01 -0.28107697283E+01 -0.15770296337E+02  0.16346485462E+02  0.51100000000E-03 0.  1.
        -12    1    3    3    0    0 -0.25429835059E+02 -0.23531281936E+01  0.30781436204E+02  0.39996381564E+02  0.00000000000E+00 0.  1.
</event>
<event>
 7    1  0.3505640E-015  0.9000770E+02  0.7816164E-02  0.1186339E+00
        -11   -1    0    0    0    0  0.00000000000E+00  0.00000000000E+00  0.45593999997E+02  0.45594000000E+02  0.51100000000E-03 0. -1.
         11   -1    0    0    0    0 -0.00000000000E+00 -0.00000000000E+00 -0.45593999997E+02  0.45594000000E+02  0.51100000000E-03 0.  1.
    9900012    2    1    2    0    0  0.86442480421E+00 -0.80281606981E+00  0.36819280655E-01  0.90007703620E+02  0.89999964508E+02 0.  0.
        -12    1    1    2    0    0 -0.86442480421E+00  0.80281606981E+00 -0.36819280655E-01  0.11802963795E+01  0.00000000000E+00 0.  1.
         11    1    3    3    0    0 -0.47310492977E+00 -0.30659268113E+01  0.11796236841E+02  0.12197333288E+02  0.51100000000E-03 0. -1.
        -11    1    3    3    0    0  0.17354382306E+02  0.32065586296E+02  0.97203601442E+01  0.37734093488E+02  0.51100000000E-03 0.  1.
         12    1    3    3    0    0 -0.16016852572E+02 -0.29802475554E+02 -0.21479777704E+02  0.40076276845E+02  0.00000000000E+00 0. -1.
</event>
<event>
 7    1  0.3505640E-015  0.9000772E+02  0.7816164E-02  0.1186339E+00
        -11   -1    0    0    0    0  0.00000000000E+00  0.00000000000E+00  0.45593999997E+02  0.45594000000E+02  0.51100000000E-03 0.  1.
         11   -1    0    0    0    0 -0.00000000000E+00 -0.00000000000E+00 -0.45593999997E+02  0.45594000000E+02  0.51100000000E-03 0. -1.
    9900012    2    1    2    0    0  0.12964866904E+00  0.66766177023E+00 -0.96460822810E+00  0.90007724587E+02  0.89999985752E+02 0.  0.
        -12    1    1    2    0    0 -0.12964866904E+00 -0.66766177023E+00  0.96460822810E+00  0.11802754130E+01  0.00000000000E+00 0.  1.
         11    1    3    3    0    0  0.94518075362E+01 -0.35826715849E+02 -0.25912017243E+01  0.37143028429E+02  0.51100000000E-03 0. -1.
        -11    1    3    3    0    0  0.16088465610E+01 -0.73929714859E+01 -0.53514647924E+00  0.75849058440E+01  0.51100000000E-03 0.  1.
        -12    1    3    3    0    0 -0.10931005428E+02  0.43887349105E+02  0.21617399754E+01  0.45279790314E+02  0.00000000000E+00 0.  1.
</event>
<event>
 7    1  0.3505640E-015  0.9000783E+02  0.7816164E-02  0.1186339E+00
        -11   -1    0    0    0    0  0.00000000000E+00  0.00000000000E+00  0.45593999997E+02  0.45594000000E+02  0.51100000000E-03 0.  1.
         11   -1    0    0    0    0 -0.00000000000E+00 -0.00000000000E+00 -0.45593999997E+02  0.45594000000E+02  0.51100000000E-03 0. -1.
    9900012    2    1    2    0    0  0.34148328833E+00  0.25766102750E-01 -0.11293943227E+01  0.90007827867E+02  0.90000090394E+02 0.  0.
        -12    1    1    2    0    0 -0.34148328833E+00 -0.25766102750E-01  0.11293943227E+01  0.11801721334E+01  0.00000000000E+00 0.  1.
         11    1    3    3    0    0 -0.26291049328E+02 -0.26869176159E+02 -0.19752427724E+02  0.42465636737E+02  0.51100000000E-03 0. -1.
        -11    1    3    3    0    0  0.10756728667E+02  0.52726340701E+01 -0.38129468855E+01  0.12571652472E+02  0.51100000000E-03 0.  1.
        -12    1    3    3    0    0  0.15875803949E+02  0.21622308192E+02  0.22435980287E+02  0.34970538658E+02  0.00000000000E+00 0.  1.
</event>
<event>
 7    1  0.3505640E-015  0.9000773E+02  0.7816164E-02  0.1186339E+00
        -11   -1    0    0    0    0  0.00000000000E+00  0.00000000000E+00  0.45593999997E+02  0.45594000000E+02  0.51100000000E-03 0.  1.
         11   -1    0    0    0    0 -0.00000000000E+00 -0.00000000000E+00 -0.45593999997E+02  0.45594000000E+02  0.51100000000E-03 0. -1.
    9900012    2    1    2    0    0  0.64500480484E-01 -0.34847770438E-01 -0.11779914572E+01  0.90007729458E+02  0.89999990687E+02 0.  0.
        -12    1    1    2    0    0 -0.64500480484E-01  0.34847770438E-01  0.11779914572E+01  0.11802705420E+01  0.00000000000E+00 0.  1.
         11    1    3    3    0    0  0.86761277602E+01  0.27585422446E+01 -0.24725407777E+01  0.94338860701E+01  0.51100000000E-03 0. -1.
        -11    1    3    3    0    0  0.30306791573E+02 -0.15774620333E+02 -0.13814962543E+02  0.36853676241E+02  0.51100000000E-03 0.  1.
         12    1    3    3    0    0 -0.38918418853E+02  0.12981230318E+02  0.15109511864E+02  0.43720167147E+02  0.00000000000E+00 0. -1.
</event>
<event>
 7    1  0.3505640E-015  0.9000775E+02  0.7816164E-02  0.1186339E+00
        -11   -1    0    0    0    0  0.00000000000E+00  0.00000000000E+00  0.45593999997E+02  0.45594000000E+02  0.51100000000E-03 0.  1.
         11   -1    0    0    0    0 -0.00000000000E+00 -0.00000000000E+00 -0.45593999997E+02  0.45594000000E+02  0.51100000000E-03 0. -1.
    9900012    2    1    2    0    0  0.16630847145E+00 -0.10738327217E+01 -0.46067540280E+00  0.90007747040E+02  0.90000008501E+02 0.  0.
        -12    1    1    2    0    0 -0.16630847145E+00  0.10738327217E+01  0.46067540280E+00  0.11802529596E+01  0.00000000000E+00 0.  1.
         11    1    3    3    0    0  0.19752333894E+02  0.14415555002E+02 -0.33195977316E+02  0.41230278080E+02  0.51100000000E-03 0. -1.
        -11    1    3    3    0    0 -0.89447080350E+01 -0.17812888316E+01 -0.25376204588E+01  0.94668003881E+01  0.51100000000E-03 0.  1.
        -12    1    3    3    0    0 -0.10641317388E+02 -0.13708098892E+02  0.35272922372E+02  0.39310668573E+02  0.00000000000E+00 0.  1.
</event>
<event>
 7    1  0.3505640E-015  0.9000775E+02  0.7816164E-02  0.1186339E+00
        -11   -1    0    0    0    0  0.00000000000E+00  0.00000000000E+00  0.45593999997E+02  0.45594000000E+02  0.51100000000E-03 0. -1.
         11   -1    0    0    0    0 -0.00000000000E+00 -0.00000000000E+00 -0.45593999997E+02  0.45594000000E+02  0.51100000000E-03 0.  1.
    9900012    2    1    2    0    0 -0.50965761179E+00  0.10624869523E+01 -0.65999335580E-01  0.90007752010E+02  0.90000013537E+02 0.  0.
        -12    1    1    2    0    0  0.50965761179E+00 -0.10624869523E+01  0.65999335580E-01  0.11802479897E+01  0.00000000000E+00 0.  1.
         11    1    3    3    0    0 -0.19726698246E+02  0.55686967488E+01  0.32980141456E+02  0.38830950772E+02  0.51100000000E-03 0. -1.
        -11    1    3    3    0    0 -0.41286896574E+01 -0.84108871721E+01  0.13052328992E+01  0.94600599623E+01  0.51100000000E-03 0.  1.
        -12    1    3    3    0    0  0.23345730292E+02  0.39046773755E+01 -0.34351373690E+02  0.41716741276E+02  0.00000000000E+00 0.  1.
</event>
<event>
 7    1  0.3505640E-015  0.9000780E+02  0.7816164E-02  0.1186339E+00
        -11   -1    0    0    0    0  0.00000000000E+00  0.00000000000E+00  0.45593999997E+02  0.45594000000E+02  0.51100000000E-03 0. -1.
         11   -1    0    0    0    0 -0.00000000000E+00 -0.00000000000E+00 -0.45593999997E+02  0.45594000000E+02  0.51100000000E-03 0.  1.
    9900012    2    1    2    0    0  0.65466104110E+00  0.30161828617E+00  0.93451053723E+00  0.90007803146E+02  0.90000065348E+02 0.  0.
        -12    1    1    2    0    0 -0.65466104110E+00 -0.30161828617E+00 -0.93451053723E+00  0.11801968537E+01  0.00000000000E+00 0.  1.
         11    1    3    3    0    0 -0.20889281414E+01  0.64397900763E+01  0.18259133939E+01  0.70120237442E+01  0.51100000000E-03 0. -1.
        -11    1    3    3    0    0  0.40102934865E+01  0.35218854259E+02  0.15242906644E+02  0.38584923900E+02  0.51100000000E-03 0.  1.
         12    1    3    3    0    0 -0.12667043040E+01 -0.41357026049E+02 -0.16134309500E+02  0.44410855502E+02  0.00000000000E+00 0. -1.
</event>
<event>
 7    1  0.3505640E-015  0.9000777E+02  0.7816164E-02  0.1186339E+00
        -11   -1    0    0    0    0  0.00000000000E+00  0.00000000000E+00  0.45593999997E+02  0.45594000000E+02  0.51100000000E-03 0. -1.
         11   -1    0    0    0    0 -0.00000000000E+00 -0.00000000000E+00 -0.45593999997E+02  0.45594000000E+02  0.51100000000E-03 0.  1.
    9900012    2    1    2    0    0  0.71466157987E+00  0.62580298078E+00  0.70040795428E+00  0.90007770426E+02  0.90000032196E+02 0.  0.
        -12    1    1    2    0    0 -0.71466157987E+00 -0.62580298078E+00 -0.70040795428E+00  0.11802295738E+01  0.00000000000E+00 0.  1.
         11    1    3    3    0    0  0.62344036796E+01 -0.63275642733E+01 -0.12159383688E+02  0.15058435205E+02  0.51100000000E-03 0. -1.
        -11    1    3    3    0    0 -0.28306526051E+02 -0.90254520708E+01 -0.16918692735E+02  0.34190062391E+02  0.51100000000E-03 0.  1.
         12    1    3    3    0    0  0.22786783952E+02  0.15978819325E+02  0.29778484377E+02  0.40759272831E+02  0.00000000000E+00 0. -1.
</event>
<event>
 7    1  0.3505640E-015  0.9000775E+02  0.7816164E-02  0.1186339E+00
        -11   -1    0    0    0    0  0.00000000000E+00  0.00000000000E+00  0.45593999997E+02  0.45594000000E+02  0.51100000000E-03 0. -1.
         11   -1    0    0    0    0 -0.00000000000E+00 -0.00000000000E+00 -0.45593999997E+02  0.45594000000E+02  0.51100000000E-03 0.  1.
    9900012    2    1    2    0    0 -0.10815709713E+01 -0.46855878712E+00  0.60323800198E-01  0.90007753389E+02  0.90000014933E+02 0.  0.
        -12    1    1    2    0    0  0.10815709713E+01  0.46855878712E+00 -0.60323800198E-01  0.11802466115E+01  0.00000000000E+00 0.  1.
         11    1    3    3    0    0  0.27476342177E+02 -0.19600422579E+02 -0.24551018612E+02  0.41735817469E+02  0.51100000000E-03 0. -1.
        -11    1    3    3    0    0  0.39667066967E+01  0.40429566328E+01  0.30266283834E+01  0.64218953576E+01  0.51100000000E-03 0.  1.
        -12    1    3    3    0    0 -0.32524619845E+02  0.15088907159E+02  0.21584714028E+02  0.41850040562E+02  0.00000000000E+00 0.  1.
</event>
<event>
 7    1  0.3505640E-015  0.9000779E+02  0.7816164E-02  0.1186339E+00
        -11   -1    0    0    0    0  0.00000000000E+00  0.00000000000E+00  0.45593999997E+02  0.45594000000E+02  0.51100000000E-03 0. -1.
         11   -1    0    0    0    0 -0.00000000000E+00 -0.00000000000E+00 -0.45593999997E+02  0.45594000000E+02  0.51100000000E-03 0.  1.
    9900012    2    1    2    0    0 -0.63955184118E+00 -0.50302064218E+00  0.85489766792E+00  0.90007785466E+02  0.90000047434E+02 0.  0.
        -12    1    1    2    0    0  0.63955184118E+00  0.50302064218E+00 -0.85489766792E+00  0.11802145342E+01  0.00000000000E+00 0.  1.
         11    1    3    3    0    0 -0.98877403686E+01 -0.25187957272E+02  0.32388526060E+02  0.42204469215E+02  0.51100000000E-03 0. -1.
        -11    1    3    3    0    0  0.54947744166E+01 -0.37211691418E+00  0.19249136404E+01  0.58340645926E+01  0.51100000000E-03 0.  1.
        -12    1    3    3    0    0  0.37534141108E+01  0.25057053544E+02 -0.33458542033E+02  0.41969251658E+02  0.00000000000E+00 0.  1.
</event>
<event>
 7    1  0.3625098E-015  0.9000775E+02  0.7816164E-02  0.1186339E+00
        -11   -1    0    0    0    0  0.00000000000E+00  0.00000000000E+00  0.45593999997E+02  0.45594000000E+02  0.51100000000E-03 0. -1.
         11   -1    0    0    0    0 -0.00000000000E+00 -0.00000000000E+00 -0.45593999997E+02  0.45594000000E+02  0.51100000000E-03 0.  1.
    9900012    2    1    2    0    0 -0.20800960563E+00  0.78961914282E+00  0.85218498119E+00  0.90007751878E+02  0.90000013403E+02 0.  0.
        -12    1    1    2    0    0  0.20800960563E+00 -0.78961914282E+00 -0.85218498119E+00  0.11802481218E+01  0.00000000000E+00 0.  1.
         11    1    3    3    0    0  0.41827832419E+01 -0.99123978908E-01 -0.77819204952E+01  0.88353714164E+01  0.51100000000E-03 0. -1.
        -11    1    3    3    0    0 -0.26678961728E+02  0.27743349238E+02 -0.12384114270E+02  0.40432990395E+02  0.51100000000E-03 0.  1.
         12    1    3    3    0    0  0.22288168880E+02 -0.26854606116E+02  0.21018219746E+02  0.40739390066E+02  0.00000000000E+00 0. -1.
</event>
<event>
 7    1  0.3505640E-015  0.9000780E+02  0.7816164E-02  0.1186339E+00
        -11   -1    0    0    0    0  0.00000000000E+00  0.00000000000E+00  0.45593999997E+02  0.45594000000E+02  0.51100000000E-03 0. -1.
         11   -1    0    0    0    0 -0.00000000000E+00 -0.00000000000E+00 -0.45593999997E+02  0.45594000000E+02  0.51100000000E-03 0.  1.
    9900012    2    1    2    0    0 -0.11448884636E+01 -0.25458765703E+00 -0.13152296876E+00  0.90007795458E+02  0.90000057558E+02 0.  0.
        -12    1    1    2    0    0  0.11448884636E+01  0.25458765703E+00  0.13152296876E+00  0.11802045418E+01  0.00000000000E+00 0.  1.
         11    1    3    3    0    0 -0.59023313268E+01 -0.86992739336E+00 -0.47348593097E+01  0.76166384780E+01  0.51100000000E-03 0. -1.
        -11    1    3    3    0    0 -0.19428655858E+02 -0.21396197907E+02 -0.25049837554E+02  0.38246101959E+02  0.51100000000E-03 0.  1.
         12    1    3    3    0    0  0.24186098721E+02  0.22011537644E+02  0.29653173895E+02  0.44145055021E+02  0.00000000000E+00 0. -1.
</event>
<event>
 7    1  0.3505640E-015  0.9000772E+02  0.7816164E-02  0.1186339E+00
        -11   -1    0    0    0    0  0.00000000000E+00  0.00000000000E+00  0.45593999997E+02  0.45594000000E+02  0.51100000000E-03 0.  1.
         11   -1    0    0    0    0 -0.00000000000E+00 -0.00000000000E+00 -0.45593999997E+02  0.45594000000E+02  0.51100000000E-03 0. -1.
    9900012    2    1    2    0    0  0.63116311631E-01 -0.11763828017E+01  0.72058986735E-01  0.90007723481E+02  0.89999984630E+02 0.  0.
        -12    1    1    2    0    0 -0.63116311631E-01  0.11763828017E+01 -0.72058986735E-01  0.11802765195E+01  0.00000000000E+00 0.  1.
         11    1    3    3    0    0 -0.31580358415E+02  0.11348566486E+02 -0.59746164677E+01  0.34085261347E+02  0.51100000000E-03 0. -1.
        -11    1    3    3    0    0 -0.84405192229E+01  0.68151781173E+01 -0.86618711211E+00  0.10882982031E+02  0.51100000000E-03 0.  1.
        -12    1    3    3    0    0  0.40083993950E+02 -0.19340127405E+02  0.69128625666E+01  0.45039480102E+02  0.00000000000E+00 0.  1.
</event>
<event>
 7    1  0.3505640E-015  0.9000776E+02  0.7816164E-02  0.1186339E+00
        -11   -1    0    0    0    0  0.00000000000E+00  0.00000000000E+00  0.45593999997E+02  0.45594000000E+02  0.51100000000E-03 0.  1.
         11   -1    0    0    0    0 -0.00000000000E+00 -0.00000000000E+00 -0.45593999997E+02  0.45594000000E+02  0.51100000000E-03 0. -1.
    9900012    2    1    2    0    0 -0.82796524221E+00  0.81021073149E+00 -0.22583850391E+00  0.90007758117E+02  0.90000019724E+02 0.  0.
        -12    1    1    2    0    0  0.82796524221E+00 -0.81021073149E+00  0.22583850391E+00  0.11802418827E+01  0.00000000000E+00 0.  1.
         11    1    3    3    0    0 -0.95214384796E+01  0.48488276100E+01 -0.13825886624E+02  0.17473524576E+02  0.51100000000E-03 0. -1.
        -11    1    3    3    0    0  0.25348977706E+02 -0.16963124742E+02 -0.17346780810E+02  0.35088873970E+02  0.51100000000E-03 0.  1.
         12    1    3    3    0    0 -0.16655504468E+02  0.12924507863E+02  0.30946828930E+02  0.37445359571E+02  0.00000000000E+00 0. -1.
</event>
<event>
 7    1  0.3505640E-015  0.9000721E+02  0.7816164E-02  0.1186340E+00
        -11   -1    0    0    0    0  0.00000000000E+00  0.00000000000E+00  0.45593999997E+02  0.45594000000E+02  0.51100000000E-03 0. -1.
         11   -1    0    0    0    0 -0.00000000000E+00 -0.00000000000E+00 -0.45593999997E+02  0.45594000000E+02  0.51100000000E-03 0.  1.
    9900012    2    1    2    0    0 -0.87690833529E+00  0.38254481639E+00 -0.69207290132E+00  0.90007206341E+02  0.89999460663E+02 0.  0.
        -12    1    1    2    0    0  0.87690833529E+00 -0.38254481639E+00  0.69207290132E+00  0.11807936593E+01  0.00000000000E+00 0.  1.
         11    1    3    3    0    0  0.13560496828E+02 -0.36100305804E+02  0.12887488379E+02  0.40659642280E+02  0.51100000000E-03 0. -1.
        -11    1    3    3    0    0  0.73760484413E+01  0.53413787232E+01 -0.43168451866E+00  0.91171689168E+01  0.51100000000E-03 0.  1.
        -12    1    3    3    0    0 -0.21813453604E+02  0.31141471897E+02 -0.13147876762E+02  0.40230395144E+02  0.00000000000E+00 0.  1.
</event>
<event>
 7    1  0.3505640E-015  0.9000793E+02  0.7816164E-02  0.1186339E+00
        -11   -1    0    0    0    0  0.00000000000E+00  0.00000000000E+00  0.45593999997E+02  0.45594000000E+02  0.51100000000E-03 0.  1.
         11   -1    0    0    0    0 -0.00000000000E+00 -0.00000000000E+00 -0.45593999997E+02  0.45594000000E+02  0.51100000000E-03 0. -1.
    9900012    2    1    2    0    0 -0.50184029804E+00  0.81573262434E+00 -0.68942523059E+00  0.90007927736E+02  0.90000191582E+02 0.  0.
        -12    1    1    2    0    0  0.50184029804E+00 -0.81573262434E+00  0.68942523059E+00  0.11800722638E+01  0.00000000000E+00 0.  1.
         11    1    3    3    0    0 -0.74101262982E+00 -0.11207421802E+02 -0.28486141661E+01  0.11587493521E+02  0.51100000000E-03 0. -1.
        -11    1    3    3    0    0 -0.14649383750E+02 -0.27645685705E+02 -0.12346810023E+02  0.33635280589E+02  0.51100000000E-03 0.  1.
         12    1    3    3    0    0  0.14888556081E+02  0.39668840131E+02  0.14505998958E+02  0.44785153626E+02  0.00000000000E+00 0. -1.
</event>
<event>
 7    1  0.3505640E-015  0.9000765E+02  0.7816164E-02  0.1186339E+00
        -11   -1    0    0    0    0  0.00000000000E+00  0.00000000000E+00  0.45593999997E+02  0.45594000000E+02  0.51100000000E-03 0. -1.
         11   -1    0    0    0    0 -0.00000000000E+00 -0.00000000000E+00 -0.45593999997E+02  0.45594000000E+02  0.51100000000E-03 0.  1.
    9900012    2    1    2    0    0  0.64104542061E+00 -0.15412997442E-01  0.99097997904E+00  0.90007653394E+02  0.89999913619E+02 0.  0.
        -12    1    1    2    0    0 -0.64104542061E+00  0.15412997442E-01 -0.99097997904E+00  0.11803466061E+01  0.00000000000E+00 0.  1.
         11    1    3    3    0    0  0.91435535760E+01 -0.21745937139E+02  0.84677591167E+01  0.25063784606E+02  0.51100000000E-03 0. -1.
        -11    1    3    3    0    0  0.26085345733E+02  0.83099122095E+01 -0.21218105212E+01  0.27459096545E+02  0.51100000000E-03 0.  1.
        -12    1    3    3    0    0 -0.34587853888E+02  0.13420611932E+02 -0.53549686165E+01  0.37484772243E+02  0.00000000000E+00 0.  1.
</event>
<event>
 7    1  0.3505640E-015  0.9000771E+02  0.7816164E-02  0.1186339E+00
        -11   -1    0    0    0    0  0.00000000000E+00  0.00000000000E+00  0.45593999997E+02  0.45594000000E+02  0.51100000000E-03 0. -1.
         11   -1    0    0    0    0 -0.00000000000E+00 -0.00000000000E+00 -0.45593999997E+02  0.45594000000E+02  0.51100000000E-03 0.  1.
    9900012    2    1    2    0    0 -0.26077154526E+00 -0.85041803430E+00  0.77580975216E+00  0.90007706222E+02  0.89999967144E+02 0.  0.
        -12    1    1    2    0    0  0.26077154526E+00  0.85041803430E+00 -0.77580975216E+00  0.11802937784E+01  0.00000000000E+00 0.  1.
         11    1    3    3    0    0 -0.70850921648E+01  0.75603043384E+01 -0.76049984904E+00  0.10389181534E+02  0.51100000000E-03 0. -1.
        -11    1    3    3    0    0 -0.17368060615E+02  0.25176573180E+02 -0.16170166513E+02  0.34597451524E+02  0.51100000000E-03 0.  1.
         12    1    3    3    0    0  0.24192381235E+02 -0.33587295553E+02  0.17706476115E+02  0.45021073163E+02  0.00000000000E+00 0. -1.
</event>
<event>
 7    1  0.3505640E-015  0.9000781E+02  0.7816164E-02  0.1186339E+00
        -11   -1    0    0    0    0  0.00000000000E+00  0.00000000000E+00  0.45593999997E+02  0.45594000000E+02  0.51100000000E-03 0. -1.
         11   -1    0    0    0    0 -0.00000000000E+00 -0.00000000000E+00 -0.45593999997E+02  0.45594000000E+02  0.51100000000E-03 0.  1.
    9900012    2    1    2    0    0  0.99549164102E+00  0.40004985258E+00  0.49172559880E+00  0.90007814609E+02  0.90000076962E+02 0.  0.
        -12    1    1    2    0    0 -0.99549164102E+00 -0.40004985258E+00 -0.49172559880E+00  0.11801853907E+01  0.00000000000E+00 0.  1.
         11    1    3    3    0    0 -0.22152709919E+01 -0.68412199034E+01  0.44115350259E+02  0.44697582083E+02  0.51100000000E-03 0. -1.
        -11    1    3    3    0    0 -0.16573218663E+01  0.44928313498E+01 -0.86011456239E+01  0.98443870105E+01  0.51100000000E-03 0.  1.
        -12    1    3    3    0    0  0.48680844992E+01  0.27484384062E+01 -0.35022479036E+02  0.35465845516E+02  0.00000000000E+00 0.  1.
</event>
<event>
 7    1  0.5613393E-015  0.9000770E+02  0.7816164E-02  0.1186339E+00
        -11   -1    0    0    0    0  0.00000000000E+00  0.00000000000E+00  0.45593999997E+02  0.45594000000E+02  0.51100000000E-03 0.  1.
         11   -1    0    0    0    0 -0.00000000000E+00 -0.00000000000E+00 -0.45593999997E+02  0.45594000000E+02  0.51100000000E-03 0. -1.
    9900012    2    1    2    0    0 -0.81448526426E+00 -0.20892956477E+00  0.82829317966E+00  0.90007700292E+02  0.89999961136E+02 0.  0.
        -12    1    1    2    0    0  0.81448526426E+00  0.20892956477E+00 -0.82829317966E+00  0.11802997078E+01  0.00000000000E+00 0.  1.
         11    1    3    3    0    0  0.50874212232E+01  0.80732786853E+01 -0.18179233864E+01  0.97141406790E+01  0.51100000000E-03 0. -1.
        -11    1    3    3    0    0  0.31373091948E+02  0.15723611133E+02 -0.45172321802E+01  0.35382315247E+02  0.51100000000E-03 0.  1.
         12    1    3    3    0    0 -0.37274998435E+02 -0.24005819383E+02  0.71634487462E+01  0.44911244366E+02  0.00000000000E+00 0. -1.
</event>
<event>
 7    1  0.3505640E-015  0.9000781E+02  0.7816164E-02  0.1186339E+00
        -11   -1    0    0    0    0  0.00000000000E+00  0.00000000000E+00  0.45593999997E+02  0.45594000000E+02  0.51100000000E-03 0. -1.
         11   -1    0    0    0    0 -0.00000000000E+00 -0.00000000000E+00 -0.45593999997E+02  0.45594000000E+02  0.51100000000E-03 0.  1.
    9900012    2    1    2    0    0  0.82329723180E+00 -0.76781509032E+00 -0.35423746410E+00  0.90007812504E+02  0.90000074829E+02 0.  0.
        -12    1    1    2    0    0 -0.82329723180E+00  0.76781509032E+00  0.35423746410E+00  0.11801874960E+01  0.00000000000E+00 0.  1.
         11    1    3    3    0    0  0.18612369026E+00 -0.10708867542E+02  0.34768354046E+02  0.36380666973E+02  0.51100000000E-03 0. -1.
        -11    1    3    3    0    0 -0.15459283645E+02  0.14745305931E+02 -0.10459592685E+02  0.23786899277E+02  0.51100000000E-03 0.  1.
         12    1    3    3    0    0  0.16096457187E+02 -0.48042534785E+01 -0.24662998825E+02  0.29840246254E+02  0.00000000000E+00 0. -1.
</event>
<event>
 7    1  0.3505640E-015  0.9000767E+02  0.7816164E-02  0.1186339E+00
        -11   -1    0    0    0    0  0.00000000000E+00  0.00000000000E+00  0.45593999997E+02  0.45594000000E+02  0.51100000000E-03 0. -1.
         11   -1    0    0    0    0 -0.00000000000E+00 -0.00000000000E+00 -0.45593999997E+02  0.45594000000E+02  0.51100000000E-03 0.  1.
    9900012    2    1    2    0    0 -0.23393446959E+00  0.32098186005E+00  0.11114979361E+01  0.90007668541E+02  0.89999928966E+02 0.  0.
        -12    1    1    2    0    0  0.23393446959E+00 -0.32098186005E+00 -0.11114979361E+01  0.11803314588E+01  0.00000000000E+00 0.  1.
         11    1    3    3    0    0 -0.16519091248E+02 -0.24492436209E+02 -0.22442775966E+02  0.37100377362E+02  0.51100000000E-03 0. -1.
        -11    1    3    3    0    0 -0.92336989776E+01 -0.66938930094E+00 -0.94965740226E+00  0.93065099950E+01  0.51100000000E-03 0.  1.
        -12    1    3    3    0    0  0.25518855755E+02  0.25482807370E+02  0.24503931304E+02  0.43600781184E+02  0.00000000000E+00 0.  1.
</event>
<event>
 7    1  0.3505640E-015  0.9000770E+02  0.7816164E-02  0.1186339E+00
        -11   -1    0    0    0    0  0.00000000000E+00  0.00000000000E+00  0.45593999997E+02  0.45594000000E+02  0.51100000000E-03 0.  1.
         11   -1    0    0    0    0 -0.00000000000E+00 -0.00000000000E+00 -0.45593999997E+02  0.45594000000E+02  0.51100000000E-03 0. -1.
    9900012    2    1    2    0    0  0.35997621631E+00  0.11218710330E+01  0.70250007218E-01  0.90007698109E+02  0.89999958924E+02 0.  0.
        -12    1    1    2    0    0 -0.35997621631E+00 -0.11218710330E+01 -0.70250007218E-01  0.11803018912E+01  0.00000000000E+00 0.  1.
         11    1    3    3    0    0  0.13849594975E+01 -0.27322538471E+01  0.98546454989E+01  0.10319755911E+02  0.51100000000E-03 0. -1.
        -11    1    3    3    0    0 -0.34223534003E+01 -0.11052978530E+02  0.32654147519E+02  0.34643530242E+02  0.51100000000E-03 0.  1.
         12    1    3    3    0    0  0.23973701190E+01  0.14907103410E+02 -0.42438543011E+02  0.45044411956E+02  0.00000000000E+00 0. -1.
</event>
<event>
 7    1  0.3505640E-015  0.9000760E+02  0.7816164E-02  0.1186339E+00
        -11   -1    0    0    0    0  0.00000000000E+00  0.00000000000E+00  0.45593999997E+02  0.45594000000E+02  0.51100000000E-03 0.  1.
         11   -1    0    0    0    0 -0.00000000000E+00 -0.00000000000E+00 -0.45593999997E+02  0.45594000000E+02  0.51100000000E-03 0. -1.
    9900012    2    1    2    0    0 -0.61976321480E+00 -0.20567850772E-01 -0.10044004283E+01  0.90007597654E+02  0.89999857143E+02 0.  0.
        -12    1    1    2    0    0  0.61976321480E+00  0.20567850772E-01  0.10044004283E+01  0.11804023463E+01  0.00000000000E+00 0.  1.
         11    1    3    3    0    0 -0.27985408976E+02 -0.14813451130E+02  0.67763042797E+01  0.32381163505E+02  0.51100000000E-03 0. -1.
        -11    1    3    3    0    0 -0.84512363443E+00 -0.12686947331E+02  0.81947023084E+01  0.15126996157E+02  0.51100000000E-03 0.  1.
        -12    1    3    3    0    0  0.28210769396E+02  0.27479830611E+02 -0.15975407016E+02  0.42499437992E+02  0.00000000000E+00 0.  1.
</event>
<event>
 7    1  0.3505640E-015  0.9000784E+02  0.7816164E-02  0.1186339E+00
        -11   -1    0    0    0    0  0.00000000000E+00  0.00000000000E+00  0.45593999997E+02  0.45594000000E+02  0.51100000000E-03 0. -1.
         11   -1    0    0    0    0 -0.00000000000E+00 -0.00000000000E+00 -0.45593999997E+02  0.45594000000E+02  0.51100000000E-03 0.  1.
    9900012    2    1    2    0    0 -0.55537377026E+00 -0.82910278259E+00  0.63002168619E+00  0.90007839514E+02  0.90000102195E+02 0.  0.
        -12    1    1    2    0    0  0.55537377026E+00  0.82910278259E+00 -0.63002168619E+00  0.11801604865E+01  0.00000000000E+00 0.  1.
         11    1    3    3    0    0  0.43507318666E+00 -0.58545771081E+01 -0.59461805965E+01  0.83559814349E+01  0.51100000000E-03 0. -1.
        -11    1    3    3    0    0  0.47977676860E+01 -0.35053757689E+02 -0.11642967732E+02  0.37247056270E+02  0.51100000000E-03 0.  1.
         12    1    3    3    0    0 -0.57882146429E+01  0.40079232015E+02  0.18219170015E+02  0.44404801809E+02  0.00000000000E+00 0. -1.
</event>
<event>
 7    1  0.3505640E-015  0.9000772E+02  0.7816164E-02  0.1186339E+00
        -11   -1    0    0    0    0  0.00000000000E+00  0.00000000000E+00  0.45593999997E+02  0.45594000000E+02  0.51100000000E-03 0.  1.
         11   -1    0    0    0    0 -0.00000000000E+00 -0.00000000000E+00 -0.45593999997E+02  0.45594000000E+02  0.51100000000E-03 0. -1.
    9900012    2    1    2    0    0  0.10694814339E+01  0.34813324288E+00 -0.35786624745E+00  0.90007722260E+02  0.89999983394E+02 0.  0.
        -12    1    1    2    0    0 -0.10694814339E+01 -0.34813324288E+00  0.35786624745E+00  0.11802777399E+01  0.00000000000E+00 0.  1.
         11    1    3    3    0    0  0.23383219302E+02 -0.14418507479E+02 -0.22317406553E+02  0.35393995795E+02  0.51100000000E-03 0. -1.
        -11    1    3    3    0    0  0.60713224856E+01 -0.41252457124E+01 -0.68010955157E+01  0.10006673243E+02  0.51100000000E-03 0.  1.
        -12    1    3    3    0    0 -0.28385060354E+02  0.18891886435E+02  0.28760635821E+02  0.44607053222E+02  0.00000000000E+00 0.  1.
</event>
<event>
 7    1  0.4283222E-015  0.9000772E+02  0.7816164E-02  0.1186339E+00
        -11   -1    0    0    0    0  0.00000000000E+00  0.00000000000E+00  0.45593999997E+02  0.45594000000E+02  0.51100000000E-03 0.  1.
         11   -1    0    0    0    0 -0.00000000000E+00 -0.00000000000E+00 -0.45593999997E+02  0.45594000000E+02  0.51100000000E-03 0. -1.
    9900012    2    1    2    0    0  0.10703246609E+01 -0.47301771021E+00 -0.15401835908E+00  0.90007719402E+02  0.89999980499E+02 0.  0.
        -12    1    1    2    0    0 -0.10703246609E+01  0.47301771021E+00  0.15401835908E+00  0.11802805975E+01  0.00000000000E+00 0.  1.
         11    1    3    3    0    0 -0.89721723978E+01 -0.31387625927E+00  0.61243734248E+00  0.89985263017E+01  0.51100000000E-03 0. -1.
        -11    1    3    3    0    0 -0.33628778944E+02  0.40046828940E+01 -0.11642587515E+02  0.35811759279E+02  0.51100000000E-03 0.  1.
         12    1    3    3    0    0  0.43671276003E+02 -0.41638243450E+01  0.10876131813E+02  0.45197433822E+02  0.00000000000E+00 0. -1.
</event>
<event>
 8    1  0.3505640E-015  0.9000791E+02  0.7816164E-02  0.1186339E+00
        -11   -1    0    0    0    0  0.00000000000E+00  0.00000000000E+00  0.45593999997E+02  0.45594000000E+02  0.51100000000E-03 0. -1.
         11   -1    0    0    0    0 -0.00000000000E+00 -0.00000000000E+00 -0.45593999997E+02  0.45594000000E+02  0.51100000000E-03 0.  1.
    9900012    2    1    2    0    0  0.72944230133E+00  0.54956642249E+00  0.74732435692E+00  0.90007913978E+02  0.90000177643E+02 0.  0.
         23    2    3    3    0    0  0.44044858675E-01  0.82799252384E+01  0.22358955068E+02  0.67045100582E+02  0.62662297584E+02 0.  0.
        -12    1    1    2    0    0 -0.72944230133E+00 -0.54956642249E+00 -0.74732435692E+00  0.11800860215E+01  0.00000000000E+00 0.  1.
         11    1    4    4    0    0 -0.16047369464E+02 -0.73776430679E+01 -0.15190029955E+02  0.23295593881E+02  0.51100000000E-03 0. -1.
        -11    1    4    4    0    0  0.16091414323E+02  0.15657568306E+02  0.37548985023E+02  0.43749506702E+02  0.51100000000E-03 0.  1.
         12    1    3    3    0    0  0.68539744265E+00 -0.77303588159E+01 -0.21611630711E+02  0.22962813396E+02  0.00000000000E+00 0. -1.
</event>
<event>
 7    1  0.3505640E-015  0.9000779E+02  0.7816164E-02  0.1186339E+00
        -11   -1    0    0    0    0  0.00000000000E+00  0.00000000000E+00  0.45593999997E+02  0.45594000000E+02  0.51100000000E-03 0.  1.
         11   -1    0    0    0    0 -0.00000000000E+00 -0.00000000000E+00 -0.45593999997E+02  0.45594000000E+02  0.51100000000E-03 0. -1.
    9900012    2    1    2    0    0 -0.81713981103E+00 -0.44379088372E+00 -0.72679090779E+00  0.90007791187E+02  0.90000053230E+02 0.  0.
        -12    1    1    2    0    0  0.81713981103E+00  0.44379088372E+00  0.72679090779E+00  0.11802088133E+01  0.00000000000E+00 0.  1.
         11    1    3    3    0    0 -0.31751850025E+02 -0.54399427498E+01 -0.19927282831E+02  0.37879672100E+02  0.51100000000E-03 0. -1.
        -11    1    3    3    0    0 -0.84037594890E+01  0.28450413787E+01  0.17695458344E+01  0.90470286126E+01  0.51100000000E-03 0.  1.
        -12    1    3    3    0    0  0.39338469703E+02  0.21511104874E+01  0.17430946089E+02  0.43081090474E+02  0.00000000000E+00 0.  1.
</event>
<event>
 7    1  0.3505640E-015  0.9000773E+02  0.7816164E-02  0.1186339E+00
        -11   -1    0    0    0    0  0.00000000000E+00  0.00000000000E+00  0.45593999997E+02  0.45594000000E+02  0.51100000000E-03 0.  1.
         11   -1    0    0    0    0 -0.00000000000E+00 -0.00000000000E+00 -0.45593999997E+02  0.45594000000E+02  0.51100000000E-03 0. -1.
    9900012    2    1    2    0    0 -0.46497541452E+00  0.53242407067E-01 -0.10835179837E+01  0.90007725409E+02  0.89999986584E+02 0.  0.
        -12    1    1    2    0    0  0.46497541452E+00 -0.53242407067E-01  0.10835179837E+01  0.11802745914E+01  0.00000000000E+00 0.  1.
         11    1    3    3    0    0 -0.85753419775E+00 -0.51170757599E+01 -0.83312471591E+01  0.98147597383E+01  0.51100000000E-03 0. -1.
        -11    1    3    3    0    0 -0.30640929104E+02  0.24101155564E+02 -0.95672072984E+01  0.40140549219E+02  0.51100000000E-03 0.  1.
         12    1    3    3    0    0  0.31033487887E+02 -0.18930837397E+02  0.16814936474E+02  0.40052416451E+02  0.00000000000E+00 0. -1.
</event>
<event>
 7    1  0.3505640E-015  0.9000773E+02  0.7816164E-02  0.1186339E+00
        -11   -1    0    0    0    0  0.00000000000E+00  0.00000000000E+00  0.45593999997E+02  0.45594000000E+02  0.51100000000E-03 0. -1.
         11   -1    0    0    0    0 -0.00000000000E+00 -0.00000000000E+00 -0.45593999997E+02  0.45594000000E+02  0.51100000000E-03 0.  1.
    9900012    2    1    2    0    0 -0.67662339547E-01 -0.11081811084E+01 -0.40047834921E+00  0.90007734577E+02  0.89999995873E+02 0.  0.
        -12    1    1    2    0    0  0.67662339547E-01  0.11081811084E+01  0.40047834921E+00  0.11802654233E+01  0.00000000000E+00 0.  1.
         11    1    3    3    0    0  0.90070711217E+00  0.38049356103E+02  0.20940516638E+02  0.43440419087E+02  0.51100000000E-03 0. -1.
        -11    1    3    3    0    0 -0.51922454197E+01 -0.67017033033E+01 -0.62134155202E+01  0.10510888276E+02  0.51100000000E-03 0.  1.
        -12    1    3    3    0    0  0.42238759679E+01 -0.32455833908E+02 -0.15127579467E+02  0.36056427213E+02  0.00000000000E+00 0.  1.
</event>
<event>
 7    1  0.3505640E-015  0.9000769E+02  0.7816164E-02  0.1186339E+00
        -11   -1    0    0    0    0  0.00000000000E+00  0.00000000000E+00  0.45593999997E+02  0.45594000000E+02  0.51100000000E-03 0. -1.
         11   -1    0    0    0    0 -0.00000000000E+00 -0.00000000000E+00 -0.45593999997E+02  0.45594000000E+02  0.51100000000E-03 0.  1.
    9900012    2    1    2    0    0 -0.19975154561E-01  0.11512327887E+01 -0.25961156279E+00  0.90007688980E+02  0.89999949674E+02 0.  0.
        -12    1    1    2    0    0  0.19975154561E-01 -0.11512327887E+01  0.25961156279E+00  0.11803110201E+01  0.00000000000E+00 0.  1.
         11    1    3    3    0    0  0.31345154790E+01  0.94026398320E+01 -0.37894461813E+01  0.10611066191E+02  0.51100000000E-03 0. -1.
        -11    1    3    3    0    0 -0.38171894645E+02 -0.13120976648E+02 -0.99287287566E+01  0.41567213330E+02  0.51100000000E-03 0.  1.
         12    1    3    3    0    0  0.35017404012E+02  0.48695696052E+01  0.13458563375E+02  0.37829409459E+02  0.00000000000E+00 0. -1.
</event>
<event>
 7    1  0.3505640E-015  0.9000772E+02  0.7816164E-02  0.1186339E+00
        -11   -1    0    0    0    0  0.00000000000E+00  0.00000000000E+00  0.45593999997E+02  0.45594000000E+02  0.51100000000E-03 0. -1.
         11   -1    0    0    0    0 -0.00000000000E+00 -0.00000000000E+00 -0.45593999997E+02  0.45594000000E+02  0.51100000000E-03 0.  1.
    9900012    2    1    2    0    0 -0.94600535367E+00  0.13679240055E-01 -0.70565015737E+00  0.90007722323E+02  0.89999983457E+02 0.  0.
        -12    1    1    2    0    0  0.94600535367E+00 -0.13679240055E-01  0.70565015737E+00  0.11802776772E+01  0.00000000000E+00 0.  1.
         11    1    3    3    0    0 -0.14149074020E+01  0.71530584987E+01 -0.50398968844E+01  0.88639026229E+01  0.51100000000E-03 0. -1.
        -11    1    3    3    0    0  0.14095353136E+02  0.28390613887E+02 -0.18563038354E+02  0.36732714712E+02  0.51100000000E-03 0.  1.
         12    1    3    3    0    0 -0.13626451088E+02 -0.35529993146E+02  0.22897285081E+02  0.44411104988E+02  0.00000000000E+00 0. -1.
</event>
<event>
 7    1  0.3505640E-015  0.9000773E+02  0.7816164E-02  0.1186339E+00
        -11   -1    0    0    0    0  0.00000000000E+00  0.00000000000E+00  0.45593999997E+02  0.45594000000E+02  0.51100000000E-03 0. -1.
         11   -1    0    0    0    0 -0.00000000000E+00 -0.00000000000E+00 -0.45593999997E+02  0.45594000000E+02  0.51100000000E-03 0.  1.
    9900012    2    1    2    0    0  0.10655324242E+01  0.35251881310E+00 -0.36525483941E+00  0.90007728862E+02  0.89999990083E+02 0.  0.
        -12    1    1    2    0    0 -0.10655324242E+01 -0.35251881310E+00  0.36525483941E+00  0.11802711377E+01  0.00000000000E+00 0.  1.
         11    1    3    3    0    0  0.10966174774E+01  0.86898886536E+01 -0.32948624883E+01  0.93580368551E+01  0.51100000000E-03 0. -1.
        -11    1    3    3    0    0  0.24106075833E+02 -0.32483751172E+02 -0.13654204592E+02  0.42693492309E+02  0.51100000000E-03 0.  1.
         12    1    3    3    0    0 -0.24137160886E+02  0.24146381331E+02  0.16583812241E+02  0.37956199698E+02  0.00000000000E+00 0. -1.
</event>
<event>
 7    1  0.3505640E-015  0.9000750E+02  0.7816164E-02  0.1186340E+00
        -11   -1    0    0    0    0  0.00000000000E+00  0.00000000000E+00  0.45593999997E+02  0.45594000000E+02  0.51100000000E-03 0.  1.
         11   -1    0    0    0    0 -0.00000000000E+00 -0.00000000000E+00 -0.45593999997E+02  0.45594000000E+02  0.51100000000E-03 0. -1.
    9900012    2    1    2    0    0  0.21472710454E+00  0.57918772219E+00  0.10059859831E+01  0.90007502670E+02  0.89999760905E+02 0.  0.
        -12    1    1    2    0    0 -0.21472710454E+00 -0.57918772219E+00 -0.10059859831E+01  0.11804973296E+01  0.00000000000E+00 0.  1.
         11    1    3    3    0    0  0.24565332337E+02  0.16913589419E+01 -0.27767843873E+02  0.37112927687E+02  0.51100000000E-03 0. -1.
        -11    1    3    3    0    0 -0.39773329671E+01 -0.56142714513E+01 -0.80381758651E+01  0.10580713254E+02  0.51100000000E-03 0.  1.
        -12    1    3    3    0    0 -0.20373272265E+02  0.45021002315E+01  0.36812005721E+02  0.42313861730E+02  0.00000000000E+00 0.  1.
</event>
<event>
 7    1  0.3505640E-015  0.9000778E+02  0.7816164E-02  0.1186339E+00
        -11   -1    0    0    0    0  0.00000000000E+00  0.00000000000E+00  0.45593999997E+02  0.45594000000E+02  0.51100000000E-03 0.  1.
         11   -1    0    0    0    0 -0.00000000000E+00 -0.00000000000E+00 -0.45593999997E+02  0.45594000000E+02  0.51100000000E-03 0. -1.
    9900012    2    1    2    0    0 -0.44326333390E+00  0.89549793370E+00  0.62810425319E+00  0.90007782272E+02  0.90000044198E+02 0.  0.
        -12    1    1    2    0    0  0.44326333390E+00 -0.89549793370E+00 -0.62810425319E+00  0.11802177279E+01  0.00000000000E+00 0.  1.
         11    1    3    3    0    0 -0.43481849697E+01 -0.89672915581E+01 -0.15975497804E+01  0.10093126175E+02  0.51100000000E-03 0. -1.
        -11    1    3    3    0    0  0.15634976927E+02 -0.32422219608E+02  0.15154788783E+01  0.36027066274E+02  0.51100000000E-03 0.  1.
         12    1    3    3    0    0 -0.11730055291E+02  0.42285009100E+02  0.71017515532E+00  0.43887589823E+02  0.00000000000E+00 0. -1.
</event>
<event>
 7    1  0.3505640E-015  0.9000726E+02  0.7816164E-02  0.1186340E+00
        -11   -1    0    0    0    0  0.00000000000E+00  0.00000000000E+00  0.45593999997E+02  0.45594000000E+02  0.51100000000E-03 0. -1.
         11   -1    0    0    0    0 -0.00000000000E+00 -0.00000000000E+00 -0.45593999997E+02  0.45594000000E+02  0.51100000000E-03 0.  1.
    9900012    2    1    2    0    0 -0.54957387404E+00  0.35017991302E+00  0.98462663997E+00  0.90007259963E+02  0.89999514993E+02 0.  0.
        -12    1    1    2    0    0  0.54957387404E+00 -0.35017991302E+00 -0.98462663997E+00  0.11807400369E+01  0.00000000000E+00 0.  1.
         11    1    3    3    0    0  0.86801890879E+01  0.45458108968E+01  0.36817600468E+02  0.38099157258E+02  0.51100000000E-03 0. -1.
        -11    1    3    3    0    0  0.10039280641E+02 -0.83383056328E+00  0.10813634952E+01  0.10131721298E+02  0.51100000000E-03 0.  1.
        -12    1    3    3    0    0 -0.19269043603E+02 -0.33618004205E+01 -0.36914337323E+02  0.41776381407E+02  0.00000000000E+00 0.  1.
</event>
<event>
 7    1  0.3505640E-015  0.9000771E+02  0.7816164E-02  0.1186339E+00
        -11   -1    0    0    0    0  0.00000000000E+00  0.00000000000E+00  0.45593999997E+02  0.45594000000E+02  0.51100000000E-03 0.  1.
         11   -1    0    0    0    0 -0.00000000000E+00 -0.00000000000E+00 -0.45593999997E+02  0.45594000000E+02  0.51100000000E-03 0. -1.
    9900012    2    1    2    0    0 -0.32957471468E+00  0.11246581811E+01  0.14007192321E+00  0.90007705265E+02  0.89999966175E+02 0.  0.
        -12    1    1    2    0    0  0.32957471468E+00 -0.11246581811E+01 -0.14007192321E+00  0.11802947346E+01  0.00000000000E+00 0.  1.
         11    1    3    3    0    0 -0.86840680989E+01 -0.89259808333E+00  0.31526985259E+01  0.92816635546E+01  0.51100000000E-03 0. -1.
        -11    1    3    3    0    0 -0.76087685018E+01  0.37281062276E+02 -0.13910364549E+02  0.40512580820E+02  0.51100000000E-03 0.  1.
         12    1    3    3    0    0  0.15963261886E+02 -0.35263806012E+02  0.10897737946E+02  0.40213460891E+02  0.00000000000E+00 0. -1.
</event>
<event>
 7    1  0.3505640E-015  0.9000772E+02  0.7816164E-02  0.1186339E+00
        -11   -1    0    0    0    0  0.00000000000E+00  0.00000000000E+00  0.45593999997E+02  0.45594000000E+02  0.51100000000E-03 0.  1.
         11   -1    0    0    0    0 -0.00000000000E+00 -0.00000000000E+00 -0.45593999997E+02  0.45594000000E+02  0.51100000000E-03 0. -1.
    9900012    2    1    2    0    0 -0.10985421598E+00  0.11659265452E+01 -0.14702868456E+00  0.90007716097E+02  0.89999977150E+02 0.  0.
        -12    1    1    2    0    0  0.10985421598E+00 -0.11659265452E+01  0.14702868456E+00  0.11802839030E+01  0.00000000000E+00 0.  1.
         11    1    3    3    0    0 -0.92619183211E+01 -0.21152266739E+00 -0.24008034758E+00  0.92674436421E+01  0.51100000000E-03 0. -1.
        -11    1    3    3    0    0 -0.23040254479E+02  0.29823787509E+02 -0.18941552836E+01  0.37734592251E+02  0.51100000000E-03 0.  1.
         12    1    3    3    0    0  0.32192318584E+02 -0.28446338297E+02  0.19872069466E+01  0.43005680204E+02  0.00000000000E+00 0. -1.
</event>
<event>
 7    1  0.3505640E-015  0.9000763E+02  0.7816164E-02  0.1186339E+00
        -11   -1    0    0    0    0  0.00000000000E+00  0.00000000000E+00  0.45593999997E+02  0.45594000000E+02  0.51100000000E-03 0.  1.
         11   -1    0    0    0    0 -0.00000000000E+00 -0.00000000000E+00 -0.45593999997E+02  0.45594000000E+02  0.51100000000E-03 0. -1.
    9900012    2    1    2    0    0 -0.85361386950E+00  0.80967316349E+00  0.95098179765E-01  0.90007631018E+02  0.89999890947E+02 0.  0.
        -12    1    1    2    0    0  0.85361386950E+00 -0.80967316349E+00 -0.95098179765E-01  0.11803689820E+01  0.00000000000E+00 0.  1.
         11    1    3    3    0    0  0.39823892334E+01  0.17605872526E+01  0.94604654489E+01  0.10414389000E+02  0.51100000000E-03 0. -1.
        -11    1    3    3    0    0  0.72270955962E+01  0.10866961065E+02  0.32191418711E+02  0.34736280636E+02  0.51100000000E-03 0.  1.
         12    1    3    3    0    0 -0.12063098699E+02 -0.11817875154E+02 -0.41556785980E+02  0.44856961381E+02  0.00000000000E+00 0. -1.
</event>
<event>
 7    1  0.3505640E-015  0.9000774E+02  0.7816164E-02  0.1186339E+00
        -11   -1    0    0    0    0  0.00000000000E+00  0.00000000000E+00  0.45593999997E+02  0.45594000000E+02  0.51100000000E-03 0.  1.
         11   -1    0    0    0    0 -0.00000000000E+00 -0.00000000000E+00 -0.45593999997E+02  0.45594000000E+02  0.51100000000E-03 0. -1.
    9900012    2    1    2    0    0 -0.56397276513E-01  0.25243770798E-01 -0.11786396856E+01  0.90007741804E+02  0.90000003196E+02 0.  0.
        -12    1    1    2    0    0  0.56397276513E-01 -0.25243770798E-01  0.11786396856E+01  0.11802581960E+01  0.00000000000E+00 0.  1.
         11    1    3    3    0    0 -0.59477514332E+01  0.10186644932E+02 -0.30229130029E+02  0.32449095282E+02  0.51100000000E-03 0. -1.
        -11    1    3    3    0    0 -0.60359093181E+01  0.59672696925E+01 -0.10326222646E+02  0.13366801535E+02  0.51100000000E-03 0.  1.
        -12    1    3    3    0    0  0.11927263475E+02 -0.16128670854E+02  0.39376712989E+02  0.44191844987E+02  0.00000000000E+00 0.  1.
</event>
<event>
 7    1  0.3505640E-015  0.9000787E+02  0.7816164E-02  0.1186339E+00
        -11   -1    0    0    0    0  0.00000000000E+00  0.00000000000E+00  0.45593999997E+02  0.45594000000E+02  0.51100000000E-03 0.  1.
         11   -1    0    0    0    0 -0.00000000000E+00 -0.00000000000E+00 -0.45593999997E+02  0.45594000000E+02  0.51100000000E-03 0. -1.
    9900012    2    1    2    0    0 -0.80056091243E+00 -0.80502280339E+00 -0.32208488836E+00  0.90007873666E+02  0.90000136798E+02 0.  0.
        -12    1    1    2    0    0  0.80056091243E+00  0.80502280339E+00  0.32208488836E+00  0.11801263338E+01  0.00000000000E+00 0.  1.
         11    1    3    3    0    0  0.39297527349E+01  0.69658375475E+01  0.87542757227E+01  0.11857621725E+02  0.51100000000E-03 0. -1.
        -11    1    3    3    0    0  0.66482767309E+01 -0.21243225385E+02  0.28782655531E+02  0.36385649203E+02  0.51100000000E-03 0.  1.
         12    1    3    3    0    0 -0.11378590378E+02  0.13472365034E+02 -0.37859016142E+02  0.41764602738E+02  0.00000000000E+00 0. -1.
</event>
<event>
 7    1  0.3505640E-015  0.9000775E+02  0.7816164E-02  0.1186339E+00
        -11   -1    0    0    0    0  0.00000000000E+00  0.00000000000E+00  0.45593999997E+02  0.45594000000E+02  0.51100000000E-03 0. -1.
         11   -1    0    0    0    0 -0.00000000000E+00 -0.00000000000E+00 -0.45593999997E+02  0.45594000000E+02  0.51100000000E-03 0.  1.
    9900012    2    1    2    0    0 -0.81058004831E+00 -0.52462374611E+00 -0.67876011717E+00  0.90007751981E+02  0.90000013507E+02 0.  0.
        -12    1    1    2    0    0  0.81058004831E+00  0.52462374611E+00  0.67876011717E+00  0.11802480190E+01  0.00000000000E+00 0.  1.
         11    1    3    3    0    0 -0.95836482176E+01 -0.22066106114E+01 -0.14876377263E+01  0.99462812053E+01  0.51100000000E-03 0. -1.
        -11    1    3    3    0    0  0.76468519253E+01  0.19331126731E+02 -0.34666713646E+02  0.40422120681E+02  0.51100000000E-03 0.  1.
         12    1    3    3    0    0  0.11262162439E+01 -0.17649139866E+02  0.35475591255E+02  0.39639350095E+02  0.00000000000E+00 0. -1.
</event>
<event>
 7    1  0.3783464E-015  0.9000771E+02  0.7816164E-02  0.1186339E+00
        -11   -1    0    0    0    0  0.00000000000E+00  0.00000000000E+00  0.45593999997E+02  0.45594000000E+02  0.51100000000E-03 0. -1.
         11   -1    0    0    0    0 -0.00000000000E+00 -0.00000000000E+00 -0.45593999997E+02  0.45594000000E+02  0.51100000000E-03 0.  1.
    9900012    2    1    2    0    0 -0.15042193954E+00 -0.53892950790E+00  0.10392376480E+01  0.90007709077E+02  0.89999970037E+02 0.  0.
        -12    1    1    2    0    0  0.15042193954E+00  0.53892950790E+00 -0.10392376480E+01  0.11802909232E+01  0.00000000000E+00 0.  1.
         11    1    3    3    0    0  0.69877714132E+01  0.54325514229E+01 -0.21838292870E+01  0.91165056300E+01  0.51100000000E-03 0. -1.
        -11    1    3    3    0    0 -0.62358415979E+01 -0.82529494135E+01 -0.38108237197E+02  0.39487145212E+02  0.51100000000E-03 0.  1.
         12    1    3    3    0    0 -0.90235175478E+00  0.22814684827E+01  0.41331304132E+02  0.41404058235E+02  0.00000000000E+00 0. -1.
</event>
<event>
 7    1  0.3505640E-015  0.9000770E+02  0.7816164E-02  0.1186339E+00
        -11   -1    0    0    0    0  0.00000000000E+00  0.00000000000E+00  0.45593999997E+02  0.45594000000E+02  0.51100000000E-03 0.  1.
         11   -1    0    0    0    0 -0.00000000000E+00 -0.00000000000E+00 -0.45593999997E+02  0.45594000000E+02  0.51100000000E-03 0. -1.
    9900012    2    1    2    0    0  0.11066734929E+01  0.22995841711E+00 -0.33986504949E+00  0.90007696927E+02  0.89999957726E+02 0.  0.
        -12    1    1    2    0    0 -0.11066734929E+01 -0.22995841711E+00  0.33986504949E+00  0.11803030735E+01  0.00000000000E+00 0.  1.
         11    1    3    3    0    0  0.77397567291E+01 -0.24767729601E+01  0.41947829551E+01  0.91451868665E+01  0.51100000000E-03 0. -1.
        -11    1    3    3    0    0 -0.87898667914E+01  0.32641063812E+02 -0.27090288327E+02  0.43319562866E+02  0.51100000000E-03 0.  1.
         12    1    3    3    0    0  0.21567835552E+01 -0.29934332435E+02  0.22555640323E+02  0.37542947194E+02  0.00000000000E+00 0. -1.
</event>
<event>
 7    1  0.3505640E-015  0.9000777E+02  0.7816164E-02  0.1186339E+00
        -11   -1    0    0    0    0  0.00000000000E+00  0.00000000000E+00  0.45593999997E+02  0.45594000000E+02  0.51100000000E-03 0. -1.
         11   -1    0    0    0    0 -0.00000000000E+00 -0.00000000000E+00 -0.45593999997E+02  0.45594000000E+02  0.51100000000E-03 0.  1.
    9900012    2    1    2    0    0 -0.13808960500E+00 -0.34422076696E+00  0.11204405180E+01  0.90007769671E+02  0.90000031431E+02 0.  0.
        -12    1    1    2    0    0  0.13808960500E+00  0.34422076696E+00 -0.11204405180E+01  0.11802303291E+01  0.00000000000E+00 0.  1.
         11    1    3    3    0    0  0.11859924080E+02 -0.54262572893E+01  0.40978535892E+01  0.13670935288E+02  0.51100000000E-03 0. -1.
        -11    1    3    3    0    0 -0.49384169381E+01 -0.24326519727E+02 -0.27757393220E+02  0.37237620796E+02  0.51100000000E-03 0.  1.
         12    1    3    3    0    0 -0.70595967472E+01  0.29408556250E+02  0.24779980149E+02  0.39099213587E+02  0.00000000000E+00 0. -1.
</event>
<event>
 7    1  0.3505640E-015  0.9000775E+02  0.7816164E-02  0.1186339E+00
        -11   -1    0    0    0    0  0.00000000000E+00  0.00000000000E+00  0.45593999997E+02  0.45594000000E+02  0.51100000000E-03 0. -1.
         11   -1    0    0    0    0 -0.00000000000E+00 -0.00000000000E+00 -0.45593999997E+02  0.45594000000E+02  0.51100000000E-03 0.  1.
    9900012    2    1    2    0    0  0.37095056311E-01 -0.11507337121E+01  0.25965330840E+00  0.90007752585E+02  0.90000014119E+02 0.  0.
        -12    1    1    2    0    0 -0.37095056311E-01  0.11507337121E+01 -0.25965330840E+00  0.11802474147E+01  0.00000000000E+00 0.  1.
         11    1    3    3    0    0 -0.17309222176E+02 -0.13416475014E+02  0.31441130503E+02  0.38316519436E+02  0.51100000000E-03 0. -1.
        -11    1    3    3    0    0 -0.88150239688E+01  0.12197821660E+01  0.78405908908E+00  0.89334911999E+01  0.51100000000E-03 0.  1.
        -12    1    3    3    0    0  0.26161341201E+02  0.11045959136E+02 -0.31965536284E+02  0.42757741949E+02  0.00000000000E+00 0.  1.
</event>
<event>
 7    1  0.3505640E-015  0.9000797E+02  0.7816164E-02  0.1186339E+00
        -11   -1    0    0    0    0  0.00000000000E+00  0.00000000000E+00  0.45593999997E+02  0.45594000000E+02  0.51100000000E-03 0.  1.
         11   -1    0    0    0    0 -0.00000000000E+00 -0.00000000000E+00 -0.45593999997E+02  0.45594000000E+02  0.51100000000E-03 0. -1.
    9900012    2    1    2    0    0  0.71714111980E+00 -0.72069228406E+00 -0.59897620495E+00  0.90007974048E+02  0.90000238505E+02 0.  0.
        -12    1    1    2    0    0 -0.71714111980E+00  0.72069228406E+00  0.59897620495E+00  0.11800259523E+01  0.00000000000E+00 0.  1.
         11    1    3    3    0    0  0.43770382915E+01  0.24354095943E+00  0.89489766740E+01  0.99650368879E+01  0.51100000000E-03 0. -1.
        -11    1    3    3    0    0  0.31222408300E+01 -0.34560938255E+02  0.15081174143E+02  0.37837133277E+02  0.51100000000E-03 0.  1.
         12    1    3    3    0    0 -0.67821380017E+01  0.33596705011E+02 -0.24629127022E+02  0.42205803882E+02  0.00000000000E+00 0. -1.
</event>
<event>
 7    1  0.3505640E-015  0.9000776E+02  0.7816164E-02  0.1186339E+00
        -11   -1    0    0    0    0  0.00000000000E+00  0.00000000000E+00  0.45593999997E+02  0.45594000000E+02  0.51100000000E-03 0.  1.
         11   -1    0    0    0    0 -0.00000000000E+00 -0.00000000000E+00 -0.45593999997E+02  0.45594000000E+02  0.51100000000E-03 0. -1.
    9900012    2    1    2    0    0 -0.28257703895E+00 -0.18685853780E+00 -0.11305804580E+01  0.90007755081E+02  0.90000016648E+02 0.  0.
        -12    1    1    2    0    0  0.28257703895E+00  0.18685853780E+00  0.11305804580E+01  0.11802449187E+01  0.00000000000E+00 0.  1.
         11    1    3    3    0    0  0.47114345939E+01 -0.97348343366E+01  0.90068675165E+00  0.10852458357E+02  0.51100000000E-03 0. -1.
        -11    1    3    3    0    0  0.16967719414E+02  0.86937538551E+01  0.32818200397E+02  0.37954171520E+02  0.51100000000E-03 0.  1.
         12    1    3    3    0    0 -0.21961731047E+02  0.85422194378E+00 -0.34849467606E+02  0.41201125205E+02  0.00000000000E+00 0. -1.
</event>
<event>
 7    1  0.3505640E-015  0.9000761E+02  0.7816164E-02  0.1186339E+00
        -11   -1    0    0    0    0  0.00000000000E+00  0.00000000000E+00  0.45593999997E+02  0.45594000000E+02  0.51100000000E-03 0.  1.
         11   -1    0    0    0    0 -0.00000000000E+00 -0.00000000000E+00 -0.45593999997E+02  0.45594000000E+02  0.51100000000E-03 0. -1.
    9900012    2    1    2    0    0 -0.53565455738E+00  0.62625712332E+00 -0.84510807809E+00  0.90007605383E+02  0.89999864973E+02 0.  0.
        -12    1    1    2    0    0  0.53565455738E+00 -0.62625712332E+00  0.84510807809E+00  0.11803946175E+01  0.00000000000E+00 0.  1.
         11    1    3    3    0    0 -0.87056393146E+01  0.93643716520E+01 -0.15300160783E+02  0.19939271114E+02  0.51100000000E-03 0. -1.
        -11    1    3    3    0    0 -0.22477570517E+02  0.17128914345E+02  0.33731700069E+01  0.28460835531E+02  0.51100000000E-03 0.  1.
         12    1    3    3    0    0  0.30647555274E+02 -0.25867028874E+02  0.11081882698E+02  0.41607498737E+02  0.00000000000E+00 0. -1.
</event>
<event>
 7    1  0.3505640E-015  0.9000775E+02  0.7816164E-02  0.1186339E+00
        -11   -1    0    0    0    0  0.00000000000E+00  0.00000000000E+00  0.45593999997E+02  0.45594000000E+02  0.51100000000E-03 0. -1.
         11   -1    0    0    0    0 -0.00000000000E+00 -0.00000000000E+00 -0.45593999997E+02  0.45594000000E+02  0.51100000000E-03 0.  1.
    9900012    2    1    2    0    0 -0.58443339048E+00 -0.24108128096E+00  0.99664252129E+00  0.90007754734E+02  0.90000016297E+02 0.  0.
        -12    1    1    2    0    0  0.58443339048E+00  0.24108128096E+00 -0.99664252129E+00  0.11802452657E+01  0.00000000000E+00 0.  1.
         11    1    3    3    0    0 -0.32064005419E+02 -0.13268690369E+02  0.20578918156E+02  0.40344150262E+02  0.51100000000E-03 0. -1.
        -11    1    3    3    0    0  0.16538859253E+01 -0.69294493409E+01  0.24731902276E+01  0.75411721228E+01  0.51100000000E-03 0.  1.
        -12    1    3    3    0    0  0.29825686103E+02  0.19957058429E+02 -0.22055465862E+02  0.42122432350E+02  0.00000000000E+00 0.  1.
</event>
<event>
 7    1  0.3505640E-015  0.9000773E+02  0.7816164E-02  0.1186339E+00
        -11   -1    0    0    0    0  0.00000000000E+00  0.00000000000E+00  0.45593999997E+02  0.45594000000E+02  0.51100000000E-03 0. -1.
         11   -1    0    0    0    0 -0.00000000000E+00 -0.00000000000E+00 -0.45593999997E+02  0.45594000000E+02  0.51100000000E-03 0.  1.
    9900012    2    1    2    0    0 -0.55939991462E+00  0.78986008964E+00  0.67545323809E+00  0.90007727022E+02  0.89999988219E+02 0.  0.
        -12    1    1    2    0    0  0.55939991462E+00 -0.78986008964E+00 -0.67545323809E+00  0.11802729780E+01  0.00000000000E+00 0.  1.
         11    1    3    3    0    0  0.14877732634E+02  0.80481476087E+01  0.23200847408E+02  0.28712348023E+02  0.51100000000E-03 0. -1.
        -11    1    3    3    0    0 -0.11119128858E+01  0.20169479180E+02 -0.22653520490E+02  0.30351708873E+02  0.51100000000E-03 0.  1.
         12    1    3    3    0    0 -0.14325219663E+02 -0.27427766699E+02  0.12812631957E+00  0.30943670126E+02  0.00000000000E+00 0. -1.
</event>
<event>
 7    1  0.3505640E-015  0.9000773E+02  0.7816164E-02  0.1186339E+00
        -11   -1    0    0    0    0  0.00000000000E+00  0.00000000000E+00  0.45593999997E+02  0.45594000000E+02  0.51100000000E-03 0. -1.
         11   -1    0    0    0    0 -0.00000000000E+00 -0.00000000000E+00 -0.45593999997E+02  0.45594000000E+02  0.51100000000E-03 0.  1.
    9900012    2    1    2    0    0  0.19846720805E+00  0.11163237013E+01  0.32781148951E+00  0.90007733839E+02  0.89999995125E+02 0.  0.
        -12    1    1    2    0    0 -0.19846720805E+00 -0.11163237013E+01 -0.32781148951E+00  0.11802661612E+01  0.00000000000E+00 0.  1.
         11    1    3    3    0    0 -0.27591007926E+02  0.32982152855E+02 -0.16820878321E+01  0.43033888333E+02  0.51100000000E-03 0. -1.
        -11    1    3    3    0    0 -0.30177581503E+01 -0.52269889229E+01  0.16016958243E+01  0.62444941532E+01  0.51100000000E-03 0.  1.
        -12    1    3    3    0    0  0.30807233284E+02 -0.26638840231E+02  0.40820349731E+00  0.40729351352E+02  0.00000000000E+00 0.  1.
</event>
<event>
 7    1  0.3505640E-015  0.9000724E+02  0.7816164E-02  0.1186340E+00
        -11   -1    0    0    0    0  0.00000000000E+00  0.00000000000E+00  0.45593999997E+02  0.45594000000E+02  0.51100000000E-03 0. -1.
         11   -1    0    0    0    0 -0.00000000000E+00 -0.00000000000E+00 -0.45593999997E+02  0.45594000000E+02  0.51100000000E-03 0.  1.
    9900012    2    1    2    0    0  0.65959491488E+00  0.53075557186E+00  0.82305257749E+00  0.90007244956E+02  0.89999499788E+02 0.  0.
        -12    1    1    2    0    0 -0.65959491488E+00 -0.53075557186E+00 -0.82305257749E+00  0.11807550441E+01  0.00000000000E+00 0.  1.
         11    1    3    3    0    0  0.25521090790E+02  0.22158300223E+02  0.53732737542E+01  0.34222630159E+02  0.51100000000E-03 0. -1.
        -11    1    3    3    0    0 -0.53296043647E+01  0.13867306037E+02 -0.34710209684E+01  0.15256305130E+02  0.51100000000E-03 0.  1.
        -12    1    3    3    0    0 -0.19531891510E+02 -0.35494850688E+02 -0.10792002083E+01  0.40528309667E+02  0.00000000000E+00 0.  1.
</event>
<event>
 7    1  0.3505640E-015  0.9000780E+02  0.7816164E-02  0.1186339E+00
        -11   -1    0    0    0    0  0.00000000000E+00  0.00000000000E+00  0.45593999997E+02  0.45594000000E+02  0.51100000000E-03 0.  1.
         11   -1    0    0    0    0 -0.00000000000E+00 -0.00000000000E+00 -0.45593999997E+02  0.45594000000E+02  0.51100000000E-03 0. -1.
    9900012    2    1    2    0    0  0.26721100299E+00  0.10446157812E+01 -0.47985181681E+00  0.90007795943E+02  0.90000058049E+02 0.  0.
        -12    1    1    2    0    0 -0.26721100299E+00 -0.10446157812E+01  0.47985181681E+00  0.11802040572E+01  0.00000000000E+00 0.  1.
         11    1    3    3    0    0  0.10246258931E+02  0.21391729030E+02 -0.31578348445E+02  0.39494100620E+02  0.51100000000E-03 0. -1.
        -11    1    3    3    0    0 -0.13308939149E+01  0.33203997596E+01 -0.52089537446E+01  0.63189819236E+01  0.51100000000E-03 0.  1.
        -12    1    3    3    0    0 -0.86481540130E+01 -0.23667513009E+02  0.36307450373E+02  0.44194713399E+02  0.00000000000E+00 0.  1.
</event>
<event>
 7    1  0.3505640E-015  0.9000774E+02  0.7816164E-02  0.1186339E+00
        -11   -1    0    0    0    0  0.00000000000E+00  0.00000000000E+00  0.45593999997E+02  0.45594000000E+02  0.51100000000E-03 0.  1.
         11   -1    0    0    0    0 -0.00000000000E+00 -0.00000000000E+00 -0.45593999997E+02  0.45594000000E+02  0.51100000000E-03 0. -1.
    9900012    2    1    2    0    0  0.51960290375E+00 -0.10071824219E+01 -0.32956936064E+00  0.90007737499E+02  0.89999998834E+02 0.  0.
        -12    1    1    2    0    0 -0.51960290375E+00  0.10071824219E+01  0.32956936064E+00  0.11802625013E+01  0.00000000000E+00 0.  1.
         11    1    3    3    0    0 -0.33959002253E+01  0.69282996429E+01  0.50517318900E+01  0.92224437993E+01  0.51100000000E-03 0. -1.
        -11    1    3    3    0    0 -0.73643690647E+01  0.23431562480E+02  0.25457343346E+02  0.35374402927E+02  0.51100000000E-03 0.  1.
         12    1    3    3    0    0  0.11279872194E+02 -0.31367044544E+02 -0.30838644597E+02  0.45410890772E+02  0.00000000000E+00 0. -1.
</event>
<event>
 7    1  0.3505640E-015  0.9000727E+02  0.7816164E-02  0.1186340E+00
        -11   -1    0    0    0    0  0.00000000000E+00  0.00000000000E+00  0.45593999997E+02  0.45594000000E+02  0.51100000000E-03 0. -1.
         11   -1    0    0    0    0 -0.00000000000E+00 -0.00000000000E+00 -0.45593999997E+02  0.45594000000E+02  0.51100000000E-03 0.  1.
    9900012    2    1    2    0    0  0.10945000593E+01 -0.32475122925E+00 -0.30122189116E+00  0.90007267868E+02  0.89999523002E+02 0.  0.
        -12    1    1    2    0    0 -0.10945000593E+01  0.32475122925E+00  0.30122189116E+00  0.11807321324E+01  0.00000000000E+00 0.  1.
         11    1    3    3    0    0 -0.54530471265E+01  0.55871302695E+00 -0.87797206938E+01  0.10350428925E+02  0.51100000000E-03 0. -1.
        -11    1    3    3    0    0 -0.87458018640E+01 -0.73825895768E+01 -0.33024146540E+02  0.34951193600E+02  0.51100000000E-03 0.  1.
         12    1    3    3    0    0  0.15293349050E+02  0.64991253206E+01  0.41502645342E+02  0.44705645343E+02  0.00000000000E+00 0. -1.
</event>
<event>
 7    1  0.3505640E-015  0.9000779E+02  0.7816164E-02  0.1186339E+00
        -11   -1    0    0    0    0  0.00000000000E+00  0.00000000000E+00  0.45593999997E+02  0.45594000000E+02  0.51100000000E-03 0.  1.
         11   -1    0    0    0    0 -0.00000000000E+00 -0.00000000000E+00 -0.45593999997E+02  0.45594000000E+02  0.51100000000E-03 0. -1.
    9900012    2    1    2    0    0  0.71870241069E+00  0.15819359782E+00  0.92268567989E+00  0.90007785090E+02  0.90000047053E+02 0.  0.
        -12    1    1    2    0    0 -0.71870241069E+00 -0.15819359782E+00 -0.92268567989E+00  0.11802149098E+01  0.00000000000E+00 0.  1.
         11    1    3    3    0    0 -0.32042974838E+01 -0.64333181248E+01  0.65863899451E+01  0.97486223247E+01  0.51100000000E-03 0. -1.
        -11    1    3    3    0    0  0.22688490433E+01 -0.28219811413E+02  0.21926889143E+02  0.35809131516E+02  0.51100000000E-03 0.  1.
         12    1    3    3    0    0  0.16541508512E+01  0.34811323135E+02 -0.27590593408E+02  0.44450031250E+02  0.00000000000E+00 0. -1.
</event>
<event>
 7    1  0.3505640E-015  0.9000772E+02  0.7816164E-02  0.1186339E+00
        -11   -1    0    0    0    0  0.00000000000E+00  0.00000000000E+00  0.45593999997E+02  0.45594000000E+02  0.51100000000E-03 0.  1.
         11   -1    0    0    0    0 -0.00000000000E+00 -0.00000000000E+00 -0.45593999997E+02  0.45594000000E+02  0.51100000000E-03 0. -1.
    9900012    2    1    2    0    0  0.91823464026E+00  0.50071328844E+00 -0.54698695030E+00  0.90007718942E+02  0.89999980032E+02 0.  0.
        -12    1    1    2    0    0 -0.91823464026E+00 -0.50071328844E+00  0.54698695030E+00  0.11802810579E+01  0.00000000000E+00 0.  1.
         11    1    3    3    0    0  0.77242075169E+01  0.58361327209E+01 -0.74878273192E+01  0.12238929084E+02  0.51100000000E-03 0. -1.
        -11    1    3    3    0    0 -0.34147844649E+02 -0.25281661377E+02 -0.27131095250E+01  0.42574624599E+02  0.51100000000E-03 0.  1.
         12    1    3    3    0    0  0.27341871773E+02  0.19946241944E+02  0.96539498939E+01  0.35194165259E+02  0.00000000000E+00 0. -1.
</event>
<event>
 7    1  0.3505640E-015  0.9000772E+02  0.7816164E-02  0.1186339E+00
        -11   -1    0    0    0    0  0.00000000000E+00  0.00000000000E+00  0.45593999997E+02  0.45594000000E+02  0.51100000000E-03 0. -1.
         11   -1    0    0    0    0 -0.00000000000E+00 -0.00000000000E+00 -0.45593999997E+02  0.45594000000E+02  0.51100000000E-03 0.  1.
    9900012    2    1    2    0    0  0.77470609728E+00  0.86182536923E+00  0.22391866517E+00  0.90007723730E+02  0.89999984884E+02 0.  0.
        -12    1    1    2    0    0 -0.77470609728E+00 -0.86182536923E+00 -0.22391866517E+00  0.11802762697E+01  0.00000000000E+00 0.  1.
         11    1    3    3    0    0  0.76724391850E+01  0.10908031090E+01  0.46063129066E+01  0.90152256391E+01  0.51100000000E-03 0. -1.
        -11    1    3    3    0    0  0.30803344814E+02 -0.15316442346E+02  0.13060324035E+02  0.36796895549E+02  0.51100000000E-03 0.  1.
         12    1    3    3    0    0 -0.37701077902E+02  0.15087464606E+02 -0.17442718276E+02  0.44195602542E+02  0.00000000000E+00 0. -1.
</event>
<event>
 7    1  0.4321889E-015  0.9000775E+02  0.7816164E-02  0.1186339E+00
        -11   -1    0    0    0    0  0.00000000000E+00  0.00000000000E+00  0.45593999997E+02  0.45594000000E+02  0.51100000000E-03 0. -1.
         11   -1    0    0    0    0 -0.00000000000E+00 -0.00000000000E+00 -0.45593999997E+02  0.45594000000E+02  0.51100000000E-03 0.  1.
    9900012    2    1    2    0    0  0.55465056278E+00  0.13818820878E+00  0.10325938821E+01  0.90007752842E+02  0.90000014380E+02 0.  0.
        -12    1    1    2    0    0 -0.55465056278E+00 -0.13818820878E+00 -0.10325938821E+01  0.11802471577E+01  0.00000000000E+00 0.  1.
         11    1    3    3    0    0  0.17578264290E+01 -0.37232715241E+01  0.92940205929E+01  0.10165211441E+02  0.51100000000E-03 0. -1.
        -11    1    3    3    0    0 -0.34953006115E+02  0.21048083979E+02  0.11480322452E+01  0.40817305814E+02  0.51100000000E-03 0.  1.
         12    1    3    3    0    0  0.33749830249E+02 -0.17186624246E+02 -0.94094589560E+01  0.39025235587E+02  0.00000000000E+00 0. -1.
</event>
<event>
 7    1  0.3505640E-015  0.9000775E+02  0.7816164E-02  0.1186339E+00
        -11   -1    0    0    0    0  0.00000000000E+00  0.00000000000E+00  0.45593999997E+02  0.45594000000E+02  0.51100000000E-03 0. -1.
         11   -1    0    0    0    0 -0.00000000000E+00 -0.00000000000E+00 -0.45593999997E+02  0.45594000000E+02  0.51100000000E-03 0.  1.
    9900012    2    1    2    0    0  0.10976080788E+01  0.42807871830E+00 -0.70701710005E-01  0.90007748495E+02  0.90000009975E+02 0.  0.
        -12    1    1    2    0    0 -0.10976080788E+01 -0.42807871830E+00  0.70701710005E-01  0.11802515052E+01  0.00000000000E+00 0.  1.
         11    1    3    3    0    0 -0.18145152315E+02 -0.86158443202E+01  0.75171051108E+01  0.21447288766E+02  0.51100000000E-03 0. -1.
        -11    1    3    3    0    0  0.49312519070E+01  0.23259307311E+02  0.22237111613E+02  0.32554596529E+02  0.51100000000E-03 0.  1.
         12    1    3    3    0    0  0.14311508487E+02 -0.14215384273E+02 -0.29824918434E+02  0.36005863200E+02  0.00000000000E+00 0. -1.
</event>
<event>
 7    1  0.3505640E-015  0.9000769E+02  0.7816164E-02  0.1186339E+00
        -11   -1    0    0    0    0  0.00000000000E+00  0.00000000000E+00  0.45593999997E+02  0.45594000000E+02  0.51100000000E-03 0. -1.
         11   -1    0    0    0    0 -0.00000000000E+00 -0.00000000000E+00 -0.45593999997E+02  0.45594000000E+02  0.51100000000E-03 0.  1.
    9900012    2    1    2    0    0 -0.98712967814E+00 -0.16814077613E+00 -0.62485101359E+00  0.90007688553E+02  0.89999949242E+02 0.  0.
        -12    1    1    2    0    0  0.98712967814E+00  0.16814077613E+00  0.62485101359E+00  0.11803114467E+01  0.00000000000E+00 0.  1.
         11    1    3    3    0    0  0.56478443445E+01  0.65669400712E+01  0.28647591172E+01  0.91230308944E+01  0.51100000000E-03 0. -1.
        -11    1    3    3    0    0  0.30707405211E+02  0.12668232631E+02 -0.16154345882E+02  0.36937673775E+02  0.51100000000E-03 0.  1.
         12    1    3    3    0    0 -0.37342379234E+02 -0.19403313479E+02  0.12664735751E+02  0.43946983883E+02  0.00000000000E+00 0. -1.
</event>
<event>
 7    1  0.3505640E-015  0.9000772E+02  0.7816164E-02  0.1186339E+00
        -11   -1    0    0    0    0  0.00000000000E+00  0.00000000000E+00  0.45593999997E+02  0.45594000000E+02  0.51100000000E-03 0.  1.
         11   -1    0    0    0    0 -0.00000000000E+00 -0.00000000000E+00 -0.45593999997E+02  0.45594000000E+02  0.51100000000E-03 0. -1.
    9900012    2    1    2    0    0  0.41166706175E+00 -0.73080146828E+00 -0.83037724676E+00  0.90007717437E+02  0.89999978508E+02 0.  0.
        -12    1    1    2    0    0 -0.41166706175E+00  0.73080146828E+00  0.83037724676E+00  0.11802825627E+01  0.00000000000E+00 0.  1.
         11    1    3    3    0    0 -0.44340054038E+01  0.35094894504E+02 -0.11328545529E+02  0.37143612751E+02  0.51100000000E-03 0. -1.
        -11    1    3    3    0    0 -0.88140889195E+01  0.33310251873E+01 -0.18320346242E+01  0.95989709555E+01  0.51100000000E-03 0.  1.
        -12    1    3    3    0    0  0.13659761385E+02 -0.39156721159E+02  0.12330202907E+02  0.43265133731E+02  0.00000000000E+00 0.  1.
</event>
<event>
 7    1  0.3505640E-015  0.9000844E+02  0.7816164E-02  0.1186338E+00
        -11   -1    0    0    0    0  0.00000000000E+00  0.00000000000E+00  0.45593999997E+02  0.45594000000E+02  0.51100000000E-03 0.  1.
         11   -1    0    0    0    0 -0.00000000000E+00 -0.00000000000E+00 -0.45593999997E+02  0.45594000000E+02  0.51100000000E-03 0. -1.
    9900012    2    1    2    0    0  0.10930855838E+01 -0.52065650866E-01  0.44023838262E+00  0.90008442134E+02  0.90000712767E+02 0.  0.
        -12    1    1    2    0    0 -0.10930855838E+01  0.52065650866E-01 -0.44023838262E+00  0.11795578659E+01  0.00000000000E+00 0.  1.
         11    1    3    3    0    0  0.26395021497E+01  0.45591994546E+01 -0.55425737227E+01  0.76467898491E+01  0.51100000000E-03 0. -1.
        -11    1    3    3    0    0  0.32340633068E+02 -0.23268128811E+02  0.15119830075E+02  0.42613749276E+02  0.51100000000E-03 0.  1.
         12    1    3    3    0    0 -0.33887049634E+02  0.18656863706E+02 -0.91370179696E+01  0.39747903009E+02  0.00000000000E+00 0. -1.
</event>
<event>
 7    1  0.3505640E-015  0.9000774E+02  0.7816164E-02  0.1186339E+00
        -11   -1    0    0    0    0  0.00000000000E+00  0.00000000000E+00  0.45593999997E+02  0.45594000000E+02  0.51100000000E-03 0. -1.
         11   -1    0    0    0    0 -0.00000000000E+00 -0.00000000000E+00 -0.45593999997E+02  0.45594000000E+02  0.51100000000E-03 0.  1.
    9900012    2    1    2    0    0  0.16312373465E+00 -0.93492940795E+00  0.70164405568E+00  0.90007742938E+02  0.90000004345E+02 0.  0.
        -12    1    1    2    0    0 -0.16312373465E+00  0.93492940795E+00 -0.70164405568E+00  0.11802570616E+01  0.00000000000E+00 0.  1.
         11    1    3    3    0    0 -0.31345215600E+02 -0.29753300672E+01  0.25702442078E+02  0.40644687956E+02  0.51100000000E-03 0. -1.
        -11    1    3    3    0    0  0.58282890381E+01 -0.13104188998E+01  0.63371267942E+01  0.87089222680E+01  0.51100000000E-03 0.  1.
        -12    1    3    3    0    0  0.25680050296E+02  0.33508195590E+01 -0.31337924817E+02  0.40654132714E+02  0.00000000000E+00 0.  1.
</event>
<event>
 7    1  0.3505640E-015  0.9000775E+02  0.7816164E-02  0.1186339E+00
        -11   -1    0    0    0    0  0.00000000000E+00  0.00000000000E+00  0.45593999997E+02  0.45594000000E+02  0.51100000000E-03 0.  1.
         11   -1    0    0    0    0 -0.00000000000E+00 -0.00000000000E+00 -0.45593999997E+02  0.45594000000E+02  0.51100000000E-03 0. -1.
    9900012    2    1    2    0    0 -0.21711873257E+00 -0.10046088467E+01 -0.58018686931E+00  0.90007747365E+02  0.90000008830E+02 0.  0.
        -12    1    1    2    0    0  0.21711873257E+00  0.10046088467E+01  0.58018686931E+00  0.11802526349E+01  0.00000000000E+00 0.  1.
         11    1    3    3    0    0  0.16748350059E+02  0.46239734929E+01  0.73725575801E+01  0.18874399754E+02  0.51100000000E-03 0. -1.
        -11    1    3    3    0    0  0.22633947054E+00 -0.28825149403E+02  0.16572409087E+02  0.33250341515E+02  0.51100000000E-03 0.  1.
         12    1    3    3    0    0 -0.17191808262E+02  0.23196567063E+02 -0.24525153537E+02  0.37883006096E+02  0.00000000000E+00 0. -1.
</event>
<event>
 7    1  0.3505640E-015  0.9000779E+02  0.7816164E-02  0.1186339E+00
        -11   -1    0    0    0    0  0.00000000000E+00  0.00000000000E+00  0.45593999997E+02  0.45594000000E+02  0.51100000000E-03 0.  1.
         11   -1    0    0    0    0 -0.00000000000E+00 -0.00000000000E+00 -0.45593999997E+02  0.45594000000E+02  0.51100000000E-03 0. -1.
    9900012    2    1    2    0    0 -0.66516865339E+00  0.95880652845E+00 -0.17647881806E+00  0.90007786430E+02  0.90000048411E+02 0.  0.
        -12    1    1    2    0    0  0.66516865339E+00 -0.95880652845E+00  0.17647881806E+00  0.11802135695E+01  0.00000000000E+00 0.  1.
         11    1    3    3    0    0  0.19654449197E+02 -0.51654420570E+01 -0.30057232745E+02  0.36282453134E+02  0.51100000000E-03 0. -1.
        -11    1    3    3    0    0  0.55493893640E+00  0.28414674196E+01 -0.90104683742E+01  0.94641658324E+01  0.51100000000E-03 0.  1.
        -12    1    3    3    0    0 -0.20874556786E+02  0.32827811659E+01  0.38891222301E+02  0.44261167464E+02  0.00000000000E+00 0.  1.
</event>
<event>
 7    1  0.3505640E-015  0.9000748E+02  0.7816164E-02  0.1186340E+00
        -11   -1    0    0    0    0  0.00000000000E+00  0.00000000000E+00  0.45593999997E+02  0.45594000000E+02  0.51100000000E-03 0. -1.
         11   -1    0    0    0    0 -0.00000000000E+00 -0.00000000000E+00 -0.45593999997E+02  0.45594000000E+02  0.51100000000E-03 0.  1.
    9900012    2    1    2    0    0 -0.36264843380E-03  0.10320700529E+01 -0.57311012486E+00  0.90007481495E+02  0.89999739450E+02 0.  0.
        -12    1    1    2    0    0  0.36264843380E-03 -0.10320700529E+01  0.57311012486E+00  0.11805185051E+01  0.00000000000E+00 0.  1.
         11    1    3    3    0    0 -0.11734181657E+02  0.11259215608E+01 -0.24981300993E+01  0.12049870239E+02  0.51100000000E-03 0. -1.
        -11    1    3    3    0    0 -0.46279328350E+01 -0.83377460472E+00 -0.36178657303E+02  0.36482984896E+02  0.51100000000E-03 0.  1.
         12    1    3    3    0    0  0.16361751844E+02  0.73992309687E+00  0.38103677277E+02  0.41474626359E+02  0.00000000000E+00 0. -1.
</event>
<event>
 7    1  0.3505640E-015  0.9000779E+02  0.7816164E-02  0.1186339E+00
        -11   -1    0    0    0    0  0.00000000000E+00  0.00000000000E+00  0.45593999997E+02  0.45594000000E+02  0.51100000000E-03 0.  1.
         11   -1    0    0    0    0 -0.00000000000E+00 -0.00000000000E+00 -0.45593999997E+02  0.45594000000E+02  0.51100000000E-03 0. -1.
    9900012    2    1    2    0    0 -0.76289767587E+00  0.65529131794E-01 -0.89809692052E+00  0.90007794505E+02  0.90000056593E+02 0.  0.
        -12    1    1    2    0    0  0.76289767587E+00 -0.65529131794E-01  0.89809692052E+00  0.11802054946E+01  0.00000000000E+00 0.  1.
         11    1    3    3    0    0 -0.84911404742E+01 -0.52019222129E+01 -0.77925315227E+01  0.12644485322E+02  0.51100000000E-03 0. -1.
        -11    1    3    3    0    0 -0.27403208199E+02 -0.16481646636E+02  0.14895704967E+02  0.35276940374E+02  0.51100000000E-03 0.  1.
         12    1    3    3    0    0  0.35131450997E+02  0.21749097981E+02 -0.80012703648E+01  0.42086368810E+02  0.00000000000E+00 0. -1.
</event>
<event>
 7    1  0.3505640E-015  0.9000778E+02  0.7816164E-02  0.1186339E+00
        -11   -1    0    0    0    0  0.00000000000E+00  0.00000000000E+00  0.45593999997E+02  0.45594000000E+02  0.51100000000E-03 0.  1.
         11   -1    0    0    0    0 -0.00000000000E+00 -0.00000000000E+00 -0.45593999997E+02  0.45594000000E+02  0.51100000000E-03 0. -1.
    9900012    2    1    2    0    0  0.23283626971E+00  0.82731042110E+00 -0.80886217158E+00  0.90007782531E+02  0.90000044460E+02 0.  0.
        -12    1    1    2    0    0 -0.23283626971E+00 -0.82731042110E+00  0.80886217158E+00  0.11802174689E+01  0.00000000000E+00 0.  1.
         11    1    3    3    0    0 -0.19305175913E+02  0.19610608606E+01  0.22290134027E+02  0.29553098855E+02  0.51100000000E-03 0. -1.
        -11    1    3    3    0    0  0.59515260265E+01  0.39396023614E+01  0.16664683850E+02  0.18128784209E+02  0.51100000000E-03 0.  1.
         12    1    3    3    0    0  0.13586486156E+02 -0.50733528009E+01 -0.39763680049E+02  0.42325899467E+02  0.00000000000E+00 0. -1.
</event>
<event>
 7    1  0.3505640E-015  0.9000772E+02  0.7816164E-02  0.1186339E+00
        -11   -1    0    0    0    0  0.00000000000E+00  0.00000000000E+00  0.45593999997E+02  0.45594000000E+02  0.51100000000E-03 0. -1.
         11   -1    0    0    0    0 -0.00000000000E+00 -0.00000000000E+00 -0.45593999997E+02  0.45594000000E+02  0.51100000000E-03 0.  1.
    9900012    2    1    2    0    0  0.61828887526E+00  0.94623453033E+00  0.33972846387E+00  0.90007721919E+02  0.89999983048E+02 0.  0.
        -12    1    1    2    0    0 -0.61828887526E+00 -0.94623453033E+00 -0.33972846387E+00  0.11802780811E+01  0.00000000000E+00 0.  1.
         11    1    3    3    0    0  0.82723149986E+01  0.83831585720E+01  0.26316736475E+01  0.12067901621E+02  0.51100000000E-03 0. -1.
        -11    1    3    3    0    0 -0.15083170052E+02 -0.40893003341E+01 -0.38118843748E+02  0.41197944669E+02  0.51100000000E-03 0.  1.
         12    1    3    3    0    0  0.74291439283E+01 -0.33476237076E+01  0.35826898564E+02  0.36741875629E+02  0.00000000000E+00 0. -1.
</event>
<event>
 7    1  0.3505640E-015  0.9000862E+02  0.7816164E-02  0.1186337E+00
        -11   -1    0    0    0    0  0.00000000000E+00  0.00000000000E+00  0.45593999997E+02  0.45594000000E+02  0.51100000000E-03 0. -1.
         11   -1    0    0    0    0 -0.00000000000E+00 -0.00000000000E+00 -0.45593999997E+02  0.45594000000E+02  0.51100000000E-03 0.  1.
    9900012    2    1    2    0    0  0.20762778368E+00 -0.10827747124E+01  0.41884397167E+00  0.90008618532E+02  0.90000891492E+02 0.  0.
        -12    1    1    2    0    0 -0.20762778368E+00  0.10827747124E+01 -0.41884397167E+00  0.11793814680E+01  0.00000000000E+00 0.  1.
         11    1    3    3    0    0  0.17940895462E+01  0.18756019361E+01 -0.83801431334E+01  0.87728808906E+01  0.51100000000E-03 0. -1.
        -11    1    3    3    0    0  0.31078466135E+02  0.15839538786E+02 -0.13548114141E+02  0.37420762195E+02  0.51100000000E-03 0.  1.
         12    1    3    3    0    0 -0.32664927897E+02 -0.18797915435E+02  0.22347101246E+02  0.43814975446E+02  0.00000000000E+00 0. -1.
</event>
<event>
 7    1  0.3505640E-015  0.9000773E+02  0.7816164E-02  0.1186339E+00
        -11   -1    0    0    0    0  0.00000000000E+00  0.00000000000E+00  0.45593999997E+02  0.45594000000E+02  0.51100000000E-03 0.  1.
         11   -1    0    0    0    0 -0.00000000000E+00 -0.00000000000E+00 -0.45593999997E+02  0.45594000000E+02  0.51100000000E-03 0. -1.
    9900012    2    1    2    0    0 -0.17580105691E+00  0.10058353139E+01 -0.59196421994E+00  0.90007732095E+02  0.89999993358E+02 0.  0.
        -12    1    1    2    0    0  0.17580105691E+00 -0.10058353139E+01  0.59196421994E+00  0.11802679052E+01  0.00000000000E+00 0.  1.
         11    1    3    3    0    0  0.17829978681E+02  0.27082301276E+02 -0.26167510812E+02  0.41666506988E+02  0.51100000000E-03 0. -1.
        -11    1    3    3    0    0  0.37977110043E+00  0.38088960853E+01  0.84933228278E+01  0.93160317945E+01  0.51100000000E-03 0.  1.
        -12    1    3    3    0    0 -0.18385550838E+02 -0.29885362048E+02  0.17082223765E+02  0.39025193313E+02  0.00000000000E+00 0.  1.
</event>
<event>
 7    1  0.3505640E-015  0.9000766E+02  0.7816164E-02  0.1186339E+00
        -11   -1    0    0    0    0  0.00000000000E+00  0.00000000000E+00  0.45593999997E+02  0.45594000000E+02  0.51100000000E-03 0. -1.
         11   -1    0    0    0    0 -0.00000000000E+00 -0.00000000000E+00 -0.45593999997E+02  0.45594000000E+02  0.51100000000E-03 0.  1.
    9900012    2    1    2    0    0 -0.21451943450E+00 -0.10318211567E+01  0.53153825915E+00  0.90007658351E+02  0.89999918641E+02 0.  0.
        -12    1    1    2    0    0  0.21451943450E+00  0.10318211567E+01 -0.53153825915E+00  0.11803416489E+01  0.00000000000E+00 0.  1.
         11    1    3    3    0    0 -0.45385135443E+01 -0.18088023956E+02  0.31584120591E+02  0.36678759379E+02  0.51100000000E-03 0. -1.
        -11    1    3    3    0    0 -0.65422439354E+01  0.13044912315E+01  0.76522779700E+01  0.10151847688E+02  0.51100000000E-03 0.  1.
        -12    1    3    3    0    0  0.10866238045E+02  0.15751711568E+02 -0.38704860302E+02  0.43177051284E+02  0.00000000000E+00 0.  1.
</event>
<event>
 7    1  0.3506193E-015  0.9000745E+02  0.7816164E-02  0.1186340E+00
        -11   -1    0    0    0    0  0.00000000000E+00  0.00000000000E+00  0.45593999997E+02  0.45594000000E+02  0.51100000000E-03 0.  1.
         11   -1    0    0    0    0 -0.00000000000E+00 -0.00000000000E+00 -0.45593999997E+02  0.45594000000E+02  0.51100000000E-03 0. -1.
    9900012    2    1    2    0    0 -0.30742726835E+00  0.91919813790E+00 -0.67398701950E+00  0.90007451295E+02  0.89999708852E+02 0.  0.
        -12    1    1    2    0    0  0.30742726835E+00 -0.91919813790E+00  0.67398701950E+00  0.11805487048E+01  0.00000000000E+00 0.  1.
         11    1    3    3    0    0  0.24358254986E+00  0.71951216400E+01  0.69716999365E+01  0.10021661945E+02  0.51100000000E-03 0. -1.
        -11    1    3    3    0    0 -0.37036762776E+02  0.83215382745E+01  0.59069145423E+01  0.38416942042E+02  0.51100000000E-03 0.  1.
         12    1    3    3    0    0  0.36485752957E+02 -0.14597461777E+02 -0.13552601498E+02  0.41568847309E+02  0.00000000000E+00 0. -1.
</event>
<event>
 7    1  0.3505640E-015  0.9000773E+02  0.7816164E-02  0.1186339E+00
        -11   -1    0    0    0    0  0.00000000000E+00  0.00000000000E+00  0.45593999997E+02  0.45594000000E+02  0.51100000000E-03 0. -1.
         11   -1    0    0    0    0 -0.00000000000E+00 -0.00000000000E+00 -0.45593999997E+02  0.45594000000E+02  0.51100000000E-03 0.  1.
    9900012    2    1    2    0    0 -0.64093572600E+00 -0.91448624323E+00  0.38204321131E+00  0.90007728544E+02  0.89999989761E+02 0.  0.
        -12    1    1    2    0    0  0.64093572600E+00  0.91448624323E+00 -0.38204321131E+00  0.11802714557E+01  0.00000000000E+00 0.  1.
         11    1    3    3    0    0  0.39833814656E+01 -0.29984862769E+02  0.13439182475E+02  0.33099410101E+02  0.51100000000E-03 0. -1.
        -11    1    3    3    0    0 -0.13316232676E+02 -0.60466097332E+01  0.62473689019E+01  0.15903243707E+02  0.51100000000E-03 0.  1.
        -12    1    3    3    0    0  0.86919154841E+01  0.35116986259E+02 -0.19304508165E+02  0.41005074737E+02  0.00000000000E+00 0.  1.
</event>
<event>
 7    1  0.3505640E-015  0.9000771E+02  0.7816164E-02  0.1186339E+00
        -11   -1    0    0    0    0  0.00000000000E+00  0.00000000000E+00  0.45593999997E+02  0.45594000000E+02  0.51100000000E-03 0.  1.
         11   -1    0    0    0    0 -0.00000000000E+00 -0.00000000000E+00 -0.45593999997E+02  0.45594000000E+02  0.51100000000E-03 0. -1.
    9900012    2    1    2    0    0  0.53698356705E+00 -0.59487113738E+00 -0.86652072513E+00  0.90007711396E+02  0.89999972387E+02 0.  0.
        -12    1    1    2    0    0 -0.53698356705E+00  0.59487113738E+00  0.86652072513E+00  0.11802886039E+01  0.00000000000E+00 0.  1.
         11    1    3    3    0    0  0.76119257957E+01 -0.29975946636E+02 -0.20707922668E+02  0.37219844875E+02  0.51100000000E-03 0. -1.
        -11    1    3    3    0    0  0.18895829104E+01 -0.87790503072E+01  0.74762538742E+01  0.11684888537E+02  0.51100000000E-03 0.  1.
        -12    1    3    3    0    0 -0.89645251390E+01  0.38160125805E+02  0.12365148068E+02  0.41102977985E+02  0.00000000000E+00 0.  1.
</event>
<event>
 7    1  0.3505640E-015  0.9000778E+02  0.7816164E-02  0.1186339E+00
        -11   -1    0    0    0    0  0.00000000000E+00  0.00000000000E+00  0.45593999997E+02  0.45594000000E+02  0.51100000000E-03 0. -1.
         11   -1    0    0    0    0 -0.00000000000E+00 -0.00000000000E+00 -0.45593999997E+02  0.45594000000E+02  0.51100000000E-03 0.  1.
    9900012    2    1    2    0    0  0.56157195712E+00 -0.90774108517E+00  0.50353956132E+00  0.90007784329E+02  0.90000046282E+02 0.  0.
        -12    1    1    2    0    0 -0.56157195712E+00  0.90774108517E+00 -0.50353956132E+00  0.11802156712E+01  0.00000000000E+00 0.  1.
         11    1    3    3    0    0  0.73514169981E+01 -0.37239927479E+02 -0.76082353752E+01  0.38713573541E+02  0.51100000000E-03 0. -1.
        -11    1    3    3    0    0  0.33032310958E+01  0.62753568846E+01 -0.11862624357E+02  0.13820756007E+02  0.51100000000E-03 0.  1.
        -12    1    3    3    0    0 -0.10093076137E+02  0.30056829510E+02  0.19974399294E+02  0.37473454781E+02  0.00000000000E+00 0.  1.
</event>
<event>
 7    1  0.3505640E-015  0.9000770E+02  0.7816164E-02  0.1186339E+00
        -11   -1    0    0    0    0  0.00000000000E+00  0.00000000000E+00  0.45593999997E+02  0.45594000000E+02  0.51100000000E-03 0. -1.
         11   -1    0    0    0    0 -0.00000000000E+00 -0.00000000000E+00 -0.45593999997E+02  0.45594000000E+02  0.51100000000E-03 0.  1.
    9900012    2    1    2    0    0  0.98284514251E+00 -0.22341753483E+00 -0.61417496589E+00  0.90007698828E+02  0.89999959652E+02 0.  0.
        -12    1    1    2    0    0 -0.98284514251E+00  0.22341753483E+00  0.61417496589E+00  0.11803011725E+01  0.00000000000E+00 0.  1.
         11    1    3    3    0    0 -0.70846232863E+01  0.39775705060E+01 -0.17412398171E+02  0.19214696578E+02  0.51100000000E-03 0. -1.
        -11    1    3    3    0    0  0.23588931170E+02  0.14751113421E+02 -0.14238632476E+02  0.31253346636E+02  0.51100000000E-03 0.  1.
         12    1    3    3    0    0 -0.15521462741E+02 -0.18952101462E+02  0.31036855682E+02  0.39539655614E+02  0.00000000000E+00 0. -1.
</event>
<event>
 7    1  0.3505640E-015  0.9000735E+02  0.7816164E-02  0.1186340E+00
        -11   -1    0    0    0    0  0.00000000000E+00  0.00000000000E+00  0.45593999997E+02  0.45594000000E+02  0.51100000000E-03 0.  1.
         11   -1    0    0    0    0 -0.00000000000E+00 -0.00000000000E+00 -0.45593999997E+02  0.45594000000E+02  0.51100000000E-03 0. -1.
    9900012    2    1    2    0    0 -0.20747589615E+00  0.22445517361E+00 -0.11403958043E+01  0.90007352312E+02  0.89999608562E+02 0.  0.
        -12    1    1    2    0    0  0.20747589615E+00 -0.22445517361E+00  0.11403958043E+01  0.11806476879E+01  0.00000000000E+00 0.  1.
         11    1    3    3    0    0  0.66717045862E+00 -0.81442255524E+01 -0.55021460040E+01  0.98512505388E+01  0.51100000000E-03 0. -1.
        -11    1    3    3    0    0  0.32275510872E+02  0.25112950400E+02  0.11182571503E+02  0.42395976054E+02  0.51100000000E-03 0.  1.
         12    1    3    3    0    0 -0.33150157227E+02 -0.16744269674E+02 -0.68208213037E+01  0.37760125719E+02  0.00000000000E+00 0. -1.
</event>
<event>
 7    1  0.3505640E-015  0.9000781E+02  0.7816164E-02  0.1186339E+00
        -11   -1    0    0    0    0  0.00000000000E+00  0.00000000000E+00  0.45593999997E+02  0.45594000000E+02  0.51100000000E-03 0. -1.
         11   -1    0    0    0    0 -0.00000000000E+00 -0.00000000000E+00 -0.45593999997E+02  0.45594000000E+02  0.51100000000E-03 0.  1.
    9900012    2    1    2    0    0 -0.35076966681E+00 -0.11264675689E+01 -0.29533781358E-01  0.90007813241E+02  0.90000075575E+02 0.  0.
        -12    1    1    2    0    0  0.35076966681E+00  0.11264675689E+01  0.29533781358E-01  0.11801867595E+01  0.00000000000E+00 0.  1.
         11    1    3    3    0    0 -0.30514334397E+02 -0.19791456800E+02  0.16185676145E+02  0.39809577723E+02  0.51100000000E-03 0. -1.
        -11    1    3    3    0    0 -0.61919523008E+01  0.98206220778E+00 -0.55848675037E+01  0.83961577385E+01  0.51100000000E-03 0.  1.
        -12    1    3    3    0    0  0.36355517030E+02  0.17682927023E+02 -0.10630342422E+02  0.41802077779E+02  0.00000000000E+00 0.  1.
</event>
<event>
 7    1  0.3505640E-015  0.9000675E+02  0.7816164E-02  0.1186341E+00
        -11   -1    0    0    0    0  0.00000000000E+00  0.00000000000E+00  0.45593999997E+02  0.45594000000E+02  0.51100000000E-03 0. -1.
         11   -1    0    0    0    0 -0.00000000000E+00 -0.00000000000E+00 -0.45593999997E+02  0.45594000000E+02  0.51100000000E-03 0.  1.
    9900012    2    1    2    0    0  0.37197664477E+00 -0.11205574396E+01 -0.36480729963E-01  0.90006752167E+02  0.89999000490E+02 0.  0.
        -12    1    1    2    0    0 -0.37197664477E+00  0.11205574396E+01  0.36480729963E-01  0.11812478332E+01  0.00000000000E+00 0.  1.
         11    1    3    3    0    0 -0.37963332288E+01  0.13119233075E+02  0.16681007438E+01  0.13758960092E+02  0.51100000000E-03 0. -1.
        -11    1    3    3    0    0 -0.78912592191E+01  0.18544720876E+02 -0.26585035372E+02  0.33360796610E+02  0.51100000000E-03 0.  1.
         12    1    3    3    0    0  0.12059569093E+02 -0.32784511391E+02  0.24880453898E+02  0.42886995465E+02  0.00000000000E+00 0. -1.
</event>
<event>
 7    1  0.3505640E-015  0.9000784E+02  0.7816164E-02  0.1186339E+00
        -11   -1    0    0    0    0  0.00000000000E+00  0.00000000000E+00  0.45593999997E+02  0.45594000000E+02  0.51100000000E-03 0.  1.
         11   -1    0    0    0    0 -0.00000000000E+00 -0.00000000000E+00 -0.45593999997E+02  0.45594000000E+02  0.51100000000E-03 0. -1.
    9900012    2    1    2    0    0 -0.74856445154E-02 -0.10215963077E+01  0.59081201806E+00  0.90007841582E+02  0.90000104291E+02 0.  0.
        -12    1    1    2    0    0  0.74856445154E-02  0.10215963077E+01 -0.59081201806E+00  0.11801584179E+01  0.00000000000E+00 0.  1.
         11    1    3    3    0    0 -0.70024365446E+01 -0.11446413889E+02  0.22905896443E+01  0.13612542366E+02  0.51100000000E-03 0. -1.
        -11    1    3    3    0    0 -0.11930088454E+02  0.68195753797E+01  0.33532937619E+02  0.36239364295E+02  0.51100000000E-03 0.  1.
         12    1    3    3    0    0  0.18925039354E+02  0.36052422014E+01 -0.35232715245E+02  0.40155934922E+02  0.00000000000E+00 0. -1.
</event>
<event>
 7    1  0.3505640E-015  0.9000773E+02  0.7816164E-02  0.1186339E+00
        -11   -1    0    0    0    0  0.00000000000E+00  0.00000000000E+00  0.45593999997E+02  0.45594000000E+02  0.51100000000E-03 0.  1.
         11   -1    0    0    0    0 -0.00000000000E+00 -0.00000000000E+00 -0.45593999997E+02  0.45594000000E+02  0.51100000000E-03 0. -1.
    9900012    2    1    2    0    0 -0.49408263380E+00 -0.66686672010E+00 -0.83917577389E+00  0.90007726790E+02  0.89999987983E+02 0.  0.
        -12    1    1    2    0    0  0.49408263380E+00  0.66686672010E+00  0.83917577389E+00  0.11802732103E+01  0.00000000000E+00 0.  1.
         11    1    3    3    0    0  0.30335171044E+01 -0.35203356028E+01 -0.68145766947E+01  0.82482388768E+01  0.51100000000E-03 0. -1.
        -11    1    3    3    0    0 -0.50720022245E+01  0.22583443853E+02 -0.31671482009E+02  0.39227795193E+02  0.51100000000E-03 0.  1.
         12    1    3    3    0    0  0.15444024862E+01 -0.19729974970E+02  0.37646882929E+02  0.42531692720E+02  0.00000000000E+00 0. -1.
</event>
<event>
 7    1  0.3505640E-015  0.9000773E+02  0.7816164E-02  0.1186339E+00
        -11   -1    0    0    0    0  0.00000000000E+00  0.00000000000E+00  0.45593999997E+02  0.45594000000E+02  0.51100000000E-03 0. -1.
         11   -1    0    0    0    0 -0.00000000000E+00 -0.00000000000E+00 -0.45593999997E+02  0.45594000000E+02  0.51100000000E-03 0.  1.
    9900012    2    1    2    0    0 -0.11640515537E+00  0.50145788074E+00  0.10620836301E+01  0.90007732317E+02  0.89999993584E+02 0.  0.
        -12    1    1    2    0    0  0.11640515537E+00 -0.50145788074E+00 -0.10620836301E+01  0.11802676831E+01  0.00000000000E+00 0.  1.
         11    1    3    3    0    0  0.21004997188E+01  0.13856215281E+02  0.34822484996E+02  0.37536812098E+02  0.51100000000E-03 0. -1.
        -11    1    3    3    0    0  0.38262393494E+01  0.90191159199E+01  0.18625375582E+01  0.99726428770E+01  0.51100000000E-03 0.  1.
        -12    1    3    3    0    0 -0.60431442236E+01 -0.22373873320E+02 -0.35622938924E+02  0.42498277342E+02  0.00000000000E+00 0.  1.
</event>
<event>
 7    1  0.3505640E-015  0.9000776E+02  0.7816164E-02  0.1186339E+00
        -11   -1    0    0    0    0  0.00000000000E+00  0.00000000000E+00  0.45593999997E+02  0.45594000000E+02  0.51100000000E-03 0. -1.
         11   -1    0    0    0    0 -0.00000000000E+00 -0.00000000000E+00 -0.45593999997E+02  0.45594000000E+02  0.51100000000E-03 0.  1.
    9900012    2    1    2    0    0  0.77280964011E+00 -0.82943524404E+00  0.32828247923E+00  0.90007759791E+02  0.90000021421E+02 0.  0.
        -12    1    1    2    0    0 -0.77280964011E+00  0.82943524404E+00 -0.32828247923E+00  0.11802402086E+01  0.00000000000E+00 0.  1.
         11    1    3    3    0    0  0.38217308236E+02 -0.11103114390E+02  0.81789934182E+01  0.40629271856E+02  0.51100000000E-03 0. -1.
        -11    1    3    3    0    0  0.30446320566E+01  0.75784077367E+01 -0.15671378284E+01  0.83161270684E+01  0.51100000000E-03 0.  1.
        -12    1    3    3    0    0 -0.40489130652E+02  0.26952714094E+01 -0.62835731106E+01  0.41062360867E+02  0.00000000000E+00 0.  1.
</event>
<event>
 7    1  0.3505640E-015  0.9000785E+02  0.7816164E-02  0.1186339E+00
        -11   -1    0    0    0    0  0.00000000000E+00  0.00000000000E+00  0.45593999997E+02  0.45594000000E+02  0.51100000000E-03 0. -1.
         11   -1    0    0    0    0 -0.00000000000E+00 -0.00000000000E+00 -0.45593999997E+02  0.45594000000E+02  0.51100000000E-03 0.  1.
    9900012    2    1    2    0    0  0.74728169345E+00 -0.47237696858E+00  0.78177525987E+00  0.90007854887E+02  0.90000117772E+02 0.  0.
        -12    1    1    2    0    0 -0.74728169345E+00  0.47237696858E+00 -0.78177525987E+00  0.11801451126E+01  0.00000000000E+00 0.  1.
         11    1    3    3    0    0 -0.36577686069E+01 -0.81289656720E+01  0.56316362014E+01  0.10543940470E+02  0.51100000000E-03 0. -1.
        -11    1    3    3    0    0 -0.14435522380E+02 -0.14478169331E+02  0.28595406109E+02  0.35152509787E+02  0.51100000000E-03 0.  1.
         12    1    3    3    0    0  0.18840572680E+02  0.22134758035E+02 -0.33445267050E+02  0.44311404630E+02  0.00000000000E+00 0. -1.
</event>
<event>
 7    1  0.3505640E-015  0.9000774E+02  0.7816164E-02  0.1186339E+00
        -11   -1    0    0    0    0  0.00000000000E+00  0.00000000000E+00  0.45593999997E+02  0.45594000000E+02  0.51100000000E-03 0.  1.
         11   -1    0    0    0    0 -0.00000000000E+00 -0.00000000000E+00 -0.45593999997E+02  0.45594000000E+02  0.51100000000E-03 0. -1.
    9900012    2    1    2    0    0  0.58887454838E+00 -0.99663578838E+00 -0.23013613840E+00  0.90007737838E+02  0.89999999178E+02 0.  0.
        -12    1    1    2    0    0 -0.58887454838E+00  0.99663578838E+00  0.23013613840E+00  0.11802621618E+01  0.00000000000E+00 0.  1.
         11    1    3    3    0    0 -0.16065788173E+02 -0.30957003638E+02  0.92481757254E+01  0.36082882069E+02  0.51100000000E-03 0. -1.
        -11    1    3    3    0    0 -0.55094841192E+01 -0.74522144358E+01  0.60029491154E+00  0.92871023198E+01  0.51100000000E-03 0.  1.
        -12    1    3    3    0    0  0.22164146841E+02  0.37412582286E+02 -0.10078606775E+02  0.44637753449E+02  0.00000000000E+00 0.  1.
</event>
<event>
 7    1  0.3505640E-015  0.9000780E+02  0.7816164E-02  0.1186339E+00
        -11   -1    0    0    0    0  0.00000000000E+00  0.00000000000E+00  0.45593999997E+02  0.45594000000E+02  0.51100000000E-03 0.  1.
         11   -1    0    0    0    0 -0.00000000000E+00 -0.00000000000E+00 -0.45593999997E+02  0.45594000000E+02  0.51100000000E-03 0. -1.
    9900012    2    1    2    0    0 -0.72657558684E+00  0.69049830267E-01 -0.92746723420E+00  0.90007798563E+02  0.90000060704E+02 0.  0.
        -12    1    1    2    0    0  0.72657558684E+00 -0.69049830267E-01  0.92746723420E+00  0.11802014375E+01  0.00000000000E+00 0.  1.
         11    1    3    3    0    0  0.15593121098E+01  0.65406035462E+01 -0.37531755636E+01  0.77004724580E+01  0.51100000000E-03 0. -1.
        -11    1    3    3    0    0 -0.22540331821E+01 -0.41801328108E+02  0.15693672276E+02  0.44707080501E+02  0.51100000000E-03 0.  1.
         12    1    3    3    0    0 -0.31854514603E-01  0.35329774392E+02 -0.12867963946E+02  0.37600245603E+02  0.00000000000E+00 0. -1.
</event>
<event>
 7    1  0.3505640E-015  0.9000773E+02  0.7816164E-02  0.1186339E+00
        -11   -1    0    0    0    0  0.00000000000E+00  0.00000000000E+00  0.45593999997E+02  0.45594000000E+02  0.51100000000E-03 0.  1.
         11   -1    0    0    0    0 -0.00000000000E+00 -0.00000000000E+00 -0.45593999997E+02  0.45594000000E+02  0.51100000000E-03 0. -1.
    9900012    2    1    2    0    0  0.93721169165E+00 -0.11974742850E-01 -0.71731088444E+00  0.90007727127E+02  0.89999988325E+02 0.  0.
        -12    1    1    2    0    0 -0.93721169165E+00  0.11974742850E-01  0.71731088444E+00  0.11802728728E+01  0.00000000000E+00 0.  1.
         11    1    3    3    0    0  0.37758309934E+02 -0.95947248794E+01  0.88668997859E+01  0.39954607077E+02  0.51100000000E-03 0. -1.
        -11    1    3    3    0    0 -0.17698177592E+01  0.25575282571E+01  0.91706442686E+01  0.96836936263E+01  0.51100000000E-03 0.  1.
        -12    1    3    3    0    0 -0.35051280484E+02  0.70252218795E+01 -0.18754854939E+02  0.40369426424E+02  0.00000000000E+00 0.  1.
</event>
<event>
 7    1  0.3505640E-015  0.9000771E+02  0.7816164E-02  0.1186339E+00
        -11   -1    0    0    0    0  0.00000000000E+00  0.00000000000E+00  0.45593999997E+02  0.45594000000E+02  0.51100000000E-03 0. -1.
         11   -1    0    0    0    0 -0.00000000000E+00 -0.00000000000E+00 -0.45593999997E+02  0.45594000000E+02  0.51100000000E-03 0.  1.
    9900012    2    1    2    0    0 -0.79979413103E+00 -0.78916467534E+00  0.36143345226E+00  0.90007709495E+02  0.89999970460E+02 0.  0.
        -12    1    1    2    0    0  0.79979413103E+00  0.78916467534E+00 -0.36143345226E+00  0.11802905054E+01  0.00000000000E+00 0.  1.
         11    1    3    3    0    0 -0.10264098700E+02  0.15242846278E+02  0.29161439300E+01  0.18606449969E+02  0.51100000000E-03 0. -1.
        -11    1    3    3    0    0 -0.13569370730E+02  0.22375472770E+02 -0.45999707665E+01  0.26569707093E+02  0.51100000000E-03 0.  1.
         12    1    3    3    0    0  0.23033675299E+02 -0.38407483724E+02  0.20452602888E+01  0.44831552432E+02  0.00000000000E+00 0. -1.
</event>
<event>
 7    1  0.3505641E-015  0.9000773E+02  0.7816164E-02  0.1186339E+00
        -11   -1    0    0    0    0  0.00000000000E+00  0.00000000000E+00  0.45593999997E+02  0.45594000000E+02  0.51100000000E-03 0. -1.
         11   -1    0    0    0    0 -0.00000000000E+00 -0.00000000000E+00 -0.45593999997E+02  0.45594000000E+02  0.51100000000E-03 0.  1.
    9900012    2    1    2    0    0  0.91209182160E-01 -0.30010769617E+00  0.11378245595E+01  0.90007733728E+02  0.89999995013E+02 0.  0.
        -12    1    1    2    0    0 -0.91209182160E-01  0.30010769617E+00 -0.11378245595E+01  0.11802662719E+01  0.00000000000E+00 0.  1.
         11    1    3    3    0    0 -0.38533574213E+01 -0.76824935603E+01 -0.53799668691E+00  0.86115336275E+01  0.51100000000E-03 0. -1.
        -11    1    3    3    0    0  0.13562027951E+02 -0.17230026752E+02 -0.31875027172E+02  0.38688755233E+02  0.51100000000E-03 0.  1.
         12    1    3    3    0    0 -0.96174613478E+01  0.24612412616E+02  0.33550848418E+02  0.42707444868E+02  0.00000000000E+00 0. -1.
</event>
<event>
 7    1  0.3505640E-015  0.9000785E+02  0.7816164E-02  0.1186339E+00
        -11   -1    0    0    0    0  0.00000000000E+00  0.00000000000E+00  0.45593999997E+02  0.45594000000E+02  0.51100000000E-03 0. -1.
         11   -1    0    0    0    0 -0.00000000000E+00 -0.00000000000E+00 -0.45593999997E+02  0.45594000000E+02  0.51100000000E-03 0.  1.
    9900012    2    1    2    0    0 -0.73503515611E+00  0.91889155521E+00 -0.90028287003E-01  0.90007854474E+02  0.90000117353E+02 0.  0.
        -12    1    1    2    0    0  0.73503515611E+00 -0.91889155521E+00  0.90028287003E-01  0.11801455264E+01  0.00000000000E+00 0.  1.
         11    1    3    3    0    0 -0.29918820017E+01  0.37961174009E+02  0.17285605126E+02  0.41818587194E+02  0.51100000000E-03 0. -1.
        -11    1    3    3    0    0  0.69441352460E+01  0.56152667149E+00 -0.16399309824E+01  0.71572131731E+01  0.51100000000E-03 0.  1.
        -12    1    3    3    0    0 -0.46872884004E+01 -0.37603809125E+02 -0.15735702431E+02  0.41032054107E+02  0.00000000000E+00 0.  1.
</event>
<event>
 7    1  0.3505640E-015  0.9000771E+02  0.7816164E-02  0.1186339E+00
        -11   -1    0    0    0    0  0.00000000000E+00  0.00000000000E+00  0.45593999997E+02  0.45594000000E+02  0.51100000000E-03 0. -1.
         11   -1    0    0    0    0 -0.00000000000E+00 -0.00000000000E+00 -0.45593999997E+02  0.45594000000E+02  0.51100000000E-03 0.  1.
    9900012    2    1    2    0    0 -0.80872070069E+00  0.46793905885E-01  0.85840576392E+00  0.90007712197E+02  0.89999973198E+02 0.  0.
        -12    1    1    2    0    0  0.80872070069E+00 -0.46793905885E-01 -0.85840576392E+00  0.11802878026E+01  0.00000000000E+00 0.  1.
         11    1    3    3    0    0  0.86608540929E+00  0.51295914876E+01 -0.86827432480E+01  0.10121899196E+02  0.51100000000E-03 0. -1.
        -11    1    3    3    0    0 -0.22943128741E+02 -0.17635922381E+02 -0.24440274440E+02  0.37877961002E+02  0.51100000000E-03 0.  1.
         12    1    3    3    0    0  0.21268322631E+02  0.12553124799E+02  0.33981423452E+02  0.42007852000E+02  0.00000000000E+00 0. -1.
</event>
<event>
 7    1  0.3505640E-015  0.9000769E+02  0.7816164E-02  0.1186339E+00
        -11   -1    0    0    0    0  0.00000000000E+00  0.00000000000E+00  0.45593999997E+02  0.45594000000E+02  0.51100000000E-03 0.  1.
         11   -1    0    0    0    0 -0.00000000000E+00 -0.00000000000E+00 -0.45593999997E+02  0.45594000000E+02  0.51100000000E-03 0. -1.
    9900012    2    1    2    0    0  0.72685265833E+00 -0.92971824747E+00 -0.21056676689E-01  0.90007688943E+02  0.89999949637E+02 0.  0.
        -12    1    1    2    0    0 -0.72685265833E+00  0.92971824747E+00  0.21056676689E-01  0.11803110566E+01  0.00000000000E+00 0.  1.
         11    1    3    3    0    0 -0.35515860266E+02  0.46417998223E+01 -0.38957336170E+01  0.36029146211E+02  0.51100000000E-03 0. -1.
        -11    1    3    3    0    0 -0.68105988768E+01  0.35165981972E+01 -0.49174350745E+01  0.91066946755E+01  0.51100000000E-03 0.  1.
        -12    1    3    3    0    0  0.43053311801E+02 -0.90881162670E+01  0.87921120148E+01  0.44871848057E+02  0.00000000000E+00 0.  1.
</event>
<event>
 7    1  0.3505640E-015  0.9000765E+02  0.7816164E-02  0.1186339E+00
        -11   -1    0    0    0    0  0.00000000000E+00  0.00000000000E+00  0.45593999997E+02  0.45594000000E+02  0.51100000000E-03 0.  1.
         11   -1    0    0    0    0 -0.00000000000E+00 -0.00000000000E+00 -0.45593999997E+02  0.45594000000E+02  0.51100000000E-03 0. -1.
    9900012    2    1    2    0    0 -0.41405124370E+00 -0.10545224347E+01  0.33132678273E+00  0.90007646903E+02  0.89999907042E+02 0.  0.
        -12    1    1    2    0    0  0.41405124370E+00  0.10545224347E+01 -0.33132678273E+00  0.11803530975E+01  0.00000000000E+00 0.  1.
         11    1    3    3    0    0 -0.20186730309E+02 -0.61556185539E+01 -0.38310914514E+02  0.43739248868E+02  0.51100000000E-03 0. -1.
        -11    1    3    3    0    0  0.57869303500E+00  0.61941419829E+01  0.93063333748E+01  0.11194200359E+02  0.51100000000E-03 0.  1.
        -12    1    3    3    0    0  0.19193986031E+02 -0.10930458637E+01  0.29335907922E+02  0.35074197676E+02  0.00000000000E+00 0.  1.
</event>
<event>
 7    1  0.3505640E-015  0.9000776E+02  0.7816164E-02  0.1186339E+00
        -11   -1    0    0    0    0  0.00000000000E+00  0.00000000000E+00  0.45593999997E+02  0.45594000000E+02  0.51100000000E-03 0.  1.
         11   -1    0    0    0    0 -0.00000000000E+00 -0.00000000000E+00 -0.45593999997E+02  0.45594000000E+02  0.51100000000E-03 0. -1.
    9900012    2    1    2    0    0  0.49210246978E+00 -0.10519398849E+01  0.21026822072E+00  0.90007764817E+02  0.90000026513E+02 0.  0.
        -12    1    1    2    0    0 -0.49210246978E+00  0.10519398849E+01 -0.21026822072E+00  0.11802351829E+01  0.00000000000E+00 0.  1.
         11    1    3    3    0    0 -0.30544940423E+02 -0.26894853343E+01 -0.20821813900E+02  0.37064466152E+02  0.51100000000E-03 0. -1.
        -11    1    3    3    0    0 -0.45941340156E+01 -0.83770346829E+01 -0.14123235841E+01  0.96579208735E+01  0.51100000000E-03 0.  1.
        -12    1    3    3    0    0  0.35631176908E+02  0.10014580132E+02  0.22444405705E+02  0.43285377791E+02  0.00000000000E+00 0.  1.
</event>
<event>
 7    1  0.3505640E-015  0.9000766E+02  0.7816164E-02  0.1186339E+00
        -11   -1    0    0    0    0  0.00000000000E+00  0.00000000000E+00  0.45593999997E+02  0.45594000000E+02  0.51100000000E-03 0. -1.
         11   -1    0    0    0    0 -0.00000000000E+00 -0.00000000000E+00 -0.45593999997E+02  0.45594000000E+02  0.51100000000E-03 0.  1.
    9900012    2    1    2    0    0  0.53373680206E+00 -0.67417276358E+00  0.80858555275E+00  0.90007663402E+02  0.89999923759E+02 0.  0.
        -12    1    1    2    0    0 -0.53373680206E+00  0.67417276358E+00 -0.80858555275E+00  0.11803365982E+01  0.00000000000E+00 0.  1.
         11    1    3    3    0    0  0.13953135561E+01 -0.91124681614E+01 -0.21858320526E+01  0.94742724225E+01  0.51100000000E-03 0. -1.
        -11    1    3    3    0    0  0.19252438503E+02 -0.21782034029E+02  0.24777453032E+02  0.38197324170E+02  0.51100000000E-03 0.  1.
         12    1    3    3    0    0 -0.20114015257E+02  0.30220329427E+02 -0.21783035427E+02  0.42336066809E+02  0.00000000000E+00 0. -1.
</event>
<event>
 7    1  0.3505640E-015  0.9000762E+02  0.7816164E-02  0.1186339E+00
        -11   -1    0    0    0    0  0.00000000000E+00  0.00000000000E+00  0.45593999997E+02  0.45594000000E+02  0.51100000000E-03 0.  1.
         11   -1    0    0    0    0 -0.00000000000E+00 -0.00000000000E+00 -0.45593999997E+02  0.45594000000E+02  0.51100000000E-03 0. -1.
    9900012    2    1    2    0    0 -0.33604205867E+00 -0.53901920551E+00 -0.99490274524E+00  0.90007619789E+02  0.89999879571E+02 0.  0.
        -12    1    1    2    0    0  0.33604205867E+00  0.53901920551E+00  0.99490274524E+00  0.11803802106E+01  0.00000000000E+00 0.  1.
         11    1    3    3    0    0 -0.40232294456E+00 -0.95114156342E+01  0.13454192468E+01  0.96145225742E+01  0.51100000000E-03 0. -1.
        -11    1    3    3    0    0  0.22340189090E+02  0.15785240222E+02  0.29960734744E+02  0.40569736062E+02  0.51100000000E-03 0.  1.
         12    1    3    3    0    0 -0.22273908204E+02 -0.68128437937E+01 -0.32301056736E+02  0.39823361153E+02  0.00000000000E+00 0. -1.
</event>
<event>
 7    1  0.3505640E-015  0.9000776E+02  0.7816164E-02  0.1186339E+00
        -11   -1    0    0    0    0  0.00000000000E+00  0.00000000000E+00  0.45593999997E+02  0.45594000000E+02  0.51100000000E-03 0. -1.
         11   -1    0    0    0    0 -0.00000000000E+00 -0.00000000000E+00 -0.45593999997E+02  0.45594000000E+02  0.51100000000E-03 0.  1.
    9900012    2    1    2    0    0 -0.38260942444E+00 -0.53345530560E+00  0.98081429160E+00  0.90007762223E+02  0.90000023885E+02 0.  0.
        -12    1    1    2    0    0  0.38260942444E+00  0.53345530560E+00 -0.98081429160E+00  0.11802377766E+01  0.00000000000E+00 0.  1.
         11    1    3    3    0    0  0.35943144773E+01  0.38253036484E+02  0.14945778378E+02  0.41226086261E+02  0.51100000000E-03 0. -1.
        -11    1    3    3    0    0 -0.57931178967E+01 -0.58522396169E+01  0.60334205585E+01  0.10208383192E+02  0.51100000000E-03 0.  1.
        -12    1    3    3    0    0  0.18161939950E+01 -0.32934252172E+02 -0.19998384645E+02  0.38573292771E+02  0.00000000000E+00 0.  1.
</event>
<event>
 7    1  0.3505640E-015  0.9000833E+02  0.7816164E-02  0.1186338E+00
        -11   -1    0    0    0    0  0.00000000000E+00  0.00000000000E+00  0.45593999997E+02  0.45594000000E+02  0.51100000000E-03 0.  1.
         11   -1    0    0    0    0 -0.00000000000E+00 -0.00000000000E+00 -0.45593999997E+02  0.45594000000E+02  0.51100000000E-03 0. -1.
    9900012    2    1    2    0    0  0.83210708045E-01 -0.11194177426E+01 -0.36277137822E+00  0.90008329208E+02  0.90000598352E+02 0.  0.
        -12    1    1    2    0    0 -0.83210708045E-01  0.11194177426E+01  0.36277137822E+00  0.11796707919E+01  0.00000000000E+00 0.  1.
         11    1    3    3    0    0 -0.11873448691E+02 -0.29147513470E+02 -0.30138586456E+02  0.43576263253E+02  0.51100000000E-03 0. -1.
        -11    1    3    3    0    0  0.60703399270E+01 -0.57281923006E+00  0.77234038797E+01  0.98401278675E+01  0.51100000000E-03 0.  1.
        -12    1    3    3    0    0  0.58863194719E+01  0.28600914957E+02  0.22052411198E+02  0.36591938087E+02  0.00000000000E+00 0.  1.
</event>
<event>
 7    1  0.3505640E-015  0.9000783E+02  0.7816164E-02  0.1186339E+00
        -11   -1    0    0    0    0  0.00000000000E+00  0.00000000000E+00  0.45593999997E+02  0.45594000000E+02  0.51100000000E-03 0. -1.
         11   -1    0    0    0    0 -0.00000000000E+00 -0.00000000000E+00 -0.45593999997E+02  0.45594000000E+02  0.51100000000E-03 0.  1.
    9900012    2    1    2    0    0  0.17810284750E+00 -0.11613741807E+01 -0.11089722570E+00  0.90007826790E+02  0.90000089303E+02 0.  0.
        -12    1    1    2    0    0 -0.17810284750E+00  0.11613741807E+01  0.11089722570E+00  0.11801732104E+01  0.00000000000E+00 0.  1.
         11    1    3    3    0    0  0.11582216954E+01 -0.92399027693E+01 -0.31249268892E+01  0.98225479895E+01  0.51100000000E-03 0. -1.
        -11    1    3    3    0    0  0.67085922685E+01 -0.11138602959E+02 -0.34759871512E+02  0.37112293838E+02  0.51100000000E-03 0.  1.
         12    1    3    3    0    0 -0.76887111163E+01  0.19217131548E+02  0.37773901175E+02  0.43072984962E+02  0.00000000000E+00 0. -1.
</event>
<event>
 7    1  0.3505640E-015  0.9000774E+02  0.7816164E-02  0.1186339E+00
        -11   -1    0    0    0    0  0.00000000000E+00  0.00000000000E+00  0.45593999997E+02  0.45594000000E+02  0.51100000000E-03 0.  1.
         11   -1    0    0    0    0 -0.00000000000E+00 -0.00000000000E+00 -0.45593999997E+02  0.45594000000E+02  0.51100000000E-03 0. -1.
    9900012    2    1    2    0    0  0.54696151378E+00 -0.10537919702E+00 -0.10405544625E+01  0.90007735088E+02  0.89999996391E+02 0.  0.
        -12    1    1    2    0    0 -0.54696151378E+00  0.10537919702E+00  0.10405544625E+01  0.11802649118E+01  0.00000000000E+00 0.  1.
         11    1    3    3    0    0 -0.55272570088E+01  0.55012149236E+01  0.88673951597E+01  0.11808667700E+02  0.51100000000E-03 0. -1.
        -11    1    3    3    0    0 -0.13431365883E+02  0.22716337330E+02  0.19610018736E+02  0.32878357718E+02  0.51100000000E-03 0.  1.
         12    1    3    3    0    0  0.19505584405E+02 -0.28322931450E+02 -0.29517968358E+02  0.45320709670E+02  0.00000000000E+00 0. -1.
</event>
<event>
 7    1  0.3505640E-015  0.9000779E+02  0.7816164E-02  0.1186339E+00
        -11   -1    0    0    0    0  0.00000000000E+00  0.00000000000E+00  0.45593999997E+02  0.45594000000E+02  0.51100000000E-03 0.  1.
         11   -1    0    0    0    0 -0.00000000000E+00 -0.00000000000E+00 -0.45593999997E+02  0.45594000000E+02  0.51100000000E-03 0. -1.
    9900012    2    1    2    0    0 -0.11627826852E+01  0.20154430505E+00 -0.14306101385E-01  0.90007793093E+02  0.90000055161E+02 0.  0.
        -12    1    1    2    0    0  0.11627826852E+01 -0.20154430505E+00  0.14306101385E-01  0.11802069075E+01  0.00000000000E+00 0.  1.
         11    1    3    3    0    0 -0.16524237116E+02  0.31771815448E+02 -0.10495227624E+02  0.37318205641E+02  0.51100000000E-03 0. -1.
        -11    1    3    3    0    0 -0.90806746969E+01  0.12568177300E+01 -0.29252594609E+01  0.96226496836E+01  0.51100000000E-03 0.  1.
        -12    1    3    3    0    0  0.24442129128E+02 -0.32827088873E+02  0.13406180984E+02  0.43066937768E+02  0.00000000000E+00 0.  1.
</event>
<event>
 7    1  0.3505640E-015  0.9000773E+02  0.7816164E-02  0.1186339E+00
        -11   -1    0    0    0    0  0.00000000000E+00  0.00000000000E+00  0.45593999997E+02  0.45594000000E+02  0.51100000000E-03 0. -1.
         11   -1    0    0    0    0 -0.00000000000E+00 -0.00000000000E+00 -0.45593999997E+02  0.45594000000E+02  0.51100000000E-03 0.  1.
    9900012    2    1    2    0    0  0.56313600683E+00  0.29510921682E+00  0.99439582242E+00  0.90007731105E+02  0.89999992356E+02 0.  0.
        -12    1    1    2    0    0 -0.56313600683E+00 -0.29510921682E+00 -0.99439582242E+00  0.11802688946E+01  0.00000000000E+00 0.  1.
         11    1    3    3    0    0 -0.11269506597E+02  0.18682190055E+02  0.34131328813E+02  0.40508932484E+02  0.51100000000E-03 0. -1.
        -11    1    3    3    0    0  0.11019077589E+02 -0.17222844140E+01  0.13044483634E+01  0.11228887759E+02  0.51100000000E-03 0.  1.
        -12    1    3    3    0    0  0.81356501483E+00 -0.16664796424E+02 -0.34441381354E+02  0.38269910863E+02  0.00000000000E+00 0.  1.
</event>
<event>
 7    1  0.3505640E-015  0.9000772E+02  0.7816164E-02  0.1186339E+00
        -11   -1    0    0    0    0  0.00000000000E+00  0.00000000000E+00  0.45593999997E+02  0.45594000000E+02  0.51100000000E-03 0. -1.
         11   -1    0    0    0    0 -0.00000000000E+00 -0.00000000000E+00 -0.45593999997E+02  0.45594000000E+02  0.51100000000E-03 0.  1.
    9900012    2    1    2    0    0  0.48787058317E+00 -0.99237774280E+00  0.41260291937E+00  0.90007715094E+02  0.89999976133E+02 0.  0.
        -12    1    1    2    0    0 -0.48787058317E+00  0.99237774280E+00 -0.41260291937E+00  0.11802849060E+01  0.00000000000E+00 0.  1.
         11    1    3    3    0    0  0.49593170359E+00  0.82021441134E+01 -0.48492933331E+01  0.95413186931E+01  0.51100000000E-03 0. -1.
        -11    1    3    3    0    0  0.92822902347E+01  0.33925329066E+02 -0.39879977405E+01  0.35397641030E+02  0.51100000000E-03 0.  1.
         12    1    3    3    0    0 -0.92903513551E+01 -0.43119850922E+02  0.92498939931E+01  0.45068755371E+02  0.00000000000E+00 0. -1.
</event>
<event>
 7    1  0.3505640E-015  0.9000774E+02  0.7816164E-02  0.1186339E+00
        -11   -1    0    0    0    0  0.00000000000E+00  0.00000000000E+00  0.45593999997E+02  0.45594000000E+02  0.51100000000E-03 0. -1.
         11   -1    0    0    0    0 -0.00000000000E+00 -0.00000000000E+00 -0.45593999997E+02  0.45594000000E+02  0.51100000000E-03 0.  1.
    9900012    2    1    2    0    0 -0.10412836482E+01  0.10998473969E+00  0.54465137936E+00  0.90007740112E+02  0.90000001481E+02 0.  0.
        -12    1    1    2    0    0  0.10412836482E+01 -0.10998473969E+00 -0.54465137936E+00  0.11802598884E+01  0.00000000000E+00 0.  1.
         11    1    3    3    0    0 -0.13696889918E+02 -0.51688460471E+01 -0.20364140655E+01  0.14780688259E+02  0.51100000000E-03 0. -1.
        -11    1    3    3    0    0 -0.27577960065E+02 -0.65699312195E+01 -0.12052684752E+02  0.30805439253E+02  0.51100000000E-03 0.  1.
         12    1    3    3    0    0  0.40233566335E+02  0.11848762006E+02  0.14633750197E+02  0.44421612600E+02  0.00000000000E+00 0. -1.
</event>
<event>
 7    1  0.3505640E-015  0.9000773E+02  0.7816164E-02  0.1186339E+00
        -11   -1    0    0    0    0  0.00000000000E+00  0.00000000000E+00  0.45593999997E+02  0.45594000000E+02  0.51100000000E-03 0. -1.
         11   -1    0    0    0    0 -0.00000000000E+00 -0.00000000000E+00 -0.45593999997E+02  0.45594000000E+02  0.51100000000E-03 0.  1.
    9900012    2    1    2    0    0  0.38363312422E+00 -0.88889150742E+00  0.67508855804E+00  0.90007725859E+02  0.89999987041E+02 0.  0.
        -12    1    1    2    0    0 -0.38363312422E+00  0.88889150742E+00 -0.67508855804E+00  0.11802741407E+01  0.00000000000E+00 0.  1.
         11    1    3    3    0    0 -0.26599306769E+02 -0.70845073296E+01  0.23848585791E+02  0.36420714012E+02  0.51100000000E-03 0. -1.
        -11    1    3    3    0    0 -0.25069519515E+01  0.68205297650E+00  0.91350857819E+01  0.94973573616E+01  0.51100000000E-03 0.  1.
        -12    1    3    3    0    0  0.29489891844E+02  0.55135628456E+01 -0.32308583015E+02  0.44089654486E+02  0.00000000000E+00 0.  1.
</event>
<event>
 7    1  0.3505640E-015  0.9000781E+02  0.7816164E-02  0.1186339E+00
        -11   -1    0    0    0    0  0.00000000000E+00  0.00000000000E+00  0.45593999997E+02  0.45594000000E+02  0.51100000000E-03 0.  1.
         11   -1    0    0    0    0 -0.00000000000E+00 -0.00000000000E+00 -0.45593999997E+02  0.45594000000E+02  0.51100000000E-03 0. -1.
    9900012    2    1    2    0    0 -0.64860516029E+00  0.98597602809E+00  0.37203080376E-02  0.90007808819E+02  0.90000071096E+02 0.  0.
        -12    1    1    2    0    0  0.64860516029E+00 -0.98597602809E+00 -0.37203080376E-02  0.11801911805E+01  0.00000000000E+00 0.  1.
         11    1    3    3    0    0 -0.28142976814E+02  0.19272575203E+02  0.18709742693E+01  0.34160793958E+02  0.51100000000E-03 0. -1.
        -11    1    3    3    0    0 -0.10069274824E+02  0.45745170813E+01 -0.41543649581E+01  0.11814196988E+02  0.51100000000E-03 0.  1.
        -12    1    3    3    0    0  0.37563646477E+02 -0.22861116256E+02  0.22871109969E+01  0.44032817873E+02  0.00000000000E+00 0.  1.
</event>
<event>
 7    1  0.3505640E-015  0.9000771E+02  0.7816164E-02  0.1186339E+00
        -11   -1    0    0    0    0  0.00000000000E+00  0.00000000000E+00  0.45593999997E+02  0.45594000000E+02  0.51100000000E-03 0.  1.
         11   -1    0    0    0    0 -0.00000000000E+00 -0.00000000000E+00 -0.45593999997E+02  0.45594000000E+02  0.51100000000E-03 0. -1.
    9900012    2    1    2    0    0 -0.93232263818E-01  0.10957735114E+01 -0.42857833878E+00  0.90007707140E+02  0.89999968074E+02 0.  0.
        -12    1    1    2    0    0  0.93232263818E-01 -0.10957735114E+01  0.42857833878E+00  0.11802928601E+01  0.00000000000E+00 0.  1.
         11    1    3    3    0    0  0.21454274163E+01  0.99806101132E+01 -0.20196964944E+01  0.10406469681E+02  0.51100000000E-03 0. -1.
        -11    1    3    3    0    0 -0.36689548628E+01  0.33715615682E+02 -0.10128851096E+02  0.35394880921E+02  0.51100000000E-03 0.  1.
         12    1    3    3    0    0  0.14302951827E+01 -0.42600452284E+02  0.11719969251E+02  0.44206356538E+02  0.00000000000E+00 0. -1.
</event>
<event>
 7    1  0.3505640E-015  0.9000745E+02  0.7816164E-02  0.1186340E+00
        -11   -1    0    0    0    0  0.00000000000E+00  0.00000000000E+00  0.45593999997E+02  0.45594000000E+02  0.51100000000E-03 0.  1.
         11   -1    0    0    0    0 -0.00000000000E+00 -0.00000000000E+00 -0.45593999997E+02  0.45594000000E+02  0.51100000000E-03 0. -1.
    9900012    2    1    2    0    0  0.10523354676E+01  0.29145185611E+00 -0.44871061060E+00  0.90007451258E+02  0.89999708814E+02 0.  0.
        -12    1    1    2    0    0 -0.10523354676E+01 -0.29145185611E+00  0.44871061060E+00  0.11805487422E+01  0.00000000000E+00 0.  1.
         11    1    3    3    0    0 -0.78225953154E+01  0.36699507066E+01  0.16589703097E+01  0.87985066009E+01  0.51100000000E-03 0. -1.
        -11    1    3    3    0    0 -0.31571075644E+02  0.90021204846E+01  0.14340686140E+02  0.35824939215E+02  0.51100000000E-03 0.  1.
         12    1    3    3    0    0  0.40446006427E+02 -0.12380619335E+02 -0.16448367060E+02  0.45384005442E+02  0.00000000000E+00 0. -1.
</event>
<event>
 7    1  0.3505640E-015  0.9000766E+02  0.7816164E-02  0.1186339E+00
        -11   -1    0    0    0    0  0.00000000000E+00  0.00000000000E+00  0.45593999997E+02  0.45594000000E+02  0.51100000000E-03 0.  1.
         11   -1    0    0    0    0 -0.00000000000E+00 -0.00000000000E+00 -0.45593999997E+02  0.45594000000E+02  0.51100000000E-03 0. -1.
    9900012    2    1    2    0    0 -0.10029958614E+01 -0.62135260053E+00  0.33336374716E-01  0.90007664850E+02  0.89999925226E+02 0.  0.
        -12    1    1    2    0    0  0.10029958614E+01  0.62135260053E+00 -0.33336374716E-01  0.11803351499E+01  0.00000000000E+00 0.  1.
         11    1    3    3    0    0 -0.25996116953E+02  0.65324461198E+01 -0.93014532589E+01  0.28372310127E+02  0.51100000000E-03 0. -1.
        -11    1    3    3    0    0 -0.14332880066E+02 -0.24785958667E+01 -0.99134186555E+01  0.17602578168E+02  0.51100000000E-03 0.  1.
        -12    1    3    3    0    0  0.39326001158E+02 -0.46752028536E+01  0.19248208289E+02  0.44032776555E+02  0.00000000000E+00 0.  1.
</event>
<event>
 7    1  0.3505640E-015  0.9000773E+02  0.7816164E-02  0.1186339E+00
        -11   -1    0    0    0    0  0.00000000000E+00  0.00000000000E+00  0.45593999997E+02  0.45594000000E+02  0.51100000000E-03 0.  1.
         11   -1    0    0    0    0 -0.00000000000E+00 -0.00000000000E+00 -0.45593999997E+02  0.45594000000E+02  0.51100000000E-03 0. -1.
    9900012    2    1    2    0    0 -0.16613788984E+00  0.66334332755E+00 -0.96197762405E+00  0.90007734302E+02  0.89999995595E+02 0.  0.
        -12    1    1    2    0    0  0.16613788984E+00 -0.66334332755E+00  0.96197762405E+00  0.11802656980E+01  0.00000000000E+00 0.  1.
         11    1    3    3    0    0 -0.30635999126E+02  0.15573798066E+01  0.53211861125E+01  0.31133661786E+02  0.51100000000E-03 0. -1.
        -11    1    3    3    0    0 -0.55476748575E+01  0.10321074030E+02  0.12157247724E+02  0.16884902663E+02  0.51100000000E-03 0.  1.
        -12    1    3    3    0    0  0.36017536094E+02 -0.11215110509E+02 -0.18440411461E+02  0.41989169852E+02  0.00000000000E+00 0.  1.
</event>
<event>
 7    1  0.3505640E-015  0.9000773E+02  0.7816164E-02  0.1186339E+00
        -11   -1    0    0    0    0  0.00000000000E+00  0.00000000000E+00  0.45593999997E+02  0.45594000000E+02  0.51100000000E-03 0.  1.
         11   -1    0    0    0    0 -0.00000000000E+00 -0.00000000000E+00 -0.45593999997E+02  0.45594000000E+02  0.51100000000E-03 0. -1.
    9900012    2    1    2    0    0 -0.67860432493E+00  0.27473555767E+00 -0.92577664032E+00  0.90007726369E+02  0.89999987557E+02 0.  0.
        -12    1    1    2    0    0  0.67860432493E+00 -0.27473555767E+00  0.92577664032E+00  0.11802736311E+01  0.00000000000E+00 0.  1.
         11    1    3    3    0    0  0.14120983161E+02 -0.21706323104E+02 -0.35892331949E+02  0.44258627646E+02  0.51100000000E-03 0. -1.
        -11    1    3    3    0    0 -0.33986124175E+01  0.79659733508E+01  0.32550130911E+01  0.92521569525E+01  0.51100000000E-03 0.  1.
        -12    1    3    3    0    0 -0.11400975068E+02  0.14015085311E+02  0.31711542218E+02  0.36496941770E+02  0.00000000000E+00 0.  1.
</event>
<event>
 7    1  0.3505640E-015  0.9000780E+02  0.7816164E-02  0.1186339E+00
        -11   -1    0    0    0    0  0.00000000000E+00  0.00000000000E+00  0.45593999997E+02  0.45594000000E+02  0.51100000000E-03 0. -1.
         11   -1    0    0    0    0 -0.00000000000E+00 -0.00000000000E+00 -0.45593999997E+02  0.45594000000E+02  0.51100000000E-03 0.  1.
    9900012    2    1    2    0    0  0.96577019486E+00 -0.52899500070E+00  0.42464358777E+00  0.90007800883E+02  0.90000063054E+02 0.  0.
        -12    1    1    2    0    0 -0.96577019486E+00  0.52899500070E+00 -0.42464358777E+00  0.11801991174E+01  0.00000000000E+00 0.  1.
         11    1    3    3    0    0 -0.53132264498E+01 -0.98954549041E+00 -0.72660989164E+01  0.90557036893E+01  0.51100000000E-03 0. -1.
        -11    1    3    3    0    0 -0.18696620762E+02  0.21797745267E+01 -0.30171510586E+02  0.35561708286E+02  0.51100000000E-03 0.  1.
         12    1    3    3    0    0  0.24975617407E+02 -0.17192240370E+01  0.37862253090E+02  0.45390388908E+02  0.00000000000E+00 0. -1.
</event>
<event>
 7    1  0.3505640E-015  0.9000735E+02  0.7816164E-02  0.1186340E+00
        -11   -1    0    0    0    0  0.00000000000E+00  0.00000000000E+00  0.45593999997E+02  0.45594000000E+02  0.51100000000E-03 0.  1.
         11   -1    0    0    0    0 -0.00000000000E+00 -0.00000000000E+00 -0.45593999997E+02  0.45594000000E+02  0.51100000000E-03 0. -1.
    9900012    2    1    2    0    0  0.43332075347E+00 -0.92281610483E+00  0.59547392343E+00  0.90007345253E+02  0.89999601409E+02 0.  0.
        -12    1    1    2    0    0 -0.43332075347E+00  0.92281610483E+00 -0.59547392343E+00  0.11806547473E+01  0.00000000000E+00 0.  1.
         11    1    3    3    0    0  0.32781882646E+02  0.14419711561E+02 -0.26239496925E+01  0.35909121732E+02  0.51100000000E-03 0. -1.
        -11    1    3    3    0    0  0.66492527138E+01  0.47123942711E+01 -0.48872250115E+01  0.95028516768E+01  0.51100000000E-03 0.  1.
        -12    1    3    3    0    0 -0.38997814606E+02 -0.20054921937E+02  0.81066486275E+01  0.44595371844E+02  0.00000000000E+00 0.  1.
</event>
<event>
 7    1  0.3505640E-015  0.9000770E+02  0.7816164E-02  0.1186339E+00
        -11   -1    0    0    0    0  0.00000000000E+00  0.00000000000E+00  0.45593999997E+02  0.45594000000E+02  0.51100000000E-03 0.  1.
         11   -1    0    0    0    0 -0.00000000000E+00 -0.00000000000E+00 -0.45593999997E+02  0.45594000000E+02  0.51100000000E-03 0. -1.
    9900012    2    1    2    0    0 -0.42254659286E+00  0.10434334734E+01 -0.35470088604E+00  0.90007698447E+02  0.89999959267E+02 0.  0.
        -12    1    1    2    0    0  0.42254659286E+00 -0.10434334734E+01  0.35470088604E+00  0.11803015527E+01  0.00000000000E+00 0.  1.
         11    1    3    3    0    0  0.48726105847E+01  0.58321367271E+01  0.73321868391E+01  0.10560166515E+02  0.51100000000E-03 0. -1.
        -11    1    3    3    0    0 -0.35896020920E+02 -0.11343752068E+02  0.15280662015E+02  0.40628852565E+02  0.51100000000E-03 0.  1.
         12    1    3    3    0    0  0.30600863743E+02  0.65550488139E+01 -0.22967549740E+02  0.38818679367E+02  0.00000000000E+00 0. -1.
</event>
<event>
 7    1  0.3505640E-015  0.9000823E+02  0.7816164E-02  0.1186338E+00
        -11   -1    0    0    0    0  0.00000000000E+00  0.00000000000E+00  0.45593999997E+02  0.45594000000E+02  0.51100000000E-03 0.  1.
         11   -1    0    0    0    0 -0.00000000000E+00 -0.00000000000E+00 -0.45593999997E+02  0.45594000000E+02  0.51100000000E-03 0. -1.
    9900012    2    1    2    0    0 -0.15199154360E-01  0.19566521866E+00 -0.11633335183E+01  0.90008228511E+02  0.90000496326E+02 0.  0.
        -12    1    1    2    0    0  0.15199154360E-01 -0.19566521866E+00  0.11633335183E+01  0.11797714893E+01  0.00000000000E+00 0.  1.
         11    1    3    3    0    0  0.36417548170E+01 -0.96250045926E+01  0.30594593536E+01  0.10736078584E+02  0.51100000000E-03 0. -1.
        -11    1    3    3    0    0 -0.17971678011E+01 -0.33438908471E+02  0.77001306918E+01  0.34361059715E+02  0.51100000000E-03 0.  1.
         12    1    3    3    0    0 -0.18597861702E+01  0.43259578282E+02 -0.11922923564E+02  0.44911090212E+02  0.00000000000E+00 0. -1.
</event>
<event>
 7    1  0.3505640E-015  0.9000776E+02  0.7816164E-02  0.1186339E+00
        -11   -1    0    0    0    0  0.00000000000E+00  0.00000000000E+00  0.45593999997E+02  0.45594000000E+02  0.51100000000E-03 0.  1.
         11   -1    0    0    0    0 -0.00000000000E+00 -0.00000000000E+00 -0.45593999997E+02  0.45594000000E+02  0.51100000000E-03 0. -1.
    9900012    2    1    2    0    0  0.14830887052E-01 -0.11584274951E+01 -0.22537372002E+00  0.90007759546E+02  0.90000021172E+02 0.  0.
        -12    1    1    2    0    0 -0.14830887052E-01  0.11584274951E+01  0.22537372002E+00  0.11802404544E+01  0.00000000000E+00 0.  1.
         11    1    3    3    0    0  0.88957087780E+01  0.43674252929E+01 -0.29506942321E+00  0.99143887647E+01  0.51100000000E-03 0. -1.
        -11    1    3    3    0    0  0.34632045833E+02 -0.91607987324E+01 -0.48606441819E+01  0.36151413446E+02  0.51100000000E-03 0.  1.
         12    1    3    3    0    0 -0.43512923724E+02  0.36349459445E+01  0.49303398851E+01  0.43941957335E+02  0.00000000000E+00 0. -1.
</event>
<event>
 7    1  0.3505640E-015  0.9000778E+02  0.7816164E-02  0.1186339E+00
        -11   -1    0    0    0    0  0.00000000000E+00  0.00000000000E+00  0.45593999997E+02  0.45594000000E+02  0.51100000000E-03 0. -1.
         11   -1    0    0    0    0 -0.00000000000E+00 -0.00000000000E+00 -0.45593999997E+02  0.45594000000E+02  0.51100000000E-03 0.  1.
    9900012    2    1    2    0    0  0.81004999032E+00 -0.80409849727E+00 -0.30028398648E+00  0.90007777202E+02  0.90000039061E+02 0.  0.
        -12    1    1    2    0    0 -0.81004999032E+00  0.80409849727E+00  0.30028398648E+00  0.11802227979E+01  0.00000000000E+00 0.  1.
         11    1    3    3    0    0  0.13064270699E+02 -0.32544600496E+02  0.22542685520E+02  0.41689313511E+02  0.51100000000E-03 0. -1.
        -11    1    3    3    0    0  0.75550626437E+01  0.64175642142E+01 -0.23353243361E+01  0.10184195698E+02  0.51100000000E-03 0.  1.
        -12    1    3    3    0    0 -0.19809283352E+02  0.25322937784E+02 -0.20507645170E+02  0.38134267993E+02  0.00000000000E+00 0.  1.
</event>
<event>
 7    1  0.3505640E-015  0.9000819E+02  0.7816164E-02  0.1186338E+00
        -11   -1    0    0    0    0  0.00000000000E+00  0.00000000000E+00  0.45593999997E+02  0.45594000000E+02  0.51100000000E-03 0. -1.
         11   -1    0    0    0    0 -0.00000000000E+00 -0.00000000000E+00 -0.45593999997E+02  0.45594000000E+02  0.51100000000E-03 0.  1.
    9900012    2    1    2    0    0 -0.11599708166E+01  0.82309197716E-01  0.19912853219E+00  0.90008186764E+02  0.90000454028E+02 0.  0.
        -12    1    1    2    0    0  0.11599708166E+01 -0.82309197716E-01 -0.19912853219E+00  0.11798132359E+01  0.00000000000E+00 0.  1.
         11    1    3    3    0    0 -0.15202029764E+01 -0.94078261542E+01  0.79587335772E+01  0.12416104480E+02  0.51100000000E-03 0. -1.
        -11    1    3    3    0    0  0.81095815792E+01 -0.23150841884E+02  0.21846655635E+02  0.32848183451E+02  0.51100000000E-03 0.  1.
         12    1    3    3    0    0 -0.77493494193E+01  0.32640977236E+02 -0.29606260680E+02  0.44743898833E+02  0.00000000000E+00 0. -1.
</event>
<event>
 7    1  0.3505640E-015  0.9000764E+02  0.7816164E-02  0.1186339E+00
        -11   -1    0    0    0    0  0.00000000000E+00  0.00000000000E+00  0.45593999997E+02  0.45594000000E+02  0.51100000000E-03 0.  1.
         11   -1    0    0    0    0 -0.00000000000E+00 -0.00000000000E+00 -0.45593999997E+02  0.45594000000E+02  0.51100000000E-03 0. -1.
    9900012    2    1    2    0    0 -0.46806354310E+00  0.10669074993E+01 -0.18943279400E+00  0.90007635702E+02  0.89999895693E+02 0.  0.
        -12    1    1    2    0    0  0.46806354310E+00 -0.10669074993E+01  0.18943279400E+00  0.11803642980E+01  0.00000000000E+00 0.  1.
         11    1    3    3    0    0 -0.19890650890E+02 -0.20063341330E+02  0.25715799548E+02  0.38203115119E+02  0.51100000000E-03 0. -1.
        -11    1    3    3    0    0  0.54833894286E+01 -0.96054509304E+01 -0.53230914636E+01  0.12274671083E+02  0.51100000000E-03 0.  1.
        -12    1    3    3    0    0  0.13939197919E+02  0.30735699760E+02 -0.20582140879E+02  0.39529849500E+02  0.00000000000E+00 0.  1.
</event>
<event>
 7    1  0.3505640E-015  0.9000758E+02  0.7816164E-02  0.1186339E+00
        -11   -1    0    0    0    0  0.00000000000E+00  0.00000000000E+00  0.45593999997E+02  0.45594000000E+02  0.51100000000E-03 0. -1.
         11   -1    0    0    0    0 -0.00000000000E+00 -0.00000000000E+00 -0.45593999997E+02  0.45594000000E+02  0.51100000000E-03 0.  1.
    9900012    2    1    2    0    0  0.19470505694E+00 -0.10809175968E+01  0.43253820038E+00  0.90007583885E+02  0.89999843192E+02 0.  0.
        -12    1    1    2    0    0 -0.19470505694E+00  0.10809175968E+01 -0.43253820038E+00  0.11804161152E+01  0.00000000000E+00 0.  1.
         11    1    3    3    0    0  0.18241725590E+02  0.70268030846E+00  0.30876155907E+02  0.35869085798E+02  0.51100000000E-03 0. -1.
        -11    1    3    3    0    0  0.78757712172E+01  0.27662423848E+01  0.51972353155E+01  0.98331645152E+01  0.51100000000E-03 0.  1.
        -12    1    3    3    0    0 -0.25922791750E+02 -0.45498402900E+01 -0.35640853022E+02  0.44305333572E+02  0.00000000000E+00 0.  1.
</event>
<event>
 7    1  0.3505640E-015  0.9000775E+02  0.7816164E-02  0.1186339E+00
        -11   -1    0    0    0    0  0.00000000000E+00  0.00000000000E+00  0.45593999997E+02  0.45594000000E+02  0.51100000000E-03 0. -1.
         11   -1    0    0    0    0 -0.00000000000E+00 -0.00000000000E+00 -0.45593999997E+02  0.45594000000E+02  0.51100000000E-03 0.  1.
    9900012    2    1    2    0    0  0.13942440307E+00 -0.48653329818E+00  0.10662250121E+01  0.90007750200E+02  0.90000011702E+02 0.  0.
        -12    1    1    2    0    0 -0.13942440307E+00  0.48653329818E+00 -0.10662250121E+01  0.11802498002E+01  0.00000000000E+00 0.  1.
         11    1    3    3    0    0  0.19280623006E+02  0.17788719317E+02  0.36306629405E+02  0.44792324091E+02  0.51100000000E-03 0. -1.
        -11    1    3    3    0    0 -0.58324495622E+01 -0.54407858170E+01 -0.40223687208E+01  0.89330324408E+01  0.51100000000E-03 0.  1.
        -12    1    3    3    0    0 -0.13308749040E+02 -0.12834466798E+02 -0.31218035672E+02  0.36282393668E+02  0.00000000000E+00 0.  1.
</event>
<event>
 7    1  0.3505640E-015  0.9000775E+02  0.7816164E-02  0.1186339E+00
        -11   -1    0    0    0    0  0.00000000000E+00  0.00000000000E+00  0.45593999997E+02  0.45594000000E+02  0.51100000000E-03 0.  1.
         11   -1    0    0    0    0 -0.00000000000E+00 -0.00000000000E+00 -0.45593999997E+02  0.45594000000E+02  0.51100000000E-03 0. -1.
    9900012    2    1    2    0    0  0.94451237672E+00 -0.23956288490E+00 -0.66595711964E+00  0.90007748802E+02  0.90000010286E+02 0.  0.
        -12    1    1    2    0    0 -0.94451237672E+00  0.23956288490E+00  0.66595711964E+00  0.11802511982E+01  0.00000000000E+00 0.  1.
         11    1    3    3    0    0 -0.87822705166E+01  0.16450206185E+00 -0.12614817321E+01  0.88739322049E+01  0.51100000000E-03 0. -1.
        -11    1    3    3    0    0 -0.15270265165E+02  0.34467608257E+02  0.48869051444E+01  0.38014192867E+02  0.51100000000E-03 0.  1.
         12    1    3    3    0    0  0.24997048059E+02 -0.34871673204E+02 -0.42913805319E+01  0.43119623730E+02  0.00000000000E+00 0. -1.
</event>
<event>
 7    1  0.3505640E-015  0.9000759E+02  0.7816164E-02  0.1186339E+00
        -11   -1    0    0    0    0  0.00000000000E+00  0.00000000000E+00  0.45593999997E+02  0.45594000000E+02  0.51100000000E-03 0. -1.
         11   -1    0    0    0    0 -0.00000000000E+00 -0.00000000000E+00 -0.45593999997E+02  0.45594000000E+02  0.51100000000E-03 0.  1.
    9900012    2    1    2    0    0  0.27059031281E+00 -0.72723639723E+00  0.88953378743E+00  0.90007592336E+02  0.89999851754E+02 0.  0.
        -12    1    1    2    0    0 -0.27059031281E+00  0.72723639723E+00 -0.88953378743E+00  0.11804076643E+01  0.00000000000E+00 0.  1.
         11    1    3    3    0    0  0.10629562274E+02  0.20051542179E+02  0.30038807150E+02  0.37648132400E+02  0.51100000000E-03 0. -1.
        -11    1    3    3    0    0 -0.28872488028E+01  0.10874794694E+01  0.80199387496E+01  0.85929177265E+01  0.51100000000E-03 0.  1.
        -12    1    3    3    0    0 -0.74717231585E+01 -0.21866258046E+02 -0.37169212113E+02  0.43766542209E+02  0.00000000000E+00 0.  1.
</event>
<event>
 7    1  0.3505640E-015  0.9000777E+02  0.7816164E-02  0.1186339E+00
        -11   -1    0    0    0    0  0.00000000000E+00  0.00000000000E+00  0.45593999997E+02  0.45594000000E+02  0.51100000000E-03 0. -1.
         11   -1    0    0    0    0 -0.00000000000E+00 -0.00000000000E+00 -0.45593999997E+02  0.45594000000E+02  0.51100000000E-03 0.  1.
    9900012    2    1    2    0    0  0.55266462107E-01 -0.55760811022E+00  0.10387310531E+01  0.90007769774E+02  0.90000031535E+02 0.  0.
        -12    1    1    2    0    0 -0.55266462107E-01  0.55760811022E+00 -0.10387310531E+01  0.11802302263E+01  0.00000000000E+00 0.  1.
         11    1    3    3    0    0  0.51391280179E+01 -0.42447168283E+01 -0.78392973094E+01  0.10289938790E+02  0.51100000000E-03 0. -1.
        -11    1    3    3    0    0  0.36166185079E+02  0.23554219027E+01  0.12377771204E+02  0.38298174574E+02  0.51100000000E-03 0.  1.
         12    1    3    3    0    0 -0.41250046634E+02  0.13316868154E+01 -0.34997428410E+01  0.41419656409E+02  0.00000000000E+00 0. -1.
</event>
<event>
 7    1  0.3505640E-015  0.9000770E+02  0.7816164E-02  0.1186339E+00
        -11   -1    0    0    0    0  0.00000000000E+00  0.00000000000E+00  0.45593999997E+02  0.45594000000E+02  0.51100000000E-03 0.  1.
         11   -1    0    0    0    0 -0.00000000000E+00 -0.00000000000E+00 -0.45593999997E+02  0.45594000000E+02  0.51100000000E-03 0. -1.
    9900012    2    1    2    0    0 -0.57421319529E+00 -0.35308049507E+00  0.96887063477E+00  0.90007704725E+02  0.89999965627E+02 0.  0.
        -12    1    1    2    0    0  0.57421319529E+00  0.35308049507E+00 -0.96887063477E+00  0.11802952752E+01  0.00000000000E+00 0.  1.
         11    1    3    3    0    0  0.25049243149E+02  0.55341017676E+01  0.20493853707E+02  0.32834264187E+02  0.51100000000E-03 0. -1.
        -11    1    3    3    0    0  0.97119559638E+01 -0.10868783317E+02  0.31253796063E+01  0.14907063339E+02  0.51100000000E-03 0.  1.
        -12    1    3    3    0    0 -0.35335412308E+02  0.49816010546E+01 -0.22650362678E+02  0.42266377199E+02  0.00000000000E+00 0.  1.
</event>
<event>
 7    1  0.3505640E-015  0.9000772E+02  0.7816164E-02  0.1186339E+00
        -11   -1    0    0    0    0  0.00000000000E+00  0.00000000000E+00  0.45593999997E+02  0.45594000000E+02  0.51100000000E-03 0. -1.
         11   -1    0    0    0    0 -0.00000000000E+00 -0.00000000000E+00 -0.45593999997E+02  0.45594000000E+02  0.51100000000E-03 0.  1.
    9900012    2    1    2    0    0  0.10130512935E+01  0.60315473781E+00 -0.54739573994E-01  0.90007718262E+02  0.89999979343E+02 0.  0.
        -12    1    1    2    0    0 -0.10130512935E+01 -0.60315473781E+00  0.54739573994E-01  0.11802817384E+01  0.00000000000E+00 0.  1.
         11    1    3    3    0    0 -0.37595257862E+01  0.58395746034E+01 -0.52803479512E+01  0.87244908409E+01  0.51100000000E-03 0. -1.
        -11    1    3    3    0    0 -0.11997178168E+02  0.24553364166E+02 -0.23952215131E+02  0.36338802757E+02  0.51100000000E-03 0.  1.
         12    1    3    3    0    0  0.16769755247E+02 -0.29789784032E+02  0.29177823508E+02  0.44944424664E+02  0.00000000000E+00 0. -1.
</event>
<event>
 7    1  0.3505640E-015  0.9000764E+02  0.7816164E-02  0.1186339E+00
        -11   -1    0    0    0    0  0.00000000000E+00  0.00000000000E+00  0.45593999997E+02  0.45594000000E+02  0.51100000000E-03 0. -1.
         11   -1    0    0    0    0 -0.00000000000E+00 -0.00000000000E+00 -0.45593999997E+02  0.45594000000E+02  0.51100000000E-03 0.  1.
    9900012    2    1    2    0    0 -0.86227363863E+00 -0.75459435507E+00 -0.28340178043E+00  0.90007641987E+02  0.89999902062E+02 0.  0.
        -12    1    1    2    0    0  0.86227363863E+00  0.75459435507E+00  0.28340178043E+00  0.11803580125E+01  0.00000000000E+00 0.  1.
         11    1    3    3    0    0 -0.17210722419E+02  0.12914963431E+02  0.36276890600E+02  0.42178407254E+02  0.51100000000E-03 0. -1.
        -11    1    3    3    0    0  0.16271038814E+01 -0.98982872661E+01 -0.22159805193E+01  0.10272980471E+02  0.51100000000E-03 0.  1.
        -12    1    3    3    0    0  0.14721344899E+02 -0.37712705200E+01 -0.34344311861E+02  0.37556254262E+02  0.00000000000E+00 0.  1.
</event>
<event>
 7    1  0.3505640E-015  0.9000784E+02  0.7816164E-02  0.1186339E+00
        -11   -1    0    0    0    0  0.00000000000E+00  0.00000000000E+00  0.45593999997E+02  0.45594000000E+02  0.51100000000E-03 0. -1.
         11   -1    0    0    0    0 -0.00000000000E+00 -0.00000000000E+00 -0.45593999997E+02  0.45594000000E+02  0.51100000000E-03 0.  1.
    9900012    2    1    2    0    0 -0.63888960832E+00  0.92668547929E+00  0.35476794236E+00  0.90007836366E+02  0.90000099006E+02 0.  0.
        -12    1    1    2    0    0  0.63888960832E+00 -0.92668547929E+00 -0.35476794236E+00  0.11801636336E+01  0.00000000000E+00 0.  1.
         11    1    3    3    0    0 -0.48623952918E+01  0.10137387410E+02  0.90858709247E+01  0.14455537423E+02  0.51100000000E-03 0. -1.
        -11    1    3    3    0    0 -0.31330186580E+02  0.44833609382E+01 -0.17905804614E+02  0.36363428821E+02  0.51100000000E-03 0.  1.
         12    1    3    3    0    0  0.35553692264E+02 -0.13694062869E+02  0.91747016321E+01  0.39188870122E+02  0.00000000000E+00 0. -1.
</event>
<event>
 7    1  0.3505640E-015  0.9000774E+02  0.7816164E-02  0.1186339E+00
        -11   -1    0    0    0    0  0.00000000000E+00  0.00000000000E+00  0.45593999997E+02  0.45594000000E+02  0.51100000000E-03 0.  1.
         11   -1    0    0    0    0 -0.00000000000E+00 -0.00000000000E+00 -0.45593999997E+02  0.45594000000E+02  0.51100000000E-03 0. -1.
    9900012    2    1    2    0    0 -0.11071462263E+01 -0.40720313618E+00  0.37848895002E-01  0.90007737445E+02  0.89999998779E+02 0.  0.
        -12    1    1    2    0    0  0.11071462263E+01  0.40720313618E+00 -0.37848895002E-01  0.11802625552E+01  0.00000000000E+00 0.  1.
         11    1    3    3    0    0 -0.27079662320E+02  0.26329531352E+02 -0.13142405652E+02  0.39990938463E+02  0.51100000000E-03 0. -1.
        -11    1    3    3    0    0 -0.62983373126E+01 -0.72220309472E+01 -0.11961786040E+01  0.96569988826E+01  0.51100000000E-03 0.  1.
        -12    1    3    3    0    0  0.32270853406E+02 -0.19514703541E+02  0.14376433151E+02  0.40359800099E+02  0.00000000000E+00 0.  1.
</event>
<event>
 7    1  0.3505640E-015  0.9000769E+02  0.7816164E-02  0.1186339E+00
        -11   -1    0    0    0    0  0.00000000000E+00  0.00000000000E+00  0.45593999997E+02  0.45594000000E+02  0.51100000000E-03 0. -1.
         11   -1    0    0    0    0 -0.00000000000E+00 -0.00000000000E+00 -0.45593999997E+02  0.45594000000E+02  0.51100000000E-03 0.  1.
    9900012    2    1    2    0    0  0.93617326608E+00 -0.35995883024E+00  0.62220460617E+00  0.90007691008E+02  0.89999951730E+02 0.  0.
        -12    1    1    2    0    0 -0.93617326608E+00  0.35995883024E+00 -0.62220460617E+00  0.11803089915E+01  0.00000000000E+00 0.  1.
         11    1    3    3    0    0  0.50270394225E+01  0.81958746686E+01 -0.28664529286E+01  0.10032947702E+02  0.51100000000E-03 0. -1.
        -11    1    3    3    0    0  0.11984922988E+02 -0.23297008502E+02 -0.30113031115E+02  0.39914704400E+02  0.51100000000E-03 0.  1.
         12    1    3    3    0    0 -0.16075789144E+02  0.14741175003E+02  0.33601688649E+02  0.40060038906E+02  0.00000000000E+00 0. -1.
</event>
<event>
 7    1  0.3505640E-015  0.9000774E+02  0.7816164E-02  0.1186339E+00
        -11   -1    0    0    0    0  0.00000000000E+00  0.00000000000E+00  0.45593999997E+02  0.45594000000E+02  0.51100000000E-03 0.  1.
         11   -1    0    0    0    0 -0.00000000000E+00 -0.00000000000E+00 -0.45593999997E+02  0.45594000000E+02  0.51100000000E-03 0. -1.
    9900012    2    1    2    0    0  0.85187899526E+00  0.81628862356E+00  0.31451389721E-01  0.90007739804E+02  0.90000001170E+02 0.  0.
        -12    1    1    2    0    0 -0.85187899526E+00 -0.81628862356E+00 -0.31451389721E-01  0.11802601956E+01  0.00000000000E+00 0.  1.
         11    1    3    3    0    0 -0.31087129009E+02  0.16492124098E+02 -0.12434951880E+01  0.35212867361E+02  0.51100000000E-03 0. -1.
        -11    1    3    3    0    0 -0.57094069239E+01  0.81153433357E+01  0.25357284829E+01  0.10241388777E+02  0.51100000000E-03 0.  1.
        -12    1    3    3    0    0  0.37648414928E+02 -0.23791178810E+02 -0.12607819052E+01  0.44553483666E+02  0.00000000000E+00 0.  1.
</event>
<event>
 7    1  0.3505640E-015  0.9000772E+02  0.7816164E-02  0.1186339E+00
        -11   -1    0    0    0    0  0.00000000000E+00  0.00000000000E+00  0.45593999997E+02  0.45594000000E+02  0.51100000000E-03 0. -1.
         11   -1    0    0    0    0 -0.00000000000E+00 -0.00000000000E+00 -0.45593999997E+02  0.45594000000E+02  0.51100000000E-03 0.  1.
    9900012    2    1    2    0    0  0.83492087888E+00 -0.44481105251E+00  0.70576218187E+00  0.90007724607E+02  0.89999985772E+02 0.  0.
        -12    1    1    2    0    0 -0.83492087888E+00  0.44481105251E+00 -0.70576218187E+00  0.11802753932E+01  0.00000000000E+00 0.  1.
         11    1    3    3    0    0  0.15324303982E+02 -0.42993541892E+01  0.52547596744E+01  0.16761003505E+02  0.51100000000E-03 0. -1.
        -11    1    3    3    0    0  0.27203009157E+02 -0.10063999843E+02 -0.40752893889E+01  0.29289858038E+02  0.51100000000E-03 0.  1.
         12    1    3    3    0    0 -0.41692392260E+02  0.13918542980E+02 -0.47370810359E+00  0.43956863064E+02  0.00000000000E+00 0. -1.
</event>
<event>
 7    1  0.3505640E-015  0.9000766E+02  0.7816164E-02  0.1186339E+00
        -11   -1    0    0    0    0  0.00000000000E+00  0.00000000000E+00  0.45593999997E+02  0.45594000000E+02  0.51100000000E-03 0. -1.
         11   -1    0    0    0    0 -0.00000000000E+00 -0.00000000000E+00 -0.45593999997E+02  0.45594000000E+02  0.51100000000E-03 0.  1.
    9900012    2    1    2    0    0  0.65961458091E+00 -0.71587036155E+00  0.66756667361E+00  0.90007658086E+02  0.89999918373E+02 0.  0.
        -12    1    1    2    0    0 -0.65961458091E+00  0.71587036155E+00 -0.66756667361E+00  0.11803419139E+01  0.00000000000E+00 0.  1.
         11    1    3    3    0    0 -0.63369520016E+00 -0.20739180002E+01 -0.89146043869E+01  0.91745777622E+01  0.51100000000E-03 0. -1.
        -11    1    3    3    0    0 -0.64913635523E+01 -0.37163271496E+02 -0.66593855848E+01  0.38309189050E+02  0.51100000000E-03 0.  1.
         12    1    3    3    0    0  0.77846733333E+01  0.38521319135E+02  0.16241556645E+02  0.42523891274E+02  0.00000000000E+00 0. -1.
</event>
<event>
 7    1  0.3505640E-015  0.9000774E+02  0.7816164E-02  0.1186339E+00
        -11   -1    0    0    0    0  0.00000000000E+00  0.00000000000E+00  0.45593999997E+02  0.45594000000E+02  0.51100000000E-03 0. -1.
         11   -1    0    0    0    0 -0.00000000000E+00 -0.00000000000E+00 -0.45593999997E+02  0.45594000000E+02  0.51100000000E-03 0.  1.
    9900012    2    1    2    0    0 -0.10222551710E+01 -0.17322009415E-01  0.58967762030E+00  0.90007735037E+02  0.89999996340E+02 0.  0.
        -12    1    1    2    0    0  0.10222551710E+01  0.17322009415E-01 -0.58967762030E+00  0.11802649628E+01  0.00000000000E+00 0.  1.
         11    1    3    3    0    0 -0.41677461948E+01 -0.20547590768E+01 -0.89521064395E+01  0.10086245742E+02  0.51100000000E-03 0. -1.
        -11    1    3    3    0    0 -0.11778976471E+02 -0.36216507271E+02  0.74524773439E+01  0.38806173535E+02  0.51100000000E-03 0.  1.
         12    1    3    3    0    0  0.14924467495E+02  0.38253944339E+02  0.20893067159E+01  0.41115315760E+02  0.00000000000E+00 0. -1.
</event>
<event>
 7    1  0.3505640E-015  0.9000776E+02  0.7816164E-02  0.1186339E+00
        -11   -1    0    0    0    0  0.00000000000E+00  0.00000000000E+00  0.45593999997E+02  0.45594000000E+02  0.51100000000E-03 0. -1.
         11   -1    0    0    0    0 -0.00000000000E+00 -0.00000000000E+00 -0.45593999997E+02  0.45594000000E+02  0.51100000000E-03 0.  1.
    9900012    2    1    2    0    0  0.90882613306E-01  0.13762040880E+00  0.11686573542E+01  0.90007763143E+02  0.90000024817E+02 0.  0.
        -12    1    1    2    0    0 -0.90882613306E-01 -0.13762040880E+00 -0.11686573542E+01  0.11802368566E+01  0.00000000000E+00 0.  1.
         11    1    3    3    0    0  0.25223011475E+02  0.33317611031E+02  0.29497255871E+01  0.41892295163E+02  0.51100000000E-03 0. -1.
        -11    1    3    3    0    0 -0.30386147197E+01 -0.52928689868E+00 -0.76587318418E+01  0.82564821638E+01  0.51100000000E-03 0.  1.
        -12    1    3    3    0    0 -0.22093514142E+02 -0.32650703724E+02  0.58776636089E+01  0.39858985817E+02  0.00000000000E+00 0.  1.
</event>
<event>
 7    1  0.3505640E-015  0.9000769E+02  0.7816164E-02  0.1186339E+00
        -11   -1    0    0    0    0  0.00000000000E+00  0.00000000000E+00  0.45593999997E+02  0.45594000000E+02  0.51100000000E-03 0. -1.
         11   -1    0    0    0    0 -0.00000000000E+00 -0.00000000000E+00 -0.45593999997E+02  0.45594000000E+02  0.51100000000E-03 0.  1.
    9900012    2    1    2    0    0 -0.77888193525E+00 -0.49777207733E+00  0.73396734815E+00  0.90007685560E+02  0.89999946209E+02 0.  0.
        -12    1    1    2    0    0  0.77888193525E+00  0.49777207733E+00 -0.73396734815E+00  0.11803144404E+01  0.00000000000E+00 0.  1.
         11    1    3    3    0    0 -0.62065224061E+01 -0.33223682424E+02  0.15122014146E+02  0.37027142832E+02  0.51100000000E-03 0. -1.
        -11    1    3    3    0    0 -0.67933112324E+00 -0.88046831470E+01 -0.83774615987E+00  0.88704991395E+01  0.51100000000E-03 0.  1.
        -12    1    3    3    0    0  0.61069715940E+01  0.41530593494E+02 -0.13550300638E+02  0.44110043588E+02  0.00000000000E+00 0.  1.
</event>
<event>
 7    1  0.3505640E-015  0.9000768E+02  0.7816164E-02  0.1186339E+00
        -11   -1    0    0    0    0  0.00000000000E+00  0.00000000000E+00  0.45593999997E+02  0.45594000000E+02  0.51100000000E-03 0.  1.
         11   -1    0    0    0    0 -0.00000000000E+00 -0.00000000000E+00 -0.45593999997E+02  0.45594000000E+02  0.51100000000E-03 0. -1.
    9900012    2    1    2    0    0 -0.42257819208E+00 -0.10957905769E+01 -0.11758866644E+00  0.90007679530E+02  0.89999940100E+02 0.  0.
        -12    1    1    2    0    0  0.42257819208E+00  0.10957905769E+01  0.11758866644E+00  0.11803204698E+01  0.00000000000E+00 0.  1.
         11    1    3    3    0    0 -0.22381932261E+02 -0.30030327373E+02  0.73842138329E+01  0.38174573581E+02  0.51100000000E-03 0. -1.
        -11    1    3    3    0    0 -0.79510049670E+00 -0.42239340797E+01  0.77182150641E+01  0.88342881969E+01  0.51100000000E-03 0.  1.
        -12    1    3    3    0    0  0.22754454566E+02  0.33158470876E+02 -0.15220017563E+02  0.42998817752E+02  0.00000000000E+00 0.  1.
</event>
<event>
 7    1  0.3505640E-015  0.9000776E+02  0.7816164E-02  0.1186339E+00
        -11   -1    0    0    0    0  0.00000000000E+00  0.00000000000E+00  0.45593999997E+02  0.45594000000E+02  0.51100000000E-03 0.  1.
         11   -1    0    0    0    0 -0.00000000000E+00 -0.00000000000E+00 -0.45593999997E+02  0.45594000000E+02  0.51100000000E-03 0. -1.
    9900012    2    1    2    0    0  0.88132822817E+00 -0.29876776569E+00 -0.72592832653E+00  0.90007756992E+02  0.90000018584E+02 0.  0.
        -12    1    1    2    0    0 -0.88132822817E+00  0.29876776569E+00  0.72592832653E+00  0.11802430084E+01  0.00000000000E+00 0.  1.
         11    1    3    3    0    0  0.81586786156E+01 -0.14074799836E+01 -0.13261577737E+01  0.83847320386E+01  0.51100000000E-03 0. -1.
        -11    1    3    3    0    0  0.10455833950E+02  0.38346175198E+02  0.53562041766E+01  0.40105392896E+02  0.51100000000E-03 0.  1.
         12    1    3    3    0    0 -0.17733184338E+02 -0.37237462980E+02 -0.47559747294E+01  0.41517632057E+02  0.00000000000E+00 0. -1.
</event>
<event>
 7    1  0.3505640E-015  0.9000771E+02  0.7816164E-02  0.1186339E+00
        -11   -1    0    0    0    0  0.00000000000E+00  0.00000000000E+00  0.45593999997E+02  0.45594000000E+02  0.51100000000E-03 0.  1.
         11   -1    0    0    0    0 -0.00000000000E+00 -0.00000000000E+00 -0.45593999997E+02  0.45594000000E+02  0.51100000000E-03 0. -1.
    9900012    2    1    2    0    0 -0.72391126400E+00 -0.63522848039E+00 -0.68228396463E+00  0.90007714378E+02  0.89999975408E+02 0.  0.
        -12    1    1    2    0    0  0.72391126400E+00  0.63522848039E+00  0.68228396463E+00  0.11802856217E+01  0.00000000000E+00 0.  1.
         11    1    3    3    0    0 -0.36080009875E+02 -0.20986671900E+02  0.11953478053E+02  0.43417659401E+02  0.51100000000E-03 0. -1.
        -11    1    3    3    0    0  0.10031371137E+01  0.78699947263E+01 -0.45867658992E+01  0.91641433171E+01  0.51100000000E-03 0.  1.
        -12    1    3    3    0    0  0.34352961497E+02  0.12481448694E+02 -0.80489961188E+01  0.37425911660E+02  0.00000000000E+00 0.  1.
</event>
<event>
 7    1  0.3505640E-015  0.9000771E+02  0.7816164E-02  0.1186339E+00
        -11   -1    0    0    0    0  0.00000000000E+00  0.00000000000E+00  0.45593999997E+02  0.45594000000E+02  0.51100000000E-03 0.  1.
         11   -1    0    0    0    0 -0.00000000000E+00 -0.00000000000E+00 -0.45593999997E+02  0.45594000000E+02  0.51100000000E-03 0. -1.
    9900012    2    1    2    0    0 -0.28344544394E+00 -0.11295356847E+01  0.19207813676E+00  0.90007709276E+02  0.89999970238E+02 0.  0.
        -12    1    1    2    0    0  0.28344544394E+00  0.11295356847E+01 -0.19207813676E+00  0.11802907241E+01  0.00000000000E+00 0.  1.
         11    1    3    3    0    0  0.81665339452E+01  0.77903526494E+01  0.10195559894E+01  0.11332315110E+02  0.51100000000E-03 0. -1.
        -11    1    3    3    0    0  0.21436029434E+02 -0.17269346634E+02  0.25844006332E+02  0.37757732382E+02  0.51100000000E-03 0.  1.
         12    1    3    3    0    0 -0.29886008823E+02  0.83494582998E+01 -0.26671484184E+02  0.40917661784E+02  0.00000000000E+00 0. -1.
</event>
<event>
 7    1  0.3505640E-015  0.9000738E+02  0.7816164E-02  0.1186340E+00
        -11   -1    0    0    0    0  0.00000000000E+00  0.00000000000E+00  0.45593999997E+02  0.45594000000E+02  0.51100000000E-03 0.  1.
         11   -1    0    0    0    0 -0.00000000000E+00 -0.00000000000E+00 -0.45593999997E+02  0.45594000000E+02  0.51100000000E-03 0. -1.
    9900012    2    1    2    0    0  0.14396341269E+00  0.10662740072E+01 -0.48600821339E+00  0.90007377407E+02  0.89999633988E+02 0.  0.
        -12    1    1    2    0    0 -0.14396341269E+00 -0.10662740072E+01  0.48600821339E+00  0.11806225926E+01  0.00000000000E+00 0.  1.
         11    1    3    3    0    0  0.25711537205E+02  0.16315293812E+02  0.20761269169E+02  0.36855152359E+02  0.51100000000E-03 0. -1.
        -11    1    3    3    0    0  0.81968218663E+01  0.13022102670E+01  0.25128157904E+01  0.86716713351E+01  0.51100000000E-03 0.  1.
        -12    1    3    3    0    0 -0.33764395659E+02 -0.16551230072E+02 -0.23760093173E+02  0.44480553714E+02  0.00000000000E+00 0.  1.
</event>
<event>
 7    1  0.3505640E-015  0.9000772E+02  0.7816164E-02  0.1186339E+00
        -11   -1    0    0    0    0  0.00000000000E+00  0.00000000000E+00  0.45593999997E+02  0.45594000000E+02  0.51100000000E-03 0. -1.
         11   -1    0    0    0    0 -0.00000000000E+00 -0.00000000000E+00 -0.45593999997E+02  0.45594000000E+02  0.51100000000E-03 0.  1.
    9900012    2    1    2    0    0  0.28308248505E+00 -0.43826573963E-01  0.11449875741E+01  0.90007723335E+02  0.89999984483E+02 0.  0.
        -12    1    1    2    0    0 -0.28308248505E+00  0.43826573963E-01 -0.11449875741E+01  0.11802766654E+01  0.00000000000E+00 0.  1.
         11    1    3    3    0    0 -0.35333812652E+01 -0.70663491714E+01 -0.13479833425E+01  0.80146823474E+01  0.51100000000E-03 0. -1.
        -11    1    3    3    0    0 -0.25549334359E+02  0.33693683154E+02  0.12230536047E+01  0.42302820604E+02  0.51100000000E-03 0.  1.
         12    1    3    3    0    0  0.29365798109E+02 -0.26671160557E+02  0.12699173119E+01  0.39690220383E+02  0.00000000000E+00 0. -1.
</event>
<event>
 7    1  0.3505640E-015  0.9000786E+02  0.7816164E-02  0.1186339E+00
        -11   -1    0    0    0    0  0.00000000000E+00  0.00000000000E+00  0.45593999997E+02  0.45594000000E+02  0.51100000000E-03 0.  1.
         11   -1    0    0    0    0 -0.00000000000E+00 -0.00000000000E+00 -0.45593999997E+02  0.45594000000E+02  0.51100000000E-03 0. -1.
    9900012    2    1    2    0    0 -0.83781037462E+00  0.65341989830E+00 -0.51366435287E+00  0.90007858121E+02  0.90000121048E+02 0.  0.
        -12    1    1    2    0    0  0.83781037462E+00 -0.65341989830E+00  0.51366435287E+00  0.11801418791E+01  0.00000000000E+00 0.  1.
         11    1    3    3    0    0  0.15338172590E+01  0.18012705379E+02  0.10025943488E+02  0.20671954275E+02  0.51100000000E-03 0. -1.
        -11    1    3    3    0    0 -0.65432631296E+01  0.21220643331E+02 -0.19451349180E+02  0.29520924459E+02  0.51100000000E-03 0.  1.
         12    1    3    3    0    0  0.41716354960E+01 -0.38579928812E+02  0.89117413388E+01  0.39814979386E+02  0.00000000000E+00 0. -1.
</event>
<event>
 7    1  0.3505640E-015  0.9000784E+02  0.7816164E-02  0.1186339E+00
        -11   -1    0    0    0    0  0.00000000000E+00  0.00000000000E+00  0.45593999997E+02  0.45594000000E+02  0.51100000000E-03 0. -1.
         11   -1    0    0    0    0 -0.00000000000E+00 -0.00000000000E+00 -0.45593999997E+02  0.45594000000E+02  0.51100000000E-03 0.  1.
    9900012    2    1    2    0    0 -0.51871840435E+00  0.43799471552E+00  0.96533328356E+00  0.90007840476E+02  0.90000103170E+02 0.  0.
        -12    1    1    2    0    0  0.51871840435E+00 -0.43799471552E+00 -0.96533328356E+00  0.11801595240E+01  0.00000000000E+00 0.  1.
         11    1    3    3    0    0  0.33289917662E+02 -0.19340666238E+01  0.19583102829E+02  0.38671141027E+02  0.51100000000E-03 0. -1.
        -11    1    3    3    0    0  0.37208449179E+01  0.89548684344E+01 -0.29193136650E+01  0.10127030568E+02  0.51100000000E-03 0.  1.
        -12    1    3    3    0    0 -0.37529480985E+02 -0.65828070951E+01 -0.15698455881E+02  0.41209668881E+02  0.00000000000E+00 0.  1.
</event>
<event>
 7    1  0.3505640E-015  0.9000768E+02  0.7816164E-02  0.1186339E+00
        -11   -1    0    0    0    0  0.00000000000E+00  0.00000000000E+00  0.45593999997E+02  0.45594000000E+02  0.51100000000E-03 0.  1.
         11   -1    0    0    0    0 -0.00000000000E+00 -0.00000000000E+00 -0.45593999997E+02  0.45594000000E+02  0.51100000000E-03 0. -1.
    9900012    2    1    2    0    0  0.63607105108E+00 -0.86930689963E+00 -0.48257390772E+00  0.90007678669E+02  0.89999939228E+02 0.  0.
        -12    1    1    2    0    0 -0.63607105108E+00  0.86930689963E+00  0.48257390772E+00  0.11803213309E+01  0.00000000000E+00 0.  1.
         11    1    3    3    0    0 -0.99723168198E+01 -0.88554542497E+01 -0.32709937181E+02  0.35324299899E+02  0.51100000000E-03 0. -1.
        -11    1    3    3    0    0 -0.62035222618E+01 -0.33052906552E+01 -0.73843114475E+01  0.10194934555E+02  0.51100000000E-03 0.  1.
        -12    1    3    3    0    0  0.16811910133E+02  0.11291438005E+02  0.39611674720E+02  0.44488444215E+02  0.00000000000E+00 0.  1.
</event>
<event>
 7    1  0.3505640E-015  0.9000770E+02  0.7816164E-02  0.1186339E+00
        -11   -1    0    0    0    0  0.00000000000E+00  0.00000000000E+00  0.45593999997E+02  0.45594000000E+02  0.51100000000E-03 0.  1.
         11   -1    0    0    0    0 -0.00000000000E+00 -0.00000000000E+00 -0.45593999997E+02  0.45594000000E+02  0.51100000000E-03 0. -1.
    9900012    2    1    2    0    0 -0.35913975122E+00  0.11156396011E+01 -0.13957309070E+00  0.90007697612E+02  0.89999958420E+02 0.  0.
        -12    1    1    2    0    0  0.35913975122E+00 -0.11156396011E+01  0.13957309070E+00  0.11803023884E+01  0.00000000000E+00 0.  1.
         11    1    3    3    0    0  0.12610618631E+01  0.71648025808E+01  0.84425019484E+01  0.11144528364E+02  0.51100000000E-03 0. -1.
        -11    1    3    3    0    0 -0.28849974256E+02 -0.23925475388E+01  0.23021500865E+02  0.36986954465E+02  0.51100000000E-03 0.  1.
         12    1    3    3    0    0  0.27229772642E+02 -0.36566154409E+01 -0.31603575904E+02  0.41876214782E+02  0.00000000000E+00 0. -1.
</event>
<event>
 7    1  0.3505640E-015  0.9000769E+02  0.7816164E-02  0.1186339E+00
        -11   -1    0    0    0    0  0.00000000000E+00  0.00000000000E+00  0.45593999997E+02  0.45594000000E+02  0.51100000000E-03 0.  1.
         11   -1    0    0    0    0 -0.00000000000E+00 -0.00000000000E+00 -0.45593999997E+02  0.45594000000E+02  0.51100000000E-03 0. -1.
    9900012    2    1    2    0    0  0.47651280172E+00  0.10512000813E+01 -0.24706782631E+00  0.90007691323E+02  0.89999952049E+02 0.  0.
        -12    1    1    2    0    0 -0.47651280172E+00 -0.10512000813E+01  0.24706782631E+00  0.11803086765E+01  0.00000000000E+00 0.  1.
         11    1    3    3    0    0 -0.18835959225E+02 -0.30634320513E+00 -0.28119711041E+02  0.33846792394E+02  0.51100000000E-03 0. -1.
        -11    1    3    3    0    0 -0.16294933582E+01 -0.10381795729E+02 -0.78522746949E+01  0.13118504081E+02  0.51100000000E-03 0.  1.
        -12    1    3    3    0    0  0.20941965385E+02  0.11739339016E+02  0.35724917909E+02  0.43042394849E+02  0.00000000000E+00 0.  1.
</event>
<event>
 7    1  0.3505640E-015  0.9000783E+02  0.7816164E-02  0.1186339E+00
        -11   -1    0    0    0    0  0.00000000000E+00  0.00000000000E+00  0.45593999997E+02  0.45594000000E+02  0.51100000000E-03 0. -1.
         11   -1    0    0    0    0 -0.00000000000E+00 -0.00000000000E+00 -0.45593999997E+02  0.45594000000E+02  0.51100000000E-03 0.  1.
    9900012    2    1    2    0    0  0.10856242678E+00 -0.11609538333E+01  0.18223951594E+00  0.90007825926E+02  0.90000088428E+02 0.  0.
        -12    1    1    2    0    0 -0.10856242678E+00  0.11609538333E+01 -0.18223951594E+00  0.11801740740E+01  0.00000000000E+00 0.  1.
         11    1    3    3    0    0  0.69158165663E+01 -0.15783086598E+01  0.33629540348E+02  0.34369544095E+02  0.51100000000E-03 0. -1.
        -11    1    3    3    0    0 -0.26907426690E+01  0.10335158530E+02  0.76657203137E+01  0.13146058958E+02  0.51100000000E-03 0.  1.
        -12    1    3    3    0    0 -0.41165114705E+01 -0.99178037031E+01 -0.41113021146E+02  0.42492222873E+02  0.00000000000E+00 0.  1.
</event>
<event>
 7    1  0.3505640E-015  0.9000782E+02  0.7816164E-02  0.1186339E+00
        -11   -1    0    0    0    0  0.00000000000E+00  0.00000000000E+00  0.45593999997E+02  0.45594000000E+02  0.51100000000E-03 0. -1.
         11   -1    0    0    0    0 -0.00000000000E+00 -0.00000000000E+00 -0.45593999997E+02  0.45594000000E+02  0.51100000000E-03 0.  1.
    9900012    2    1    2    0    0 -0.84334680083E-01  0.74393096538E+00  0.91228724206E+00  0.90007824745E+02  0.90000087232E+02 0.  0.
        -12    1    1    2    0    0  0.84334680083E-01 -0.74393096538E+00 -0.91228724206E+00  0.11801752546E+01  0.00000000000E+00 0.  1.
         11    1    3    3    0    0  0.19916158471E+02  0.13846939955E+02  0.33538906918E+02  0.41391416887E+02  0.51100000000E-03 0. -1.
        -11    1    3    3    0    0  0.16000067454E+01 -0.84884638121E+01  0.66537312144E+00  0.86635305232E+01  0.51100000000E-03 0.  1.
        -12    1    3    3    0    0 -0.21600499897E+02 -0.46145451779E+01 -0.33291992797E+02  0.39952877336E+02  0.00000000000E+00 0.  1.
</event>
<event>
 7    1  0.3505640E-015  0.9000775E+02  0.7816164E-02  0.1186339E+00
        -11   -1    0    0    0    0  0.00000000000E+00  0.00000000000E+00  0.45593999997E+02  0.45594000000E+02  0.51100000000E-03 0. -1.
         11   -1    0    0    0    0 -0.00000000000E+00 -0.00000000000E+00 -0.45593999997E+02  0.45594000000E+02  0.51100000000E-03 0.  1.
    9900012    2    1    2    0    0  0.65189700134E+00  0.10315357615E+00  0.97846351853E+00  0.90007745274E+02  0.90000006712E+02 0.  0.
        -12    1    1    2    0    0 -0.65189700134E+00 -0.10315357615E+00 -0.97846351853E+00  0.11802547258E+01  0.00000000000E+00 0.  1.
         11    1    3    3    0    0  0.36529715507E+02  0.12842436842E+02  0.77448557958E+01  0.39488366523E+02  0.51100000000E-03 0. -1.
        -11    1    3    3    0    0  0.28335003684E+01 -0.62263977911E+01  0.61446607993E+01  0.91953037139E+01  0.51100000000E-03 0.  1.
        -12    1    3    3    0    0 -0.38711318874E+02 -0.65128854746E+01 -0.12911053077E+02  0.41324075038E+02  0.00000000000E+00 0.  1.
</event>
<event>
 7    1  0.3505640E-015  0.9000762E+02  0.7816164E-02  0.1186339E+00
        -11   -1    0    0    0    0  0.00000000000E+00  0.00000000000E+00  0.45593999997E+02  0.45594000000E+02  0.51100000000E-03 0.  1.
         11   -1    0    0    0    0 -0.00000000000E+00 -0.00000000000E+00 -0.45593999997E+02  0.45594000000E+02  0.51100000000E-03 0. -1.
    9900012    2    1    2    0    0 -0.50703332681E+00 -0.46647829383E+00 -0.95844555956E+00  0.90007617569E+02  0.89999877321E+02 0.  0.
        -12    1    1    2    0    0  0.50703332681E+00  0.46647829383E+00  0.95844555956E+00  0.11803824311E+01  0.00000000000E+00 0.  1.
         11    1    3    3    0    0  0.11359249616E+01 -0.71434525007E+01 -0.42708119396E+01  0.83999448827E+01  0.51100000000E-03 0. -1.
        -11    1    3    3    0    0  0.56403358624E+01  0.22989862781E+02 -0.33307535271E+02  0.40862441011E+02  0.51100000000E-03 0.  1.
         12    1    3    3    0    0 -0.72832941508E+01 -0.16312888574E+02  0.36619901651E+02  0.40745231675E+02  0.00000000000E+00 0. -1.
</event>
<event>
 7    1  0.3505640E-015  0.9000788E+02  0.7816164E-02  0.1186339E+00
        -11   -1    0    0    0    0  0.00000000000E+00  0.00000000000E+00  0.45593999997E+02  0.45594000000E+02  0.51100000000E-03 0.  1.
         11   -1    0    0    0    0 -0.00000000000E+00 -0.00000000000E+00 -0.45593999997E+02  0.45594000000E+02  0.51100000000E-03 0. -1.
    9900012    2    1    2    0    0 -0.89174512846E+00  0.76291614224E+00 -0.12418600951E+00  0.90007884506E+02  0.90000147781E+02 0.  0.
        -12    1    1    2    0    0  0.89174512846E+00 -0.76291614224E+00  0.12418600951E+00  0.11801154940E+01  0.00000000000E+00 0.  1.
         11    1    3    3    0    0 -0.75042363577E+01  0.12107362177E+01 -0.65603822886E+01  0.10040819764E+02  0.51100000000E-03 0. -1.
        -11    1    3    3    0    0 -0.86416316921E+01  0.30655521573E+02  0.25159391109E+02  0.40588591531E+02  0.51100000000E-03 0.  1.
         12    1    3    3    0    0  0.15254122921E+02 -0.31103341648E+02 -0.18723194830E+02  0.39378473211E+02  0.00000000000E+00 0. -1.
</event>
<event>
 7    1  0.3505640E-015  0.9000771E+02  0.7816164E-02  0.1186339E+00
        -11   -1    0    0    0    0  0.00000000000E+00  0.00000000000E+00  0.45593999997E+02  0.45594000000E+02  0.51100000000E-03 0.  1.
         11   -1    0    0    0    0 -0.00000000000E+00 -0.00000000000E+00 -0.45593999997E+02  0.45594000000E+02  0.51100000000E-03 0. -1.
    9900012    2    1    2    0    0 -0.10509319609E+01 -0.47171859053E+00 -0.25713596639E+00  0.90007705409E+02  0.89999966321E+02 0.  0.
        -12    1    1    2    0    0  0.10509319609E+01  0.47171859053E+00  0.25713596639E+00  0.11802945905E+01  0.00000000000E+00 0.  1.
         11    1    3    3    0    0  0.21149270325E+01 -0.62246807572E+01  0.51596422732E+01  0.83571212466E+01  0.51100000000E-03 0. -1.
        -11    1    3    3    0    0  0.17258195033E+02 -0.15216317331E+02  0.28643502440E+02  0.36740057719E+02  0.51100000000E-03 0.  1.
         12    1    3    3    0    0 -0.20424054026E+02  0.20969279498E+02 -0.34060280679E+02  0.44910526444E+02  0.00000000000E+00 0. -1.
</event>
<event>
 7    1  0.3505640E-015  0.9000777E+02  0.7816164E-02  0.1186339E+00
        -11   -1    0    0    0    0  0.00000000000E+00  0.00000000000E+00  0.45593999997E+02  0.45594000000E+02  0.51100000000E-03 0.  1.
         11   -1    0    0    0    0 -0.00000000000E+00 -0.00000000000E+00 -0.45593999997E+02  0.45594000000E+02  0.51100000000E-03 0. -1.
    9900012    2    1    2    0    0  0.10952421218E+01  0.18518318545E+00 -0.39886522675E+00  0.90007770536E+02  0.90000032308E+02 0.  0.
        -12    1    1    2    0    0 -0.10952421218E+01 -0.18518318545E+00  0.39886522675E+00  0.11802294636E+01  0.00000000000E+00 0.  1.
         11    1    3    3    0    0  0.64313825406E+01  0.17883993444E+02  0.12838826103E+02  0.22935460729E+02  0.51100000000E-03 0.  1.
        -11    1    3    3    0    0  0.28362955461E+02 -0.48462992460E+01 -0.36258281009E+00  0.28776297980E+02  0.51100000000E-03 0. -1.
         12    1    3    3    0    0 -0.33699095880E+02 -0.12852511012E+02 -0.12875108520E+02  0.38296011827E+02  0.00000000000E+00 0. -1.
</event>
<event>
 7    1  0.3505640E-015  0.9000788E+02  0.7816164E-02  0.1186339E+00
        -11   -1    0    0    0    0  0.00000000000E+00  0.00000000000E+00  0.45593999997E+02  0.45594000000E+02  0.51100000000E-03 0.  1.
         11   -1    0    0    0    0 -0.00000000000E+00 -0.00000000000E+00 -0.45593999997E+02  0.45594000000E+02  0.51100000000E-03 0. -1.
    9900012    2    1    2    0    0  0.99669531805E+00  0.60711429955E+00  0.17520249017E+00  0.90007879141E+02  0.90000142345E+02 0.  0.
        -12    1    1    2    0    0 -0.99669531805E+00 -0.60711429955E+00 -0.17520249017E+00  0.11801208592E+01  0.00000000000E+00 0.  1.
         11    1    3    3    0    0  0.16966644918E+02  0.29021140633E+02 -0.12294410876E+02  0.35794499332E+02  0.51100000000E-03 0. -1.
        -11    1    3    3    0    0 -0.28175883980E+01  0.81676499150E+01 -0.66394555378E+01  0.10896406729E+02  0.51100000000E-03 0.  1.
        -12    1    3    3    0    0 -0.13152361202E+02 -0.36581676248E+02  0.19109068904E+02  0.43316973079E+02  0.00000000000E+00 0.  1.
</event>
<event>
 7    1  0.3505640E-015  0.9000770E+02  0.7816164E-02  0.1186339E+00
        -11   -1    0    0    0    0  0.00000000000E+00  0.00000000000E+00  0.45593999997E+02  0.45594000000E+02  0.51100000000E-03 0.  1.
         11   -1    0    0    0    0 -0.00000000000E+00 -0.00000000000E+00 -0.45593999997E+02  0.45594000000E+02  0.51100000000E-03 0. -1.
    9900012    2    1    2    0    0  0.69382424815E+00 -0.52856204747E+00 -0.79519204375E+00  0.90007703295E+02  0.89999964179E+02 0.  0.
        -12    1    1    2    0    0 -0.69382424815E+00  0.52856204747E+00  0.79519204375E+00  0.11802967050E+01  0.00000000000E+00 0.  1.
         11    1    3    3    0    0 -0.13789661302E+01  0.12158818065E+01  0.90581982670E+01  0.92428822486E+01  0.51100000000E-03 0. -1.
        -11    1    3    3    0    0  0.11668674581E+02  0.83230621879E+01  0.32856937725E+02  0.35847031782E+02  0.51100000000E-03 0.  1.
         12    1    3    3    0    0 -0.95958842023E+01 -0.10067506042E+02 -0.42710328035E+02  0.44917789265E+02  0.00000000000E+00 0. -1.
</event>
<event>
 7    1  0.3505640E-015  0.9000772E+02  0.7816164E-02  0.1186339E+00
        -11   -1    0    0    0    0  0.00000000000E+00  0.00000000000E+00  0.45593999997E+02  0.45594000000E+02  0.51100000000E-03 0. -1.
         11   -1    0    0    0    0 -0.00000000000E+00 -0.00000000000E+00 -0.45593999997E+02  0.45594000000E+02  0.51100000000E-03 0.  1.
    9900012    2    1    2    0    0 -0.48954079454E+00 -0.76761834157E+00  0.75111512867E+00  0.90007719506E+02  0.89999980604E+02 0.  0.
        -12    1    1    2    0    0  0.48954079454E+00  0.76761834157E+00 -0.75111512867E+00  0.11802804939E+01  0.00000000000E+00 0.  1.
         11    1    3    3    0    0  0.46146365620E+01  0.30184926457E+01  0.27703862014E+01  0.61709973601E+01  0.51100000000E-03 0. -1.
        -11    1    3    3    0    0  0.12580703521E+02  0.22024597177E+02 -0.31775947876E+02  0.40657937055E+02  0.51100000000E-03 0.  1.
         12    1    3    3    0    0 -0.17684880877E+02 -0.25810708164E+02  0.29756676803E+02  0.43178785091E+02  0.00000000000E+00 0. -1.
</event>
<event>
 7    1  0.3505640E-015  0.9000775E+02  0.7816164E-02  0.1186339E+00
        -11   -1    0    0    0    0  0.00000000000E+00  0.00000000000E+00  0.45593999997E+02  0.45594000000E+02  0.51100000000E-03 0. -1.
         11   -1    0    0    0    0 -0.00000000000E+00 -0.00000000000E+00 -0.45593999997E+02  0.45594000000E+02  0.51100000000E-03 0.  1.
    9900012    2    1    2    0    0 -0.62358788949E-01 -0.39005217877E+00  0.11121881390E+01  0.90007749274E+02  0.90000010764E+02 0.  0.
        -12    1    1    2    0    0  0.62358788949E-01  0.39005217877E+00 -0.11121881390E+01  0.11802507264E+01  0.00000000000E+00 0.  1.
         11    1    3    3    0    0 -0.69280092851E+01 -0.77910255483E+01 -0.59064607739E+00  0.10442521477E+02  0.51100000000E-03 0. -1.
        -11    1    3    3    0    0 -0.35050571349E+02  0.12247532532E+02  0.37664846398E+01  0.37319311514E+02  0.51100000000E-03 0.  1.
         12    1    3    3    0    0  0.41916221846E+02 -0.48465591621E+01 -0.20636504234E+01  0.42245916283E+02  0.00000000000E+00 0. -1.
</event>
<event>
 7    1  0.3505640E-015  0.9000772E+02  0.7816164E-02  0.1186339E+00
        -11   -1    0    0    0    0  0.00000000000E+00  0.00000000000E+00  0.45593999997E+02  0.45594000000E+02  0.51100000000E-03 0.  1.
         11   -1    0    0    0    0 -0.00000000000E+00 -0.00000000000E+00 -0.45593999997E+02  0.45594000000E+02  0.51100000000E-03 0. -1.
    9900012    2    1    2    0    0  0.88522768548E+00  0.10772796666E+00 -0.77318916606E+00  0.90007722551E+02  0.89999983689E+02 0.  0.
        -12    1    1    2    0    0 -0.88522768548E+00 -0.10772796666E+00  0.77318916606E+00  0.11802774489E+01  0.00000000000E+00 0.  1.
         11    1    3    3    0    0  0.10934932559E+02 -0.28934065401E+02 -0.24920495060E+02  0.39721328843E+02  0.51100000000E-03 0. -1.
        -11    1    3    3    0    0 -0.55985393712E+01 -0.61864304136E+01  0.25446525213E+01  0.87230052774E+01  0.51100000000E-03 0.  1.
        -12    1    3    3    0    0 -0.44511655023E+01  0.35228223781E+02  0.21602653373E+02  0.41563388431E+02  0.00000000000E+00 0.  1.
</event>
<event>
 7    1  0.3505640E-015  0.9000772E+02  0.7816164E-02  0.1186339E+00
        -11   -1    0    0    0    0  0.00000000000E+00  0.00000000000E+00  0.45593999997E+02  0.45594000000E+02  0.51100000000E-03 0.  1.
         11   -1    0    0    0    0 -0.00000000000E+00 -0.00000000000E+00 -0.45593999997E+02  0.45594000000E+02  0.51100000000E-03 0. -1.
    9900012    2    1    2    0    0 -0.33037160107E-01 -0.45829495819E-01 -0.11789284600E+01  0.90007718631E+02  0.89999979717E+02 0.  0.
        -12    1    1    2    0    0  0.33037160107E-01  0.45829495819E-01  0.11789284600E+01  0.11802813692E+01  0.00000000000E+00 0.  1.
         11    1    3    3    0    0 -0.33538849456E+02 -0.15473053242E+02 -0.15656276582E+01  0.36969189735E+02  0.51100000000E-03 0. -1.
        -11    1    3    3    0    0 -0.48161276834E+01 -0.71000273703E+01  0.33059888895E+00  0.85857306275E+01  0.51100000000E-03 0.  1.
        -12    1    3    3    0    0  0.38321939979E+02  0.22527251117E+02  0.56100309239E-01  0.44452798268E+02  0.00000000000E+00 0.  1.
</event>
<event>
 7    1  0.3505640E-015  0.9000776E+02  0.7816164E-02  0.1186339E+00
        -11   -1    0    0    0    0  0.00000000000E+00  0.00000000000E+00  0.45593999997E+02  0.45594000000E+02  0.51100000000E-03 0.  1.
         11   -1    0    0    0    0 -0.00000000000E+00 -0.00000000000E+00 -0.45593999997E+02  0.45594000000E+02  0.51100000000E-03 0. -1.
    9900012    2    1    2    0    0 -0.43786212782E+00  0.10926641982E+01 -0.85671440873E-01  0.90007755157E+02  0.90000016725E+02 0.  0.
        -12    1    1    2    0    0  0.43786212782E+00 -0.10926641982E+01  0.85671440873E-01  0.11802448427E+01  0.00000000000E+00 0.  1.
         11    1    3    3    0    0 -0.98818019971E+01  0.35021593999E+01 -0.68692110835E+01  0.12534001450E+02  0.51100000000E-03 0. -1.
        -11    1    3    3    0    0 -0.19334834757E+02 -0.30956973607E+02  0.87583949150E+00  0.36509411733E+02  0.51100000000E-03 0.  1.
         12    1    3    3    0    0  0.28778774627E+02  0.28547478406E+02  0.59077001511E+01  0.40964341974E+02  0.00000000000E+00 0. -1.
</event>
<event>
 7    1  0.3505640E-015  0.9000773E+02  0.7816164E-02  0.1186339E+00
        -11   -1    0    0    0    0  0.00000000000E+00  0.00000000000E+00  0.45593999997E+02  0.45594000000E+02  0.51100000000E-03 0.  1.
         11   -1    0    0    0    0 -0.00000000000E+00 -0.00000000000E+00 -0.45593999997E+02  0.45594000000E+02  0.51100000000E-03 0. -1.
    9900012    2    1    2    0    0  0.14892518409E+00  0.55921370785E+00 -0.10286554014E+01  0.90007732820E+02  0.89999994093E+02 0.  0.
        -12    1    1    2    0    0 -0.14892518409E+00 -0.55921370785E+00  0.10286554014E+01  0.11802671801E+01  0.00000000000E+00 0.  1.
         11    1    3    3    0    0  0.25441098524E+01 -0.50109844925E+01 -0.55602092759E+01  0.79055921966E+01  0.51100000000E-03 0. -1.
        -11    1    3    3    0    0 -0.31195427687E+02 -0.17598731103E+02 -0.16652563759E+02  0.39499087647E+02  0.51100000000E-03 0.  1.
         12    1    3    3    0    0  0.28800243018E+02  0.23168929303E+02  0.21184117633E+02  0.42603052976E+02  0.00000000000E+00 0. -1.
</event>
<event>
 7    1  0.3505640E-015  0.9000774E+02  0.7816164E-02  0.1186339E+00
        -11   -1    0    0    0    0  0.00000000000E+00  0.00000000000E+00  0.45593999997E+02  0.45594000000E+02  0.51100000000E-03 0. -1.
         11   -1    0    0    0    0 -0.00000000000E+00 -0.00000000000E+00 -0.45593999997E+02  0.45594000000E+02  0.51100000000E-03 0.  1.
    9900012    2    1    2    0    0 -0.39275891055E+00  0.93252496105E+00  0.60758435232E+00  0.90007736847E+02  0.89999998174E+02 0.  0.
        -12    1    1    2    0    0  0.39275891055E+00 -0.93252496105E+00 -0.60758435232E+00  0.11802631529E+01  0.00000000000E+00 0.  1.
         11    1    3    3    0    0 -0.33421675520E+01  0.87749149193E+01 -0.82751552081E+01  0.12515886296E+02  0.51100000000E-03 0. -1.
        -11    1    3    3    0    0  0.34129356242E+02  0.15884754394E+02  0.18961865150E+01  0.37692623990E+02  0.51100000000E-03 0.  1.
         12    1    3    3    0    0 -0.31179947601E+02 -0.23727144352E+02  0.69865530454E+01  0.39799226562E+02  0.00000000000E+00 0. -1.
</event>
<event>
 7    1  0.3505640E-015  0.9000771E+02  0.7816164E-02  0.1186339E+00
        -11   -1    0    0    0    0  0.00000000000E+00  0.00000000000E+00  0.45593999997E+02  0.45594000000E+02  0.51100000000E-03 0.  1.
         11   -1    0    0    0    0 -0.00000000000E+00 -0.00000000000E+00 -0.45593999997E+02  0.45594000000E+02  0.51100000000E-03 0. -1.
    9900012    2    1    2    0    0 -0.50845942539E+00 -0.31924018300E+00 -0.10161848029E+01  0.90007713240E+02  0.89999974255E+02 0.  0.
        -12    1    1    2    0    0  0.50845942539E+00  0.31924018300E+00  0.10161848029E+01  0.11802867598E+01  0.00000000000E+00 0.  1.
         11    1    3    3    0    0  0.14112822532E+01  0.10178814129E+02  0.12566791111E+01  0.10352739604E+02  0.51100000000E-03 0. -1.
        -11    1    3    3    0    0 -0.14886488832E+01 -0.24341456856E+02  0.33418510462E+02  0.41370514127E+02  0.51100000000E-03 0.  1.
         12    1    3    3    0    0 -0.43109279539E+00  0.13843402545E+02 -0.35691374376E+02  0.38284459508E+02  0.00000000000E+00 0. -1.
</event>
<event>
 7    1  0.3505640E-015  0.9000775E+02  0.7816164E-02  0.1186339E+00
        -11   -1    0    0    0    0  0.00000000000E+00  0.00000000000E+00  0.45593999997E+02  0.45594000000E+02  0.51100000000E-03 0.  1.
         11   -1    0    0    0    0 -0.00000000000E+00 -0.00000000000E+00 -0.45593999997E+02  0.45594000000E+02  0.51100000000E-03 0. -1.
    9900012    2    1    2    0    0  0.60518852298E+00 -0.99597143874E+00 -0.18648075383E+00  0.90007751159E+02  0.90000012674E+02 0.  0.
        -12    1    1    2    0    0 -0.60518852298E+00  0.99597143874E+00  0.18648075383E+00  0.11802488410E+01  0.00000000000E+00 0.  1.
         11    1    3    3    0    0  0.27999867298E+01 -0.10849510545E+02 -0.39330904064E+02  0.40895865555E+02  0.51100000000E-03 0. -1.
        -11    1    3    3    0    0  0.35985790475E+01  0.94510105367E+01  0.59815258777E+00  0.10130605022E+02  0.51100000000E-03 0.  1.
        -12    1    3    3    0    0 -0.57933772543E+01  0.40252856976E+00  0.38546270722E+02  0.38981280582E+02  0.00000000000E+00 0.  1.
</event>
<event>
 7    1  0.3505640E-015  0.9000724E+02  0.7816164E-02  0.1186340E+00
        -11   -1    0    0    0    0  0.00000000000E+00  0.00000000000E+00  0.45593999997E+02  0.45594000000E+02  0.51100000000E-03 0.  1.
         11   -1    0    0    0    0 -0.00000000000E+00 -0.00000000000E+00 -0.45593999997E+02  0.45594000000E+02  0.51100000000E-03 0. -1.
    9900012    2    1    2    0    0 -0.13920197935E+00  0.11725222195E+01 -0.29491729684E-02  0.90007239972E+02  0.89999494738E+02 0.  0.
        -12    1    1    2    0    0  0.13920197935E+00 -0.11725222195E+01  0.29491729684E-02  0.11807600280E+01  0.00000000000E+00 0.  1.
         11    1    3    3    0    0 -0.61921592527E+01 -0.23818523677E+01  0.61603171334E-01  0.66347458221E+01  0.51100000000E-03 0. -1.
        -11    1    3    3    0    0 -0.45660548378E+01  0.30769681807E+01  0.40788874774E+02  0.41158825245E+02  0.51100000000E-03 0.  1.
         12    1    3    3    0    0  0.10619012111E+02  0.47740640649E+00 -0.40853427118E+02  0.42213668905E+02  0.00000000000E+00 0. -1.
</event>
<event>
 7    1  0.3505640E-015  0.9000755E+02  0.7816164E-02  0.1186339E+00
        -11   -1    0    0    0    0  0.00000000000E+00  0.00000000000E+00  0.45593999997E+02  0.45594000000E+02  0.51100000000E-03 0. -1.
         11   -1    0    0    0    0 -0.00000000000E+00 -0.00000000000E+00 -0.45593999997E+02  0.45594000000E+02  0.51100000000E-03 0.  1.
    9900012    2    1    2    0    0 -0.23258260378E+00 -0.71654524224E+00  0.90880499758E+00  0.90007551663E+02  0.89999810545E+02 0.  0.
        -12    1    1    2    0    0  0.23258260378E+00  0.71654524224E+00 -0.90880499758E+00  0.11804483366E+01  0.00000000000E+00 0.  1.
         11    1    3    3    0    0  0.45891703978E+01  0.53575436881E+01 -0.63036716076E+01  0.94604458303E+01  0.51100000000E-03 0. -1.
        -11    1    3    3    0    0  0.17182301717E+02  0.31560924252E+02 -0.19931369383E+01  0.35990221270E+02  0.51100000000E-03 0.  1.
         12    1    3    3    0    0 -0.22004054719E+02 -0.37635013182E+02  0.92056135435E+01  0.44556884563E+02  0.00000000000E+00 0. -1.
</event>
<event>
 7    1  0.3505640E-015  0.9000860E+02  0.7816164E-02  0.1186337E+00
        -11   -1    0    0    0    0  0.00000000000E+00  0.00000000000E+00  0.45593999997E+02  0.45594000000E+02  0.51100000000E-03 0.  1.
         11   -1    0    0    0    0 -0.00000000000E+00 -0.00000000000E+00 -0.45593999997E+02  0.45594000000E+02  0.51100000000E-03 0. -1.
    9900012    2    1    2    0    0 -0.44445829710E+00  0.32967469667E+00 -0.10415195778E+01  0.90008596925E+02  0.90000869600E+02 0.  0.
        -12    1    1    2    0    0  0.44445829710E+00 -0.32967469667E+00  0.10415195778E+01  0.11794030755E+01  0.00000000000E+00 0.  1.
         11    1    3    3    0    0  0.11701723485E+02 -0.26965139603E+02 -0.18677610683E+02  0.34826745863E+02  0.51100000000E-03 0. -1.
        -11    1    3    3    0    0 -0.12028176023E+02 -0.95538398401E+01  0.38252170186E+01  0.15829881858E+02  0.51100000000E-03 0.  1.
        -12    1    3    3    0    0 -0.11800575903E+00  0.36848654139E+02  0.13810874086E+02  0.39351969204E+02  0.00000000000E+00 0.  1.
</event>
<event>
 7    1  0.3505640E-015  0.9000767E+02  0.7816164E-02  0.1186339E+00
        -11   -1    0    0    0    0  0.00000000000E+00  0.00000000000E+00  0.45593999997E+02  0.45594000000E+02  0.51100000000E-03 0.  1.
         11   -1    0    0    0    0 -0.00000000000E+00 -0.00000000000E+00 -0.45593999997E+02  0.45594000000E+02  0.51100000000E-03 0. -1.
    9900012    2    1    2    0    0  0.75827720407E+00  0.77367729386E+00 -0.46864477831E+00  0.90007665809E+02  0.89999926198E+02 0.  0.
        -12    1    1    2    0    0 -0.75827720407E+00 -0.77367729386E+00  0.46864477831E+00  0.11803341906E+01  0.00000000000E+00 0.  1.
         11    1    3    3    0    0 -0.54355103807E+01  0.34718140808E+02 -0.40637446606E+00  0.35143409265E+02  0.51100000000E-03 0. -1.
        -11    1    3    3    0    0  0.14602855720E+01  0.89257813497E+01  0.66342236685E+01  0.11216725485E+02  0.51100000000E-03 0.  1.
        -12    1    3    3    0    0  0.47335020128E+01 -0.42870244864E+02 -0.66964939808E+01  0.43647531060E+02  0.00000000000E+00 0.  1.
</event>
<event>
 7    1  0.3505640E-015  0.9000774E+02  0.7816164E-02  0.1186339E+00
        -11   -1    0    0    0    0  0.00000000000E+00  0.00000000000E+00  0.45593999997E+02  0.45594000000E+02  0.51100000000E-03 0. -1.
         11   -1    0    0    0    0 -0.00000000000E+00 -0.00000000000E+00 -0.45593999997E+02  0.45594000000E+02  0.51100000000E-03 0.  1.
    9900012    2    1    2    0    0  0.99842017527E+00 -0.60755837309E+00 -0.16443500351E+00  0.90007742022E+02  0.90000003417E+02 0.  0.
        -12    1    1    2    0    0 -0.99842017527E+00  0.60755837309E+00  0.16443500351E+00  0.11802579775E+01  0.00000000000E+00 0.  1.
         11    1    3    3    0    0 -0.29077461361E+02  0.26614692387E+02  0.94077249627E+01  0.40525867039E+02  0.51100000000E-03 0. -1.
        -11    1    3    3    0    0  0.53240205839E+01  0.29841226079E+01  0.49075789350E+01  0.78316354730E+01  0.51100000000E-03 0.  1.
        -12    1    3    3    0    0  0.24751860952E+02 -0.30206373368E+02 -0.14479738901E+02  0.41650239510E+02  0.00000000000E+00 0.  1.
</event>
<event>
 7    1  0.3505640E-015  0.9000777E+02  0.7816164E-02  0.1186339E+00
        -11   -1    0    0    0    0  0.00000000000E+00  0.00000000000E+00  0.45593999997E+02  0.45594000000E+02  0.51100000000E-03 0.  1.
         11   -1    0    0    0    0 -0.00000000000E+00 -0.00000000000E+00 -0.45593999997E+02  0.45594000000E+02  0.51100000000E-03 0. -1.
    9900012    2    1    2    0    0 -0.47321157753E+00  0.35547461648E+00 -0.10210988393E+01  0.90007773649E+02  0.90000035461E+02 0.  0.
        -12    1    1    2    0    0  0.47321157753E+00 -0.35547461648E+00  0.10210988393E+01  0.11802263510E+01  0.00000000000E+00 0.  1.
         11    1    3    3    0    0 -0.69678081290E+01  0.31565531997E+01  0.82212237878E+01  0.11229545808E+02  0.51100000000E-03 0. -1.
        -11    1    3    3    0    0  0.31111649823E+02 -0.11598720354E+02  0.20623776902E+02  0.39087149327E+02  0.51100000000E-03 0.  1.
         12    1    3    3    0    0 -0.24617053271E+02  0.87976417707E+01 -0.29866099529E+02  0.39691078514E+02  0.00000000000E+00 0. -1.
</event>
<event>
 7    1  0.3505640E-015  0.9000794E+02  0.7816164E-02  0.1186339E+00
        -11   -1    0    0    0    0  0.00000000000E+00  0.00000000000E+00  0.45593999997E+02  0.45594000000E+02  0.51100000000E-03 0. -1.
         11   -1    0    0    0    0 -0.00000000000E+00 -0.00000000000E+00 -0.45593999997E+02  0.45594000000E+02  0.51100000000E-03 0.  1.
    9900012    2    1    2    0    0  0.11494216525E+01  0.26215826311E+00 -0.51495872912E-01  0.90007936902E+02  0.90000200869E+02 0.  0.
        -12    1    1    2    0    0 -0.11494216525E+01 -0.26215826311E+00  0.51495872912E-01  0.11800630979E+01  0.00000000000E+00 0.  1.
         11    1    3    3    0    0 -0.98587465732E+01  0.16356249754E+02  0.28485041628E+02  0.34294597050E+02  0.51100000000E-03 0. -1.
        -11    1    3    3    0    0  0.21660079207E+02  0.28395664857E+01 -0.27849319772E+01  0.22022216407E+02  0.51100000000E-03 0.  1.
        -12    1    3    3    0    0 -0.10651910982E+02 -0.18933657977E+02 -0.25751605524E+02  0.33691123445E+02  0.00000000000E+00 0.  1.
</event>
<event>
 7    1  0.3505640E-015  0.9000787E+02  0.7816164E-02  0.1186339E+00
        -11   -1    0    0    0    0  0.00000000000E+00  0.00000000000E+00  0.45593999997E+02  0.45594000000E+02  0.51100000000E-03 0.  1.
         11   -1    0    0    0    0 -0.00000000000E+00 -0.00000000000E+00 -0.45593999997E+02  0.45594000000E+02  0.51100000000E-03 0. -1.
    9900012    2    1    2    0    0  0.61473015423E+00 -0.98398691505E+00 -0.21583469087E+00  0.90007869488E+02  0.90000132565E+02 0.  0.
        -12    1    1    2    0    0 -0.61473015423E+00  0.98398691505E+00  0.21583469087E+00  0.11801305120E+01  0.00000000000E+00 0.  1.
         11    1    3    3    0    0 -0.31941841979E+02 -0.87448419934E+01 -0.13906140333E+02  0.35918439133E+02  0.51100000000E-03 0. -1.
        -11    1    3    3    0    0 -0.74144911460E+01 -0.34285068538E+01 -0.38465657765E+01  0.90291420818E+01  0.51100000000E-03 0.  1.
        -12    1    3    3    0    0  0.39971063279E+02  0.11189361932E+02  0.17536871418E+02  0.45060288273E+02  0.00000000000E+00 0.  1.
</event>
<event>
 7    1  0.3505640E-015  0.9000775E+02  0.7816164E-02  0.1186339E+00
        -11   -1    0    0    0    0  0.00000000000E+00  0.00000000000E+00  0.45593999997E+02  0.45594000000E+02  0.51100000000E-03 0. -1.
         11   -1    0    0    0    0 -0.00000000000E+00 -0.00000000000E+00 -0.45593999997E+02  0.45594000000E+02  0.51100000000E-03 0.  1.
    9900012    2    1    2    0    0 -0.98085278942E+00 -0.26913275486E+00  0.59874258308E+00  0.90007746928E+02  0.90000008387E+02 0.  0.
        -12    1    1    2    0    0  0.98085278942E+00  0.26913275486E+00 -0.59874258308E+00  0.11802530725E+01  0.00000000000E+00 0.  1.
         11    1    3    3    0    0  0.10188723081E+02 -0.16323843026E+02  0.34438502619E+02  0.39449821191E+02  0.51100000000E-03 0. -1.
        -11    1    3    3    0    0 -0.36239845923E+01 -0.93374985354E+01 -0.43563792511E+01  0.10922462344E+02  0.51100000000E-03 0.  1.
        -12    1    3    3    0    0 -0.75455912777E+01  0.25392208806E+02 -0.29483380785E+02  0.39635463392E+02  0.00000000000E+00 0.  1.
</event>
<event>
 7    1  0.3505640E-015  0.9000778E+02  0.7816164E-02  0.1186339E+00
        -11   -1    0    0    0    0  0.00000000000E+00  0.00000000000E+00  0.45593999997E+02  0.45594000000E+02  0.51100000000E-03 0.  1.
         11   -1    0    0    0    0 -0.00000000000E+00 -0.00000000000E+00 -0.45593999997E+02  0.45594000000E+02  0.51100000000E-03 0. -1.
    9900012    2    1    2    0    0 -0.66492594970E+00  0.23215720739E+00 -0.94704757295E+00  0.90007778583E+02  0.90000040460E+02 0.  0.
        -12    1    1    2    0    0  0.66492594970E+00 -0.23215720739E+00  0.94704757295E+00  0.11802214169E+01  0.00000000000E+00 0.  1.
         11    1    3    3    0    0 -0.39270283199E+02 -0.14768425883E+02  0.15099512499E+02  0.44589873554E+02  0.51100000000E-03 0. -1.
        -11    1    3    3    0    0  0.85402971138E+01  0.38378895903E+01  0.40933866913E+00  0.93719597581E+01  0.51100000000E-03 0.  1.
        -12    1    3    3    0    0  0.30065060135E+02  0.11162693501E+02 -0.16455898741E+02  0.36045945271E+02  0.00000000000E+00 0.  1.
</event>
<event>
 7    1  0.3505640E-015  0.9000786E+02  0.7816164E-02  0.1186339E+00
        -11   -1    0    0    0    0  0.00000000000E+00  0.00000000000E+00  0.45593999997E+02  0.45594000000E+02  0.51100000000E-03 0.  1.
         11   -1    0    0    0    0 -0.00000000000E+00 -0.00000000000E+00 -0.45593999997E+02  0.45594000000E+02  0.51100000000E-03 0. -1.
    9900012    2    1    2    0    0  0.94839609865E+00 -0.75842759868E-01 -0.69823335873E+00  0.90007857167E+02  0.90000120081E+02 0.  0.
        -12    1    1    2    0    0 -0.94839609865E+00  0.75842759868E-01  0.69823335873E+00  0.11801428335E+01  0.00000000000E+00 0.  1.
         11    1    3    3    0    0  0.48811454567E+01  0.45898106825E+01  0.18884185013E+02  0.20037574378E+02  0.51100000000E-03 0. -1.
        -11    1    3    3    0    0 -0.23740863205E+02 -0.23314234592E+02  0.45750531620E+01  0.33587396922E+02  0.51100000000E-03 0.  1.
         12    1    3    3    0    0  0.19808113847E+02  0.18648581150E+02 -0.24157471534E+02  0.36382885866E+02  0.00000000000E+00 0. -1.
</event>
<event>
 7    1  0.3505640E-015  0.9000776E+02  0.7816164E-02  0.1186339E+00
        -11   -1    0    0    0    0  0.00000000000E+00  0.00000000000E+00  0.45593999997E+02  0.45594000000E+02  0.51100000000E-03 0.  1.
         11   -1    0    0    0    0 -0.00000000000E+00 -0.00000000000E+00 -0.45593999997E+02  0.45594000000E+02  0.51100000000E-03 0. -1.
    9900012    2    1    2    0    0  0.75256515670E+00  0.20330778267E-02 -0.90917777421E+00  0.90007761603E+02  0.90000023256E+02 0.  0.
        -12    1    1    2    0    0 -0.75256515670E+00 -0.20330778267E-02  0.90917777421E+00  0.11802383969E+01  0.00000000000E+00 0.  1.
         11    1    3    3    0    0 -0.62952506934E+01  0.23046315284E+01  0.56057237423E+01  0.87387440008E+01  0.51100000000E-03 0. -1.
        -11    1    3    3    0    0 -0.26149904054E+02  0.14801643229E+01  0.24364836913E+02  0.35772246876E+02  0.51100000000E-03 0.  1.
         12    1    3    3    0    0  0.33197719905E+02 -0.37827627734E+01 -0.30879738430E+02  0.45496770727E+02  0.00000000000E+00 0. -1.
</event>
<event>
 7    1  0.3505640E-015  0.9000799E+02  0.7816164E-02  0.1186339E+00
        -11   -1    0    0    0    0  0.00000000000E+00  0.00000000000E+00  0.45593999997E+02  0.45594000000E+02  0.51100000000E-03 0. -1.
         11   -1    0    0    0    0 -0.00000000000E+00 -0.00000000000E+00 -0.45593999997E+02  0.45594000000E+02  0.51100000000E-03 0.  1.
    9900012    2    1    2    0    0 -0.44893546742E+00 -0.10435555360E+01 -0.31916225419E+00  0.90007993324E+02  0.90000258036E+02 0.  0.
        -12    1    1    2    0    0  0.44893546742E+00  0.10435555360E+01  0.31916225419E+00  0.11800066759E+01  0.00000000000E+00 0.  1.
         11    1    3    3    0    0 -0.21756234496E+02  0.25216980877E+02  0.10762723403E+02  0.35000943977E+02  0.51100000000E-03 0. -1.
        -11    1    3    3    0    0 -0.15671380768E+01  0.88744797180E+01  0.47565272262E+01  0.10190037465E+02  0.51100000000E-03 0.  1.
        -12    1    3    3    0    0  0.22874437105E+02 -0.35135016131E+02 -0.15838412883E+02  0.44817011882E+02  0.00000000000E+00 0.  1.
</event>
<event>
 7    1  0.3505640E-015  0.9000761E+02  0.7816164E-02  0.1186339E+00
        -11   -1    0    0    0    0  0.00000000000E+00  0.00000000000E+00  0.45593999997E+02  0.45594000000E+02  0.51100000000E-03 0.  1.
         11   -1    0    0    0    0 -0.00000000000E+00 -0.00000000000E+00 -0.45593999997E+02  0.45594000000E+02  0.51100000000E-03 0. -1.
    9900012    2    1    2    0    0  0.86611025477E+00 -0.55465625457E+00 -0.57923948093E+00  0.90007614931E+02  0.89999874648E+02 0.  0.
        -12    1    1    2    0    0 -0.86611025477E+00  0.55465625457E+00  0.57923948093E+00  0.11803850687E+01  0.00000000000E+00 0.  1.
         11    1    3    3    0    0  0.86477828238E+01  0.28556791039E+02 -0.14614163522E+01  0.29873235517E+02  0.51100000000E-03 0. -1.
        -11    1    3    3    0    0  0.15728515379E+02 -0.11503435641E+02  0.17667928898E+02  0.26303439687E+02  0.51100000000E-03 0.  1.
        -12    1    3    3    0    0 -0.23510187948E+02 -0.17608011653E+02 -0.16785752027E+02  0.33830939727E+02  0.00000000000E+00 0.  1.
</event>
<event>
 7    1  0.3505640E-015  0.9000719E+02  0.7816164E-02  0.1186340E+00
        -11   -1    0    0    0    0  0.00000000000E+00  0.00000000000E+00  0.45593999997E+02  0.45594000000E+02  0.51100000000E-03 0. -1.
         11   -1    0    0    0    0 -0.00000000000E+00 -0.00000000000E+00 -0.45593999997E+02  0.45594000000E+02  0.51100000000E-03 0.  1.
    9900012    2    1    2    0    0 -0.88884097258E+00 -0.27068468788E+00  0.72869504387E+00  0.90007193097E+02  0.89999447244E+02 0.  0.
        -12    1    1    2    0    0  0.88884097258E+00  0.27068468788E+00 -0.72869504387E+00  0.11808069028E+01  0.00000000000E+00 0.  1.
         11    1    3    3    0    0  0.30741626345E+02  0.65232769585E+00  0.30627879381E+02  0.43399770938E+02  0.51100000000E-03 0. -1.
        -11    1    3    3    0    0 -0.46348256118E+01  0.62874498854E+01 -0.64952382719E+01  0.10158826457E+02  0.51100000000E-03 0.  1.
        -12    1    3    3    0    0 -0.26995641706E+02 -0.72104622692E+01 -0.23403946066E+02  0.36448595703E+02  0.00000000000E+00 0.  1.
</event>
<event>
 7    1  0.3505640E-015  0.9000779E+02  0.7816164E-02  0.1186339E+00
        -11   -1    0    0    0    0  0.00000000000E+00  0.00000000000E+00  0.45593999997E+02  0.45594000000E+02  0.51100000000E-03 0.  1.
         11   -1    0    0    0    0 -0.00000000000E+00 -0.00000000000E+00 -0.45593999997E+02  0.45594000000E+02  0.51100000000E-03 0. -1.
    9900012    2    1    2    0    0 -0.22766123663E+00  0.63796275662E+00 -0.96646802915E+00  0.90007793845E+02  0.90000055923E+02 0.  0.
        -12    1    1    2    0    0  0.22766123663E+00 -0.63796275662E+00  0.96646802915E+00  0.11802061552E+01  0.00000000000E+00 0.  1.
         11    1    3    3    0    0  0.18203767812E+02  0.11037573935E+02 -0.38661485103E+02  0.44135197196E+02  0.51100000000E-03 0. -1.
        -11    1    3    3    0    0 -0.50263322303E+01 -0.68874107490E+01  0.39577897126E+01  0.94002416025E+01  0.51100000000E-03 0.  1.
        -12    1    3    3    0    0 -0.13405096819E+02 -0.35122004294E+01  0.33737227361E+02  0.36472355046E+02  0.00000000000E+00 0.  1.
</event>
<event>
 7    1  0.3505640E-015  0.9000772E+02  0.7816164E-02  0.1186339E+00
        -11   -1    0    0    0    0  0.00000000000E+00  0.00000000000E+00  0.45593999997E+02  0.45594000000E+02  0.51100000000E-03 0.  1.
         11   -1    0    0    0    0 -0.00000000000E+00 -0.00000000000E+00 -0.45593999997E+02  0.45594000000E+02  0.51100000000E-03 0. -1.
    9900012    2    1    2    0    0  0.47656617904E+00 -0.95680842708E-01 -0.10755406847E+01  0.90007721257E+02  0.89999982378E+02 0.  0.
        -12    1    1    2    0    0 -0.47656617904E+00  0.95680842708E-01  0.10755406847E+01  0.11802787429E+01  0.00000000000E+00 0.  1.
         11    1    3    3    0    0 -0.80087979146E+01  0.44704944825E+01  0.19203155058E+01  0.93709005362E+01  0.51100000000E-03 0. -1.
        -11    1    3    3    0    0 -0.21506627492E+02 -0.24807454350E+02  0.19349653975E+02  0.38109761566E+02  0.51100000000E-03 0.  1.
         12    1    3    3    0    0  0.29991991586E+02  0.20241279025E+02 -0.22345510165E+02  0.42527059155E+02  0.00000000000E+00 0. -1.
</event>
<event>
 7    1  0.3505640E-015  0.9000767E+02  0.7816164E-02  0.1186339E+00
        -11   -1    0    0    0    0  0.00000000000E+00  0.00000000000E+00  0.45593999997E+02  0.45594000000E+02  0.51100000000E-03 0.  1.
         11   -1    0    0    0    0 -0.00000000000E+00 -0.00000000000E+00 -0.45593999997E+02  0.45594000000E+02  0.51100000000E-03 0. -1.
    9900012    2    1    2    0    0 -0.68617064928E+00 -0.20266507068E+00 -0.93875759674E+00  0.90007674148E+02  0.89999934647E+02 0.  0.
        -12    1    1    2    0    0  0.68617064928E+00  0.20266507068E+00  0.93875759674E+00  0.11803258517E+01  0.00000000000E+00 0.  1.
         11    1    3    3    0    0  0.66769047919E+01  0.42714033091E+01 -0.39029099768E+01  0.88350806661E+01  0.51100000000E-03 0. -1.
        -11    1    3    3    0    0  0.13478413951E+02  0.34328635151E+02  0.41384436019E+01  0.37111312960E+02  0.51100000000E-03 0.  1.
         12    1    3    3    0    0 -0.20841489392E+02 -0.38802703530E+02 -0.11742912218E+01  0.44061280522E+02  0.00000000000E+00 0. -1.
</event>
<event>
 7    1  0.3505640E-015  0.9000773E+02  0.7816164E-02  0.1186339E+00
        -11   -1    0    0    0    0  0.00000000000E+00  0.00000000000E+00  0.45593999997E+02  0.45594000000E+02  0.51100000000E-03 0.  1.
         11   -1    0    0    0    0 -0.00000000000E+00 -0.00000000000E+00 -0.45593999997E+02  0.45594000000E+02  0.51100000000E-03 0. -1.
    9900012    2    1    2    0    0 -0.33471120716E+00 -0.84469955527E+00 -0.75332411599E+00  0.90007726237E+02  0.89999987424E+02 0.  0.
        -12    1    1    2    0    0  0.33471120716E+00  0.84469955527E+00  0.75332411599E+00  0.11802737626E+01  0.00000000000E+00 0.  1.
         11    1    3    3    0    0 -0.42141381227E+01  0.10056695060E+02 -0.32031152831E+02  0.33836235423E+02  0.51100000000E-03 0. -1.
        -11    1    3    3    0    0  0.64351161136E+01  0.74644925716E+01 -0.80279941427E+01  0.12711335845E+02  0.51100000000E-03 0.  1.
        -12    1    3    3    0    0 -0.25556891981E+01 -0.18365887187E+02  0.39305822858E+02  0.43460154969E+02  0.00000000000E+00 0.  1.
</event>
<event>
 7    1  0.3505640E-015  0.9000774E+02  0.7816164E-02  0.1186339E+00
        -11   -1    0    0    0    0  0.00000000000E+00  0.00000000000E+00  0.45593999997E+02  0.45594000000E+02  0.51100000000E-03 0.  1.
         11   -1    0    0    0    0 -0.00000000000E+00 -0.00000000000E+00 -0.45593999997E+02  0.45594000000E+02  0.51100000000E-03 0. -1.
    9900012    2    1    2    0    0 -0.61083769296E+00  0.62741181297E+00 -0.79134979744E+00  0.90007744616E+02  0.90000006045E+02 0.  0.
        -12    1    1    2    0    0  0.61083769296E+00 -0.62741181297E+00  0.79134979744E+00  0.11802553843E+01  0.00000000000E+00 0.  1.
         11    1    3    3    0    0  0.73151027942E+01 -0.35944522126E+02 -0.22849041008E+02  0.43215715602E+02  0.51100000000E-03 0. -1.
        -11    1    3    3    0    0 -0.44762835602E+01  0.13270580181E+02 -0.72179380876E+00  0.14023779784E+02  0.51100000000E-03 0.  1.
        -12    1    3    3    0    0 -0.34496569270E+01  0.23301353757E+02  0.22779485020E+02  0.32768249230E+02  0.00000000000E+00 0.  1.
</event>
<event>
 7    1  0.3505640E-015  0.9000767E+02  0.7816164E-02  0.1186339E+00
        -11   -1    0    0    0    0  0.00000000000E+00  0.00000000000E+00  0.45593999997E+02  0.45594000000E+02  0.51100000000E-03 0.  1.
         11   -1    0    0    0    0 -0.00000000000E+00 -0.00000000000E+00 -0.45593999997E+02  0.45594000000E+02  0.51100000000E-03 0. -1.
    9900012    2    1    2    0    0  0.10853513774E+01 -0.27526590138E+00 -0.37338770925E+00  0.90007670677E+02  0.89999931130E+02 0.  0.
        -12    1    1    2    0    0 -0.10853513774E+01  0.27526590138E+00  0.37338770925E+00  0.11803293229E+01  0.00000000000E+00 0.  1.
         11    1    3    3    0    0 -0.50704357568E+01 -0.96847300387E+00  0.82121857242E+01  0.96998584192E+01  0.51100000000E-03 0. -1.
        -11    1    3    3    0    0 -0.17109096682E+01 -0.89321977870E+01  0.34389067362E+02  0.35571327267E+02  0.51100000000E-03 0.  1.
         12    1    3    3    0    0  0.78666968024E+01  0.96254048895E+01 -0.42974640796E+02  0.44736484991E+02  0.00000000000E+00 0. -1.
</event>
<event>
 7    1  0.3505640E-015  0.9000776E+02  0.7816164E-02  0.1186339E+00
        -11   -1    0    0    0    0  0.00000000000E+00  0.00000000000E+00  0.45593999997E+02  0.45594000000E+02  0.51100000000E-03 0.  1.
         11   -1    0    0    0    0 -0.00000000000E+00 -0.00000000000E+00 -0.45593999997E+02  0.45594000000E+02  0.51100000000E-03 0. -1.
    9900012    2    1    2    0    0 -0.43517777296E+00 -0.10115561460E+01 -0.42467490085E+00  0.90007756677E+02  0.90000018265E+02 0.  0.
        -12    1    1    2    0    0  0.43517777296E+00  0.10115561460E+01  0.42467490085E+00  0.11802433232E+01  0.00000000000E+00 0.  1.
         11    1    3    3    0    0 -0.12955029742E+02 -0.85352338502E+01 -0.35084348604E+02  0.38361367673E+02  0.51100000000E-03 0. -1.
        -11    1    3    3    0    0 -0.45206819482E+01 -0.46011849827E+01 -0.40725691670E+01  0.76284525562E+01  0.51100000000E-03 0.  1.
        -12    1    3    3    0    0  0.17040533918E+02  0.12124862687E+02  0.38732242870E+02  0.44017936448E+02  0.00000000000E+00 0.  1.
</event>
<event>
 7    1  0.3505640E-015  0.9000771E+02  0.7816164E-02  0.1186339E+00
        -11   -1    0    0    0    0  0.00000000000E+00  0.00000000000E+00  0.45593999997E+02  0.45594000000E+02  0.51100000000E-03 0.  1.
         11   -1    0    0    0    0 -0.00000000000E+00 -0.00000000000E+00 -0.45593999997E+02  0.45594000000E+02  0.51100000000E-03 0. -1.
    9900012    2    1    2    0    0  0.55969445470E+00  0.38687901564E+00 -0.96444072962E+00  0.90007712249E+02  0.89999973250E+02 0.  0.
        -12    1    1    2    0    0 -0.55969445470E+00 -0.38687901564E+00  0.96444072962E+00  0.11802877515E+01  0.00000000000E+00 0.  1.
         11    1    3    3    0    0  0.52523510470E+01  0.11065924803E+02 -0.58080610651E+01  0.13556380669E+02  0.51100000000E-03 0. -1.
        -11    1    3    3    0    0 -0.13712701973E+02  0.23432392328E+02  0.24057607077E+02  0.36275110808E+02  0.51100000000E-03 0.  1.
         12    1    3    3    0    0  0.90200453808E+01 -0.34111438114E+02 -0.19213986742E+02  0.40176220771E+02  0.00000000000E+00 0. -1.
</event>
<event>
 7    1  0.3505640E-015  0.9000779E+02  0.7816164E-02  0.1186339E+00
        -11   -1    0    0    0    0  0.00000000000E+00  0.00000000000E+00  0.45593999997E+02  0.45594000000E+02  0.51100000000E-03 0.  1.
         11   -1    0    0    0    0 -0.00000000000E+00 -0.00000000000E+00 -0.45593999997E+02  0.45594000000E+02  0.51100000000E-03 0. -1.
    9900012    2    1    2    0    0  0.81293930528E-01  0.11513357594E+01 -0.24639004277E+00  0.90007792058E+02  0.90000054113E+02 0.  0.
        -12    1    1    2    0    0 -0.81293930528E-01 -0.11513357594E+01  0.24639004277E+00  0.11802079423E+01  0.00000000000E+00 0.  1.
         11    1    3    3    0    0  0.33399366761E+02  0.34284552491E+01 -0.11067692220E+02  0.35352027053E+02  0.51100000000E-03 0. -1.
        -11    1    3    3    0    0  0.56526842288E+01  0.13234096031E+01 -0.90586494300E+01  0.10759339279E+02  0.51100000000E-03 0.  1.
        -12    1    3    3    0    0 -0.38970757059E+02 -0.36005290928E+01  0.19879951607E+02  0.43896425725E+02  0.00000000000E+00 0.  1.
</event>
<event>
 7    1  0.3505640E-015  0.9000789E+02  0.7816164E-02  0.1186339E+00
        -11   -1    0    0    0    0  0.00000000000E+00  0.00000000000E+00  0.45593999997E+02  0.45594000000E+02  0.51100000000E-03 0. -1.
         11   -1    0    0    0    0 -0.00000000000E+00 -0.00000000000E+00 -0.45593999997E+02  0.45594000000E+02  0.51100000000E-03 0.  1.
    9900012    2    1    2    0    0  0.55729812995E+00 -0.10402334833E+01  0.93935107047E-03  0.90007886536E+02  0.90000149838E+02 0.  0.
        -12    1    1    2    0    0 -0.55729812995E+00  0.10402334833E+01 -0.93935107047E-03  0.11801134640E+01  0.00000000000E+00 0.  1.
         11    1    3    3    0    0  0.60657975141E+01  0.38950214721E+01  0.37286737254E+02  0.37977175606E+02  0.51100000000E-03 0. -1.
        -11    1    3    3    0    0  0.14708972669E+01  0.74012420512E+01  0.38857229521E+01  0.84876831817E+01  0.51100000000E-03 0.  1.
        -12    1    3    3    0    0 -0.69793966510E+01 -0.12336497007E+02 -0.41171520855E+02  0.43543027748E+02  0.00000000000E+00 0.  1.
</event>
<event>
 7    1  0.3505640E-015  0.9000783E+02  0.7816164E-02  0.1186339E+00
        -11   -1    0    0    0    0  0.00000000000E+00  0.00000000000E+00  0.45593999997E+02  0.45594000000E+02  0.51100000000E-03 0.  1.
         11   -1    0    0    0    0 -0.00000000000E+00 -0.00000000000E+00 -0.45593999997E+02  0.45594000000E+02  0.51100000000E-03 0. -1.
    9900012    2    1    2    0    0  0.47093160071E+00  0.57685284320E+00 -0.91556859941E+00  0.90007829828E+02  0.90000092381E+02 0.  0.
        -12    1    1    2    0    0 -0.47093160071E+00 -0.57685284320E+00  0.91556859941E+00  0.11801701722E+01  0.00000000000E+00 0.  1.
         11    1    3    3    0    0  0.10165408410E+01  0.70744686709E+01 -0.72608780715E+01  0.10188317471E+02  0.51100000000E-03 0. -1.
        -11    1    3    3    0    0 -0.17566244179E+02  0.26216551720E+02  0.23304362405E+02  0.39229756895E+02  0.51100000000E-03 0.  1.
         12    1    3    3    0    0  0.17020634939E+02 -0.32714167548E+02 -0.16959052933E+02  0.40589755462E+02  0.00000000000E+00 0. -1.
</event>
<event>
 7    1  0.3505640E-015  0.9000774E+02  0.7816164E-02  0.1186339E+00
        -11   -1    0    0    0    0  0.00000000000E+00  0.00000000000E+00  0.45593999997E+02  0.45594000000E+02  0.51100000000E-03 0.  1.
         11   -1    0    0    0    0 -0.00000000000E+00 -0.00000000000E+00 -0.45593999997E+02  0.45594000000E+02  0.51100000000E-03 0. -1.
    9900012    2    1    2    0    0  0.16255807180E+00  0.79705114415E+00 -0.85516092294E+00  0.90007739072E+02  0.90000000428E+02 0.  0.
        -12    1    1    2    0    0 -0.16255807180E+00 -0.79705114415E+00  0.85516092294E+00  0.11802609276E+01  0.00000000000E+00 0.  1.
         11    1    3    3    0    0  0.16743782950E+02  0.60333894555E+01  0.51595415101E+01  0.18530432392E+02  0.51100000000E-03 0. -1.
        -11    1    3    3    0    0  0.26418377471E+02 -0.30777998035E+01  0.49395584769E+01  0.27051853135E+02  0.51100000000E-03 0.  1.
         12    1    3    3    0    0 -0.42999602349E+02 -0.21585385078E+01 -0.10954260910E+02  0.44425453545E+02  0.00000000000E+00 0. -1.
</event>
<event>
 7    1  0.3505640E-015  0.9000773E+02  0.7816164E-02  0.1186339E+00
        -11   -1    0    0    0    0  0.00000000000E+00  0.00000000000E+00  0.45593999997E+02  0.45594000000E+02  0.51100000000E-03 0. -1.
         11   -1    0    0    0    0 -0.00000000000E+00 -0.00000000000E+00 -0.45593999997E+02  0.45594000000E+02  0.51100000000E-03 0.  1.
    9900012    2    1    2    0    0 -0.85562850797E+00  0.58040628257E-01 -0.81090469096E+00  0.90007730846E+02  0.89999992093E+02 0.  0.
        -12    1    1    2    0    0  0.85562850797E+00 -0.58040628257E-01  0.81090469096E+00  0.11802691540E+01  0.00000000000E+00 0.  1.
         11    1    3    3    0    0  0.24586851557E+02  0.28705605472E+01  0.32786701441E+02  0.41081883830E+02  0.51100000000E-03 0. -1.
        -11    1    3    3    0    0 -0.82610411920E+01 -0.36632596708E+01  0.21194211387E+01  0.92820374496E+01  0.51100000000E-03 0.  1.
        -12    1    3    3    0    0 -0.17181438873E+02  0.85073975187E+00 -0.35717027271E+02  0.39643809567E+02  0.00000000000E+00 0.  1.
</event>
<event>
 7    1  0.3505640E-015  0.9000773E+02  0.7816164E-02  0.1186339E+00
        -11   -1    0    0    0    0  0.00000000000E+00  0.00000000000E+00  0.45593999997E+02  0.45594000000E+02  0.51100000000E-03 0.  1.
         11   -1    0    0    0    0 -0.00000000000E+00 -0.00000000000E+00 -0.45593999997E+02  0.45594000000E+02  0.51100000000E-03 0. -1.
    9900012    2    1    2    0    0  0.91123559184E+00 -0.74978731225E+00  0.22734279450E-01  0.90007725386E+02  0.89999986561E+02 0.  0.
        -12    1    1    2    0    0 -0.91123559184E+00  0.74978731225E+00 -0.22734279450E-01  0.11802746142E+01  0.00000000000E+00 0.  1.
         11    1    3    3    0    0 -0.25734349242E+02  0.22447804945E+02 -0.18491277791E+02  0.38834109136E+02  0.51100000000E-03 0. -1.
        -11    1    3    3    0    0  0.25296452779E+01 -0.36322709617E+01 -0.87779170248E+01  0.98307845632E+01  0.51100000000E-03 0.  1.
        -12    1    3    3    0    0  0.24115939556E+02 -0.19565321296E+02  0.27291929096E+02  0.41342831686E+02  0.00000000000E+00 0.  1.
</event>
<event>
 7    1  0.3505640E-015  0.9000773E+02  0.7816164E-02  0.1186339E+00
        -11   -1    0    0    0    0  0.00000000000E+00  0.00000000000E+00  0.45593999997E+02  0.45594000000E+02  0.51100000000E-03 0. -1.
         11   -1    0    0    0    0 -0.00000000000E+00 -0.00000000000E+00 -0.45593999997E+02  0.45594000000E+02  0.51100000000E-03 0.  1.
    9900012    2    1    2    0    0  0.26248573210E+00 -0.10713664963E+01 -0.41989466254E+00  0.90007730346E+02  0.89999991586E+02 0.  0.
        -12    1    1    2    0    0 -0.26248573210E+00  0.10713664963E+01  0.41989466254E+00  0.11802696542E+01  0.00000000000E+00 0.  1.
         11    1    3    3    0    0  0.61062707530E+01  0.67832367068E+01  0.51005447520E+01  0.10455352685E+02  0.51100000000E-03 0. -1.
        -11    1    3    3    0    0  0.35256424183E+02  0.45528686330E+01  0.33726185878E+01  0.35708803051E+02  0.51100000000E-03 0.  1.
         12    1    3    3    0    0 -0.41100209204E+02 -0.12407471836E+02 -0.88930580024E+01  0.43843574610E+02  0.00000000000E+00 0. -1.
</event>
<event>
 7    1  0.3505640E-015  0.9000777E+02  0.7816164E-02  0.1186339E+00
        -11   -1    0    0    0    0  0.00000000000E+00  0.00000000000E+00  0.45593999997E+02  0.45594000000E+02  0.51100000000E-03 0.  1.
         11   -1    0    0    0    0 -0.00000000000E+00 -0.00000000000E+00 -0.45593999997E+02  0.45594000000E+02  0.51100000000E-03 0. -1.
    9900012    2    1    2    0    0 -0.10085556682E+01  0.60298744560E+00 -0.11025318356E+00  0.90007773683E+02  0.90000035495E+02 0.  0.
        -12    1    1    2    0    0  0.10085556682E+01 -0.60298744560E+00  0.11025318356E+00  0.11802263173E+01  0.00000000000E+00 0.  1.
         11    1    3    3    0    0 -0.50181604211E+01 -0.55291676517E+01  0.36571196766E+01  0.83143342200E+01  0.51100000000E-03 0. -1.
        -11    1    3    3    0    0  0.11550649337E+02 -0.35209145156E+02  0.82962012650E+01  0.37972731775E+02  0.51100000000E-03 0.  1.
         12    1    3    3    0    0 -0.75410445843E+01  0.41341300253E+02 -0.12063574125E+02  0.43720707688E+02  0.00000000000E+00 0. -1.
</event>
<event>
 7    1  0.3505640E-015  0.9000775E+02  0.7816164E-02  0.1186339E+00
        -11   -1    0    0    0    0  0.00000000000E+00  0.00000000000E+00  0.45593999997E+02  0.45594000000E+02  0.51100000000E-03 0. -1.
         11   -1    0    0    0    0 -0.00000000000E+00 -0.00000000000E+00 -0.45593999997E+02  0.45594000000E+02  0.51100000000E-03 0.  1.
    9900012    2    1    2    0    0  0.69478984438E+00 -0.16009792359E+00  0.94054909534E+00  0.90007747115E+02  0.90000008576E+02 0.  0.
        -12    1    1    2    0    0 -0.69478984438E+00  0.16009792359E+00 -0.94054909534E+00  0.11802528855E+01  0.00000000000E+00 0.  1.
         11    1    3    3    0    0  0.72182996971E+01  0.45078216699E+01 -0.31428352629E+01  0.90720295676E+01  0.51100000000E-03 0. -1.
        -11    1    3    3    0    0 -0.22387846007E+02  0.81117289425E+00 -0.33198454956E+02  0.40050106891E+02  0.51100000000E-03 0.  1.
         12    1    3    3    0    0  0.15864336154E+02 -0.54790924878E+01  0.37281839314E+02  0.40885610656E+02  0.00000000000E+00 0. -1.
</event>
<event>
 7    1  0.3505640E-015  0.9000776E+02  0.7816164E-02  0.1186339E+00
        -11   -1    0    0    0    0  0.00000000000E+00  0.00000000000E+00  0.45593999997E+02  0.45594000000E+02  0.51100000000E-03 0.  1.
         11   -1    0    0    0    0 -0.00000000000E+00 -0.00000000000E+00 -0.45593999997E+02  0.45594000000E+02  0.51100000000E-03 0. -1.
    9900012    2    1    2    0    0  0.32678543587E+00 -0.25810701439E+00 -0.11043308859E+01  0.90007764999E+02  0.90000026697E+02 0.  0.
        -12    1    1    2    0    0 -0.32678543587E+00  0.25810701439E+00  0.11043308859E+01  0.11802350010E+01  0.00000000000E+00 0.  1.
         11    1    3    3    0    0  0.31218833311E+02  0.14348123656E+02 -0.10695627393E+02  0.35984450133E+02  0.51100000000E-03 0. -1.
        -11    1    3    3    0    0  0.10039231512E+02 -0.31211237931E+01  0.34800615471E+01  0.11074222850E+02  0.51100000000E-03 0.  1.
        -12    1    3    3    0    0 -0.40931279388E+02 -0.11485106878E+02  0.61112349598E+01  0.42949092017E+02  0.00000000000E+00 0.  1.
</event>
<event>
 7    1  0.3505640E-015  0.9000778E+02  0.7816164E-02  0.1186339E+00
        -11   -1    0    0    0    0  0.00000000000E+00  0.00000000000E+00  0.45593999997E+02  0.45594000000E+02  0.51100000000E-03 0. -1.
         11   -1    0    0    0    0 -0.00000000000E+00 -0.00000000000E+00 -0.45593999997E+02  0.45594000000E+02  0.51100000000E-03 0.  1.
    9900012    2    1    2    0    0  0.60311469597E+00 -0.79766651367E+00  0.62681357738E+00  0.90007782027E+02  0.90000043950E+02 0.  0.
        -12    1    1    2    0    0 -0.60311469597E+00  0.79766651367E+00 -0.62681357738E+00  0.11802179732E+01  0.00000000000E+00 0.  1.
         11    1    3    3    0    0  0.65605382504E+01 -0.80823794683E+01 -0.17684367117E+01  0.10559019304E+02  0.51100000000E-03 0. -1.
        -11    1    3    3    0    0 -0.27919486075E+01 -0.32695040301E+02 -0.14569832813E+02  0.35903212471E+02  0.51100000000E-03 0.  1.
         12    1    3    3    0    0 -0.31654749470E+01  0.39979753256E+02  0.16965083102E+02  0.43545550251E+02  0.00000000000E+00 0. -1.
</event>
<event>
 7    1  0.3505640E-015  0.9000769E+02  0.7816164E-02  0.1186339E+00
        -11   -1    0    0    0    0  0.00000000000E+00  0.00000000000E+00  0.45593999997E+02  0.45594000000E+02  0.51100000000E-03 0.  1.
         11   -1    0    0    0    0 -0.00000000000E+00 -0.00000000000E+00 -0.45593999997E+02  0.45594000000E+02  0.51100000000E-03 0. -1.
    9900012    2    1    2    0    0 -0.97746049097E+00 -0.17006737167E+00 -0.63935725504E+00  0.90007690879E+02  0.89999951598E+02 0.  0.
        -12    1    1    2    0    0  0.97746049097E+00  0.17006737167E+00  0.63935725504E+00  0.11803091213E+01  0.00000000000E+00 0.  1.
         11    1    3    3    0    0 -0.29168159016E+02 -0.12267917779E+02  0.17171310905E+02  0.36001905859E+02  0.51100000000E-03 0. -1.
        -11    1    3    3    0    0 -0.44622884046E+01 -0.10265314060E+02 -0.19142069489E+01  0.11355742118E+02  0.51100000000E-03 0.  1.
        -12    1    3    3    0    0  0.32652986930E+02  0.22363164467E+02 -0.15896461211E+02  0.42650042901E+02  0.00000000000E+00 0.  1.
</event>
<event>
 7    1  0.3505640E-015  0.9000776E+02  0.7816164E-02  0.1186339E+00
        -11   -1    0    0    0    0  0.00000000000E+00  0.00000000000E+00  0.45593999997E+02  0.45594000000E+02  0.51100000000E-03 0.  1.
         11   -1    0    0    0    0 -0.00000000000E+00 -0.00000000000E+00 -0.45593999997E+02  0.45594000000E+02  0.51100000000E-03 0. -1.
    9900012    2    1    2    0    0  0.47124055770E+00 -0.24523705738E+00 -0.10539249000E+01  0.90007759951E+02  0.90000021583E+02 0.  0.
        -12    1    1    2    0    0 -0.47124055770E+00  0.24523705738E+00  0.10539249000E+01  0.11802400486E+01  0.00000000000E+00 0.  1.
         11    1    3    3    0    0  0.18849595919E+02  0.23104166834E+02 -0.20359022887E+00  0.29818639148E+02  0.51100000000E-03 0. -1.
        -11    1    3    3    0    0 -0.68312409074E+01 -0.27804881348E+01  0.24485598627E+02  0.25572280051E+02  0.51100000000E-03 0.  1.
         12    1    3    3    0    0 -0.11547114453E+02 -0.20568915757E+02 -0.25335933298E+02  0.34616840753E+02  0.00000000000E+00 0. -1.
</event>
<event>
 7    1  0.3505640E-015  0.9000775E+02  0.7816164E-02  0.1186339E+00
        -11   -1    0    0    0    0  0.00000000000E+00  0.00000000000E+00  0.45593999997E+02  0.45594000000E+02  0.51100000000E-03 0.  1.
         11   -1    0    0    0    0 -0.00000000000E+00 -0.00000000000E+00 -0.45593999997E+02  0.45594000000E+02  0.51100000000E-03 0. -1.
    9900012    2    1    2    0    0  0.78348905569E+00 -0.48220691200E+00 -0.73932549700E+00  0.90007753925E+02  0.90000015477E+02 0.  0.
        -12    1    1    2    0    0 -0.78348905569E+00  0.48220691200E+00  0.73932549700E+00  0.11802460747E+01  0.00000000000E+00 0.  1.
         11    1    3    3    0    0 -0.62877037085E+01 -0.12297873429E+02 -0.10689310089E+02  0.17465230008E+02  0.51100000000E-03 0. -1.
        -11    1    3    3    0    0  0.35153951646E+02 -0.95644201529E+01  0.72332614973E+01  0.37142947128E+02  0.51100000000E-03 0.  1.
         12    1    3    3    0    0 -0.28082758882E+02  0.21380086670E+02  0.27167230944E+01  0.35399576789E+02  0.00000000000E+00 0. -1.
</event>
<event>
 7    1  0.3505640E-015  0.9000770E+02  0.7816164E-02  0.1186339E+00
        -11   -1    0    0    0    0  0.00000000000E+00  0.00000000000E+00  0.45593999997E+02  0.45594000000E+02  0.51100000000E-03 0.  1.
         11   -1    0    0    0    0 -0.00000000000E+00 -0.00000000000E+00 -0.45593999997E+02  0.45594000000E+02  0.51100000000E-03 0. -1.
    9900012    2    1    2    0    0 -0.21347167449E+00  0.10911655235E+01  0.39609773714E+00  0.90007700982E+02  0.89999961835E+02 0.  0.
        -12    1    1    2    0    0  0.21347167449E+00 -0.10911655235E+01 -0.39609773714E+00  0.11802990184E+01  0.00000000000E+00 0.  1.
         11    1    3    3    0    0  0.20236912975E+02 -0.10973455071E+02  0.27505650994E+02  0.35867955055E+02  0.51100000000E-03 0. -1.
        -11    1    3    3    0    0  0.20891448344E+01 -0.14183589864E+01  0.90796301166E+01  0.94242215418E+01  0.51100000000E-03 0.  1.
        -12    1    3    3    0    0 -0.22539529484E+02  0.13482979581E+02 -0.36189183374E+02  0.44715524385E+02  0.00000000000E+00 0.  1.
</event>
<event>
 7    1  0.3505640E-015  0.9000777E+02  0.7816164E-02  0.1186339E+00
        -11   -1    0    0    0    0  0.00000000000E+00  0.00000000000E+00  0.45593999997E+02  0.45594000000E+02  0.51100000000E-03 0. -1.
         11   -1    0    0    0    0 -0.00000000000E+00 -0.00000000000E+00 -0.45593999997E+02  0.45594000000E+02  0.51100000000E-03 0.  1.
    9900012    2    1    2    0    0 -0.11799702416E+01 -0.63173125142E-02 -0.23925999852E-01  0.90007770305E+02  0.90000032073E+02 0.  0.
        -12    1    1    2    0    0  0.11799702416E+01  0.63173125142E-02  0.23925999852E-01  0.11802296950E+01  0.00000000000E+00 0.  1.
         11    1    3    3    0    0  0.46161600242E+01 -0.78634313281E+01  0.41572892280E+01  0.10021254393E+02  0.51100000000E-03 0. -1.
        -11    1    3    3    0    0  0.10330854649E+01  0.17804616559E+02 -0.39135810573E+02  0.43007944683E+02  0.51100000000E-03 0.  1.
         12    1    3    3    0    0 -0.68292157308E+01 -0.99475025434E+01  0.34954595346E+02  0.36978571229E+02  0.00000000000E+00 0. -1.
</event>
<event>
 7    1  0.3505640E-015  0.9000784E+02  0.7816164E-02  0.1186339E+00
        -11   -1    0    0    0    0  0.00000000000E+00  0.00000000000E+00  0.45593999997E+02  0.45594000000E+02  0.51100000000E-03 0. -1.
         11   -1    0    0    0    0 -0.00000000000E+00 -0.00000000000E+00 -0.45593999997E+02  0.45594000000E+02  0.51100000000E-03 0.  1.
    9900012    2    1    2    0    0  0.35293363444E-01 -0.11788291611E+01 -0.43501286068E-01  0.90007840615E+02  0.90000103311E+02 0.  0.
        -12    1    1    2    0    0 -0.35293363444E-01  0.11788291611E+01  0.43501286068E-01  0.11801593852E+01  0.00000000000E+00 0.  1.
         11    1    3    3    0    0 -0.27839532541E+02 -0.15246914185E+02  0.20103759372E+02  0.37572185263E+02  0.51100000000E-03 0. -1.
        -11    1    3    3    0    0  0.24392437588E+01 -0.30604339013E+01  0.91952788308E+01  0.99934638048E+01  0.51100000000E-03 0.  1.
        -12    1    3    3    0    0  0.25435582145E+02  0.17128518926E+02 -0.29342539489E+02  0.42442191547E+02  0.00000000000E+00 0.  1.
</event>
<event>
 7    1  0.3505640E-015  0.9000773E+02  0.7816164E-02  0.1186339E+00
        -11   -1    0    0    0    0  0.00000000000E+00  0.00000000000E+00  0.45593999997E+02  0.45594000000E+02  0.51100000000E-03 0. -1.
         11   -1    0    0    0    0 -0.00000000000E+00 -0.00000000000E+00 -0.45593999997E+02  0.45594000000E+02  0.51100000000E-03 0.  1.
    9900012    2    1    2    0    0  0.59768312151E+00 -0.71933605296E-01  0.10152036017E+01  0.90007729730E+02  0.89999990962E+02 0.  0.
        -12    1    1    2    0    0 -0.59768312151E+00  0.71933605296E-01 -0.10152036017E+01  0.11802702700E+01  0.00000000000E+00 0.  1.
         11    1    3    3    0    0  0.13826694393E+02  0.17596769928E+02 -0.14490458870E+01  0.22425956479E+02  0.51100000000E-03 0. -1.
        -11    1    3    3    0    0  0.16782381449E+02 -0.30566651675E+02  0.14024447744E+01  0.34898930834E+02  0.51100000000E-03 0.  1.
         12    1    3    3    0    0 -0.30011392720E+02  0.12897948142E+02  0.10618047142E+01  0.32682842418E+02  0.00000000000E+00 0. -1.
</event>
<event>
 7    1  0.3505640E-015  0.9000776E+02  0.7816164E-02  0.1186339E+00
        -11   -1    0    0    0    0  0.00000000000E+00  0.00000000000E+00  0.45593999997E+02  0.45594000000E+02  0.51100000000E-03 0.  1.
         11   -1    0    0    0    0 -0.00000000000E+00 -0.00000000000E+00 -0.45593999997E+02  0.45594000000E+02  0.51100000000E-03 0. -1.
    9900012    2    1    2    0    0  0.43411815722E+00  0.31113258331E+00 -0.10524742884E+01  0.90007760962E+02  0.90000022607E+02 0.  0.
        -12    1    1    2    0    0 -0.43411815722E+00 -0.31113258331E+00  0.10524742884E+01  0.11802390379E+01  0.00000000000E+00 0.  1.
         11    1    3    3    0    0 -0.38095425678E+01 -0.85186289371E+01  0.16133082087E+01  0.94700801043E+01  0.51100000000E-03 0. -1.
        -11    1    3    3    0    0 -0.30092537508E+02  0.24435161830E+02  0.11206615109E+02  0.40351284612E+02  0.51100000000E-03 0.  1.
         12    1    3    3    0    0  0.34336198233E+02 -0.15605400310E+02 -0.13872397606E+02  0.40186396246E+02  0.00000000000E+00 0. -1.
</event>
<event>
 7    1  0.3505640E-015  0.9000774E+02  0.7816164E-02  0.1186339E+00
        -11   -1    0    0    0    0  0.00000000000E+00  0.00000000000E+00  0.45593999997E+02  0.45594000000E+02  0.51100000000E-03 0. -1.
         11   -1    0    0    0    0 -0.00000000000E+00 -0.00000000000E+00 -0.45593999997E+02  0.45594000000E+02  0.51100000000E-03 0.  1.
    9900012    2    1    2    0    0 -0.75347375510E-02 -0.10344931021E+01  0.56813187660E+00  0.90007743003E+02  0.90000004410E+02 0.  0.
        -12    1    1    2    0    0  0.75347375510E-02  0.10344931021E+01 -0.56813187660E+00  0.11802569973E+01  0.00000000000E+00 0.  1.
         11    1    3    3    0    0 -0.12050864836E+02  0.33616737628E+02 -0.12943881752E+02  0.37984897883E+02  0.51100000000E-03 0. -1.
        -11    1    3    3    0    0 -0.51357098587E+01  0.38351755575E+01  0.68009653492E+01  0.93454383125E+01  0.51100000000E-03 0.  1.
        -12    1    3    3    0    0  0.17179039957E+02 -0.38486406288E+02  0.67110482798E+01  0.42677406808E+02  0.00000000000E+00 0.  1.
</event>
<event>
 7    1  0.3505640E-015  0.9000762E+02  0.7816164E-02  0.1186339E+00
        -11   -1    0    0    0    0  0.00000000000E+00  0.00000000000E+00  0.45593999997E+02  0.45594000000E+02  0.51100000000E-03 0.  1.
         11   -1    0    0    0    0 -0.00000000000E+00 -0.00000000000E+00 -0.45593999997E+02  0.45594000000E+02  0.51100000000E-03 0. -1.
    9900012    2    1    2    0    0  0.67644994537E+00  0.29762171583E+00 -0.92039978813E+00  0.90007619136E+02  0.89999878908E+02 0.  0.
        -12    1    1    2    0    0 -0.67644994537E+00 -0.29762171583E+00  0.92039978813E+00  0.11803808641E+01  0.00000000000E+00 0.  1.
         11    1    3    3    0    0  0.82830322095E+01 -0.16868615121E+02  0.31842022743E+02  0.36973953147E+02  0.51100000000E-03 0. -1.
        -11    1    3    3    0    0 -0.56626742540E+01 -0.30650600917E+01  0.62947807307E+01  0.90047064239E+01  0.51100000000E-03 0.  1.
        -12    1    3    3    0    0 -0.19439080102E+01  0.20231296929E+02 -0.39057203262E+02  0.44028959565E+02  0.00000000000E+00 0.  1.
</event>
<event>
 7    1  0.3505640E-015  0.9000758E+02  0.7816164E-02  0.1186339E+00
        -11   -1    0    0    0    0  0.00000000000E+00  0.00000000000E+00  0.45593999997E+02  0.45594000000E+02  0.51100000000E-03 0. -1.
         11   -1    0    0    0    0 -0.00000000000E+00 -0.00000000000E+00 -0.45593999997E+02  0.45594000000E+02  0.51100000000E-03 0.  1.
    9900012    2    1    2    0    0 -0.54565731878E+00  0.84389144649E+00  0.61927300894E+00  0.90007578998E+02  0.89999838240E+02 0.  0.
        -12    1    1    2    0    0  0.54565731878E+00 -0.84389144649E+00 -0.61927300894E+00  0.11804210023E+01  0.00000000000E+00 0.  1.
         11    1    3    3    0    0 -0.85471839189E+01  0.17743196377E+01 -0.20432498493E+01  0.89653462470E+01  0.51100000000E-03 0. -1.
        -11    1    3    3    0    0 -0.34642350664E+02  0.43178413064E+01 -0.98832253456E+01  0.36282424900E+02  0.51100000000E-03 0.  1.
         12    1    3    3    0    0  0.42643877265E+02 -0.52482694976E+01  0.12545748204E+02  0.44759807851E+02  0.00000000000E+00 0. -1.
</event>
<event>
 7    1  0.3505640E-015  0.9000770E+02  0.7816164E-02  0.1186339E+00
        -11   -1    0    0    0    0  0.00000000000E+00  0.00000000000E+00  0.45593999997E+02  0.45594000000E+02  0.51100000000E-03 0.  1.
         11   -1    0    0    0    0 -0.00000000000E+00 -0.00000000000E+00 -0.45593999997E+02  0.45594000000E+02  0.51100000000E-03 0. -1.
    9900012    2    1    2    0    0  0.66290027211E+00  0.42737742756E+00 -0.87807648438E+00  0.90007700653E+02  0.89999961502E+02 0.  0.
        -12    1    1    2    0    0 -0.66290027211E+00 -0.42737742756E+00  0.87807648438E+00  0.11802993471E+01  0.00000000000E+00 0.  1.
         11    1    3    3    0    0 -0.19582691267E+01  0.73734274696E+01  0.30927175157E+01  0.82320806918E+01  0.51100000000E-03 0. -1.
        -11    1    3    3    0    0 -0.52783727082E+01  0.36781506303E+02  0.53929485844E-01  0.37158354821E+02  0.51100000000E-03 0.  1.
         12    1    3    3    0    0  0.78995421070E+01 -0.43727556345E+02 -0.40247234859E+01  0.44617265140E+02  0.00000000000E+00 0. -1.
</event>
<event>
 7    1  0.3505640E-015  0.9000777E+02  0.7816164E-02  0.1186339E+00
        -11   -1    0    0    0    0  0.00000000000E+00  0.00000000000E+00  0.45593999997E+02  0.45594000000E+02  0.51100000000E-03 0.  1.
         11   -1    0    0    0    0 -0.00000000000E+00 -0.00000000000E+00 -0.45593999997E+02  0.45594000000E+02  0.51100000000E-03 0. -1.
    9900012    2    1    2    0    0  0.59272939121E+00 -0.40730411818E+00 -0.93580137519E+00  0.90007767400E+02  0.90000029130E+02 0.  0.
        -12    1    1    2    0    0 -0.59272939121E+00  0.40730411818E+00  0.93580137519E+00  0.11802325998E+01  0.00000000000E+00 0.  1.
         11    1    3    3    0    0 -0.86604052309E+01 -0.13047414837E+02  0.33869362958E+01  0.16022140632E+02  0.51100000000E-03 0.  1.
        -11    1    3    3    0    0 -0.19310792514E+02  0.19158974289E+02 -0.25930250452E+02  0.37581257191E+02  0.51100000000E-03 0. -1.
        -12    1    3    3    0    0  0.28563927137E+02 -0.65188635696E+01  0.21607512781E+02  0.36404369577E+02  0.00000000000E+00 0.  1.
</event>
<event>
 7    1  0.3505640E-015  0.9000772E+02  0.7816164E-02  0.1186339E+00
        -11   -1    0    0    0    0  0.00000000000E+00  0.00000000000E+00  0.45593999997E+02  0.45594000000E+02  0.51100000000E-03 0. -1.
         11   -1    0    0    0    0 -0.00000000000E+00 -0.00000000000E+00 -0.45593999997E+02  0.45594000000E+02  0.51100000000E-03 0.  1.
    9900012    2    1    2    0    0 -0.42366161587E+00  0.10844013545E+01 -0.19402955102E+00  0.90007719131E+02  0.89999980224E+02 0.  0.
        -12    1    1    2    0    0  0.42366161587E+00 -0.10844013545E+01  0.19402955102E+00  0.11802808687E+01  0.00000000000E+00 0.  1.
         11    1    3    3    0    0 -0.28015547476E+02  0.18520434023E+02  0.25202451227E+02  0.41988580888E+02  0.51100000000E-03 0. -1.
        -11    1    3    3    0    0  0.76310693388E+01  0.44025569954E+01  0.32381308360E+00  0.88159277745E+01  0.51100000000E-03 0.  1.
        -12    1    3    3    0    0  0.19960816522E+02 -0.21838589664E+02 -0.25720293862E+02  0.39203210469E+02  0.00000000000E+00 0.  1.
</event>
<event>
 7    1  0.3505640E-015  0.9000776E+02  0.7816164E-02  0.1186339E+00
        -11   -1    0    0    0    0  0.00000000000E+00  0.00000000000E+00  0.45593999997E+02  0.45594000000E+02  0.51100000000E-03 0.  1.
         11   -1    0    0    0    0 -0.00000000000E+00 -0.00000000000E+00 -0.45593999997E+02  0.45594000000E+02  0.51100000000E-03 0. -1.
    9900012    2    1    2    0    0  0.32506960550E+00 -0.11119686922E+01 -0.22542995521E+00  0.90007761344E+02  0.90000022994E+02 0.  0.
        -12    1    1    2    0    0 -0.32506960550E+00  0.11119686922E+01  0.22542995521E+00  0.11802386562E+01  0.00000000000E+00 0.  1.
         11    1    3    3    0    0  0.14849894311E+02 -0.15529023107E+01 -0.17411165202E+02  0.22936423884E+02  0.51100000000E-03 0. -1.
        -11    1    3    3    0    0 -0.42871501869E+01 -0.27087657334E+02  0.24531997973E+02  0.36795920445E+02  0.51100000000E-03 0.  1.
         12    1    3    3    0    0 -0.10237674519E+02  0.27528590952E+02 -0.73462627268E+01  0.30275417015E+02  0.00000000000E+00 0. -1.
</event>
<event>
 7    1  0.3505640E-015  0.9000770E+02  0.7816164E-02  0.1186339E+00
        -11   -1    0    0    0    0  0.00000000000E+00  0.00000000000E+00  0.45593999997E+02  0.45594000000E+02  0.51100000000E-03 0. -1.
         11   -1    0    0    0    0 -0.00000000000E+00 -0.00000000000E+00 -0.45593999997E+02  0.45594000000E+02  0.51100000000E-03 0.  1.
    9900012    2    1    2    0    0 -0.46737430938E+00  0.81454654245E+00  0.71497569375E+00  0.90007697048E+02  0.89999957849E+02 0.  0.
        -12    1    1    2    0    0  0.46737430938E+00 -0.81454654245E+00 -0.71497569375E+00  0.11803029516E+01  0.00000000000E+00 0.  1.
         11    1    3    3    0    0  0.11562360226E+02 -0.44729308202E+01  0.42369160082E+01  0.13101402278E+02  0.51100000000E-03 0. -1.
        -11    1    3    3    0    0 -0.37285450735E+02  0.32131307302E+01 -0.23886296685E+02  0.44396894206E+02  0.51100000000E-03 0.  1.
         12    1    3    3    0    0  0.25255716199E+02  0.20743466324E+01  0.20364356370E+02  0.32509400565E+02  0.00000000000E+00 0. -1.
</event>
<event>
 7    1  0.3505640E-015  0.9000800E+02  0.7816164E-02  0.1186339E+00
        -11   -1    0    0    0    0  0.00000000000E+00  0.00000000000E+00  0.45593999997E+02  0.45594000000E+02  0.51100000000E-03 0.  1.
         11   -1    0    0    0    0 -0.00000000000E+00 -0.00000000000E+00 -0.45593999997E+02  0.45594000000E+02  0.51100000000E-03 0. -1.
    9900012    2    1    2    0    0 -0.81985354441E+00  0.64005178395E+00 -0.55729661861E+00  0.90007997610E+02  0.90000262378E+02 0.  0.
        -12    1    1    2    0    0  0.81985354441E+00 -0.64005178395E+00  0.55729661861E+00  0.11800023905E+01  0.00000000000E+00 0.  1.
         11    1    3    3    0    0 -0.91173976385E-01  0.50482457161E+01  0.72535092107E+01  0.88377878247E+01  0.51100000000E-03 0. -1.
        -11    1    3    3    0    0 -0.16573020131E+02  0.15972735999E+02  0.28490007863E+02  0.36626136021E+02  0.51100000000E-03 0.  1.
         12    1    3    3    0    0  0.15844340563E+02 -0.20380929931E+02 -0.36300813693E+02  0.44544073764E+02  0.00000000000E+00 0. -1.
</event>
<event>
 7    1  0.3505640E-015  0.9000779E+02  0.7816164E-02  0.1186339E+00
        -11   -1    0    0    0    0  0.00000000000E+00  0.00000000000E+00  0.45593999997E+02  0.45594000000E+02  0.51100000000E-03 0.  1.
         11   -1    0    0    0    0 -0.00000000000E+00 -0.00000000000E+00 -0.45593999997E+02  0.45594000000E+02  0.51100000000E-03 0. -1.
    9900012    2    1    2    0    0  0.45881590517E-01 -0.25892427664E+00 -0.11505413368E+01  0.90007791430E+02  0.90000053477E+02 0.  0.
        -12    1    1    2    0    0 -0.45881590517E-01  0.25892427664E+00  0.11505413368E+01  0.11802085702E+01  0.00000000000E+00 0.  1.
         11    1    3    3    0    0 -0.95485616822E+01 -0.28878664523E+01  0.14624983054E+01  0.10082346175E+02  0.51100000000E-03 0. -1.
        -11    1    3    3    0    0  0.84500518104E+01  0.38839553081E+02 -0.13692521541E+02  0.42040449635E+02  0.51100000000E-03 0.  1.
         12    1    3    3    0    0  0.11443914624E+01 -0.36210610905E+02  0.11079481899E+02  0.37884995619E+02  0.00000000000E+00 0. -1.
</event>
<event>
 7    1  0.3505640E-015  0.9000767E+02  0.7816164E-02  0.1186339E+00
        -11   -1    0    0    0    0  0.00000000000E+00  0.00000000000E+00  0.45593999997E+02  0.45594000000E+02  0.51100000000E-03 0.  1.
         11   -1    0    0    0    0 -0.00000000000E+00 -0.00000000000E+00 -0.45593999997E+02  0.45594000000E+02  0.51100000000E-03 0. -1.
    9900012    2    1    2    0    0  0.28110603385E+00  0.74646747925E+00 -0.87002620628E+00  0.90007669580E+02  0.89999930019E+02 0.  0.
        -12    1    1    2    0    0 -0.28110603385E+00 -0.74646747925E+00  0.87002620628E+00  0.11803304196E+01  0.00000000000E+00 0.  1.
         11    1    3    3    0    0 -0.30572858467E+01 -0.44373671449E+01  0.83652312947E+01  0.99505938919E+01  0.51100000000E-03 0. -1.
        -11    1    3    3    0    0 -0.13727788283E+02 -0.14529769881E+02  0.28120564635E+02  0.34501196206E+02  0.51100000000E-03 0.  1.
         12    1    3    3    0    0  0.17066180163E+02  0.19713604505E+02 -0.37355822136E+02  0.45555879483E+02  0.00000000000E+00 0. -1.
</event>
<event>
 7    1  0.3642496E-015  0.9000796E+02  0.7816164E-02  0.1186339E+00
        -11   -1    0    0    0    0  0.00000000000E+00  0.00000000000E+00  0.45593999997E+02  0.45594000000E+02  0.51100000000E-03 0.  1.
         11   -1    0    0    0    0 -0.00000000000E+00 -0.00000000000E+00 -0.45593999997E+02  0.45594000000E+02  0.51100000000E-03 0. -1.
    9900012    2    1    2    0    0 -0.10337367818E+01  0.16645916849E+00 -0.54421219415E+00  0.90007963009E+02  0.90000227320E+02 0.  0.
        -12    1    1    2    0    0  0.10337367818E+01 -0.16645916849E+00  0.54421219415E+00  0.11800369914E+01  0.00000000000E+00 0.  1.
         11    1    3    3    0    0 -0.21222776759E+00 -0.57941153592E+01  0.77392771363E+01  0.96702235897E+01  0.51100000000E-03 0. -1.
        -11    1    3    3    0    0 -0.67873553484E+01  0.32231566416E+02  0.22150095908E+02  0.39693435418E+02  0.51100000000E-03 0.  1.
         12    1    3    3    0    0  0.59658463342E+01 -0.26270991889E+02 -0.30433585238E+02  0.40644304001E+02  0.00000000000E+00 0. -1.
</event>
<event>
 7    1  0.3505640E-015  0.9000773E+02  0.7816164E-02  0.1186339E+00
        -11   -1    0    0    0    0  0.00000000000E+00  0.00000000000E+00  0.45593999997E+02  0.45594000000E+02  0.51100000000E-03 0.  1.
         11   -1    0    0    0    0 -0.00000000000E+00 -0.00000000000E+00 -0.45593999997E+02  0.45594000000E+02  0.51100000000E-03 0. -1.
    9900012    2    1    2    0    0  0.65838900999E-02  0.11784969654E+01 -0.64283371292E-01  0.90007732743E+02  0.89999994016E+02 0.  0.
        -12    1    1    2    0    0 -0.65838900999E-02 -0.11784969654E+01  0.64283371292E-01  0.11802672566E+01  0.00000000000E+00 0.  1.
         11    1    3    3    0    0  0.32068949405E+02 -0.25839099042E+02 -0.40570707254E+01  0.41382802931E+02  0.51100000000E-03 0. -1.
        -11    1    3    3    0    0 -0.28513711818E+01 -0.12421133910E+01  0.72120973193E+01  0.78541397553E+01  0.51100000000E-03 0.  1.
         12    1    3    3    0    0 -0.29210994333E+02  0.28259709399E+02 -0.32193099651E+01  0.40770790057E+02  0.00000000000E+00 0. -1.
</event>
<event>
 7    1  0.3505640E-015  0.9000773E+02  0.7816164E-02  0.1186339E+00
        -11   -1    0    0    0    0  0.00000000000E+00  0.00000000000E+00  0.45593999997E+02  0.45594000000E+02  0.51100000000E-03 0.  1.
         11   -1    0    0    0    0 -0.00000000000E+00 -0.00000000000E+00 -0.45593999997E+02  0.45594000000E+02  0.51100000000E-03 0. -1.
    9900012    2    1    2    0    0  0.54942589127E+00 -0.42265416064E+00 -0.95527049488E+00  0.90007725851E+02  0.89999987032E+02 0.  0.
        -12    1    1    2    0    0 -0.54942589127E+00  0.42265416064E+00  0.95527049488E+00  0.11802741495E+01  0.00000000000E+00 0.  1.
         11    1    3    3    0    0 -0.15204328305E+02  0.16546693484E+02 -0.33630222726E+02  0.40446959654E+02  0.51100000000E-03 0. -1.
        -11    1    3    3    0    0 -0.81459314205E+01 -0.26997759028E+01  0.35902697901E+01  0.93024204409E+01  0.51100000000E-03 0.  1.
        -12    1    3    3    0    0  0.23899685617E+02 -0.14269571742E+02  0.29084682441E+02  0.40258345755E+02  0.00000000000E+00 0.  1.
</event>
<event>
 7    1  0.3505640E-015  0.9000797E+02  0.7816164E-02  0.1186339E+00
        -11   -1    0    0    0    0  0.00000000000E+00  0.00000000000E+00  0.45593999997E+02  0.45594000000E+02  0.51100000000E-03 0. -1.
         11   -1    0    0    0    0 -0.00000000000E+00 -0.00000000000E+00 -0.45593999997E+02  0.45594000000E+02  0.51100000000E-03 0.  1.
    9900012    2    1    2    0    0 -0.14063150837E+00  0.10963520737E+01  0.41316512124E+00  0.90007970124E+02  0.90000234529E+02 0.  0.
        -12    1    1    2    0    0  0.14063150837E+00 -0.10963520737E+01 -0.41316512124E+00  0.11800298759E+01  0.00000000000E+00 0.  1.
         11    1    3    3    0    0  0.29861778980E+02  0.13090982408E+02  0.14299188682E+02  0.35602899622E+02  0.51100000000E-03 0. -1.
        -11    1    3    3    0    0  0.87606926550E+01 -0.18501225790E+01  0.48381372505E+01  0.10177438856E+02  0.51100000000E-03 0.  1.
        -12    1    3    3    0    0 -0.38763103144E+02 -0.10144507756E+02 -0.18724160811E+02  0.44227631646E+02  0.00000000000E+00 0.  1.
</event>
<event>
 7    1  0.3505640E-015  0.9000777E+02  0.7816164E-02  0.1186339E+00
        -11   -1    0    0    0    0  0.00000000000E+00  0.00000000000E+00  0.45593999997E+02  0.45594000000E+02  0.51100000000E-03 0.  1.
         11   -1    0    0    0    0 -0.00000000000E+00 -0.00000000000E+00 -0.45593999997E+02  0.45594000000E+02  0.51100000000E-03 0. -1.
    9900012    2    1    2    0    0 -0.24826256925E+00  0.11521980894E+01  0.61194670290E-01  0.90007771408E+02  0.90000033191E+02 0.  0.
        -12    1    1    2    0    0  0.24826256925E+00 -0.11521980894E+01 -0.61194670290E-01  0.11802285915E+01  0.00000000000E+00 0.  1.
         11    1    3    3    0    0  0.24892854572E+01 -0.52302969013E+01  0.14545997662E+02  0.15656902504E+02  0.51100000000E-03 0. -1.
        -11    1    3    3    0    0 -0.15993565558E+02 -0.15798575256E+02  0.20792417609E+02  0.30622112103E+02  0.51100000000E-03 0.  1.
         12    1    3    3    0    0  0.13256017531E+02  0.22181070247E+02 -0.35277220601E+02  0.43728756802E+02  0.00000000000E+00 0. -1.
</event>
<event>
 7    1  0.3505640E-015  0.9000776E+02  0.7816164E-02  0.1186339E+00
        -11   -1    0    0    0    0  0.00000000000E+00  0.00000000000E+00  0.45593999997E+02  0.45594000000E+02  0.51100000000E-03 0.  1.
         11   -1    0    0    0    0 -0.00000000000E+00 -0.00000000000E+00 -0.45593999997E+02  0.45594000000E+02  0.51100000000E-03 0. -1.
    9900012    2    1    2    0    0 -0.21089370798E+00  0.52536565574E+00 -0.10356031841E+01  0.90007763082E+02  0.90000024754E+02 0.  0.
        -12    1    1    2    0    0  0.21089370798E+00 -0.52536565574E+00  0.10356031841E+01  0.11802369182E+01  0.00000000000E+00 0.  1.
         11    1    3    3    0    0  0.26639209671E+02 -0.22540642342E+01  0.14843525572E+02  0.30578727069E+02  0.51100000000E-03 0. -1.
        -11    1    3    3    0    0  0.10444798747E+02 -0.19939414191E+01 -0.18923960614E+02  0.21706817105E+02  0.51100000000E-03 0.  1.
        -12    1    3    3    0    0 -0.37294902126E+02  0.47733713090E+01  0.30448318581E+01  0.37722218907E+02  0.00000000000E+00 0.  1.
</event>
<event>
 7    1  0.7202545E-015  0.9000763E+02  0.7816164E-02  0.1186339E+00
        -11   -1    0    0    0    0  0.00000000000E+00  0.00000000000E+00  0.45593999997E+02  0.45594000000E+02  0.51100000000E-03 0. -1.
         11   -1    0    0    0    0 -0.00000000000E+00 -0.00000000000E+00 -0.45593999997E+02  0.45594000000E+02  0.51100000000E-03 0.  1.
    9900012    2    1    2    0    0  0.68287045119E+00 -0.45629227857E+00  0.84779404826E+00  0.90007631649E+02  0.89999891586E+02 0.  0.
        -12    1    1    2    0    0 -0.68287045119E+00  0.45629227857E+00 -0.84779404826E+00  0.11803683513E+01  0.00000000000E+00 0.  1.
         11    1    3    3    0    0 -0.82445596377E+01  0.16638445862E+01 -0.48331581774E+01  0.97005443485E+01  0.51100000000E-03 0. -1.
        -11    1    3    3    0    0  0.14511944677E+01  0.63769578699E+01 -0.36270675945E+02  0.36855576116E+02  0.51100000000E-03 0.  1.
         12    1    3    3    0    0  0.74762356212E+01 -0.84970947346E+01  0.41951628171E+02  0.43451511184E+02  0.00000000000E+00 0. -1.
</event>
<event>
 7    1  0.3505640E-015  0.9000777E+02  0.7816164E-02  0.1186339E+00
        -11   -1    0    0    0    0  0.00000000000E+00  0.00000000000E+00  0.45593999997E+02  0.45594000000E+02  0.51100000000E-03 0.  1.
         11   -1    0    0    0    0 -0.00000000000E+00 -0.00000000000E+00 -0.45593999997E+02  0.45594000000E+02  0.51100000000E-03 0. -1.
    9900012    2    1    2    0    0  0.11799519287E+01  0.18958661512E-01  0.16938531835E-01  0.90007774217E+02  0.90000036037E+02 0.  0.
        -12    1    1    2    0    0 -0.11799519287E+01 -0.18958661512E-01 -0.16938531835E-01  0.11802257829E+01  0.00000000000E+00 0.  1.
         11    1    3    3    0    0 -0.27341694686E+02  0.15087978761E+02 -0.15670358806E+02  0.34939598119E+02  0.51100000000E-03 0. -1.
        -11    1    3    3    0    0  0.16449304015E+01  0.51698450351E+01 -0.10907129683E+02  0.12181895251E+02  0.51100000000E-03 0.  1.
        -12    1    3    3    0    0  0.26876716213E+02 -0.20238865134E+02  0.26594427021E+02  0.42886280847E+02  0.00000000000E+00 0.  1.
</event>
<event>
 7    1  0.3505640E-015  0.9000800E+02  0.7816164E-02  0.1186339E+00
        -11   -1    0    0    0    0  0.00000000000E+00  0.00000000000E+00  0.45593999997E+02  0.45594000000E+02  0.51100000000E-03 0.  1.
         11   -1    0    0    0    0 -0.00000000000E+00 -0.00000000000E+00 -0.45593999997E+02  0.45594000000E+02  0.51100000000E-03 0. -1.
    9900012    2    1    2    0    0  0.84833444175E+00 -0.38603907877E+00 -0.72367371001E+00  0.90007999520E+02  0.90000264313E+02 0.  0.
        -12    1    1    2    0    0 -0.84833444175E+00  0.38603907877E+00  0.72367371001E+00  0.11800004805E+01  0.00000000000E+00 0.  1.
         11    1    3    3    0    0  0.10793513646E+01  0.12524475736E+02 -0.33822372283E+02  0.36082964941E+02  0.51100000000E-03 0. -1.
        -11    1    3    3    0    0 -0.42033032050E-01  0.16123437616E+01 -0.91284777234E+01  0.92698718972E+01  0.51100000000E-03 0.  1.
        -12    1    3    3    0    0 -0.18898389079E+00 -0.14522858577E+02  0.42227176296E+02  0.44655162681E+02  0.00000000000E+00 0.  1.
</event>
<event>
 7    1  0.3505640E-015  0.9000776E+02  0.7816164E-02  0.1186339E+00
        -11   -1    0    0    0    0  0.00000000000E+00  0.00000000000E+00  0.45593999997E+02  0.45594000000E+02  0.51100000000E-03 0.  1.
         11   -1    0    0    0    0 -0.00000000000E+00 -0.00000000000E+00 -0.45593999997E+02  0.45594000000E+02  0.51100000000E-03 0. -1.
    9900012    2    1    2    0    0  0.73359636190E+00  0.27581504706E-01 -0.92414299151E+00  0.90007760774E+02  0.90000022416E+02 0.  0.
        -12    1    1    2    0    0 -0.73359636190E+00 -0.27581504706E-01  0.92414299151E+00  0.11802392259E+01  0.00000000000E+00 0.  1.
         11    1    3    3    0    0 -0.64512961984E+01 -0.35430246640E+01 -0.38509155967E+02  0.39206215578E+02  0.51100000000E-03 0. -1.
        -11    1    3    3    0    0 -0.73523692181E+01  0.68555882355E+01 -0.33454931270E+00  0.10058247694E+02  0.51100000000E-03 0.  1.
        -12    1    3    3    0    0  0.14537261778E+02 -0.32849820668E+01  0.37919562288E+02  0.40743297502E+02  0.00000000000E+00 0.  1.
</event>
<event>
 7    1  0.3505640E-015  0.9000644E+02  0.7816164E-02  0.1186342E+00
        -11   -1    0    0    0    0  0.00000000000E+00  0.00000000000E+00  0.45593999997E+02  0.45594000000E+02  0.51100000000E-03 0.  1.
         11   -1    0    0    0    0 -0.00000000000E+00 -0.00000000000E+00 -0.45593999997E+02  0.45594000000E+02  0.51100000000E-03 0. -1.
    9900012    2    1    2    0    0  0.72526690390E+00 -0.85559508902E+00  0.37150886702E+00  0.90006444298E+02  0.89998688553E+02 0.  0.
        -12    1    1    2    0    0 -0.72526690390E+00  0.85559508902E+00 -0.37150886702E+00  0.11815557018E+01  0.00000000000E+00 0.  1.
         11    1    3    3    0    0 -0.56876188424E+01  0.65974410321E+01 -0.39795609774E+01  0.95766456603E+01  0.51100000000E-03 0. -1.
        -11    1    3    3    0    0 -0.60448176700E+01 -0.42535885154E+02  0.14110545015E+00  0.42963487492E+02  0.51100000000E-03 0.  1.
         12    1    3    3    0    0  0.12457703416E+02  0.35082849033E+02  0.42099643943E+01  0.37466311146E+02  0.00000000000E+00 0. -1.
</event>
<event>
 7    1  0.3505640E-015  0.9000791E+02  0.7816164E-02  0.1186339E+00
        -11   -1    0    0    0    0  0.00000000000E+00  0.00000000000E+00  0.45593999997E+02  0.45594000000E+02  0.51100000000E-03 0.  1.
         11   -1    0    0    0    0 -0.00000000000E+00 -0.00000000000E+00 -0.45593999997E+02  0.45594000000E+02  0.51100000000E-03 0. -1.
    9900012    2    1    2    0    0 -0.24906004018E-01  0.11548074428E+01 -0.24170928544E+00  0.90007905123E+02  0.90000168671E+02 0.  0.
        -12    1    1    2    0    0  0.24906004018E-01 -0.11548074428E+01  0.24170928544E+00  0.11800948766E+01  0.00000000000E+00 0.  1.
         11    1    3    3    0    0 -0.38077767506E+01  0.42125902062E+02 -0.22226335517E+00  0.42298229155E+02  0.51100000000E-03 0. -1.
        -11    1    3    3    0    0 -0.53528906007E+01 -0.35786775508E+01  0.59381299403E+01  0.87590957436E+01  0.51100000000E-03 0.  1.
        -12    1    3    3    0    0  0.91357613474E+01 -0.37392417069E+02 -0.59575758706E+01  0.38950580225E+02  0.00000000000E+00 0.  1.
</event>
<event>
 7    1  0.3505640E-015  0.9000769E+02  0.7816164E-02  0.1186339E+00
        -11   -1    0    0    0    0  0.00000000000E+00  0.00000000000E+00  0.45593999997E+02  0.45594000000E+02  0.51100000000E-03 0. -1.
         11   -1    0    0    0    0 -0.00000000000E+00 -0.00000000000E+00 -0.45593999997E+02  0.45594000000E+02  0.51100000000E-03 0.  1.
    9900012    2    1    2    0    0 -0.50675483516E+00 -0.64278884034E+00  0.85038321497E+00  0.90007690901E+02  0.89999951621E+02 0.  0.
        -12    1    1    2    0    0  0.50675483516E+00  0.64278884034E+00 -0.85038321497E+00  0.11803090987E+01  0.00000000000E+00 0.  1.
         11    1    3    3    0    0 -0.22308090938E+02 -0.30443466822E+02  0.34344703093E+01  0.37897904691E+02  0.51100000000E-03 0. -1.
        -11    1    3    3    0    0 -0.31091934642E+01 -0.49720345154E+01  0.61009608770E+01  0.84622653648E+01  0.51100000000E-03 0.  1.
        -12    1    3    3    0    0  0.24910529567E+02  0.34772712497E+02 -0.86850479713E+01  0.43647520845E+02  0.00000000000E+00 0.  1.
</event>
<event>
 7    1  0.3838716E-015  0.9000771E+02  0.7816164E-02  0.1186339E+00
        -11   -1    0    0    0    0  0.00000000000E+00  0.00000000000E+00  0.45593999997E+02  0.45594000000E+02  0.51100000000E-03 0. -1.
         11   -1    0    0    0    0 -0.00000000000E+00 -0.00000000000E+00 -0.45593999997E+02  0.45594000000E+02  0.51100000000E-03 0.  1.
    9900012    2    1    2    0    0  0.50961555104E+00  0.81760228119E+00  0.68183710950E+00  0.90007710483E+02  0.89999971461E+02 0.  0.
        -12    1    1    2    0    0 -0.50961555104E+00 -0.81760228119E+00 -0.68183710950E+00  0.11802895170E+01  0.00000000000E+00 0.  1.
         11    1    3    3    0    0 -0.24126540992E+01  0.32235923241E+01 -0.80305492511E+01  0.89834385850E+01  0.51100000000E-03 0. -1.
        -11    1    3    3    0    0 -0.20010536908E+02  0.17836949822E+02 -0.24184288048E+02  0.36103436886E+02  0.51100000000E-03 0.  1.
         12    1    3    3    0    0  0.22932806559E+02 -0.20242939865E+02  0.32896674409E+02  0.44920835012E+02  0.00000000000E+00 0. -1.
</event>
<event>
 7    1  0.3505640E-015  0.9000707E+02  0.7816164E-02  0.1186340E+00
        -11   -1    0    0    0    0  0.00000000000E+00  0.00000000000E+00  0.45593999997E+02  0.45594000000E+02  0.51100000000E-03 0. -1.
         11   -1    0    0    0    0 -0.00000000000E+00 -0.00000000000E+00 -0.45593999997E+02  0.45594000000E+02  0.51100000000E-03 0.  1.
    9900012    2    1    2    0    0 -0.98127516734E+00  0.47830877439E+00  0.45044884391E+00  0.90007074770E+02  0.89999327355E+02 0.  0.
        -12    1    1    2    0    0  0.98127516734E+00 -0.47830877439E+00 -0.45044884391E+00  0.11809252299E+01  0.00000000000E+00 0.  1.
         11    1    3    3    0    0 -0.17225805706E+02  0.20682772828E+01  0.97641216717E+01  0.19908395852E+02  0.51100000000E-03 0. -1.
        -11    1    3    3    0    0 -0.16496834010E+02  0.21993726993E+02  0.36093025634E+01  0.27728985280E+02  0.51100000000E-03 0.  1.
         12    1    3    3    0    0  0.32741364548E+02 -0.23583695502E+02 -0.12922975391E+02  0.42369693638E+02  0.00000000000E+00 0. -1.
</event>
<event>
 7    1  0.3505640E-015  0.9000771E+02  0.7816164E-02  0.1186339E+00
        -11   -1    0    0    0    0  0.00000000000E+00  0.00000000000E+00  0.45593999997E+02  0.45594000000E+02  0.51100000000E-03 0. -1.
         11   -1    0    0    0    0 -0.00000000000E+00 -0.00000000000E+00 -0.45593999997E+02  0.45594000000E+02  0.51100000000E-03 0.  1.
    9900012    2    1    2    0    0  0.10286602681E+01 -0.38289091491E+00  0.43396702614E+00  0.90007714111E+02  0.89999975137E+02 0.  0.
        -12    1    1    2    0    0 -0.10286602681E+01  0.38289091491E+00 -0.43396702614E+00  0.11802858889E+01  0.00000000000E+00 0.  1.
         11    1    3    3    0    0 -0.12786959873E+01 -0.84111227817E+01 -0.40738282747E+01  0.94328217915E+01  0.51100000000E-03 0. -1.
        -11    1    3    3    0    0  0.37989708155E+02 -0.11379482064E+02  0.48633126648E+01  0.39954503477E+02  0.51100000000E-03 0.  1.
         12    1    3    3    0    0 -0.35682351900E+02  0.19407713931E+02 -0.35551736396E+00  0.40620388843E+02  0.00000000000E+00 0. -1.
</event>
<event>
 7    1  0.3505640E-015  0.9000792E+02  0.7816164E-02  0.1186339E+00
        -11   -1    0    0    0    0  0.00000000000E+00  0.00000000000E+00  0.45593999997E+02  0.45594000000E+02  0.51100000000E-03 0. -1.
         11   -1    0    0    0    0 -0.00000000000E+00 -0.00000000000E+00 -0.45593999997E+02  0.45594000000E+02  0.51100000000E-03 0.  1.
    9900012    2    1    2    0    0  0.10966544244E+01 -0.35033940716E+00 -0.25924238148E+00  0.90007917274E+02  0.90000180982E+02 0.  0.
        -12    1    1    2    0    0 -0.10966544244E+01  0.35033940716E+00  0.25924238148E+00  0.11800827255E+01  0.00000000000E+00 0.  1.
         11    1    3    3    0    0  0.23522587591E+02  0.31643855625E+02  0.14492211008E+02  0.42007974314E+02  0.51100000000E-03 0. -1.
        -11    1    3    3    0    0 -0.89037709036E+01 -0.57621480126E+00  0.30642619391E+01  0.94339207805E+01  0.51100000000E-03 0.  1.
        -12    1    3    3    0    0 -0.13522162263E+02 -0.31417980231E+02 -0.17815715329E+02  0.38566022180E+02  0.00000000000E+00 0.  1.
</event>
<event>
 7    1  0.3505640E-015  0.9000774E+02  0.7816164E-02  0.1186339E+00
        -11   -1    0    0    0    0  0.00000000000E+00  0.00000000000E+00  0.45593999997E+02  0.45594000000E+02  0.51100000000E-03 0.  1.
         11   -1    0    0    0    0 -0.00000000000E+00 -0.00000000000E+00 -0.45593999997E+02  0.45594000000E+02  0.51100000000E-03 0. -1.
    9900012    2    1    2    0    0 -0.78630507218E+00  0.62654434761E+00 -0.61820018839E+00  0.90007743689E+02  0.90000005106E+02 0.  0.
        -12    1    1    2    0    0  0.78630507218E+00 -0.62654434761E+00  0.61820018839E+00  0.11802563107E+01  0.00000000000E+00 0.  1.
         11    1    3    3    0    0  0.38205224639E+02  0.18045326720E+02 -0.14997565592E+01  0.42279099756E+02  0.51100000000E-03 0. -1.
        -11    1    3    3    0    0  0.51260781928E+00 -0.32225620044E+01  0.45411528552E+01  0.55919354577E+01  0.51100000000E-03 0.  1.
        -12    1    3    3    0    0 -0.39504137530E+02 -0.14196220368E+02 -0.36595964844E+01  0.42136708476E+02  0.00000000000E+00 0.  1.
</event>
<event>
 7    1  0.3505640E-015  0.9000745E+02  0.7816164E-02  0.1186340E+00
        -11   -1    0    0    0    0  0.00000000000E+00  0.00000000000E+00  0.45593999997E+02  0.45594000000E+02  0.51100000000E-03 0.  1.
         11   -1    0    0    0    0 -0.00000000000E+00 -0.00000000000E+00 -0.45593999997E+02  0.45594000000E+02  0.51100000000E-03 0. -1.
    9900012    2    1    2    0    0 -0.22922437133E+00  0.11285272416E+01  0.25994175270E+00  0.90007454676E+02  0.89999712277E+02 0.  0.
        -12    1    1    2    0    0  0.22922437133E+00 -0.11285272416E+01 -0.25994175270E+00  0.11805453241E+01  0.00000000000E+00 0.  1.
         11    1    3    3    0    0 -0.33681312116E+01  0.10319967915E+02  0.31185789479E+01  0.11294758985E+02  0.51100000000E-03 0. -1.
        -11    1    3    3    0    0 -0.24957226013E+02 -0.92974110982E+01  0.26852898991E+02  0.37820406765E+02  0.51100000000E-03 0.  1.
         12    1    3    3    0    0  0.28096132853E+02  0.10597042498E+00 -0.29711536186E+02  0.40892288926E+02  0.00000000000E+00 0. -1.
</event>
<event>
 7    1  0.3505640E-015  0.9000737E+02  0.7816164E-02  0.1186340E+00
        -11   -1    0    0    0    0  0.00000000000E+00  0.00000000000E+00  0.45593999997E+02  0.45594000000E+02  0.51100000000E-03 0. -1.
         11   -1    0    0    0    0 -0.00000000000E+00 -0.00000000000E+00 -0.45593999997E+02  0.45594000000E+02  0.51100000000E-03 0.  1.
    9900012    2    1    2    0    0  0.85796417924E+00  0.54051030925E+00 -0.60467035948E+00  0.90007372976E+02  0.89999629498E+02 0.  0.
        -12    1    1    2    0    0 -0.85796417924E+00 -0.54051030925E+00  0.60467035948E+00  0.11806270245E+01  0.00000000000E+00 0.  1.
         11    1    3    3    0    0  0.32897027386E+02  0.64012206125E+01  0.10566354997E+02  0.35140260305E+02  0.51100000000E-03 0. -1.
        -11    1    3    3    0    0  0.30532227590E+01  0.10467713075E+02  0.60879930506E+01  0.12488348405E+02  0.51100000000E-03 0.  1.
        -12    1    3    3    0    0 -0.35092285965E+02 -0.16328423378E+02 -0.17259018407E+02  0.42378764266E+02  0.00000000000E+00 0.  1.
</event>
<event>
 7    1  0.3505640E-015  0.9000768E+02  0.7816164E-02  0.1186339E+00
        -11   -1    0    0    0    0  0.00000000000E+00  0.00000000000E+00  0.45593999997E+02  0.45594000000E+02  0.51100000000E-03 0. -1.
         11   -1    0    0    0    0 -0.00000000000E+00 -0.00000000000E+00 -0.45593999997E+02  0.45594000000E+02  0.51100000000E-03 0.  1.
    9900012    2    1    2    0    0  0.10729576298E+01  0.45729453884E+00  0.18108249393E+00  0.90007683415E+02  0.89999944036E+02 0.  0.
        -12    1    1    2    0    0 -0.10729576298E+01 -0.45729453884E+00 -0.18108249393E+00  0.11803165847E+01  0.00000000000E+00 0.  1.
         11    1    3    3    0    0 -0.71565304517E+01 -0.30922603860E+02  0.17701945071E+02  0.36342567564E+02  0.51100000000E-03 0. -1.
        -11    1    3    3    0    0  0.27320865108E+01 -0.76473739612E+01  0.36760623366E+01  0.89140372318E+01  0.51100000000E-03 0.  1.
        -12    1    3    3    0    0  0.54974015707E+01  0.39027272360E+02 -0.21196924913E+02  0.44751078620E+02  0.00000000000E+00 0.  1.
</event>
<event>
 7    1  0.3505640E-015  0.9000773E+02  0.7816164E-02  0.1186339E+00
        -11   -1    0    0    0    0  0.00000000000E+00  0.00000000000E+00  0.45593999997E+02  0.45594000000E+02  0.51100000000E-03 0.  1.
         11   -1    0    0    0    0 -0.00000000000E+00 -0.00000000000E+00 -0.45593999997E+02  0.45594000000E+02  0.51100000000E-03 0. -1.
    9900012    2    1    2    0    0  0.10816060099E+01  0.41982181562E+00 -0.21659094777E+00  0.90007731575E+02  0.89999992831E+02 0.  0.
        -12    1    1    2    0    0 -0.10816060099E+01 -0.41982181562E+00  0.21659094777E+00  0.11802684255E+01  0.00000000000E+00 0.  1.
         11    1    3    3    0    0 -0.90808364772E+00 -0.62979798132E+01 -0.65984923714E+01  0.91667479226E+01  0.51100000000E-03 0. -1.
        -11    1    3    3    0    0  0.16416618491E+02 -0.32765562052E+02  0.11697406233E+02  0.38469685885E+02  0.51100000000E-03 0.  1.
         12    1    3    3    0    0 -0.14426928833E+02  0.39483363680E+02 -0.53155048096E+01  0.42371297767E+02  0.00000000000E+00 0. -1.
</event>
<event>
 7    1  0.3505640E-015  0.9000775E+02  0.7816164E-02  0.1186339E+00
        -11   -1    0    0    0    0  0.00000000000E+00  0.00000000000E+00  0.45593999997E+02  0.45594000000E+02  0.51100000000E-03 0. -1.
         11   -1    0    0    0    0 -0.00000000000E+00 -0.00000000000E+00 -0.45593999997E+02  0.45594000000E+02  0.51100000000E-03 0.  1.
    9900012    2    1    2    0    0  0.11766491694E+01 -0.87249969466E-01 -0.29478747252E-01  0.90007752220E+02  0.90000013750E+02 0.  0.
        -12    1    1    2    0    0 -0.11766491694E+01  0.87249969466E-01  0.29478747252E-01  0.11802477797E+01  0.00000000000E+00 0.  1.
         11    1    3    3    0    0  0.29950078247E+01  0.81408723949E+01  0.42436089647E+01  0.96567123042E+01  0.51100000000E-03 0. -1.
        -11    1    3    3    0    0  0.14946055935E+02  0.20681194829E+02  0.25148532595E+02  0.35826597655E+02  0.51100000000E-03 0.  1.
         12    1    3    3    0    0 -0.16764414590E+02 -0.28909317194E+02 -0.29421620307E+02  0.44524442261E+02  0.00000000000E+00 0. -1.
</event>
<event>
 7    1  0.3505640E-015  0.9000777E+02  0.7816164E-02  0.1186339E+00
        -11   -1    0    0    0    0  0.00000000000E+00  0.00000000000E+00  0.45593999997E+02  0.45594000000E+02  0.51100000000E-03 0.  1.
         11   -1    0    0    0    0 -0.00000000000E+00 -0.00000000000E+00 -0.45593999997E+02  0.45594000000E+02  0.51100000000E-03 0. -1.
    9900012    2    1    2    0    0  0.10278184019E+01  0.11425003031E+00  0.56874759312E+00  0.90007772242E+02  0.90000034035E+02 0.  0.
        -12    1    1    2    0    0 -0.10278184019E+01 -0.11425003031E+00 -0.56874759312E+00  0.11802277583E+01  0.00000000000E+00 0.  1.
         11    1    3    3    0    0  0.60213626561E+01  0.39306572429E+01  0.22571207327E+01  0.75366749207E+01  0.51100000000E-03 0. -1.
        -11    1    3    3    0    0  0.14812596205E+02 -0.37898580747E+02 -0.10618108628E+02  0.42053057678E+02  0.51100000000E-03 0.  1.
         12    1    3    3    0    0 -0.19806140459E+02  0.34082173534E+02  0.89297354881E+01  0.40418039643E+02  0.00000000000E+00 0. -1.
</event>
<event>
 7    1  0.3505640E-015  0.9000767E+02  0.7816164E-02  0.1186339E+00
        -11   -1    0    0    0    0  0.00000000000E+00  0.00000000000E+00  0.45593999997E+02  0.45594000000E+02  0.51100000000E-03 0.  1.
         11   -1    0    0    0    0 -0.00000000000E+00 -0.00000000000E+00 -0.45593999997E+02  0.45594000000E+02  0.51100000000E-03 0. -1.
    9900012    2    1    2    0    0 -0.95699842359E+00 -0.15873931867E+00 -0.67240511673E+00  0.90007672590E+02  0.89999933068E+02 0.  0.
        -12    1    1    2    0    0  0.95699842359E+00  0.15873931867E+00  0.67240511673E+00  0.11803274101E+01  0.00000000000E+00 0.  1.
         11    1    3    3    0    0  0.57324771090E+01  0.59854718700E+01 -0.46235016078E+01  0.94902020363E+01  0.51100000000E-03 0. -1.
        -11    1    3    3    0    0 -0.39751768697E+02  0.13067415132E+02 -0.16155900777E+01  0.41875656226E+02  0.51100000000E-03 0.  1.
         12    1    3    3    0    0  0.33062293165E+02 -0.19211626321E+02  0.55666865688E+01  0.38641814328E+02  0.00000000000E+00 0. -1.
</event>
<event>
 7    1  0.3505640E-015  0.9000773E+02  0.7816164E-02  0.1186339E+00
        -11   -1    0    0    0    0  0.00000000000E+00  0.00000000000E+00  0.45593999997E+02  0.45594000000E+02  0.51100000000E-03 0.  1.
         11   -1    0    0    0    0 -0.00000000000E+00 -0.00000000000E+00 -0.45593999997E+02  0.45594000000E+02  0.51100000000E-03 0. -1.
    9900012    2    1    2    0    0  0.62555829750E+00  0.82301249346E-01 -0.99746653526E+00  0.90007730468E+02  0.89999991710E+02 0.  0.
        -12    1    1    2    0    0 -0.62555829750E+00 -0.82301249346E-01  0.99746653526E+00  0.11802695320E+01  0.00000000000E+00 0.  1.
         11    1    3    3    0    0 -0.22901706243E+02 -0.13968461506E+02 -0.28420361673E+02  0.39080980330E+02  0.51100000000E-03 0. -1.
        -11    1    3    3    0    0 -0.81882208624E+01  0.26249566549E+01  0.23500763055E+01  0.89140460642E+01  0.51100000000E-03 0.  1.
        -12    1    3    3    0    0  0.31715485403E+02  0.11425806100E+02  0.25072818832E+02  0.42012704074E+02  0.00000000000E+00 0.  1.
</event>
<event>
 7    1  0.5752714E-015  0.9000772E+02  0.7816164E-02  0.1186339E+00
        -11   -1    0    0    0    0  0.00000000000E+00  0.00000000000E+00  0.45593999997E+02  0.45594000000E+02  0.51100000000E-03 0.  1.
         11   -1    0    0    0    0 -0.00000000000E+00 -0.00000000000E+00 -0.45593999997E+02  0.45594000000E+02  0.51100000000E-03 0. -1.
    9900012    2    1    2    0    0 -0.58168478768E+00  0.78117602867E+00 -0.66668978515E+00  0.90007716793E+02  0.89999977854E+02 0.  0.
        -12    1    1    2    0    0  0.58168478768E+00 -0.78117602867E+00  0.66668978515E+00  0.11802832074E+01  0.00000000000E+00 0.  1.
         11    1    3    3    0    0  0.80420358194E+01  0.21742137880E+01  0.42902279340E+01  0.93705710446E+01  0.51100000000E-03 0. -1.
        -11    1    3    3    0    0 -0.17446965637E+02  0.33713749186E+02  0.13135384414E+02  0.40169040542E+02  0.51100000000E-03 0.  1.
         12    1    3    3    0    0  0.88232450302E+01 -0.35106786945E+02 -0.18092302133E+02  0.40468105206E+02  0.00000000000E+00 0. -1.
</event>
<event>
 7    1  0.3505640E-015  0.9000776E+02  0.7816164E-02  0.1186339E+00
        -11   -1    0    0    0    0  0.00000000000E+00  0.00000000000E+00  0.45593999997E+02  0.45594000000E+02  0.51100000000E-03 0.  1.
         11   -1    0    0    0    0 -0.00000000000E+00 -0.00000000000E+00 -0.45593999997E+02  0.45594000000E+02  0.51100000000E-03 0. -1.
    9900012    2    1    2    0    0  0.29552963781E+00 -0.87490217626E+00 -0.73497098526E+00  0.90007756833E+02  0.90000018423E+02 0.  0.
        -12    1    1    2    0    0 -0.29552963781E+00  0.87490217626E+00  0.73497098526E+00  0.11802431673E+01  0.00000000000E+00 0.  1.
         11    1    3    3    0    0 -0.17320692664E+02  0.26003516380E+02 -0.17756085643E+02  0.35936998151E+02  0.51100000000E-03 0. -1.
        -11    1    3    3    0    0 -0.60228516372E+01  0.50866150171E+01 -0.42769883269E+01  0.89688919932E+01  0.51100000000E-03 0.  1.
        -12    1    3    3    0    0  0.23639073939E+02 -0.31965033574E+02  0.21298102985E+02  0.45101866688E+02  0.00000000000E+00 0.  1.
</event>
<event>
 7    1  0.3505640E-015  0.9000771E+02  0.7816164E-02  0.1186339E+00
        -11   -1    0    0    0    0  0.00000000000E+00  0.00000000000E+00  0.45593999997E+02  0.45594000000E+02  0.51100000000E-03 0. -1.
         11   -1    0    0    0    0 -0.00000000000E+00 -0.00000000000E+00 -0.45593999997E+02  0.45594000000E+02  0.51100000000E-03 0.  1.
    9900012    2    1    2    0    0 -0.90217357382E+00  0.25758181480E+00  0.71611913473E+00  0.90007706747E+02  0.89999967676E+02 0.  0.
        -12    1    1    2    0    0  0.90217357382E+00 -0.25758181480E+00 -0.71611913473E+00  0.11802932533E+01  0.00000000000E+00 0.  1.
         11    1    3    3    0    0 -0.17266279226E+02 -0.36461174944E+02  0.13766960878E+02  0.42627114477E+02  0.51100000000E-03 0. -1.
        -11    1    3    3    0    0 -0.19489204416E+01  0.32606822332E+01 -0.80640771213E+01  0.89140159072E+01  0.51100000000E-03 0.  1.
        -12    1    3    3    0    0  0.18313026094E+02  0.33458074525E+02 -0.49867646215E+01  0.38466576362E+02  0.00000000000E+00 0.  1.
</event>
<event>
 7    1  0.3505640E-015  0.9000775E+02  0.7816164E-02  0.1186339E+00
        -11   -1    0    0    0    0  0.00000000000E+00  0.00000000000E+00  0.45593999997E+02  0.45594000000E+02  0.51100000000E-03 0. -1.
         11   -1    0    0    0    0 -0.00000000000E+00 -0.00000000000E+00 -0.45593999997E+02  0.45594000000E+02  0.51100000000E-03 0.  1.
    9900012    2    1    2    0    0 -0.79760460422E+00  0.80507978171E+00  0.32965492076E+00  0.90007746245E+02  0.90000007695E+02 0.  0.
        -12    1    1    2    0    0  0.79760460422E+00 -0.80507978171E+00 -0.32965492076E+00  0.11802537551E+01  0.00000000000E+00 0.  1.
         11    1    3    3    0    0  0.23993316683E+02 -0.12264513669E+00  0.15642424499E+02  0.28642271763E+02  0.51100000000E-03 0. -1.
        -11    1    3    3    0    0 -0.15161318011E+02 -0.59570993014E+01  0.19024112973E+02  0.25045348283E+02  0.51100000000E-03 0.  1.
        -12    1    3    3    0    0 -0.96296032757E+01  0.68848242197E+01 -0.34336882551E+02  0.36320126199E+02  0.00000000000E+00 0.  1.
</event>
<event>
 7    1  0.3505640E-015  0.9000771E+02  0.7816164E-02  0.1186339E+00
        -11   -1    0    0    0    0  0.00000000000E+00  0.00000000000E+00  0.45593999997E+02  0.45594000000E+02  0.51100000000E-03 0.  1.
         11   -1    0    0    0    0 -0.00000000000E+00 -0.00000000000E+00 -0.45593999997E+02  0.45594000000E+02  0.51100000000E-03 0. -1.
    9900012    2    1    2    0    0 -0.10163372167E+01 -0.30539045771E+00 -0.51661392999E+00  0.90007705705E+02  0.89999966621E+02 0.  0.
        -12    1    1    2    0    0  0.10163372167E+01  0.30539045771E+00  0.51661392999E+00  0.11802942948E+01  0.00000000000E+00 0.  1.
         11    1    3    3    0    0  0.16529058922E+01  0.37662086726E+01  0.75010840235E+01  0.85546880389E+01  0.51100000000E-03 0. -1.
        -11    1    3    3    0    0 -0.28469037188E+02  0.27929480281E+02 -0.56392837759E+01  0.40278325051E+02  0.51100000000E-03 0.  1.
         12    1    3    3    0    0  0.25799794079E+02 -0.32001079411E+02 -0.23784141777E+01  0.41174692615E+02  0.00000000000E+00 0. -1.
</event>
<event>
 7    1  0.3505640E-015  0.9000775E+02  0.7816164E-02  0.1186339E+00
        -11   -1    0    0    0    0  0.00000000000E+00  0.00000000000E+00  0.45593999997E+02  0.45594000000E+02  0.51100000000E-03 0. -1.
         11   -1    0    0    0    0 -0.00000000000E+00 -0.00000000000E+00 -0.45593999997E+02  0.45594000000E+02  0.51100000000E-03 0.  1.
    9900012    2    1    2    0    0  0.57067845090E+00 -0.68669754208E+00 -0.77186303691E+00  0.90007745809E+02  0.90000007253E+02 0.  0.
        -12    1    1    2    0    0 -0.57067845090E+00  0.68669754208E+00  0.77186303691E+00  0.11802541914E+01  0.00000000000E+00 0.  1.
         11    1    3    3    0    0 -0.23434554839E+02 -0.26892113718E+02 -0.17245239801E+02  0.39620227621E+02  0.51100000000E-03 0. -1.
        -11    1    3    3    0    0  0.60227749873E+01 -0.72533834337E+01  0.51902496254E+01  0.10762159691E+02  0.51100000000E-03 0.  1.
        -12    1    3    3    0    0  0.17982458302E+02  0.33458799610E+02  0.11283127139E+02  0.39625358496E+02  0.00000000000E+00 0.  1.
</event>
<event>
 7    1  0.3505640E-015  0.9000779E+02  0.7816164E-02  0.1186339E+00
        -11   -1    0    0    0    0  0.00000000000E+00  0.00000000000E+00  0.45593999997E+02  0.45594000000E+02  0.51100000000E-03 0. -1.
         11   -1    0    0    0    0 -0.00000000000E+00 -0.00000000000E+00 -0.45593999997E+02  0.45594000000E+02  0.51100000000E-03 0.  1.
    9900012    2    1    2    0    0 -0.10261220572E+01  0.45913447134E+00  0.35939981927E+00  0.90007788507E+02  0.90000050515E+02 0.  0.
        -12    1    1    2    0    0  0.10261220572E+01 -0.45913447134E+00 -0.35939981927E+00  0.11802114934E+01  0.00000000000E+00 0.  1.
         11    1    3    3    0    0 -0.24761903464E+02 -0.19039599940E+02  0.18853143760E+02  0.36484233018E+02  0.51100000000E-03 0. -1.
        -11    1    3    3    0    0 -0.36454297184E+01 -0.65607333993E+01  0.49991915437E+01  0.90179984986E+01  0.51100000000E-03 0.  1.
        -12    1    3    3    0    0  0.27381211126E+02  0.26059467810E+02 -0.23492935485E+02  0.44505556990E+02  0.00000000000E+00 0.  1.
</event>
<event>
 7    1  0.3505640E-015  0.9000771E+02  0.7816164E-02  0.1186339E+00
        -11   -1    0    0    0    0  0.00000000000E+00  0.00000000000E+00  0.45593999997E+02  0.45594000000E+02  0.51100000000E-03 0.  1.
         11   -1    0    0    0    0 -0.00000000000E+00 -0.00000000000E+00 -0.45593999997E+02  0.45594000000E+02  0.51100000000E-03 0. -1.
    9900012    2    1    2    0    0  0.10375180146E+01  0.50577057761E+00 -0.24666077873E+00  0.90007708067E+02  0.89999969013E+02 0.  0.
        -12    1    1    2    0    0 -0.10375180146E+01 -0.50577057761E+00  0.24666077873E+00  0.11802919332E+01  0.00000000000E+00 0.  1.
         11    1    3    3    0    0 -0.15172287721E+02 -0.32889109439E+02 -0.12085567668E+02  0.38183147860E+02  0.51100000000E-03 0. -1.
        -11    1    3    3    0    0  0.29607641234E+01  0.34647888929E+00 -0.97431755002E+01  0.10188996070E+02  0.51100000000E-03 0.  1.
        -12    1    3    3    0    0  0.13249041612E+02  0.33048401128E+02  0.21582082389E+02  0.41635564137E+02  0.00000000000E+00 0.  1.
</event>
<event>
 7    1  0.3505640E-015  0.9000784E+02  0.7816164E-02  0.1186339E+00
        -11   -1    0    0    0    0  0.00000000000E+00  0.00000000000E+00  0.45593999997E+02  0.45594000000E+02  0.51100000000E-03 0. -1.
         11   -1    0    0    0    0 -0.00000000000E+00 -0.00000000000E+00 -0.45593999997E+02  0.45594000000E+02  0.51100000000E-03 0.  1.
    9900012    2    1    2    0    0 -0.85962592590E+00  0.24666022553E+00  0.77004869802E+00  0.90007841961E+02  0.90000104675E+02 0.  0.
        -12    1    1    2    0    0  0.85962592590E+00 -0.24666022553E+00 -0.77004869802E+00  0.11801580388E+01  0.00000000000E+00 0.  1.
         11    1    3    3    0    0  0.13633915636E+01 -0.11078707721E+02  0.43658811208E+01  0.11985721486E+02  0.51100000000E-03 0. -1.
        -11    1    3    3    0    0 -0.27072793378E+02  0.26593539735E+02  0.17734650294E+02  0.41888785113E+02  0.51100000000E-03 0.  1.
         12    1    3    3    0    0  0.24849775888E+02 -0.15268171788E+02 -0.21330482717E+02  0.36133335362E+02  0.00000000000E+00 0. -1.
</event>
<event>
 7    1  0.3505640E-015  0.9000779E+02  0.7816164E-02  0.1186339E+00
        -11   -1    0    0    0    0  0.00000000000E+00  0.00000000000E+00  0.45593999997E+02  0.45594000000E+02  0.51100000000E-03 0.  1.
         11   -1    0    0    0    0 -0.00000000000E+00 -0.00000000000E+00 -0.45593999997E+02  0.45594000000E+02  0.51100000000E-03 0. -1.
    9900012    2    1    2    0    0 -0.10728304080E-01 -0.81817487002E+00 -0.85050818088E+00  0.90007792654E+02  0.90000054717E+02 0.  0.
        -12    1    1    2    0    0  0.10728304080E-01  0.81817487002E+00  0.85050818088E+00  0.11802073463E+01  0.00000000000E+00 0.  1.
         11    1    3    3    0    0  0.27803219713E+02  0.22750606392E+02 -0.16231144390E+02  0.39421557124E+02  0.51100000000E-03 0. -1.
        -11    1    3    3    0    0 -0.75984406163E+01  0.54569427803E+01 -0.40897357270E+01  0.10209821883E+02  0.51100000000E-03 0.  1.
        -12    1    3    3    0    0 -0.20215507401E+02 -0.29025724043E+02  0.19470371936E+02  0.40376413647E+02  0.00000000000E+00 0.  1.
</event>
<event>
 7    1  0.3505640E-015  0.9000767E+02  0.7816164E-02  0.1186339E+00
        -11   -1    0    0    0    0  0.00000000000E+00  0.00000000000E+00  0.45593999997E+02  0.45594000000E+02  0.51100000000E-03 0.  1.
         11   -1    0    0    0    0 -0.00000000000E+00 -0.00000000000E+00 -0.45593999997E+02  0.45594000000E+02  0.51100000000E-03 0. -1.
    9900012    2    1    2    0    0  0.15584186059E+00 -0.85861527151E+00 -0.79477784313E+00  0.90007670093E+02  0.89999930538E+02 0.  0.
        -12    1    1    2    0    0 -0.15584186059E+00  0.85861527151E+00  0.79477784313E+00  0.11803299072E+01  0.00000000000E+00 0.  1.
         11    1    3    3    0    0 -0.62085993080E+01  0.28680260575E+02 -0.21083530197E+02  0.36133354367E+02  0.51100000000E-03 0. -1.
        -11    1    3    3    0    0 -0.77647595437E+01 -0.39482960684E+01 -0.89780136537E+01  0.12509406942E+02  0.51100000000E-03 0.  1.
        -12    1    3    3    0    0  0.14129200712E+02 -0.25590579778E+02  0.29266766008E+02  0.41364908784E+02  0.00000000000E+00 0.  1.
</event>
<event>
 7    1  0.3505640E-015  0.9000735E+02  0.7816164E-02  0.1186340E+00
        -11   -1    0    0    0    0  0.00000000000E+00  0.00000000000E+00  0.45593999997E+02  0.45594000000E+02  0.51100000000E-03 0.  1.
         11   -1    0    0    0    0 -0.00000000000E+00 -0.00000000000E+00 -0.45593999997E+02  0.45594000000E+02  0.51100000000E-03 0. -1.
    9900012    2    1    2    0    0  0.89974081666E+00 -0.76415882725E+00 -0.21618325926E-01  0.90007347806E+02  0.89999603996E+02 0.  0.
        -12    1    1    2    0    0 -0.89974081666E+00  0.76415882725E+00  0.21618325926E-01  0.11806521937E+01  0.00000000000E+00 0.  1.
         11    1    3    3    0    0 -0.71054310040E+01  0.58025128314E+01  0.10588545033E+01  0.92345805552E+01  0.51100000000E-03 0. -1.
        -11    1    3    3    0    0 -0.23455334071E+02 -0.31689753145E+02  0.60442298394E+01  0.39886412040E+02  0.51100000000E-03 0.  1.
         12    1    3    3    0    0  0.31460505892E+02  0.25123081487E+02 -0.71247026687E+01  0.40886355211E+02  0.00000000000E+00 0. -1.
</event>
<event>
 7    1  0.3505640E-015  0.9000768E+02  0.7816164E-02  0.1186339E+00
        -11   -1    0    0    0    0  0.00000000000E+00  0.00000000000E+00  0.45593999997E+02  0.45594000000E+02  0.51100000000E-03 0. -1.
         11   -1    0    0    0    0 -0.00000000000E+00 -0.00000000000E+00 -0.45593999997E+02  0.45594000000E+02  0.51100000000E-03 0.  1.
    9900012    2    1    2    0    0 -0.46350854772E+00  0.58080168412E+00  0.91704597816E+00  0.90007684747E+02  0.89999945386E+02 0.  0.
        -12    1    1    2    0    0  0.46350854772E+00 -0.58080168412E+00 -0.91704597816E+00  0.11803152529E+01  0.00000000000E+00 0.  1.
         11    1    3    3    0    0 -0.11426977172E+02  0.12947566187E+02 -0.31744009433E+02  0.36137202611E+02  0.51100000000E-03 0. -1.
        -11    1    3    3    0    0 -0.36396191116E+01  0.11461567155E+02  0.16726386123E+01  0.12141337204E+02  0.51100000000E-03 0.  1.
        -12    1    3    3    0    0  0.14603087736E+02 -0.23828331658E+02  0.30988416799E+02  0.41729144931E+02  0.00000000000E+00 0.  1.
</event>
<event>
 7    1  0.3505640E-015  0.9000766E+02  0.7816164E-02  0.1186339E+00
        -11   -1    0    0    0    0  0.00000000000E+00  0.00000000000E+00  0.45593999997E+02  0.45594000000E+02  0.51100000000E-03 0. -1.
         11   -1    0    0    0    0 -0.00000000000E+00 -0.00000000000E+00 -0.45593999997E+02  0.45594000000E+02  0.51100000000E-03 0.  1.
    9900012    2    1    2    0    0  0.91023733585E+00  0.71428109175E+00  0.23337931614E+00  0.90007663018E+02  0.89999923370E+02 0.  0.
        -12    1    1    2    0    0 -0.91023733585E+00 -0.71428109175E+00 -0.23337931614E+00  0.11803369819E+01  0.00000000000E+00 0.  1.
         11    1    3    3    0    0  0.32000147426E+02  0.16374336248E+02 -0.11604006566E+02  0.37772758590E+02  0.51100000000E-03 0. -1.
        -11    1    3    3    0    0  0.74801354278E+01  0.93119539322E+00  0.64169830861E+01  0.98993546793E+01  0.51100000000E-03 0.  1.
        -12    1    3    3    0    0 -0.38570045518E+02 -0.16591250550E+02  0.54204027965E+01  0.42335549749E+02  0.00000000000E+00 0.  1.
</event>
<event>
 7    1  0.6530535E-015  0.9000764E+02  0.7816164E-02  0.1186339E+00
        -11   -1    0    0    0    0  0.00000000000E+00  0.00000000000E+00  0.45593999997E+02  0.45594000000E+02  0.51100000000E-03 0. -1.
         11   -1    0    0    0    0 -0.00000000000E+00 -0.00000000000E+00 -0.45593999997E+02  0.45594000000E+02  0.51100000000E-03 0.  1.
    9900012    2    1    2    0    0 -0.94730491303E-02 -0.34647190414E+00  0.11283244966E+01  0.90007640441E+02  0.89999900495E+02 0.  0.
        -12    1    1    2    0    0  0.94730491303E-02  0.34647190414E+00 -0.11283244966E+01  0.11803595591E+01  0.00000000000E+00 0.  1.
         11    1    3    3    0    0  0.48491060825E+01 -0.74019581648E+01 -0.31683124539E+01  0.93989902936E+01  0.51100000000E-03 0. -1.
        -11    1    3    3    0    0 -0.25760733652E+01  0.85912427700E+01 -0.37583168383E+02  0.38638583726E+02  0.51100000000E-03 0.  1.
         12    1    3    3    0    0 -0.22825057665E+01 -0.15357565094E+01  0.41879805334E+02  0.41970066422E+02  0.00000000000E+00 0. -1.
</event>
<event>
 7    1  0.3505640E-015  0.9000778E+02  0.7816164E-02  0.1186339E+00
        -11   -1    0    0    0    0  0.00000000000E+00  0.00000000000E+00  0.45593999997E+02  0.45594000000E+02  0.51100000000E-03 0.  1.
         11   -1    0    0    0    0 -0.00000000000E+00 -0.00000000000E+00 -0.45593999997E+02  0.45594000000E+02  0.51100000000E-03 0. -1.
    9900012    2    1    2    0    0  0.16856320365E+00 -0.79128489143E+00 -0.85928625314E+00  0.90007780445E+02  0.90000042347E+02 0.  0.
        -12    1    1    2    0    0 -0.16856320365E+00  0.79128489143E+00  0.85928625314E+00  0.11802195549E+01  0.00000000000E+00 0.  1.
         11    1    3    3    0    0  0.10128733732E+02  0.73031974282E+01 -0.46099727771E+01  0.13310889864E+02  0.51100000000E-03 0. -1.
        -11    1    3    3    0    0  0.95985589851E+00  0.28774947735E+02 -0.16555933620E+02  0.33211712976E+02  0.51100000000E-03 0.  1.
         12    1    3    3    0    0 -0.10920026427E+02 -0.36869430054E+02  0.20306620144E+02  0.43485177606E+02  0.00000000000E+00 0. -1.
</event>
<event>
 7    1  0.3505640E-015  0.9000782E+02  0.7816164E-02  0.1186339E+00
        -11   -1    0    0    0    0  0.00000000000E+00  0.00000000000E+00  0.45593999997E+02  0.45594000000E+02  0.51100000000E-03 0.  1.
         11   -1    0    0    0    0 -0.00000000000E+00 -0.00000000000E+00 -0.45593999997E+02  0.45594000000E+02  0.51100000000E-03 0. -1.
    9900012    2    1    2    0    0  0.70654492231E+00 -0.85133908570E+00 -0.41091313960E+00  0.90007816296E+02  0.90000078671E+02 0.  0.
        -12    1    1    2    0    0 -0.70654492231E+00  0.85133908570E+00  0.41091313960E+00  0.11801837037E+01  0.00000000000E+00 0.  1.
         11    1    3    3    0    0 -0.72201634836E+01 -0.51907447383E+00  0.81722091914E+01  0.10917197551E+02  0.51100000000E-03 0. -1.
        -11    1    3    3    0    0 -0.25291617856E+02 -0.18755164722E+02  0.14475168470E+02  0.34654763597E+02  0.51100000000E-03 0.  1.
         12    1    3    3    0    0  0.33218326262E+02  0.18422900110E+02 -0.23058290800E+02  0.44435855148E+02  0.00000000000E+00 0. -1.
</event>
<event>
 7    1  0.3505640E-015  0.9000776E+02  0.7816164E-02  0.1186339E+00
        -11   -1    0    0    0    0  0.00000000000E+00  0.00000000000E+00  0.45593999997E+02  0.45594000000E+02  0.51100000000E-03 0.  1.
         11   -1    0    0    0    0 -0.00000000000E+00 -0.00000000000E+00 -0.45593999997E+02  0.45594000000E+02  0.51100000000E-03 0. -1.
    9900012    2    1    2    0    0  0.48235602297E+00  0.10199225309E+01 -0.34649548328E+00  0.90007759168E+02  0.90000020789E+02 0.  0.
        -12    1    1    2    0    0 -0.48235602297E+00 -0.10199225309E+01  0.34649548328E+00  0.11802408321E+01  0.00000000000E+00 0.  1.
         11    1    3    3    0    0  0.23450220262E+02 -0.10115836882E+02 -0.28107001169E+02  0.37976920638E+02  0.51100000000E-03 0. -1.
        -11    1    3    3    0    0 -0.33693920031E+01  0.19951901642E+02  0.52395204391E+01  0.20901764431E+02  0.51100000000E-03 0.  1.
        -12    1    3    3    0    0 -0.19598472236E+02 -0.88161422299E+01  0.22520985247E+02  0.31129074099E+02  0.00000000000E+00 0.  1.
</event>
<event>
 7    1  0.3505640E-015  0.9000772E+02  0.7816164E-02  0.1186339E+00
        -11   -1    0    0    0    0  0.00000000000E+00  0.00000000000E+00  0.45593999997E+02  0.45594000000E+02  0.51100000000E-03 0.  1.
         11   -1    0    0    0    0 -0.00000000000E+00 -0.00000000000E+00 -0.45593999997E+02  0.45594000000E+02  0.51100000000E-03 0. -1.
    9900012    2    1    2    0    0  0.50380874947E+00 -0.97654454327E+00  0.43081141100E+00  0.90007719960E+02  0.89999981063E+02 0.  0.
        -12    1    1    2    0    0 -0.50380874947E+00  0.97654454327E+00 -0.43081141100E+00  0.11802800400E+01  0.00000000000E+00 0.  1.
         11    1    3    3    0    0 -0.84409536120E+01  0.40247019301E+01  0.75644295559E+01  0.12027822674E+02  0.51100000000E-03 0. -1.
        -11    1    3    3    0    0 -0.28837787752E+02  0.12786719506E+02  0.96266667138E+01  0.32981675373E+02  0.51100000000E-03 0.  1.
         12    1    3    3    0    0  0.37782550113E+02 -0.17787965980E+02 -0.16760284859E+02  0.44998221913E+02  0.00000000000E+00 0. -1.
</event>
<event>
 7    1  0.3505640E-015  0.9000770E+02  0.7816164E-02  0.1186339E+00
        -11   -1    0    0    0    0  0.00000000000E+00  0.00000000000E+00  0.45593999997E+02  0.45594000000E+02  0.51100000000E-03 0.  1.
         11   -1    0    0    0    0 -0.00000000000E+00 -0.00000000000E+00 -0.45593999997E+02  0.45594000000E+02  0.51100000000E-03 0. -1.
    9900012    2    1    2    0    0 -0.31919417605E+00 -0.11121012035E+01 -0.23333848175E+00  0.90007703065E+02  0.89999963945E+02 0.  0.
        -12    1    1    2    0    0  0.31919417605E+00  0.11121012035E+01  0.23333848175E+00  0.11802969355E+01  0.00000000000E+00 0.  1.
         11    1    3    3    0    0  0.55831020176E+01 -0.10381222923E+02  0.17075464942E+01  0.11910354017E+02  0.51100000000E-03 0. -1.
        -11    1    3    3    0    0 -0.26938817370E+02 -0.25716448479E+02 -0.14557921904E+01  0.37271368835E+02  0.51100000000E-03 0.  1.
         12    1    3    3    0    0  0.21036521177E+02  0.34985570198E+02 -0.48509278551E+00  0.40825980213E+02  0.00000000000E+00 0. -1.
</event>
<event>
 7    1  0.3505640E-015  0.9000776E+02  0.7816164E-02  0.1186339E+00
        -11   -1    0    0    0    0  0.00000000000E+00  0.00000000000E+00  0.45593999997E+02  0.45594000000E+02  0.51100000000E-03 0. -1.
         11   -1    0    0    0    0 -0.00000000000E+00 -0.00000000000E+00 -0.45593999997E+02  0.45594000000E+02  0.51100000000E-03 0.  1.
    9900012    2    1    2    0    0  0.26097966292E+00 -0.21738012036E+00  0.11303087282E+01  0.90007761752E+02  0.90000023407E+02 0.  0.
        -12    1    1    2    0    0 -0.26097966292E+00  0.21738012036E+00 -0.11303087282E+01  0.11802382480E+01  0.00000000000E+00 0.  1.
         11    1    3    3    0    0 -0.27096758871E+02 -0.18422527864E+02  0.21833422363E+02  0.39374131185E+02  0.51100000000E-03 0. -1.
        -11    1    3    3    0    0 -0.26274718746E+01 -0.53495304829E+01 -0.89127817709E+01  0.10721882484E+02  0.51100000000E-03 0.  1.
        -12    1    3    3    0    0  0.29985210408E+02  0.23554678227E+02 -0.11790331864E+02  0.39911748083E+02  0.00000000000E+00 0.  1.
</event>
<event>
 7    1  0.3505640E-015  0.9000756E+02  0.7816164E-02  0.1186339E+00
        -11   -1    0    0    0    0  0.00000000000E+00  0.00000000000E+00  0.45593999997E+02  0.45594000000E+02  0.51100000000E-03 0.  1.
         11   -1    0    0    0    0 -0.00000000000E+00 -0.00000000000E+00 -0.45593999997E+02  0.45594000000E+02  0.51100000000E-03 0. -1.
    9900012    2    1    2    0    0  0.10764449211E+01  0.41485708541E+00 -0.25019652975E+00  0.90007560093E+02  0.89999819087E+02 0.  0.
        -12    1    1    2    0    0 -0.10764449211E+01 -0.41485708541E+00  0.25019652975E+00  0.11804399065E+01  0.00000000000E+00 0.  1.
         11    1    3    3    0    0 -0.28456797714E+02  0.16748951112E+02 -0.17716093986E+02  0.37472345614E+02  0.51100000000E-03 0. -1.
        -11    1    3    3    0    0 -0.46727101101E+01  0.67988574847E+01  0.26846952954E+01  0.86756136359E+01  0.51100000000E-03 0.  1.
        -12    1    3    3    0    0  0.34205952745E+02 -0.23132951511E+02  0.14781202160E+02  0.43859600843E+02  0.00000000000E+00 0.  1.
</event>
<event>
 7    1  0.3505640E-015  0.9000772E+02  0.7816164E-02  0.1186339E+00
        -11   -1    0    0    0    0  0.00000000000E+00  0.00000000000E+00  0.45593999997E+02  0.45594000000E+02  0.51100000000E-03 0.  1.
         11   -1    0    0    0    0 -0.00000000000E+00 -0.00000000000E+00 -0.45593999997E+02  0.45594000000E+02  0.51100000000E-03 0. -1.
    9900012    2    1    2    0    0  0.10252955309E+01 -0.28498271367E+00 -0.51049372078E+00  0.90007724646E+02  0.89999985811E+02 0.  0.
        -12    1    1    2    0    0 -0.10252955309E+01  0.28498271367E+00  0.51049372078E+00  0.11802753542E+01  0.00000000000E+00 0.  1.
         11    1    3    3    0    0 -0.14260904548E+02 -0.29933759273E+01 -0.43611710407E+01  0.15210309368E+02  0.51100000000E-03 0. -1.
        -11    1    3    3    0    0 -0.21922621527E+02 -0.11826051627E+01  0.23816206478E+02  0.32391535636E+02  0.51100000000E-03 0.  1.
         12    1    3    3    0    0  0.37208821605E+02  0.38909983763E+01 -0.19965529158E+02  0.42405879642E+02  0.00000000000E+00 0. -1.
</event>
<event>
 7    1  0.3505640E-015  0.9000776E+02  0.7816164E-02  0.1186339E+00
        -11   -1    0    0    0    0  0.00000000000E+00  0.00000000000E+00  0.45593999997E+02  0.45594000000E+02  0.51100000000E-03 0.  1.
         11   -1    0    0    0    0 -0.00000000000E+00 -0.00000000000E+00 -0.45593999997E+02  0.45594000000E+02  0.51100000000E-03 0. -1.
    9900012    2    1    2    0    0  0.82853552888E+00  0.65383068277E+00 -0.52820844010E+00  0.90007758567E+02  0.90000020180E+02 0.  0.
        -12    1    1    2    0    0 -0.82853552888E+00 -0.65383068277E+00  0.52820844010E+00  0.11802414332E+01  0.00000000000E+00 0.  1.
         11    1    3    3    0    0 -0.88288414416E+01  0.24852251495E+02 -0.28890865168E+02  0.39118600895E+02  0.51100000000E-03 0. -1.
        -11    1    3    3    0    0 -0.92952858915E+01  0.13125588072E+01  0.20016541253E+01  0.95985295711E+01  0.51100000000E-03 0.  1.
        -12    1    3    3    0    0  0.18952662862E+02 -0.25510979620E+02  0.26361002603E+02  0.41290628100E+02  0.00000000000E+00 0.  1.
</event>
<event>
 7    1  0.3505640E-015  0.9000835E+02  0.7816164E-02  0.1186338E+00
        -11   -1    0    0    0    0  0.00000000000E+00  0.00000000000E+00  0.45593999997E+02  0.45594000000E+02  0.51100000000E-03 0. -1.
         11   -1    0    0    0    0 -0.00000000000E+00 -0.00000000000E+00 -0.45593999997E+02  0.45594000000E+02  0.51100000000E-03 0.  1.
    9900012    2    1    2    0    0 -0.81026487125E+00 -0.33154786418E+00  0.79064031706E+00  0.90008353757E+02  0.90000623224E+02 0.  0.
        -12    1    1    2    0    0  0.81026487125E+00  0.33154786418E+00 -0.79064031706E+00  0.11796462431E+01  0.00000000000E+00 0.  1.
         11    1    3    3    0    0 -0.13777719331E+02 -0.16762185432E-01  0.46299814090E+01  0.14534873891E+02  0.51100000000E-03 0. -1.
        -11    1    3    3    0    0 -0.18164869707E+02 -0.27288485719E+02 -0.89088301986E+01  0.33970445980E+02  0.51100000000E-03 0.  1.
         12    1    3    3    0    0  0.31132324167E+02  0.26973700040E+02  0.50694891067E+01  0.41503033885E+02  0.00000000000E+00 0. -1.
</event>
<event>
 7    1  0.3505640E-015  0.9000772E+02  0.7816164E-02  0.1186339E+00
        -11   -1    0    0    0    0  0.00000000000E+00  0.00000000000E+00  0.45593999997E+02  0.45594000000E+02  0.51100000000E-03 0.  1.
         11   -1    0    0    0    0 -0.00000000000E+00 -0.00000000000E+00 -0.45593999997E+02  0.45594000000E+02  0.51100000000E-03 0. -1.
    9900012    2    1    2    0    0  0.34852161039E+00 -0.75601868734E+00 -0.83667147896E+00  0.90007724298E+02  0.89999985459E+02 0.  0.
        -12    1    1    2    0    0 -0.34852161039E+00  0.75601868734E+00  0.83667147896E+00  0.11802757018E+01  0.00000000000E+00 0.  1.
         11    1    3    3    0    0  0.18564910912E+02  0.29404490964E+02 -0.10695564310E+02  0.36382346024E+02  0.51100000000E-03 0. -1.
        -11    1    3    3    0    0 -0.13961344927E+01  0.56370182178E+01 -0.82788579322E+01  0.10112598817E+02  0.51100000000E-03 0.  1.
        -12    1    3    3    0    0 -0.16820254809E+02 -0.35797527869E+02  0.18137750763E+02  0.43512779458E+02  0.00000000000E+00 0.  1.
</event>
<event>
 7    1  0.3505640E-015  0.9000776E+02  0.7816164E-02  0.1186339E+00
        -11   -1    0    0    0    0  0.00000000000E+00  0.00000000000E+00  0.45593999997E+02  0.45594000000E+02  0.51100000000E-03 0.  1.
         11   -1    0    0    0    0 -0.00000000000E+00 -0.00000000000E+00 -0.45593999997E+02  0.45594000000E+02  0.51100000000E-03 0. -1.
    9900012    2    1    2    0    0 -0.75115979251E+00 -0.28115455400E+00 -0.86583322449E+00  0.90007764392E+02  0.90000026082E+02 0.  0.
        -12    1    1    2    0    0  0.75115979251E+00  0.28115455400E+00  0.86583322449E+00  0.11802356077E+01  0.00000000000E+00 0.  1.
         11    1    3    3    0    0 -0.83953034853E+01  0.58177080897E+01 -0.35794551638E+02  0.37223336433E+02  0.51100000000E-03 0. -1.
        -11    1    3    3    0    0  0.73355179559E+01 -0.12369013811E+02 -0.27031935510E+01  0.14632483794E+02  0.51100000000E-03 0.  1.
        -12    1    3    3    0    0  0.30862573693E+00  0.62701511672E+01  0.37631911964E+02  0.38151944165E+02  0.00000000000E+00 0.  1.
</event>
<event>
 7    1  0.3505640E-015  0.9000777E+02  0.7816164E-02  0.1186339E+00
        -11   -1    0    0    0    0  0.00000000000E+00  0.00000000000E+00  0.45593999997E+02  0.45594000000E+02  0.51100000000E-03 0.  1.
         11   -1    0    0    0    0 -0.00000000000E+00 -0.00000000000E+00 -0.45593999997E+02  0.45594000000E+02  0.51100000000E-03 0. -1.
    9900012    2    1    2    0    0  0.42348780761E-02 -0.11050123414E+01  0.41458321378E+00  0.90007767205E+02  0.90000028932E+02 0.  0.
        -12    1    1    2    0    0 -0.42348780761E-02  0.11050123414E+01 -0.41458321378E+00  0.11802327948E+01  0.00000000000E+00 0.  1.
         11    1    3    3    0    0 -0.82232991847E+01  0.40422822003E+01 -0.22998476265E+01  0.94473273593E+01  0.51100000000E-03 0. -1.
        -11    1    3    3    0    0 -0.34710243780E+02  0.79700953379E+01  0.78189100652E+00  0.35622111066E+02  0.51100000000E-03 0.  1.
         12    1    3    3    0    0  0.42937777843E+02 -0.13117389880E+02  0.19325398338E+01  0.44938328780E+02  0.00000000000E+00 0. -1.
</event>
<event>
 7    1  0.3505640E-015  0.9000786E+02  0.7816164E-02  0.1186339E+00
        -11   -1    0    0    0    0  0.00000000000E+00  0.00000000000E+00  0.45593999997E+02  0.45594000000E+02  0.51100000000E-03 0.  1.
         11   -1    0    0    0    0 -0.00000000000E+00 -0.00000000000E+00 -0.45593999997E+02  0.45594000000E+02  0.51100000000E-03 0. -1.
    9900012    2    1    2    0    0 -0.80267766629E+00 -0.11562260700E+00 -0.85736060759E+00  0.90007861349E+02  0.90000124319E+02 0.  0.
        -12    1    1    2    0    0  0.80267766629E+00  0.11562260700E+00  0.85736060759E+00  0.11801386506E+01  0.00000000000E+00 0.  1.
         11    1    3    3    0    0  0.61520141589E+01 -0.26378913793E+01 -0.77733953898E+01  0.10258236948E+02  0.51100000000E-03 0. -1.
        -11    1    3    3    0    0 -0.15592211701E+02 -0.36370799047E+02  0.22392923736E+01  0.39635420014E+02  0.51100000000E-03 0.  1.
         12    1    3    3    0    0  0.86375198762E+01  0.38893067820E+02  0.46767424087E+01  0.40114204387E+02  0.00000000000E+00 0. -1.
</event>
<event>
 7    1  0.3505640E-015  0.9000877E+02  0.7816164E-02  0.1186337E+00
        -11   -1    0    0    0    0  0.00000000000E+00  0.00000000000E+00  0.45593999997E+02  0.45594000000E+02  0.51100000000E-03 0. -1.
         11   -1    0    0    0    0 -0.00000000000E+00 -0.00000000000E+00 -0.45593999997E+02  0.45594000000E+02  0.51100000000E-03 0.  1.
    9900012    2    1    2    0    0 -0.90211767803E+00  0.75886646449E+00 -0.29855832132E-01  0.90008768900E+02  0.90001043844E+02 0.  0.
        -12    1    1    2    0    0  0.90211767803E+00 -0.75886646449E+00  0.29855832132E-01  0.11792310998E+01  0.00000000000E+00 0.  1.
         11    1    3    3    0    0 -0.29028385538E+01  0.52166836887E+01  0.73811476640E+01  0.94932397777E+01  0.51100000000E-03 0. -1.
        -11    1    3    3    0    0  0.40147761979E+02  0.59414573409E+01 -0.23380777230E+01  0.40652310081E+02  0.51100000000E-03 0.  1.
         12    1    3    3    0    0 -0.38147041103E+02 -0.10399274565E+02 -0.50729257732E+01  0.39863219041E+02  0.00000000000E+00 0. -1.
</event>
<event>
 7    1  0.3505640E-015  0.9000776E+02  0.7816164E-02  0.1186339E+00
        -11   -1    0    0    0    0  0.00000000000E+00  0.00000000000E+00  0.45593999997E+02  0.45594000000E+02  0.51100000000E-03 0.  1.
         11   -1    0    0    0    0 -0.00000000000E+00 -0.00000000000E+00 -0.45593999997E+02  0.45594000000E+02  0.51100000000E-03 0. -1.
    9900012    2    1    2    0    0 -0.32126827740E+00 -0.78761537649E+00 -0.81817191916E+00  0.90007764186E+02  0.90000025873E+02 0.  0.
        -12    1    1    2    0    0  0.32126827740E+00  0.78761537649E+00  0.81817191916E+00  0.11802358140E+01  0.00000000000E+00 0.  1.
         11    1    3    3    0    0  0.25156706598E+02 -0.15095532670E+02 -0.17702439316E+02  0.34265308279E+02  0.51100000000E-03 0. -1.
        -11    1    3    3    0    0  0.96859064302E+01 -0.24528183094E+01 -0.48810533730E+01  0.11120152127E+02  0.51100000000E-03 0.  1.
        -12    1    3    3    0    0 -0.35163881306E+02  0.16760735602E+02  0.21765320770E+02  0.44622303780E+02  0.00000000000E+00 0.  1.
</event>
<event>
 7    1  0.3505640E-015  0.9000763E+02  0.7816164E-02  0.1186339E+00
        -11   -1    0    0    0    0  0.00000000000E+00  0.00000000000E+00  0.45593999997E+02  0.45594000000E+02  0.51100000000E-03 0.  1.
         11   -1    0    0    0    0 -0.00000000000E+00 -0.00000000000E+00 -0.45593999997E+02  0.45594000000E+02  0.51100000000E-03 0. -1.
    9900012    2    1    2    0    0 -0.96467398746E+00  0.65020570742E+00 -0.19977498760E+00  0.90007629969E+02  0.89999889885E+02 0.  0.
        -12    1    1    2    0    0  0.96467398746E+00 -0.65020570742E+00  0.19977498760E+00  0.11803700308E+01  0.00000000000E+00 0.  1.
         11    1    3    3    0    0 -0.17752292581E+02  0.16873473884E+02 -0.28551449337E+02  0.37617060921E+02  0.51100000000E-03 0. -1.
        -11    1    3    3    0    0  0.14538537263E+02  0.83307926347E+01  0.29942261522E+01  0.17021649807E+02  0.51100000000E-03 0.  1.
        -12    1    3    3    0    0  0.22490813312E+01 -0.24554060811E+02  0.25357448198E+02  0.35368919241E+02  0.00000000000E+00 0.  1.
</event>
<event>
 7    1  0.3505640E-015  0.9000786E+02  0.7816164E-02  0.1186339E+00
        -11   -1    0    0    0    0  0.00000000000E+00  0.00000000000E+00  0.45593999997E+02  0.45594000000E+02  0.51100000000E-03 0.  1.
         11   -1    0    0    0    0 -0.00000000000E+00 -0.00000000000E+00 -0.45593999997E+02  0.45594000000E+02  0.51100000000E-03 0. -1.
    9900012    2    1    2    0    0 -0.10262783617E+01 -0.12404112410E+00  0.56929567285E+00  0.90007859737E+02  0.90000122686E+02 0.  0.
        -12    1    1    2    0    0  0.10262783617E+01  0.12404112410E+00 -0.56929567285E+00  0.11801402625E+01  0.00000000000E+00 0.  1.
         11    1    3    3    0    0  0.20611662076E+02  0.14221166843E+02 -0.30380481620E+02  0.39370748832E+02  0.51100000000E-03 0. -1.
        -11    1    3    3    0    0  0.72852183157E+01  0.15773066859E+00  0.88039070434E+01  0.11428388529E+02  0.51100000000E-03 0.  1.
        -12    1    3    3    0    0 -0.28923158753E+02 -0.14502938635E+02  0.22145870249E+02  0.39208722377E+02  0.00000000000E+00 0.  1.
</event>
<event>
 7    1  0.3505640E-015  0.9000762E+02  0.7816164E-02  0.1186339E+00
        -11   -1    0    0    0    0  0.00000000000E+00  0.00000000000E+00  0.45593999997E+02  0.45594000000E+02  0.51100000000E-03 0. -1.
         11   -1    0    0    0    0 -0.00000000000E+00 -0.00000000000E+00 -0.45593999997E+02  0.45594000000E+02  0.51100000000E-03 0.  1.
    9900012    2    1    2    0    0  0.11139680253E+01 -0.19589778915E-01 -0.38985784367E+00  0.90007619697E+02  0.89999879477E+02 0.  0.
        -12    1    1    2    0    0 -0.11139680253E+01  0.19589778915E-01  0.38985784367E+00  0.11803803027E+01  0.00000000000E+00 0.  1.
         11    1    3    3    0    0  0.23835925773E+02 -0.23481310359E+02  0.17239736022E+02  0.37639497765E+02  0.51100000000E-03 0. -1.
        -11    1    3    3    0    0 -0.34333466381E+01 -0.39620994303E+01  0.84139397932E+01  0.99136514029E+01  0.51100000000E-03 0.  1.
        -12    1    3    3    0    0 -0.19288611110E+02  0.27423820010E+02 -0.26043533659E+02  0.42454470529E+02  0.00000000000E+00 0.  1.
</event>
<event>
 7    1  0.3505640E-015  0.9000755E+02  0.7816164E-02  0.1186339E+00
        -11   -1    0    0    0    0  0.00000000000E+00  0.00000000000E+00  0.45593999997E+02  0.45594000000E+02  0.51100000000E-03 0. -1.
         11   -1    0    0    0    0 -0.00000000000E+00 -0.00000000000E+00 -0.45593999997E+02  0.45594000000E+02  0.51100000000E-03 0.  1.
    9900012    2    1    2    0    0 -0.82429321480E+00 -0.82158520898E+00  0.19750953333E+00  0.90007546030E+02  0.89999804837E+02 0.  0.
        -12    1    1    2    0    0  0.82429321480E+00  0.82158520898E+00 -0.19750953333E+00  0.11804539700E+01  0.00000000000E+00 0.  1.
         11    1    3    3    0    0  0.32624329705E+01 -0.27145349974E+02  0.72784440545E+01  0.28292918588E+02  0.51100000000E-03 0. -1.
        -11    1    3    3    0    0  0.15686378650E+02 -0.73447107775E+01 -0.13735906449E+02  0.22106161535E+02  0.51100000000E-03 0.  1.
         12    1    3    3    0    0 -0.19773104836E+02  0.33668475543E+02  0.66549719275E+01  0.39608465908E+02  0.00000000000E+00 0. -1.
</event>
<event>
 7    1  0.3505640E-015  0.9000772E+02  0.7816164E-02  0.1186339E+00
        -11   -1    0    0    0    0  0.00000000000E+00  0.00000000000E+00  0.45593999997E+02  0.45594000000E+02  0.51100000000E-03 0.  1.
         11   -1    0    0    0    0 -0.00000000000E+00 -0.00000000000E+00 -0.45593999997E+02  0.45594000000E+02  0.51100000000E-03 0. -1.
    9900012    2    1    2    0    0  0.38664784868E+00 -0.69054289933E-01 -0.11130106977E+01  0.90007721276E+02  0.89999982397E+02 0.  0.
        -12    1    1    2    0    0 -0.38664784868E+00  0.69054289933E-01  0.11130106977E+01  0.11802787243E+01  0.00000000000E+00 0.  1.
         11    1    3    3    0    0  0.44998128697E+01 -0.33993689846E+02 -0.15154642799E+02  0.37489764788E+02  0.51100000000E-03 0. -1.
        -11    1    3    3    0    0 -0.78807362505E+00 -0.81708070904E+01  0.39128538847E+01  0.90936007352E+01  0.51100000000E-03 0.  1.
        -12    1    3    3    0    0 -0.33250913960E+01  0.42095442646E+02  0.10128778217E+02  0.43424355753E+02  0.00000000000E+00 0.  1.
</event>
<event>
 7    1  0.3505640E-015  0.9000771E+02  0.7816164E-02  0.1186339E+00
        -11   -1    0    0    0    0  0.00000000000E+00  0.00000000000E+00  0.45593999997E+02  0.45594000000E+02  0.51100000000E-03 0. -1.
         11   -1    0    0    0    0 -0.00000000000E+00 -0.00000000000E+00 -0.45593999997E+02  0.45594000000E+02  0.51100000000E-03 0.  1.
    9900012    2    1    2    0    0  0.18565695278E+00  0.10420644107E+01  0.52223428747E+00  0.90007705380E+02  0.89999966291E+02 0.  0.
        -12    1    1    2    0    0 -0.18565695278E+00 -0.10420644107E+01 -0.52223428747E+00  0.11802946205E+01  0.00000000000E+00 0.  1.
         11    1    3    3    0    0 -0.36900483374E+02  0.17908732540E+02  0.73776194414E+01  0.41674904239E+02  0.51100000000E-03 0. -1.
        -11    1    3    3    0    0  0.18726142208E+01 -0.77376694823E+01  0.57638793347E+01  0.98285562665E+01  0.51100000000E-03 0.  1.
        -12    1    3    3    0    0  0.35213526106E+02 -0.91289986468E+01 -0.12619264489E+02  0.38504244874E+02  0.00000000000E+00 0.  1.
</event>
<event>
 7    1  0.3505640E-015  0.9000802E+02  0.7816164E-02  0.1186338E+00
        -11   -1    0    0    0    0  0.00000000000E+00  0.00000000000E+00  0.45593999997E+02  0.45594000000E+02  0.51100000000E-03 0.  1.
         11   -1    0    0    0    0 -0.00000000000E+00 -0.00000000000E+00 -0.45593999997E+02  0.45594000000E+02  0.51100000000E-03 0. -1.
    9900012    2    1    2    0    0  0.10645871124E+01 -0.36904516791E+00  0.35045307579E+00  0.90008018045E+02  0.90000283083E+02 0.  0.
        -12    1    1    2    0    0 -0.10645871124E+01  0.36904516791E+00 -0.35045307579E+00  0.11799819551E+01  0.00000000000E+00 0.  1.
         11    1    3    3    0    0 -0.69488854682E+01  0.29966224495E+02 -0.21316758176E+02  0.37425469925E+02  0.51100000000E-03 0. -1.
        -11    1    3    3    0    0 -0.76973871939E+01 -0.10297323348E+01  0.17405352026E+02  0.19059286390E+02  0.51100000000E-03 0.  1.
        -12    1    3    3    0    0  0.15710859775E+02 -0.29305537328E+02  0.42618592261E+01  0.33523261730E+02  0.00000000000E+00 0.  1.
</event>
<event>
 7    1  0.3505640E-015  0.9000765E+02  0.7816164E-02  0.1186339E+00
        -11   -1    0    0    0    0  0.00000000000E+00  0.00000000000E+00  0.45593999997E+02  0.45594000000E+02  0.51100000000E-03 0. -1.
         11   -1    0    0    0    0 -0.00000000000E+00 -0.00000000000E+00 -0.45593999997E+02  0.45594000000E+02  0.51100000000E-03 0.  1.
    9900012    2    1    2    0    0  0.21979529433E+00  0.10933902096E+01  0.38655188496E+00  0.90007646459E+02  0.89999906592E+02 0.  0.
        -12    1    1    2    0    0 -0.21979529433E+00 -0.10933902096E+01 -0.38655188496E+00  0.11803535409E+01  0.00000000000E+00 0.  1.
         11    1    3    3    0    0 -0.50445297644E+01 -0.57390291624E+01 -0.53382233960E+01  0.93209637676E+01  0.51100000000E-03 0. -1.
        -11    1    3    3    0    0  0.15158906510E+02  0.14225422610E+02 -0.33576079843E+02  0.39490609427E+02  0.51100000000E-03 0.  1.
         12    1    3    3    0    0 -0.98945814511E+01 -0.73930032380E+01  0.39300855124E+02  0.41196073265E+02  0.00000000000E+00 0. -1.
</event>
<event>
 7    1  0.3505640E-015  0.9000762E+02  0.7816164E-02  0.1186339E+00
        -11   -1    0    0    0    0  0.00000000000E+00  0.00000000000E+00  0.45593999997E+02  0.45594000000E+02  0.51100000000E-03 0. -1.
         11   -1    0    0    0    0 -0.00000000000E+00 -0.00000000000E+00 -0.45593999997E+02  0.45594000000E+02  0.51100000000E-03 0.  1.
    9900012    2    1    2    0    0  0.62795837079E+00 -0.67831628411E-02  0.99946381844E+00  0.90007616312E+02  0.89999876047E+02 0.  0.
        -12    1    1    2    0    0 -0.62795837079E+00  0.67831628411E-02 -0.99946381844E+00  0.11803836881E+01  0.00000000000E+00 0.  1.
         11    1    3    3    0    0 -0.20765512420E+02 -0.94238675458E+01  0.22846769469E+02  0.32279880127E+02  0.51100000000E-03 0. -1.
        -11    1    3    3    0    0  0.13271536486E+02 -0.16469366837E+02  0.24689987369E+01  0.21294827535E+02  0.51100000000E-03 0.  1.
        -12    1    3    3    0    0  0.81219343052E+01  0.25886451220E+02 -0.24316304387E+02  0.36432908650E+02  0.00000000000E+00 0.  1.
</event>
<event>
 7    1  0.3505640E-015  0.9000773E+02  0.7816164E-02  0.1186339E+00
        -11   -1    0    0    0    0  0.00000000000E+00  0.00000000000E+00  0.45593999997E+02  0.45594000000E+02  0.51100000000E-03 0.  1.
         11   -1    0    0    0    0 -0.00000000000E+00 -0.00000000000E+00 -0.45593999997E+02  0.45594000000E+02  0.51100000000E-03 0. -1.
    9900012    2    1    2    0    0 -0.31576393568E+00 -0.10152617772E+01 -0.51241362595E+00  0.90007732631E+02  0.89999993901E+02 0.  0.
        -12    1    1    2    0    0  0.31576393568E+00  0.10152617772E+01  0.51241362595E+00  0.11802673695E+01  0.00000000000E+00 0.  1.
         11    1    3    3    0    0 -0.53610410051E+01  0.11075774499E+01 -0.95953116553E+01  0.11047058183E+02  0.51100000000E-03 0. -1.
        -11    1    3    3    0    0  0.38329863674E+02  0.73839376853E+01  0.18340354250E+02  0.43128523963E+02  0.51100000000E-03 0.  1.
         12    1    3    3    0    0 -0.33284586604E+02 -0.95067769125E+01 -0.92574562205E+01  0.35832150485E+02  0.00000000000E+00 0. -1.
</event>
<event>
 7    1  0.3505640E-015  0.9000772E+02  0.7816164E-02  0.1186339E+00
        -11   -1    0    0    0    0  0.00000000000E+00  0.00000000000E+00  0.45593999997E+02  0.45594000000E+02  0.51100000000E-03 0.  1.
         11   -1    0    0    0    0 -0.00000000000E+00 -0.00000000000E+00 -0.45593999997E+02  0.45594000000E+02  0.51100000000E-03 0. -1.
    9900012    2    1    2    0    0 -0.40083362223E+00  0.11594351863E+00 -0.11040605973E+01  0.90007720247E+02  0.89999981355E+02 0.  0.
        -12    1    1    2    0    0  0.40083362223E+00 -0.11594351863E+00  0.11040605973E+01  0.11802797527E+01  0.00000000000E+00 0.  1.
         11    1    3    3    0    0  0.14294255385E+02 -0.52443157662E+01  0.66491513379E+01  0.16614445481E+02  0.51100000000E-03 0. -1.
        -11    1    3    3    0    0  0.28143252303E+02  0.99017907878E+01 -0.47523270198E+01  0.30210473736E+02  0.51100000000E-03 0.  1.
         12    1    3    3    0    0 -0.42838341310E+02 -0.45415315029E+01 -0.30008849154E+01  0.43182801031E+02  0.00000000000E+00 0. -1.
</event>
<event>
 7    1  0.3505640E-015  0.9000784E+02  0.7816164E-02  0.1186339E+00
        -11   -1    0    0    0    0  0.00000000000E+00  0.00000000000E+00  0.45593999997E+02  0.45594000000E+02  0.51100000000E-03 0. -1.
         11   -1    0    0    0    0 -0.00000000000E+00 -0.00000000000E+00 -0.45593999997E+02  0.45594000000E+02  0.51100000000E-03 0.  1.
    9900012    2    1    2    0    0 -0.92401571843E+00 -0.16383516251E+00  0.71563116933E+00  0.90007841121E+02  0.90000103824E+02 0.  0.
        -12    1    1    2    0    0  0.92401571843E+00  0.16383516251E+00 -0.71563116933E+00  0.11801588787E+01  0.00000000000E+00 0.  1.
         11    1    3    3    0    0  0.22026804226E+01  0.22351149743E+00 -0.93294526824E+01  0.95885580797E+01  0.51100000000E-03 0. -1.
        -11    1    3    3    0    0  0.14149976694E+02 -0.19417737868E+02 -0.26480907293E+02  0.35756241912E+02  0.51100000000E-03 0.  1.
         12    1    3    3    0    0 -0.17276672835E+02  0.19030391208E+02  0.36525991145E+02  0.44663041129E+02  0.00000000000E+00 0. -1.
</event>
<event>
 7    1  0.3505640E-015  0.9000772E+02  0.7816164E-02  0.1186339E+00
        -11   -1    0    0    0    0  0.00000000000E+00  0.00000000000E+00  0.45593999997E+02  0.45594000000E+02  0.51100000000E-03 0.  1.
         11   -1    0    0    0    0 -0.00000000000E+00 -0.00000000000E+00 -0.45593999997E+02  0.45594000000E+02  0.51100000000E-03 0. -1.
    9900012    2    1    2    0    0  0.30337167571E+00  0.53247539010E+00 -0.10087058821E+01  0.90007723773E+02  0.89999984927E+02 0.  0.
        -12    1    1    2    0    0 -0.30337167571E+00 -0.53247539010E+00  0.10087058821E+01  0.11802762267E+01  0.00000000000E+00 0.  1.
         11    1    3    3    0    0  0.96043896601E+01  0.24567398450E+01 -0.37868397994E+00  0.99208504286E+01  0.51100000000E-03 0. -1.
        -11    1    3    3    0    0 -0.27845452696E+02 -0.11202055182E+02  0.30429780441E+02  0.42741394620E+02  0.51100000000E-03 0.  1.
         12    1    3    3    0    0  0.18544434711E+02  0.92777907273E+01 -0.31059802343E+02  0.37345478724E+02  0.00000000000E+00 0. -1.
</event>
<event>
 7    1  0.3505640E-015  0.9000776E+02  0.7816164E-02  0.1186339E+00
        -11   -1    0    0    0    0  0.00000000000E+00  0.00000000000E+00  0.45593999997E+02  0.45594000000E+02  0.51100000000E-03 0.  1.
         11   -1    0    0    0    0 -0.00000000000E+00 -0.00000000000E+00 -0.45593999997E+02  0.45594000000E+02  0.51100000000E-03 0. -1.
    9900012    2    1    2    0    0  0.84446296187E+00 -0.78390040216E+00  0.25562083110E+00  0.90007762929E+02  0.90000024600E+02 0.  0.
        -12    1    1    2    0    0 -0.84446296187E+00  0.78390040216E+00 -0.25562083110E+00  0.11802370710E+01  0.00000000000E+00 0.  1.
         11    1    3    3    0    0 -0.70405742443E+01 -0.22247353571E+01  0.60688924671E+01  0.95577502131E+01  0.51100000000E-03 0. -1.
        -11    1    3    3    0    0  0.31120602052E+02 -0.18885451262E+02  0.18797185619E+02  0.40969334006E+02  0.51100000000E-03 0.  1.
         12    1    3    3    0    0 -0.23235564846E+02  0.20326286217E+02 -0.24610457255E+02  0.39480678710E+02  0.00000000000E+00 0. -1.
</event>
<event>
 7    1  0.3505640E-015  0.9000773E+02  0.7816164E-02  0.1186339E+00
        -11   -1    0    0    0    0  0.00000000000E+00  0.00000000000E+00  0.45593999997E+02  0.45594000000E+02  0.51100000000E-03 0.  1.
         11   -1    0    0    0    0 -0.00000000000E+00 -0.00000000000E+00 -0.45593999997E+02  0.45594000000E+02  0.51100000000E-03 0. -1.
    9900012    2    1    2    0    0 -0.73751361060E+00  0.76389667966E+00  0.51533701428E+00  0.90007730242E+02  0.89999991481E+02 0.  0.
        -12    1    1    2    0    0  0.73751361060E+00 -0.76389667966E+00 -0.51533701428E+00  0.11802697579E+01  0.00000000000E+00 0.  1.
         11    1    3    3    0    0 -0.90693288148E+00 -0.43022577079E+01 -0.73799563038E+01  0.85904425930E+01  0.51100000000E-03 0. -1.
        -11    1    3    3    0    0 -0.32891137035E+02  0.59787796297E+01 -0.19297828804E+02  0.38600244794E+02  0.51100000000E-03 0.  1.
         12    1    3    3    0    0  0.33060556306E+02 -0.91262524212E+00  0.27193122122E+02  0.42817042855E+02  0.00000000000E+00 0. -1.
</event>
<event>
 7    1  0.3505640E-015  0.9000769E+02  0.7816164E-02  0.1186339E+00
        -11   -1    0    0    0    0  0.00000000000E+00  0.00000000000E+00  0.45593999997E+02  0.45594000000E+02  0.51100000000E-03 0.  1.
         11   -1    0    0    0    0 -0.00000000000E+00 -0.00000000000E+00 -0.45593999997E+02  0.45594000000E+02  0.51100000000E-03 0. -1.
    9900012    2    1    2    0    0  0.60895328658E+00  0.99220965590E+00 -0.19451252586E+00  0.90007686809E+02  0.89999947475E+02 0.  0.
        -12    1    1    2    0    0 -0.60895328658E+00 -0.99220965590E+00  0.19451252586E+00  0.11803131912E+01  0.00000000000E+00 0.  1.
         11    1    3    3    0    0 -0.25577458577E+02  0.17825529957E+02 -0.17093785066E+02  0.35554934871E+02  0.51100000000E-03 0. -1.
        -11    1    3    3    0    0 -0.84579751757E+01  0.54016654142E+01  0.22529638349E+00  0.10038231520E+02  0.51100000000E-03 0.  1.
        -12    1    3    3    0    0  0.34644387040E+02 -0.22234985715E+02  0.16673976157E+02  0.44414520418E+02  0.00000000000E+00 0.  1.
</event>
<event>
 7    1  0.3505640E-015  0.9000771E+02  0.7816164E-02  0.1186339E+00
        -11   -1    0    0    0    0  0.00000000000E+00  0.00000000000E+00  0.45593999997E+02  0.45594000000E+02  0.51100000000E-03 0. -1.
         11   -1    0    0    0    0 -0.00000000000E+00 -0.00000000000E+00 -0.45593999997E+02  0.45594000000E+02  0.51100000000E-03 0.  1.
    9900012    2    1    2    0    0  0.96233077357E+00  0.19466669604E+00  0.65505964286E+00  0.90007712418E+02  0.89999973422E+02 0.  0.
        -12    1    1    2    0    0 -0.96233077357E+00 -0.19466669604E+00 -0.65505964286E+00  0.11802875819E+01  0.00000000000E+00 0.  1.
         11    1    3    3    0    0 -0.26456727300E+02  0.18634341789E+02  0.13500397264E+02  0.35063625595E+02  0.51100000000E-03 0. -1.
        -11    1    3    3    0    0 -0.88839206352E+01  0.48731331272E+01 -0.87496992183E+00  0.10170400432E+02  0.51100000000E-03 0.  1.
        -12    1    3    3    0    0  0.36302978708E+02 -0.23312808220E+02 -0.11970367699E+02  0.44773686391E+02  0.00000000000E+00 0.  1.
</event>
<event>
 7    1  0.3505640E-015  0.9000783E+02  0.7816164E-02  0.1186339E+00
        -11   -1    0    0    0    0  0.00000000000E+00  0.00000000000E+00  0.45593999997E+02  0.45594000000E+02  0.51100000000E-03 0.  1.
         11   -1    0    0    0    0 -0.00000000000E+00 -0.00000000000E+00 -0.45593999997E+02  0.45594000000E+02  0.51100000000E-03 0. -1.
    9900012    2    1    2    0    0  0.10115933279E+01  0.20567248408E+00 -0.57198703443E+00  0.90007834165E+02  0.90000096775E+02 0.  0.
        -12    1    1    2    0    0 -0.10115933279E+01 -0.20567248408E+00  0.57198703443E+00  0.11801658355E+01  0.00000000000E+00 0.  1.
         11    1    3    3    0    0  0.10106386535E+02  0.37340354573E+02 -0.17847768940E+02  0.42602628849E+02  0.51100000000E-03 0. -1.
        -11    1    3    3    0    0  0.34794874243E+01 -0.85909066851E+01 -0.35231539349E+01  0.99158017486E+01  0.51100000000E-03 0.  1.
        -12    1    3    3    0    0 -0.12574280631E+02 -0.28543775404E+02  0.20798935841E+02  0.37489403567E+02  0.00000000000E+00 0.  1.
</event>
<event>
 7    1  0.3505640E-015  0.9000772E+02  0.7816164E-02  0.1186339E+00
        -11   -1    0    0    0    0  0.00000000000E+00  0.00000000000E+00  0.45593999997E+02  0.45594000000E+02  0.51100000000E-03 0. -1.
         11   -1    0    0    0    0 -0.00000000000E+00 -0.00000000000E+00 -0.45593999997E+02  0.45594000000E+02  0.51100000000E-03 0.  1.
    9900012    2    1    2    0    0  0.10809110622E+01 -0.40836489247E+00  0.24069321033E+00  0.90007718749E+02  0.89999979837E+02 0.  0.
        -12    1    1    2    0    0 -0.10809110622E+01  0.40836489247E+00 -0.24069321033E+00  0.11802812509E+01  0.00000000000E+00 0.  1.
         11    1    3    3    0    0 -0.25871760141E+01 -0.47889117250E+01  0.34900101762E+02  0.35322008132E+02  0.51100000000E-03 0. -1.
        -11    1    3    3    0    0  0.23682082215E+01  0.17093987594E+01  0.97494856877E+01  0.10177569736E+02  0.51100000000E-03 0.  1.
        -12    1    3    3    0    0  0.12998788548E+01  0.26711480731E+01 -0.44408894239E+02  0.44508140881E+02  0.00000000000E+00 0.  1.
</event>
<event>
 7    1  0.3505640E-015  0.9000776E+02  0.7816164E-02  0.1186339E+00
        -11   -1    0    0    0    0  0.00000000000E+00  0.00000000000E+00  0.45593999997E+02  0.45594000000E+02  0.51100000000E-03 0. -1.
         11   -1    0    0    0    0 -0.00000000000E+00 -0.00000000000E+00 -0.45593999997E+02  0.45594000000E+02  0.51100000000E-03 0.  1.
    9900012    2    1    2    0    0 -0.40745219565E+00 -0.16407048607E+00  0.10954624696E+01  0.90007756619E+02  0.90000018206E+02 0.  0.
        -12    1    1    2    0    0  0.40745219565E+00  0.16407048607E+00 -0.10954624696E+01  0.11802433810E+01  0.00000000000E+00 0.  1.
         11    1    3    3    0    0  0.28955757920E+02 -0.64237716728E+00 -0.26713622186E+02  0.39401347384E+02  0.51100000000E-03 0. -1.
        -11    1    3    3    0    0  0.46754589768E+01  0.59769607607E+01  0.31505689262E+01  0.82164506570E+01  0.51100000000E-03 0.  1.
        -12    1    3    3    0    0 -0.34038669092E+02 -0.54986540795E+01  0.24658515730E+02  0.42389958578E+02  0.00000000000E+00 0.  1.
</event>
<event>
 7    1  0.3505640E-015  0.9000774E+02  0.7816164E-02  0.1186339E+00
        -11   -1    0    0    0    0  0.00000000000E+00  0.00000000000E+00  0.45593999997E+02  0.45594000000E+02  0.51100000000E-03 0.  1.
         11   -1    0    0    0    0 -0.00000000000E+00 -0.00000000000E+00 -0.45593999997E+02  0.45594000000E+02  0.51100000000E-03 0. -1.
    9900012    2    1    2    0    0 -0.66940580867E+00 -0.32114918270E+00 -0.91747621730E+00  0.90007744289E+02  0.90000005714E+02 0.  0.
        -12    1    1    2    0    0  0.66940580867E+00  0.32114918270E+00  0.91747621730E+00  0.11802557111E+01  0.00000000000E+00 0.  1.
         11    1    3    3    0    0  0.35744371538E+01  0.65620025364E+01  0.52702521381E+01  0.91439617297E+01  0.51100000000E-03 0. -1.
        -11    1    3    3    0    0  0.32815628216E+02  0.16492225693E+02 -0.46623945302E+01  0.37021573258E+02  0.51100000000E-03 0.  1.
         12    1    3    3    0    0 -0.37059471178E+02 -0.23375377412E+02 -0.15253338251E+01  0.43842209301E+02  0.00000000000E+00 0. -1.
</event>
<event>
 7    1  0.3505640E-015  0.9000775E+02  0.7816164E-02  0.1186339E+00
        -11   -1    0    0    0    0  0.00000000000E+00  0.00000000000E+00  0.45593999997E+02  0.45594000000E+02  0.51100000000E-03 0.  1.
         11   -1    0    0    0    0 -0.00000000000E+00 -0.00000000000E+00 -0.45593999997E+02  0.45594000000E+02  0.51100000000E-03 0. -1.
    9900012    2    1    2    0    0 -0.20093398383E+00  0.10555755233E+01  0.48823872056E+00  0.90007749518E+02  0.90000011012E+02 0.  0.
        -12    1    1    2    0    0  0.20093398383E+00 -0.10555755233E+01 -0.48823872056E+00  0.11802504817E+01  0.00000000000E+00 0.  1.
         11    1    3    3    0    0  0.10744756535E+02  0.87218213953E+01  0.79241499510E+01  0.15947166336E+02  0.51100000000E-03 0. -1.
        -11    1    3    3    0    0 -0.40497718016E+02 -0.19480923837E+00  0.56464517605E+01  0.40889919698E+02  0.51100000000E-03 0.  1.
         12    1    3    3    0    0  0.29552027498E+02 -0.74714366336E+01 -0.13082362991E+02  0.33170663485E+02  0.00000000000E+00 0. -1.
</event>
<event>
 7    1  0.3505640E-015  0.9000773E+02  0.7816164E-02  0.1186339E+00
        -11   -1    0    0    0    0  0.00000000000E+00  0.00000000000E+00  0.45593999997E+02  0.45594000000E+02  0.51100000000E-03 0. -1.
         11   -1    0    0    0    0 -0.00000000000E+00 -0.00000000000E+00 -0.45593999997E+02  0.45594000000E+02  0.51100000000E-03 0.  1.
    9900012    2    1    2    0    0  0.27961342142E-01 -0.23549965627E+00  0.11562017210E+01  0.90007727004E+02  0.89999988201E+02 0.  0.
        -12    1    1    2    0    0 -0.27961342142E-01  0.23549965627E+00 -0.11562017210E+01  0.11802729957E+01  0.00000000000E+00 0.  1.
         11    1    3    3    0    0  0.30913699899E+02 -0.26214316976E+01  0.15739352504E+02  0.34788733278E+02  0.51100000000E-03 0. -1.
        -11    1    3    3    0    0  0.19407655362E+01 -0.87900126534E+01  0.94321327256E+01  0.13038252234E+02  0.51100000000E-03 0.  1.
        -12    1    3    3    0    0 -0.32826504093E+02  0.11175944695E+02 -0.24015283509E+02  0.42180741492E+02  0.00000000000E+00 0.  1.
</event>
<event>
 7    1  0.3505640E-015  0.9000770E+02  0.7816164E-02  0.1186339E+00
        -11   -1    0    0    0    0  0.00000000000E+00  0.00000000000E+00  0.45593999997E+02  0.45594000000E+02  0.51100000000E-03 0.  1.
         11   -1    0    0    0    0 -0.00000000000E+00 -0.00000000000E+00 -0.45593999997E+02  0.45594000000E+02  0.51100000000E-03 0. -1.
    9900012    2    1    2    0    0  0.60954802798E+00  0.92607251964E+00 -0.40489227327E+00  0.90007704756E+02  0.89999965659E+02 0.  0.
        -12    1    1    2    0    0 -0.60954802798E+00 -0.92607251964E+00  0.40489227327E+00  0.11802952440E+01  0.00000000000E+00 0.  1.
         11    1    3    3    0    0 -0.37639902041E+01 -0.32765412868E+02 -0.20114179917E+02  0.38630559622E+02  0.51100000000E-03 0. -1.
        -11    1    3    3    0    0  0.99600353057E+01 -0.16744718511E+00 -0.27870336218E+01  0.10343978853E+02  0.51100000000E-03 0.  1.
        -12    1    3    3    0    0 -0.55864970736E+01  0.33858932573E+02  0.22496321266E+02  0.41033166281E+02  0.00000000000E+00 0.  1.
</event>
<event>
 7    1  0.4114633E-015  0.9000781E+02  0.7816164E-02  0.1186339E+00
        -11   -1    0    0    0    0  0.00000000000E+00  0.00000000000E+00  0.45593999997E+02  0.45594000000E+02  0.51100000000E-03 0. -1.
         11   -1    0    0    0    0 -0.00000000000E+00 -0.00000000000E+00 -0.45593999997E+02  0.45594000000E+02  0.51100000000E-03 0.  1.
    9900012    2    1    2    0    0  0.70314688695E+00 -0.88141458284E+00  0.34863652599E+00  0.90007807372E+02  0.90000069629E+02 0.  0.
        -12    1    1    2    0    0 -0.70314688695E+00  0.88141458284E+00 -0.34863652599E+00  0.11801926278E+01  0.00000000000E+00 0.  1.
         11    1    3    3    0    0 -0.43264277293E+01 -0.47568390419E+01 -0.67937654701E+01  0.93541832402E+01  0.51100000000E-03 0. -1.
        -11    1    3    3    0    0 -0.35095344767E+02  0.66522916821E+01 -0.97536810256E+01  0.37027969196E+02  0.51100000000E-03 0.  1.
         12    1    3    3    0    0  0.40124919384E+02 -0.27768672230E+01  0.16896083022E+02  0.43625654936E+02  0.00000000000E+00 0. -1.
</event>
<event>
 7    1  0.3505640E-015  0.9000774E+02  0.7816164E-02  0.1186339E+00
        -11   -1    0    0    0    0  0.00000000000E+00  0.00000000000E+00  0.45593999997E+02  0.45594000000E+02  0.51100000000E-03 0. -1.
         11   -1    0    0    0    0 -0.00000000000E+00 -0.00000000000E+00 -0.45593999997E+02  0.45594000000E+02  0.51100000000E-03 0.  1.
    9900012    2    1    2    0    0 -0.87125270664E+00 -0.64168894273E+00  0.47135187812E+00  0.90007737923E+02  0.89999999263E+02 0.  0.
        -12    1    1    2    0    0  0.87125270664E+00  0.64168894273E+00 -0.47135187812E+00  0.11802620773E+01  0.00000000000E+00 0.  1.
         11    1    3    3    0    0  0.11432216586E+02  0.11797802167E+02  0.38228008892E+01  0.16867054246E+02  0.51100000000E-03 0. -1.
        -11    1    3    3    0    0  0.29817455109E+02 -0.51013653137E+01  0.43845794939E-01  0.30250726933E+02  0.51100000000E-03 0.  1.
         12    1    3    3    0    0 -0.42120924402E+02 -0.73381257960E+01 -0.33952948060E+01  0.42889956744E+02  0.00000000000E+00 0. -1.
</event>
<event>
 7    1  0.3505640E-015  0.9000767E+02  0.7816164E-02  0.1186339E+00
        -11   -1    0    0    0    0  0.00000000000E+00  0.00000000000E+00  0.45593999997E+02  0.45594000000E+02  0.51100000000E-03 0.  1.
         11   -1    0    0    0    0 -0.00000000000E+00 -0.00000000000E+00 -0.45593999997E+02  0.45594000000E+02  0.51100000000E-03 0. -1.
    9900012    2    1    2    0    0 -0.11753048941E+01 -0.10826565304E+00 -0.11141731937E-01  0.90007666495E+02  0.89999926892E+02 0.  0.
        -12    1    1    2    0    0  0.11753048941E+01  0.10826565304E+00  0.11141731937E-01  0.11803335054E+01  0.00000000000E+00 0.  1.
         11    1    3    3    0    0 -0.29166598937E+01 -0.83808994303E+01 -0.34218876754E+01  0.95108199289E+01  0.51100000000E-03 0. -1.
        -11    1    3    3    0    0  0.30510922149E+02  0.93664439299E+01  0.28135377648E+02  0.42546987178E+02  0.51100000000E-03 0.  1.
         12    1    3    3    0    0 -0.28769567149E+02 -0.10938101527E+01 -0.24724631705E+02  0.37949859388E+02  0.00000000000E+00 0. -1.
</event>
<event>
 7    1  0.3505640E-015  0.9000761E+02  0.7816164E-02  0.1186339E+00
        -11   -1    0    0    0    0  0.00000000000E+00  0.00000000000E+00  0.45593999997E+02  0.45594000000E+02  0.51100000000E-03 0.  1.
         11   -1    0    0    0    0 -0.00000000000E+00 -0.00000000000E+00 -0.45593999997E+02  0.45594000000E+02  0.51100000000E-03 0. -1.
    9900012    2    1    2    0    0 -0.72037708816E-01 -0.81573618648E+00 -0.85011844601E+00  0.90007611789E+02  0.89999871464E+02 0.  0.
        -12    1    1    2    0    0  0.72037708816E-01  0.81573618648E+00  0.85011844601E+00  0.11803882114E+01  0.00000000000E+00 0.  1.
         11    1    3    3    0    0  0.84784161800E+01 -0.48308043848E+01  0.49374601653E+01  0.10936120202E+02  0.51100000000E-03 0. -1.
        -11    1    3    3    0    0  0.17641589827E+02 -0.21913113170E+02  0.19628078030E+02  0.34302648117E+02  0.51100000000E-03 0.  1.
         12    1    3    3    0    0 -0.26192043716E+02  0.25928181368E+02 -0.25415656641E+02  0.44768843470E+02  0.00000000000E+00 0. -1.
</event>
<event>
 7    1  0.3505640E-015  0.9000770E+02  0.7816164E-02  0.1186339E+00
        -11   -1    0    0    0    0  0.00000000000E+00  0.00000000000E+00  0.45593999997E+02  0.45594000000E+02  0.51100000000E-03 0.  1.
         11   -1    0    0    0    0 -0.00000000000E+00 -0.00000000000E+00 -0.45593999997E+02  0.45594000000E+02  0.51100000000E-03 0. -1.
    9900012    2    1    2    0    0 -0.79933706018E+00 -0.74076016136E+00 -0.45326964253E+00  0.90007695496E+02  0.89999956277E+02 0.  0.
        -12    1    1    2    0    0  0.79933706018E+00  0.74076016136E+00  0.45326964253E+00  0.11803045036E+01  0.00000000000E+00 0.  1.
         11    1    3    3    0    0  0.29191351446E+01  0.10201070555E+02 -0.53041356062E+01  0.11862421559E+02  0.51100000000E-03 0. -1.
        -11    1    3    3    0    0  0.21795632833E+02 -0.34343639136E+02 -0.75492437115E+01  0.41370596329E+02  0.51100000000E-03 0.  1.
         12    1    3    3    0    0 -0.25514105038E+02  0.23401808420E+02  0.12400109675E+02  0.36774677608E+02  0.00000000000E+00 0. -1.
</event>
<event>
 7    1  0.3505640E-015  0.9000772E+02  0.7816164E-02  0.1186339E+00
        -11   -1    0    0    0    0  0.00000000000E+00  0.00000000000E+00  0.45593999997E+02  0.45594000000E+02  0.51100000000E-03 0. -1.
         11   -1    0    0    0    0 -0.00000000000E+00 -0.00000000000E+00 -0.45593999997E+02  0.45594000000E+02  0.51100000000E-03 0.  1.
    9900012    2    1    2    0    0 -0.70204641082E+00  0.89304712752E-01  0.94456774892E+00  0.90007723453E+02  0.89999984603E+02 0.  0.
        -12    1    1    2    0    0  0.70204641082E+00 -0.89304712752E-01 -0.94456774892E+00  0.11802765468E+01  0.00000000000E+00 0.  1.
         11    1    3    3    0    0 -0.37607565530E+02 -0.79823542637E+01  0.14052606280E+02  0.40933149258E+02  0.51100000000E-03 0. -1.
        -11    1    3    3    0    0  0.22981591856E+01  0.64811804085E+01  0.63331014107E+01  0.93485511642E+01  0.51100000000E-03 0.  1.
        -12    1    3    3    0    0  0.34607359933E+02  0.15904785679E+01 -0.19441139942E+02  0.39726023031E+02  0.00000000000E+00 0.  1.
</event>
<event>
 7    1  0.3505640E-015  0.9000777E+02  0.7816164E-02  0.1186339E+00
        -11   -1    0    0    0    0  0.00000000000E+00  0.00000000000E+00  0.45593999997E+02  0.45594000000E+02  0.51100000000E-03 0. -1.
         11   -1    0    0    0    0 -0.00000000000E+00 -0.00000000000E+00 -0.45593999997E+02  0.45594000000E+02  0.51100000000E-03 0.  1.
    9900012    2    1    2    0    0 -0.92197836002E-01  0.11397330287E+01 -0.29232731053E+00  0.90007768212E+02  0.90000029952E+02 0.  0.
        -12    1    1    2    0    0  0.92197836002E-01 -0.11397330287E+01  0.29232731053E+00  0.11802317883E+01  0.00000000000E+00 0.  1.
         11    1    3    3    0    0  0.24636423867E+02  0.27917992299E+02 -0.14514088321E+02  0.39962813152E+02  0.51100000000E-03 0. -1.
        -11    1    3    3    0    0 -0.59246486652E+01  0.70150831909E+01  0.13182987964E+01  0.92763552088E+01  0.51100000000E-03 0.  1.
        -12    1    3    3    0    0 -0.18803973038E+02 -0.33793342461E+02  0.12903462214E+02  0.40768599851E+02  0.00000000000E+00 0.  1.
</event>
<event>
 7    1  0.3505640E-015  0.9000771E+02  0.7816164E-02  0.1186339E+00
        -11   -1    0    0    0    0  0.00000000000E+00  0.00000000000E+00  0.45593999997E+02  0.45594000000E+02  0.51100000000E-03 0.  1.
         11   -1    0    0    0    0 -0.00000000000E+00 -0.00000000000E+00 -0.45593999997E+02  0.45594000000E+02  0.51100000000E-03 0. -1.
    9900012    2    1    2    0    0 -0.15685153561E+00 -0.13950546429E+00 -0.11614698829E+01  0.90007713396E+02  0.89999974413E+02 0.  0.
        -12    1    1    2    0    0  0.15685153561E+00  0.13950546429E+00  0.11614698829E+01  0.11802866040E+01  0.00000000000E+00 0.  1.
         11    1    3    3    0    0 -0.13422898112E+02  0.23626022127E+01 -0.57129425966E+01  0.14778152669E+02  0.51100000000E-03 0. -1.
        -11    1    3    3    0    0 -0.24845283851E+02  0.83711312649E+00 -0.18117049290E+02  0.30760630086E+02  0.51100000000E-03 0.  1.
         12    1    3    3    0    0  0.38111330427E+02 -0.33392208034E+01  0.22668522004E+02  0.44468930641E+02  0.00000000000E+00 0. -1.
</event>
<event>
 7    1  0.3505640E-015  0.9000773E+02  0.7816164E-02  0.1186339E+00
        -11   -1    0    0    0    0  0.00000000000E+00  0.00000000000E+00  0.45593999997E+02  0.45594000000E+02  0.51100000000E-03 0.  1.
         11   -1    0    0    0    0 -0.00000000000E+00 -0.00000000000E+00 -0.45593999997E+02  0.45594000000E+02  0.51100000000E-03 0. -1.
    9900012    2    1    2    0    0 -0.87689137962E+00  0.49837783526E+00 -0.61296585067E+00  0.90007726264E+02  0.89999987450E+02 0.  0.
        -12    1    1    2    0    0  0.87689137962E+00 -0.49837783526E+00  0.61296585067E+00  0.11802737362E+01  0.00000000000E+00 0.  1.
         11    1    3    3    0    0 -0.11495015855E+02  0.30275998160E+02 -0.16199482924E+02  0.36210422552E+02  0.51100000000E-03 0. -1.
        -11    1    3    3    0    0 -0.71537412981E+01  0.61591103323E+01 -0.25746065520E+01  0.97846437751E+01  0.51100000000E-03 0.  1.
        -12    1    3    3    0    0  0.17771865774E+02 -0.35936730657E+02  0.18161123625E+02  0.44012659937E+02  0.00000000000E+00 0.  1.
</event>
<event>
 7    1  0.3505640E-015  0.9000778E+02  0.7816164E-02  0.1186339E+00
        -11   -1    0    0    0    0  0.00000000000E+00  0.00000000000E+00  0.45593999997E+02  0.45594000000E+02  0.51100000000E-03 0. -1.
         11   -1    0    0    0    0 -0.00000000000E+00 -0.00000000000E+00 -0.45593999997E+02  0.45594000000E+02  0.51100000000E-03 0.  1.
    9900012    2    1    2    0    0 -0.40931910116E+00 -0.98280989378E+00  0.50938264422E+00  0.90007776253E+02  0.90000038100E+02 0.  0.
        -12    1    1    2    0    0  0.40931910116E+00  0.98280989378E+00 -0.50938264422E+00  0.11802237466E+01  0.00000000000E+00 0.  1.
         11    1    3    3    0    0  0.29747465451E+02 -0.16472798457E+02  0.19150451799E+02  0.39025691463E+02  0.51100000000E-03 0. -1.
        -11    1    3    3    0    0 -0.50635968540E+01 -0.52903822513E+01  0.65293119345E+01  0.98112217416E+01  0.51100000000E-03 0.  1.
        -12    1    3    3    0    0 -0.25093187699E+02  0.20780370814E+02 -0.25170381089E+02  0.41170863049E+02  0.00000000000E+00 0.  1.
</event>
<event>
 7    1  0.4110385E-015  0.9000771E+02  0.7816164E-02  0.1186339E+00
        -11   -1    0    0    0    0  0.00000000000E+00  0.00000000000E+00  0.45593999997E+02  0.45594000000E+02  0.51100000000E-03 0. -1.
         11   -1    0    0    0    0 -0.00000000000E+00 -0.00000000000E+00 -0.45593999997E+02  0.45594000000E+02  0.51100000000E-03 0.  1.
    9900012    2    1    2    0    0  0.85229786099E+00  0.93567666286E-01 -0.81112135747E+00  0.90007710032E+02  0.89999971004E+02 0.  0.
        -12    1    1    2    0    0 -0.85229786099E+00 -0.93567666286E-01  0.81112135747E+00  0.11802899680E+01  0.00000000000E+00 0.  1.
         11    1    3    3    0    0 -0.55283027526E+01 -0.37871804239E+01  0.67748565038E+01  0.95290895576E+01  0.51100000000E-03 0. -1.
        -11    1    3    3    0    0  0.18355145974E+02 -0.27338157487E+02  0.18770833417E+02  0.37902907882E+02  0.51100000000E-03 0.  1.
         12    1    3    3    0    0 -0.11974545360E+02  0.31218905577E+02 -0.26356811278E+02  0.42575712592E+02  0.00000000000E+00 0. -1.
</event>
<event>
 7    1  0.3505640E-015  0.9000786E+02  0.7816164E-02  0.1186339E+00
        -11   -1    0    0    0    0  0.00000000000E+00  0.00000000000E+00  0.45593999997E+02  0.45594000000E+02  0.51100000000E-03 0.  1.
         11   -1    0    0    0    0 -0.00000000000E+00 -0.00000000000E+00 -0.45593999997E+02  0.45594000000E+02  0.51100000000E-03 0. -1.
    9900012    2    1    2    0    0  0.19705275591E+00  0.11505352779E+01 -0.17366404344E+00  0.90007864239E+02  0.90000127247E+02 0.  0.
        -12    1    1    2    0    0 -0.19705275591E+00 -0.11505352779E+01  0.17366404344E+00  0.11801357609E+01  0.00000000000E+00 0.  1.
         11    1    3    3    0    0 -0.64127398628E+01  0.21155777251E+02  0.80784777039E+01  0.23536183758E+02  0.51100000000E-03 0. -1.
        -11    1    3    3    0    0 -0.20228501309E+02  0.59719676076E+01  0.11706371635E+02  0.24122516440E+02  0.51100000000E-03 0.  1.
         12    1    3    3    0    0  0.26838293927E+02 -0.25977209580E+02 -0.19958513382E+02  0.42349164041E+02  0.00000000000E+00 0. -1.
</event>
<event>
 7    1  0.3505640E-015  0.9000776E+02  0.7816164E-02  0.1186339E+00
        -11   -1    0    0    0    0  0.00000000000E+00  0.00000000000E+00  0.45593999997E+02  0.45594000000E+02  0.51100000000E-03 0. -1.
         11   -1    0    0    0    0 -0.00000000000E+00 -0.00000000000E+00 -0.45593999997E+02  0.45594000000E+02  0.51100000000E-03 0.  1.
    9900012    2    1    2    0    0  0.22683604364E+00  0.11234260497E+01 -0.28182726538E+00  0.90007759648E+02  0.90000021276E+02 0.  0.
        -12    1    1    2    0    0 -0.22683604364E+00 -0.11234260497E+01  0.28182726538E+00  0.11802403515E+01  0.00000000000E+00 0.  1.
         11    1    3    3    0    0  0.25439487201E+01 -0.97276046743E+01 -0.45648466668E+01  0.11042454127E+02  0.51100000000E-03 0. -1.
        -11    1    3    3    0    0  0.37571417566E+02  0.79728283817E+01  0.63044373456E+01  0.38922016145E+02  0.51100000000E-03 0.  1.
         12    1    3    3    0    0 -0.39888530242E+02  0.28782023423E+01 -0.20214179441E+01  0.40043289377E+02  0.00000000000E+00 0. -1.
</event>
<event>
 7    1  0.3505640E-015  0.9000772E+02  0.7816164E-02  0.1186339E+00
        -11   -1    0    0    0    0  0.00000000000E+00  0.00000000000E+00  0.45593999997E+02  0.45594000000E+02  0.51100000000E-03 0.  1.
         11   -1    0    0    0    0 -0.00000000000E+00 -0.00000000000E+00 -0.45593999997E+02  0.45594000000E+02  0.51100000000E-03 0. -1.
    9900012    2    1    2    0    0 -0.11970306590E+00 -0.11737981283E+01  0.30330480771E-01  0.90007724266E+02  0.89999985426E+02 0.  0.
        -12    1    1    2    0    0  0.11970306590E+00  0.11737981283E+01 -0.30330480771E-01  0.11802757339E+01  0.00000000000E+00 0.  1.
         11    1    3    3    0    0 -0.93448000204E+01  0.14146469297E+01 -0.36350382037E+02  0.37558977460E+02  0.51100000000E-03 0. -1.
        -11    1    3    3    0    0 -0.68517663232E+01 -0.42301853994E+01 -0.39731609869E+01  0.89792638200E+01  0.51100000000E-03 0.  1.
        -12    1    3    3    0    0  0.16076863278E+02  0.16417403414E+01  0.40353873505E+02  0.43469482986E+02  0.00000000000E+00 0.  1.
</event>
<event>
 7    1  0.3505640E-015  0.9000772E+02  0.7816164E-02  0.1186339E+00
        -11   -1    0    0    0    0  0.00000000000E+00  0.00000000000E+00  0.45593999997E+02  0.45594000000E+02  0.51100000000E-03 0. -1.
         11   -1    0    0    0    0 -0.00000000000E+00 -0.00000000000E+00 -0.45593999997E+02  0.45594000000E+02  0.51100000000E-03 0.  1.
    9900012    2    1    2    0    0 -0.67094313474E+00  0.13195806757E+00  0.96201612201E+00  0.90007723490E+02  0.89999984640E+02 0.  0.
        -12    1    1    2    0    0  0.67094313474E+00 -0.13195806757E+00 -0.96201612201E+00  0.11802765103E+01  0.00000000000E+00 0.  1.
         11    1    3    3    0    0 -0.99711417246E+01 -0.38369512034E+01  0.14726904938E+01  0.10784928344E+02  0.51100000000E-03 0. -1.
        -11    1    3    3    0    0  0.31697853514E+02  0.15480073866E+02  0.25108484205E+02  0.43299221513E+02  0.51100000000E-03 0.  1.
         12    1    3    3    0    0 -0.22397654924E+02 -0.11511164595E+02 -0.25619158577E+02  0.35923573633E+02  0.00000000000E+00 0. -1.
</event>
<event>
 7    1  0.3505640E-015  0.9000778E+02  0.7816164E-02  0.1186339E+00
        -11   -1    0    0    0    0  0.00000000000E+00  0.00000000000E+00  0.45593999997E+02  0.45594000000E+02  0.51100000000E-03 0. -1.
         11   -1    0    0    0    0 -0.00000000000E+00 -0.00000000000E+00 -0.45593999997E+02  0.45594000000E+02  0.51100000000E-03 0.  1.
    9900012    2    1    2    0    0  0.84183750710E+00  0.33694539837E+00 -0.75545023531E+00  0.90007776442E+02  0.90000038291E+02 0.  0.
        -12    1    1    2    0    0 -0.84183750710E+00 -0.33694539837E+00  0.75545023531E+00  0.11802235584E+01  0.00000000000E+00 0.  1.
         11    1    3    3    0    0 -0.19113630496E+02  0.30707527739E+02 -0.72534036877E+01  0.36890310326E+02  0.51100000000E-03 0. -1.
        -11    1    3    3    0    0 -0.10428114452E+02 -0.11095733200E+01  0.38288970556E+00  0.10493966302E+02  0.51100000000E-03 0.  1.
        -12    1    3    3    0    0  0.30383582455E+02 -0.29261009021E+02  0.61150637468E+01  0.42623499813E+02  0.00000000000E+00 0.  1.
</event>
<event>
 7    1  0.3505640E-015  0.9000774E+02  0.7816164E-02  0.1186339E+00
        -11   -1    0    0    0    0  0.00000000000E+00  0.00000000000E+00  0.45593999997E+02  0.45594000000E+02  0.51100000000E-03 0. -1.
         11   -1    0    0    0    0 -0.00000000000E+00 -0.00000000000E+00 -0.45593999997E+02  0.45594000000E+02  0.51100000000E-03 0.  1.
    9900012    2    1    2    0    0  0.10113628848E+01  0.30830995851E+00 -0.52450751351E+00  0.90007738145E+02  0.89999999488E+02 0.  0.
        -12    1    1    2    0    0 -0.10113628848E+01 -0.30830995851E+00  0.52450751351E+00  0.11802618552E+01  0.00000000000E+00 0.  1.
         11    1    3    3    0    0 -0.93704171784E+01  0.24050719169E+02  0.27387990962E+02  0.37634344153E+02  0.51100000000E-03 0. -1.
        -11    1    3    3    0    0 -0.33487199693E+01  0.55571814434E+01  0.34180697531E+01  0.73334434017E+01  0.51100000000E-03 0.  1.
        -12    1    3    3    0    0  0.13730500032E+02 -0.29299590654E+02 -0.31330568229E+02  0.45039950590E+02  0.00000000000E+00 0.  1.
</event>
<event>
 7    1  0.3505640E-015  0.9000769E+02  0.7816164E-02  0.1186339E+00
        -11   -1    0    0    0    0  0.00000000000E+00  0.00000000000E+00  0.45593999997E+02  0.45594000000E+02  0.51100000000E-03 0.  1.
         11   -1    0    0    0    0 -0.00000000000E+00 -0.00000000000E+00 -0.45593999997E+02  0.45594000000E+02  0.51100000000E-03 0. -1.
    9900012    2    1    2    0    0 -0.22389296501E+00  0.31914408124E+00 -0.11140644517E+01  0.90007694698E+02  0.89999955468E+02 0.  0.
        -12    1    1    2    0    0  0.22389296501E+00 -0.31914408124E+00  0.11140644517E+01  0.11803053024E+01  0.00000000000E+00 0.  1.
         11    1    3    3    0    0  0.70311682565E+01  0.70225461594E+01  0.92597292054E+00  0.99805264251E+01  0.51100000000E-03 0. -1.
        -11    1    3    3    0    0  0.32429988641E+01  0.33321944120E+02 -0.14971473982E+02  0.36674432988E+02  0.51100000000E-03 0.  1.
         12    1    3    3    0    0 -0.10498060086E+02 -0.40025346198E+02  0.12931436610E+02  0.43352735284E+02  0.00000000000E+00 0. -1.
</event>
<event>
 7    1  0.3505640E-015  0.9000775E+02  0.7816164E-02  0.1186339E+00
        -11   -1    0    0    0    0  0.00000000000E+00  0.00000000000E+00  0.45593999997E+02  0.45594000000E+02  0.51100000000E-03 0.  1.
         11   -1    0    0    0    0 -0.00000000000E+00 -0.00000000000E+00 -0.45593999997E+02  0.45594000000E+02  0.51100000000E-03 0. -1.
    9900012    2    1    2    0    0 -0.29829728104E+00  0.37257320588E+00 -0.10794387717E+01  0.90007754211E+02  0.90000015766E+02 0.  0.
        -12    1    1    2    0    0  0.29829728104E+00 -0.37257320588E+00  0.10794387717E+01  0.11802457895E+01  0.00000000000E+00 0.  1.
         11    1    3    3    0    0 -0.84242392711E+01  0.39068891416E+02 -0.88705765981E+01  0.40939384622E+02  0.51100000000E-03 0. -1.
        -11    1    3    3    0    0  0.10759618190E+02 -0.14801690247E+01  0.39708040650E+01  0.11564063694E+02  0.51100000000E-03 0.  1.
        -12    1    3    3    0    0 -0.26336762004E+01 -0.37216149186E+02  0.38203337613E+01  0.37504305894E+02  0.00000000000E+00 0.  1.
</event>
<event>
 7    1  0.3505640E-015  0.9000792E+02  0.7816164E-02  0.1186339E+00
        -11   -1    0    0    0    0  0.00000000000E+00  0.00000000000E+00  0.45593999997E+02  0.45594000000E+02  0.51100000000E-03 0.  1.
         11   -1    0    0    0    0 -0.00000000000E+00 -0.00000000000E+00 -0.45593999997E+02  0.45594000000E+02  0.51100000000E-03 0. -1.
    9900012    2    1    2    0    0 -0.91664934601E+00 -0.73878734612E+00  0.80850387173E-01  0.90007919684E+02  0.90000183424E+02 0.  0.
        -12    1    1    2    0    0  0.91664934601E+00  0.73878734612E+00 -0.80850387173E-01  0.11800803157E+01  0.00000000000E+00 0.  1.
         11    1    3    3    0    0 -0.21159819534E+02  0.48148586334E+01  0.23498166423E+02  0.31985694488E+02  0.51100000000E-03 0. -1.
        -11    1    3    3    0    0 -0.95799630000E+01  0.65092424509E+01  0.71781226289E+01  0.13626128324E+02  0.51100000000E-03 0.  1.
         12    1    3    3    0    0  0.29823133188E+02 -0.12062888430E+02 -0.30595438665E+02  0.44396096872E+02  0.00000000000E+00 0. -1.
</event>
<event>
 7    1  0.3505640E-015  0.9000774E+02  0.7816164E-02  0.1186339E+00
        -11   -1    0    0    0    0  0.00000000000E+00  0.00000000000E+00  0.45593999997E+02  0.45594000000E+02  0.51100000000E-03 0.  1.
         11   -1    0    0    0    0 -0.00000000000E+00 -0.00000000000E+00 -0.45593999997E+02  0.45594000000E+02  0.51100000000E-03 0. -1.
    9900012    2    1    2    0    0  0.25799433429E+00  0.11510226366E+01 -0.39961811382E-01  0.90007741074E+02  0.90000002456E+02 0.  0.
        -12    1    1    2    0    0 -0.25799433429E+00 -0.11510226366E+01  0.39961811382E-01  0.11802589262E+01  0.00000000000E+00 0.  1.
         11    1    3    3    0    0 -0.12973214236E+01  0.70534577383E+01  0.78341556099E+01  0.10621125332E+02  0.51100000000E-03 0. -1.
        -11    1    3    3    0    0 -0.26148190545E+02 -0.67377870875E+01  0.24714983316E+02  0.36605410040E+02  0.51100000000E-03 0.  1.
         12    1    3    3    0    0  0.27703506303E+02  0.83535198576E+00 -0.32589100737E+02  0.42781205702E+02  0.00000000000E+00 0. -1.
</event>
<event>
 7    1  0.3505640E-015  0.9000772E+02  0.7816164E-02  0.1186339E+00
        -11   -1    0    0    0    0  0.00000000000E+00  0.00000000000E+00  0.45593999997E+02  0.45594000000E+02  0.51100000000E-03 0. -1.
         11   -1    0    0    0    0 -0.00000000000E+00 -0.00000000000E+00 -0.45593999997E+02  0.45594000000E+02  0.51100000000E-03 0.  1.
    9900012    2    1    2    0    0 -0.76086567410E+00  0.89004505276E+00 -0.14817554981E+00  0.90007723438E+02  0.89999984587E+02 0.  0.
        -12    1    1    2    0    0  0.76086567410E+00 -0.89004505276E+00  0.14817554981E+00  0.11802765623E+01  0.00000000000E+00 0.  1.
         11    1    3    3    0    0 -0.18478395497E+02  0.12550730214E+01  0.37011376166E+02  0.41386812808E+02  0.51100000000E-03 0. -1.
        -11    1    3    3    0    0  0.78101475112E+01 -0.35037459332E+01  0.14102765077E+01  0.86754550198E+01  0.51100000000E-03 0.  1.
        -12    1    3    3    0    0  0.99073823114E+01  0.31387179646E+01 -0.38569828223E+02  0.39945455610E+02  0.00000000000E+00 0.  1.
</event>
<event>
 7    1  0.3505640E-015  0.9000779E+02  0.7816164E-02  0.1186339E+00
        -11   -1    0    0    0    0  0.00000000000E+00  0.00000000000E+00  0.45593999997E+02  0.45594000000E+02  0.51100000000E-03 0. -1.
         11   -1    0    0    0    0 -0.00000000000E+00 -0.00000000000E+00 -0.45593999997E+02  0.45594000000E+02  0.51100000000E-03 0.  1.
    9900012    2    1    2    0    0  0.92217284114E+00 -0.90486520604E-01  0.73096013044E+00  0.90007791005E+02  0.90000053046E+02 0.  0.
        -12    1    1    2    0    0 -0.92217284114E+00  0.90486520604E-01 -0.73096013044E+00  0.11802089949E+01  0.00000000000E+00 0.  1.
         11    1    3    3    0    0  0.10131017348E+02 -0.52032512198E+01 -0.84203218980E+01  0.14163797404E+02  0.51100000000E-03 0. -1.
        -11    1    3    3    0    0  0.27284986981E+02  0.20459862077E+02 -0.34977868002E+01  0.34282808863E+02  0.51100000000E-03 0.  1.
         12    1    3    3    0    0 -0.36493831488E+02 -0.15347097378E+02  0.12649068829E+02  0.41561184738E+02  0.00000000000E+00 0. -1.
</event>
<event>
 7    1  0.3505640E-015  0.9000766E+02  0.7816164E-02  0.1186339E+00
        -11   -1    0    0    0    0  0.00000000000E+00  0.00000000000E+00  0.45593999997E+02  0.45594000000E+02  0.51100000000E-03 0.  1.
         11   -1    0    0    0    0 -0.00000000000E+00 -0.00000000000E+00 -0.45593999997E+02  0.45594000000E+02  0.51100000000E-03 0. -1.
    9900012    2    1    2    0    0 -0.28877106743E-01  0.57469749042E+00 -0.10305824270E+01  0.90007656308E+02  0.89999916571E+02 0.  0.
        -12    1    1    2    0    0  0.28877106743E-01 -0.57469749042E+00  0.10305824270E+01  0.11803436921E+01  0.00000000000E+00 0.  1.
         11    1    3    3    0    0 -0.43751391143E+01  0.21377415907E+02  0.32401202663E+01  0.22059785419E+02  0.51100000000E-03 0. -1.
        -11    1    3    3    0    0 -0.29621952780E+02 -0.15445582375E+02 -0.28977113632E+01  0.33532414658E+02  0.51100000000E-03 0.  1.
         12    1    3    3    0    0  0.33968214787E+02 -0.53571360418E+01 -0.13729913301E+01  0.34415456231E+02  0.00000000000E+00 0. -1.
</event>
<event>
 7    1  0.3505640E-015  0.9000778E+02  0.7816164E-02  0.1186339E+00
        -11   -1    0    0    0    0  0.00000000000E+00  0.00000000000E+00  0.45593999997E+02  0.45594000000E+02  0.51100000000E-03 0.  1.
         11   -1    0    0    0    0 -0.00000000000E+00 -0.00000000000E+00 -0.45593999997E+02  0.45594000000E+02  0.51100000000E-03 0. -1.
    9900012    2    1    2    0    0  0.35530449204E+00 -0.31580560157E+00 -0.10802476942E+01  0.90007784113E+02  0.90000046063E+02 0.  0.
        -12    1    1    2    0    0 -0.35530449204E+00  0.31580560157E+00  0.10802476942E+01  0.11802158874E+01  0.00000000000E+00 0.  1.
         11    1    3    3    0    0 -0.97403383456E+01 -0.59046254221E+01  0.71808951159E+01  0.13464919138E+02  0.51100000000E-03 0. -1.
        -11    1    3    3    0    0 -0.28515285398E+02 -0.56425293603E+00  0.13763356805E+02  0.31668120776E+02  0.51100000000E-03 0.  1.
         12    1    3    3    0    0  0.38610928236E+02  0.61530727566E+01 -0.22024499615E+02  0.44874744198E+02  0.00000000000E+00 0. -1.
</event>
<event>
 7    1  0.3505640E-015  0.9000777E+02  0.7816164E-02  0.1186339E+00
        -11   -1    0    0    0    0  0.00000000000E+00  0.00000000000E+00  0.45593999997E+02  0.45594000000E+02  0.51100000000E-03 0.  1.
         11   -1    0    0    0    0 -0.00000000000E+00 -0.00000000000E+00 -0.45593999997E+02  0.45594000000E+02  0.51100000000E-03 0. -1.
    9900012    2    1    2    0    0  0.16316178621E+00 -0.76683495657E+00 -0.88219934094E+00  0.90007774049E+02  0.90000035866E+02 0.  0.
        -12    1    1    2    0    0 -0.16316178621E+00  0.76683495657E+00  0.88219934094E+00  0.11802259514E+01  0.00000000000E+00 0.  1.
         11    1    3    3    0    0  0.10711228072E+02 -0.13668032405E+02 -0.25951107265E+01  0.17557907522E+02  0.51100000000E-03 0. -1.
        -11    1    3    3    0    0 -0.31939367858E+02 -0.16585668885E+02  0.19893634452E+00  0.35989543029E+02  0.51100000000E-03 0.  1.
         12    1    3    3    0    0  0.21391301573E+02  0.29486866333E+02  0.15139750410E+01  0.36460323497E+02  0.00000000000E+00 0. -1.
</event>
<event>
 7    1  0.3505640E-015  0.9000759E+02  0.7816164E-02  0.1186339E+00
        -11   -1    0    0    0    0  0.00000000000E+00  0.00000000000E+00  0.45593999997E+02  0.45594000000E+02  0.51100000000E-03 0.  1.
         11   -1    0    0    0    0 -0.00000000000E+00 -0.00000000000E+00 -0.45593999997E+02  0.45594000000E+02  0.51100000000E-03 0. -1.
    9900012    2    1    2    0    0  0.10409550789E+01 -0.48516487814E+00 -0.27275247198E+00  0.90007590602E+02  0.89999849998E+02 0.  0.
        -12    1    1    2    0    0 -0.10409550789E+01  0.48516487814E+00  0.27275247198E+00  0.11804093977E+01  0.00000000000E+00 0.  1.
         11    1    3    3    0    0 -0.21040096431E+01 -0.29639181921E+01  0.71377103087E+01  0.80099048896E+01  0.51100000000E-03 0. -1.
        -11    1    3    3    0    0  0.12798250345E+02  0.24899722067E+02  0.27602472725E+02  0.39315237144E+02  0.51100000000E-03 0.  1.
         12    1    3    3    0    0 -0.96532856231E+01 -0.22420968753E+02 -0.35012935505E+02  0.42682448569E+02  0.00000000000E+00 0. -1.
</event>
<event>
 7    1  0.3505640E-015  0.9000747E+02  0.7816164E-02  0.1186340E+00
        -11   -1    0    0    0    0  0.00000000000E+00  0.00000000000E+00  0.45593999997E+02  0.45594000000E+02  0.51100000000E-03 0. -1.
         11   -1    0    0    0    0 -0.00000000000E+00 -0.00000000000E+00 -0.45593999997E+02  0.45594000000E+02  0.51100000000E-03 0.  1.
    9900012    2    1    2    0    0  0.35658917084E+00  0.63973091659E+00  0.92587390536E+00  0.90007468776E+02  0.89999726563E+02 0.  0.
        -12    1    1    2    0    0 -0.35658917084E+00 -0.63973091659E+00 -0.92587390536E+00  0.11805312241E+01  0.00000000000E+00 0.  1.
         11    1    3    3    0    0 -0.10575177770E+02  0.47548090825E+01 -0.95431705462E+01  0.15017146820E+02  0.51100000000E-03 0. -1.
        -11    1    3    3    0    0 -0.95118172750E+01 -0.35117869114E+02  0.10448856239E+02  0.37853903312E+02  0.51100000000E-03 0.  1.
         12    1    3    3    0    0  0.20443584216E+02  0.31002790948E+02  0.20188212377E-01  0.37136418644E+02  0.00000000000E+00 0. -1.
</event>
<event>
 7    1  0.3505640E-015  0.9000727E+02  0.7816164E-02  0.1186340E+00
        -11   -1    0    0    0    0  0.00000000000E+00  0.00000000000E+00  0.45593999997E+02  0.45594000000E+02  0.51100000000E-03 0.  1.
         11   -1    0    0    0    0 -0.00000000000E+00 -0.00000000000E+00 -0.45593999997E+02  0.45594000000E+02  0.51100000000E-03 0. -1.
    9900012    2    1    2    0    0 -0.19075752093E+00  0.10404125360E+01 -0.52466302009E+00  0.90007272275E+02  0.89999527467E+02 0.  0.
        -12    1    1    2    0    0  0.19075752093E+00 -0.10404125360E+01  0.52466302009E+00  0.11807277254E+01  0.00000000000E+00 0.  1.
         11    1    3    3    0    0  0.45145463043E+00  0.18164932137E+01  0.79553359775E+01  0.81725656715E+01  0.51100000000E-03 0. -1.
        -11    1    3    3    0    0  0.40467060563E+01  0.34269572518E+02 -0.25193294236E+02  0.42725653947E+02  0.51100000000E-03 0.  1.
         12    1    3    3    0    0 -0.46889182076E+01 -0.35045653196E+02  0.16713295239E+02  0.39109052656E+02  0.00000000000E+00 0. -1.
</event>
<event>
 7    1  0.3505640E-015  0.9000773E+02  0.7816164E-02  0.1186339E+00
        -11   -1    0    0    0    0  0.00000000000E+00  0.00000000000E+00  0.45593999997E+02  0.45594000000E+02  0.51100000000E-03 0.  1.
         11   -1    0    0    0    0 -0.00000000000E+00 -0.00000000000E+00 -0.45593999997E+02  0.45594000000E+02  0.51100000000E-03 0. -1.
    9900012    2    1    2    0    0 -0.52817122158E-01 -0.39407172347E+00 -0.11112861640E+01  0.90007729222E+02  0.89999990447E+02 0.  0.
        -12    1    1    2    0    0  0.52817122158E-01  0.39407172347E+00  0.11112861640E+01  0.11802707782E+01  0.00000000000E+00 0.  1.
         11    1    3    3    0    0 -0.28197795412E+02 -0.59274816926E+01 -0.27427792181E+02  0.39781082055E+02  0.51100000000E-03 0. -1.
        -11    1    3    3    0    0 -0.65337620741E+01  0.47175347807E+01  0.57475560109E+01  0.98984635983E+01  0.51100000000E-03 0.  1.
        -12    1    3    3    0    0  0.34678740364E+02  0.81587518841E+00  0.20568950006E+02  0.40328183568E+02  0.00000000000E+00 0.  1.
</event>
<event>
 7    1  0.3505640E-015  0.9000770E+02  0.7816164E-02  0.1186339E+00
        -11   -1    0    0    0    0  0.00000000000E+00  0.00000000000E+00  0.45593999997E+02  0.45594000000E+02  0.51100000000E-03 0. -1.
         11   -1    0    0    0    0 -0.00000000000E+00 -0.00000000000E+00 -0.45593999997E+02  0.45594000000E+02  0.51100000000E-03 0.  1.
    9900012    2    1    2    0    0  0.44441728234E+00 -0.99570726479E+00  0.45184650670E+00  0.90007701333E+02  0.89999962190E+02 0.  0.
        -12    1    1    2    0    0 -0.44441728234E+00  0.99570726479E+00 -0.45184650670E+00  0.11802986671E+01  0.00000000000E+00 0.  1.
         11    1    3    3    0    0 -0.46229243787E+01 -0.36039372295E+02 -0.83254248945E+01  0.37276272416E+02  0.51100000000E-03 0. -1.
        -11    1    3    3    0    0 -0.10543355814E+01 -0.80957309166E+01 -0.51385010628E+00  0.81802521223E+01  0.51100000000E-03 0.  1.
        -12    1    3    3    0    0  0.61216772425E+01  0.43139395947E+02  0.92911215075E+01  0.44551176795E+02  0.00000000000E+00 0.  1.
</event>
<event>
 7    1  0.3505640E-015  0.9000769E+02  0.7816164E-02  0.1186339E+00
        -11   -1    0    0    0    0  0.00000000000E+00  0.00000000000E+00  0.45593999997E+02  0.45594000000E+02  0.51100000000E-03 0.  1.
         11   -1    0    0    0    0 -0.00000000000E+00 -0.00000000000E+00 -0.45593999997E+02  0.45594000000E+02  0.51100000000E-03 0. -1.
    9900012    2    1    2    0    0  0.95368374108E+00 -0.48888242448E+00 -0.49457256758E+00  0.90007694646E+02  0.89999955416E+02 0.  0.
        -12    1    1    2    0    0 -0.95368374108E+00  0.48888242448E+00  0.49457256758E+00  0.11803053535E+01  0.00000000000E+00 0.  1.
         11    1    3    3    0    0 -0.26228802228E+01 -0.88905213929E+00  0.88086025900E+01  0.92337096673E+01  0.51100000000E-03 0. -1.
        -11    1    3    3    0    0 -0.13268357662E+02  0.30084803870E+02  0.17618200309E+02  0.37303427742E+02  0.51100000000E-03 0.  1.
         12    1    3    3    0    0  0.16844921626E+02 -0.29684634155E+02 -0.26921375467E+02  0.43470557237E+02  0.00000000000E+00 0. -1.
</event>
<event>
 7    1  0.3505640E-015  0.9000774E+02  0.7816164E-02  0.1186339E+00
        -11   -1    0    0    0    0  0.00000000000E+00  0.00000000000E+00  0.45593999997E+02  0.45594000000E+02  0.51100000000E-03 0.  1.
         11   -1    0    0    0    0 -0.00000000000E+00 -0.00000000000E+00 -0.45593999997E+02  0.45594000000E+02  0.51100000000E-03 0. -1.
    9900012    2    1    2    0    0  0.80940624336E-01 -0.22398346803E+00 -0.11559845478E+01  0.90007737210E+02  0.89999998541E+02 0.  0.
        -12    1    1    2    0    0 -0.80940624336E-01  0.22398346803E+00  0.11559845478E+01  0.11802627900E+01  0.00000000000E+00 0.  1.
         11    1    3    3    0    0  0.38385425619E+02  0.12599719456E+02 -0.11750003966E+02  0.42074415311E+02  0.51100000000E-03 0. -1.
        -11    1    3    3    0    0 -0.44159297359E+01  0.56522519765E+01  0.54199029918E+01  0.89902022524E+01  0.51100000000E-03 0.  1.
        -12    1    3    3    0    0 -0.33888555258E+02 -0.18475954901E+02  0.51741164267E+01  0.38943119646E+02  0.00000000000E+00 0.  1.
</event>
<event>
 7    1  0.3505640E-015  0.9000759E+02  0.7816164E-02  0.1186339E+00
        -11   -1    0    0    0    0  0.00000000000E+00  0.00000000000E+00  0.45593999997E+02  0.45594000000E+02  0.51100000000E-03 0.  1.
         11   -1    0    0    0    0 -0.00000000000E+00 -0.00000000000E+00 -0.45593999997E+02  0.45594000000E+02  0.51100000000E-03 0. -1.
    9900012    2    1    2    0    0  0.10229681209E+01  0.52788301835E+00 -0.26123264221E+00  0.90007590431E+02  0.89999849824E+02 0.  0.
        -12    1    1    2    0    0 -0.10229681209E+01 -0.52788301835E+00  0.26123264221E+00  0.11804095691E+01  0.00000000000E+00 0.  1.
         11    1    3    3    0    0 -0.28188010881E+02  0.19861152439E+02 -0.14577425990E+02  0.37437022883E+02  0.51100000000E-03 0. -1.
        -11    1    3    3    0    0 -0.71810366110E+01 -0.39964195496E+01 -0.38803833539E+01  0.90882358717E+01  0.51100000000E-03 0.  1.
        -12    1    3    3    0    0  0.36392015613E+02 -0.15336849871E+02  0.18196576702E+02  0.43482331676E+02  0.00000000000E+00 0.  1.
</event>
<event>
 7    1  0.3505640E-015  0.9000774E+02  0.7816164E-02  0.1186339E+00
        -11   -1    0    0    0    0  0.00000000000E+00  0.00000000000E+00  0.45593999997E+02  0.45594000000E+02  0.51100000000E-03 0. -1.
         11   -1    0    0    0    0 -0.00000000000E+00 -0.00000000000E+00 -0.45593999997E+02  0.45594000000E+02  0.51100000000E-03 0.  1.
    9900012    2    1    2    0    0  0.36255461228E+00  0.46364385310E+00  0.10230399539E+01  0.90007736378E+02  0.89999997698E+02 0.  0.
        -12    1    1    2    0    0 -0.36255461228E+00 -0.46364385310E+00 -0.10230399539E+01  0.11802636217E+01  0.00000000000E+00 0.  1.
         11    1    3    3    0    0  0.15333419759E+02 -0.29351417433E+02  0.16891441603E+02  0.37174457179E+02  0.51100000000E-03 0. -1.
        -11    1    3    3    0    0  0.85223485328E+01 -0.38385562048E+01 -0.26731495432E+01  0.97216596830E+01  0.51100000000E-03 0.  1.
        -12    1    3    3    0    0 -0.23493213680E+02  0.33653617491E+02 -0.13195252106E+02  0.43111619517E+02  0.00000000000E+00 0.  1.
</event>
<event>
 7    1  0.3505640E-015  0.9000764E+02  0.7816164E-02  0.1186339E+00
        -11   -1    0    0    0    0  0.00000000000E+00  0.00000000000E+00  0.45593999997E+02  0.45594000000E+02  0.51100000000E-03 0. -1.
         11   -1    0    0    0    0 -0.00000000000E+00 -0.00000000000E+00 -0.45593999997E+02  0.45594000000E+02  0.51100000000E-03 0.  1.
    9900012    2    1    2    0    0 -0.56518267405E+00 -0.10135635865E+01  0.21563293888E+00  0.90007644052E+02  0.89999904154E+02 0.  0.
        -12    1    1    2    0    0  0.56518267405E+00  0.10135635865E+01 -0.21563293888E+00  0.11803559477E+01  0.00000000000E+00 0.  1.
         11    1    3    3    0    0 -0.55655131475E+01  0.31177214710E+02 -0.15813177425E+02  0.35398449602E+02  0.51100000000E-03 0. -1.
        -11    1    3    3    0    0  0.50813817301E+01  0.32081992133E+01 -0.93063831020E+01  0.11077984888E+02  0.51100000000E-03 0.  1.
        -12    1    3    3    0    0 -0.81051256594E-01 -0.35398977510E+02  0.25335193466E+02  0.43531209563E+02  0.00000000000E+00 0.  1.
</event>
<event>
 7    1  0.3505640E-015  0.9000778E+02  0.7816164E-02  0.1186339E+00
        -11   -1    0    0    0    0  0.00000000000E+00  0.00000000000E+00  0.45593999997E+02  0.45594000000E+02  0.51100000000E-03 0. -1.
         11   -1    0    0    0    0 -0.00000000000E+00 -0.00000000000E+00 -0.45593999997E+02  0.45594000000E+02  0.51100000000E-03 0.  1.
    9900012    2    1    2    0    0  0.43870217580E+00 -0.10774754374E+01  0.19875334163E+00  0.90007781458E+02  0.90000043373E+02 0.  0.
        -12    1    1    2    0    0 -0.43870217580E+00  0.10774754374E+01 -0.19875334163E+00  0.11802185425E+01  0.00000000000E+00 0.  1.
         11    1    3    3    0    0  0.46441569777E+01  0.36271665932E+01 -0.66867773471E+01  0.89127730297E+01  0.51100000000E-03 0. -1.
        -11    1    3    3    0    0  0.26324451142E+00  0.21381558437E+02 -0.29294204319E+02  0.36268316005E+02  0.51100000000E-03 0.  1.
         12    1    3    3    0    0 -0.44686993133E+01 -0.26086200468E+02  0.36179735008E+02  0.44826692423E+02  0.00000000000E+00 0. -1.
</event>
<event>
 7    1  0.3505640E-015  0.9000771E+02  0.7816164E-02  0.1186339E+00
        -11   -1    0    0    0    0  0.00000000000E+00  0.00000000000E+00  0.45593999997E+02  0.45594000000E+02  0.51100000000E-03 0. -1.
         11   -1    0    0    0    0 -0.00000000000E+00 -0.00000000000E+00 -0.45593999997E+02  0.45594000000E+02  0.51100000000E-03 0.  1.
    9900012    2    1    2    0    0  0.83056879917E+00  0.80239708812E+00 -0.24370133331E+00  0.90007713612E+02  0.89999974632E+02 0.  0.
        -12    1    1    2    0    0 -0.83056879917E+00 -0.80239708812E+00  0.24370133331E+00  0.11802863877E+01  0.00000000000E+00 0.  1.
         11    1    3    3    0    0 -0.11787241736E+02  0.73135178241E+01  0.20187642411E+02  0.24494234364E+02  0.51100000000E-03 0. -1.
        -11    1    3    3    0    0 -0.30946572414E+01 -0.64920406808E+01  0.20470687325E+02  0.21697293275E+02  0.51100000000E-03 0.  1.
        -12    1    3    3    0    0  0.15712467776E+02 -0.19080055149E-01 -0.40902031069E+02  0.43816185973E+02  0.00000000000E+00 0.  1.
</event>
<event>
 7    1  0.3505640E-015  0.9000771E+02  0.7816164E-02  0.1186339E+00
        -11   -1    0    0    0    0  0.00000000000E+00  0.00000000000E+00  0.45593999997E+02  0.45594000000E+02  0.51100000000E-03 0. -1.
         11   -1    0    0    0    0 -0.00000000000E+00 -0.00000000000E+00 -0.45593999997E+02  0.45594000000E+02  0.51100000000E-03 0.  1.
    9900012    2    1    2    0    0  0.87994534016E+00 -0.66752653759E+00  0.41615087851E+00  0.90007713156E+02  0.89999974170E+02 0.  0.
        -12    1    1    2    0    0 -0.87994534016E+00  0.66752653759E+00 -0.41615087851E+00  0.11802868438E+01  0.00000000000E+00 0.  1.
         11    1    3    3    0    0  0.34240694552E+01 -0.21559936701E+01  0.90530609697E+01  0.99161723221E+01  0.51100000000E-03 0. -1.
        -11    1    3    3    0    0  0.91048197869E+01 -0.17857694277E+02 -0.38051328981E+02  0.43008122788E+02  0.51100000000E-03 0.  1.
         12    1    3    3    0    0 -0.11648943902E+02  0.19346161410E+02  0.29414418890E+02  0.37083418046E+02  0.00000000000E+00 0. -1.
</event>
<event>
 7    1  0.3505640E-015  0.9000771E+02  0.7816164E-02  0.1186339E+00
        -11   -1    0    0    0    0  0.00000000000E+00  0.00000000000E+00  0.45593999997E+02  0.45594000000E+02  0.51100000000E-03 0.  1.
         11   -1    0    0    0    0 -0.00000000000E+00 -0.00000000000E+00 -0.45593999997E+02  0.45594000000E+02  0.51100000000E-03 0. -1.
    9900012    2    1    2    0    0 -0.29815507435E+00 -0.10409678785E+01 -0.46965810144E+00  0.90007707958E+02  0.89999968903E+02 0.  0.
        -12    1    1    2    0    0  0.29815507435E+00  0.10409678785E+01  0.46965810144E+00  0.11802920421E+01  0.00000000000E+00 0.  1.
         11    1    3    3    0    0 -0.15386549748E+02  0.29724606186E+02 -0.12257916276E+02  0.35644840269E+02  0.51100000000E-03 0. -1.
        -11    1    3    3    0    0  0.24879066955E+01  0.71266014924E+01 -0.69427505708E+01  0.10255725928E+02  0.51100000000E-03 0.  1.
        -12    1    3    3    0    0  0.12600487978E+02 -0.37892175557E+02  0.18731008745E+02  0.44107141762E+02  0.00000000000E+00 0.  1.
</event>
<event>
 7    1  0.3505640E-015  0.9000764E+02  0.7816164E-02  0.1186339E+00
        -11   -1    0    0    0    0  0.00000000000E+00  0.00000000000E+00  0.45593999997E+02  0.45594000000E+02  0.51100000000E-03 0.  1.
         11   -1    0    0    0    0 -0.00000000000E+00 -0.00000000000E+00 -0.45593999997E+02  0.45594000000E+02  0.51100000000E-03 0. -1.
    9900012    2    1    2    0    0  0.42388624363E+00  0.10531745823E+01  0.32309500079E+00  0.90007641314E+02  0.89999901379E+02 0.  0.
        -12    1    1    2    0    0 -0.42388624363E+00 -0.10531745823E+01 -0.32309500079E+00  0.11803586861E+01  0.00000000000E+00 0.  1.
         11    1    3    3    0    0 -0.35574753076E+01 -0.37909970397E+01 -0.76806801960E+01  0.92747041814E+01  0.51100000000E-03 0. -1.
        -11    1    3    3    0    0  0.51939120850E+00  0.38120646125E+02 -0.14084898519E+02  0.40642807418E+02  0.51100000000E-03 0.  1.
         12    1    3    3    0    0  0.34619703427E+01 -0.33276474503E+02  0.22088673716E+02  0.40090129715E+02  0.00000000000E+00 0. -1.
</event>
<event>
 7    1  0.4360540E-015  0.9000826E+02  0.7816164E-02  0.1186338E+00
        -11   -1    0    0    0    0  0.00000000000E+00  0.00000000000E+00  0.45593999997E+02  0.45594000000E+02  0.51100000000E-03 0.  1.
         11   -1    0    0    0    0 -0.00000000000E+00 -0.00000000000E+00 -0.45593999997E+02  0.45594000000E+02  0.51100000000E-03 0. -1.
    9900012    2    1    2    0    0 -0.65842187791E+00 -0.82543356562E+00 -0.52622778993E+00  0.90008264594E+02  0.90000532885E+02 0.  0.
        -12    1    1    2    0    0  0.65842187791E+00  0.82543356562E+00  0.52622778993E+00  0.11797354057E+01  0.00000000000E+00 0.  1.
         11    1    3    3    0    0  0.65742353617E+01  0.67499507750E+01  0.23833383632E+01  0.97191927685E+01  0.51100000000E-03 0. -1.
        -11    1    3    3    0    0  0.15300135742E+02  0.31099938872E+02 -0.69388314540E+01  0.35347527972E+02  0.51100000000E-03 0.  1.
         12    1    3    3    0    0 -0.22532792981E+02 -0.38675323212E+02  0.40292653008E+01  0.44941543854E+02  0.00000000000E+00 0. -1.
</event>
<event>
 7    1  0.3639239E-015  0.9000774E+02  0.7816164E-02  0.1186339E+00
        -11   -1    0    0    0    0  0.00000000000E+00  0.00000000000E+00  0.45593999997E+02  0.45594000000E+02  0.51100000000E-03 0.  1.
         11   -1    0    0    0    0 -0.00000000000E+00 -0.00000000000E+00 -0.45593999997E+02  0.45594000000E+02  0.51100000000E-03 0. -1.
    9900012    2    1    2    0    0 -0.50109502561E-01 -0.45943927761E+00 -0.10860153246E+01  0.90007735327E+02  0.89999996634E+02 0.  0.
        -12    1    1    2    0    0  0.50109502561E-01  0.45943927761E+00  0.10860153246E+01  0.11802646725E+01  0.00000000000E+00 0.  1.
         11    1    3    3    0    0  0.81937836695E+01  0.42996193333E+01 -0.93350304518E+00  0.93003357697E+01  0.51100000000E-03 0. -1.
        -11    1    3    3    0    0  0.17461727990E+01  0.20856959337E+02  0.32103177238E+02  0.38323307024E+02  0.51100000000E-03 0.  1.
         12    1    3    3    0    0 -0.99900659710E+01 -0.25616017948E+02 -0.32255689518E+02  0.42384092533E+02  0.00000000000E+00 0. -1.
</event>
<event>
 7    1  0.3505640E-015  0.9000775E+02  0.7816164E-02  0.1186339E+00
        -11   -1    0    0    0    0  0.00000000000E+00  0.00000000000E+00  0.45593999997E+02  0.45594000000E+02  0.51100000000E-03 0.  1.
         11   -1    0    0    0    0 -0.00000000000E+00 -0.00000000000E+00 -0.45593999997E+02  0.45594000000E+02  0.51100000000E-03 0. -1.
    9900012    2    1    2    0    0 -0.10221741392E+01  0.23960168734E-01 -0.58956218300E+00  0.90007746795E+02  0.90000008253E+02 0.  0.
        -12    1    1    2    0    0  0.10221741392E+01 -0.23960168734E-01  0.58956218300E+00  0.11802532051E+01  0.00000000000E+00 0.  1.
         11    1    3    3    0    0 -0.21413510220E+02 -0.28706468381E+01 -0.33200424080E+02  0.39611200342E+02  0.51100000000E-03 0. -1.
        -11    1    3    3    0    0 -0.87438253996E+00  0.99025700347E+01 -0.10206085436E+01  0.99933517990E+01  0.51100000000E-03 0.  1.
        -12    1    3    3    0    0  0.21265718620E+02 -0.70079630279E+01  0.33631470440E+02  0.40403194654E+02  0.00000000000E+00 0.  1.
</event>
<event>
 7    1  0.3505640E-015  0.9000773E+02  0.7816164E-02  0.1186339E+00
        -11   -1    0    0    0    0  0.00000000000E+00  0.00000000000E+00  0.45593999997E+02  0.45594000000E+02  0.51100000000E-03 0. -1.
         11   -1    0    0    0    0 -0.00000000000E+00 -0.00000000000E+00 -0.45593999997E+02  0.45594000000E+02  0.51100000000E-03 0.  1.
    9900012    2    1    2    0    0 -0.16819434864E+00 -0.18665647852E-01  0.11680739954E+01  0.90007731131E+02  0.89999992382E+02 0.  0.
        -12    1    1    2    0    0  0.16819434864E+00  0.18665647852E-01 -0.11680739954E+01  0.11802688694E+01  0.00000000000E+00 0.  1.
         11    1    3    3    0    0 -0.78107223475E+01 -0.20512078700E+01 -0.45669320841E+01  0.92774838312E+01  0.51100000000E-03 0. -1.
        -11    1    3    3    0    0  0.49830514175E+01 -0.36427685207E+02 -0.11468216928E+02  0.38513985132E+02  0.51100000000E-03 0.  1.
         12    1    3    3    0    0  0.26594765814E+01  0.38460227429E+02  0.17203223008E+02  0.42216262168E+02  0.00000000000E+00 0. -1.
</event>
<event>
 7    1  0.3505640E-015  0.9000736E+02  0.7816164E-02  0.1186340E+00
        -11   -1    0    0    0    0  0.00000000000E+00  0.00000000000E+00  0.45593999997E+02  0.45594000000E+02  0.51100000000E-03 0. -1.
         11   -1    0    0    0    0 -0.00000000000E+00 -0.00000000000E+00 -0.45593999997E+02  0.45594000000E+02  0.51100000000E-03 0.  1.
    9900012    2    1    2    0    0 -0.24753358955E+00  0.73313932846E+00  0.89171131897E+00  0.90007358128E+02  0.89999614455E+02 0.  0.
        -12    1    1    2    0    0  0.24753358955E+00 -0.73313932846E+00 -0.89171131897E+00  0.11806418717E+01  0.00000000000E+00 0.  1.
         11    1    3    3    0    0  0.55829590132E+01 -0.13109004819E+00 -0.87764094982E+01  0.10402498733E+02  0.51100000000E-03 0. -1.
        -11    1    3    3    0    0  0.11699179065E+02 -0.32788719844E+02 -0.10853703792E+02  0.36466064033E+02  0.51100000000E-03 0.  1.
         12    1    3    3    0    0 -0.17529671668E+02  0.33652949221E+02  0.20521824609E+02  0.43138795362E+02  0.00000000000E+00 0. -1.
</event>
<event>
 7    1  0.3505640E-015  0.9000772E+02  0.7816164E-02  0.1186339E+00
        -11   -1    0    0    0    0  0.00000000000E+00  0.00000000000E+00  0.45593999997E+02  0.45594000000E+02  0.51100000000E-03 0. -1.
         11   -1    0    0    0    0 -0.00000000000E+00 -0.00000000000E+00 -0.45593999997E+02  0.45594000000E+02  0.51100000000E-03 0.  1.
    9900012    2    1    2    0    0 -0.29537364121E+00 -0.45180045602E+00  0.10496200586E+01  0.90007715497E+02  0.89999976542E+02 0.  0.
        -12    1    1    2    0    0  0.29537364121E+00  0.45180045602E+00 -0.10496200586E+01  0.11802845027E+01  0.00000000000E+00 0.  1.
         11    1    3    3    0    0  0.25261263253E+02 -0.87645878637E+01  0.30172130450E+02  0.40315094912E+02  0.51100000000E-03 0. -1.
        -11    1    3    3    0    0  0.55506866825E+01  0.69425710359E+01 -0.43128633588E+01  0.98797877431E+01  0.51100000000E-03 0.  1.
        -12    1    3    3    0    0 -0.31107323577E+02  0.13702163718E+01 -0.24809647033E+02  0.39812832842E+02  0.00000000000E+00 0.  1.
</event>
<event>
 7    1  0.3505640E-015  0.9000776E+02  0.7816164E-02  0.1186339E+00
        -11   -1    0    0    0    0  0.00000000000E+00  0.00000000000E+00  0.45593999997E+02  0.45594000000E+02  0.51100000000E-03 0. -1.
         11   -1    0    0    0    0 -0.00000000000E+00 -0.00000000000E+00 -0.45593999997E+02  0.45594000000E+02  0.51100000000E-03 0.  1.
    9900012    2    1    2    0    0 -0.78413181021E+00  0.71679816246E+00  0.51409472854E+00  0.90007764561E+02  0.90000026253E+02 0.  0.
        -12    1    1    2    0    0  0.78413181021E+00 -0.71679816246E+00 -0.51409472854E+00  0.11802354390E+01  0.00000000000E+00 0.  1.
         11    1    3    3    0    0  0.35522471165E+01  0.29598135081E+01 -0.98805182114E+01  0.10908876934E+02  0.51100000000E-03 0. -1.
        -11    1    3    3    0    0 -0.22661330007E+01 -0.24158189618E+00 -0.34267923934E+02  0.34343621411E+02  0.51100000000E-03 0.  1.
         12    1    3    3    0    0 -0.20702459260E+01 -0.20014334495E+01  0.44662536874E+02  0.44755266216E+02  0.00000000000E+00 0. -1.
</event>
<event>
 7    1  0.3505640E-015  0.9000766E+02  0.7816164E-02  0.1186339E+00
        -11   -1    0    0    0    0  0.00000000000E+00  0.00000000000E+00  0.45593999997E+02  0.45594000000E+02  0.51100000000E-03 0. -1.
         11   -1    0    0    0    0 -0.00000000000E+00 -0.00000000000E+00 -0.45593999997E+02  0.45594000000E+02  0.51100000000E-03 0.  1.
    9900012    2    1    2    0    0  0.11715267908E+00 -0.80495263280E-01  0.11717520487E+01  0.90007658058E+02  0.89999918344E+02 0.  0.
        -12    1    1    2    0    0 -0.11715267908E+00  0.80495263280E-01 -0.11717520487E+01  0.11803419425E+01  0.00000000000E+00 0.  1.
         11    1    3    3    0    0 -0.33964853914E+01  0.32604978856E+02  0.21480251970E+02  0.39192116353E+02  0.51100000000E-03 0. -1.
        -11    1    3    3    0    0 -0.32360063602E+01  0.15773114046E+01 -0.15081540968E+02  0.15505241909E+02  0.51100000000E-03 0.  1.
        -12    1    3    3    0    0  0.67496444307E+01 -0.34262785524E+02 -0.52269589542E+01  0.35310299796E+02  0.00000000000E+00 0.  1.
</event>
<event>
 7    1  0.3505640E-015  0.9000772E+02  0.7816164E-02  0.1186339E+00
        -11   -1    0    0    0    0  0.00000000000E+00  0.00000000000E+00  0.45593999997E+02  0.45594000000E+02  0.51100000000E-03 0.  1.
         11   -1    0    0    0    0 -0.00000000000E+00 -0.00000000000E+00 -0.45593999997E+02  0.45594000000E+02  0.51100000000E-03 0. -1.
    9900012    2    1    2    0    0 -0.11835928460E-01  0.62176685783E+00  0.10031561107E+01  0.90007721941E+02  0.89999983070E+02 0.  0.
        -12    1    1    2    0    0  0.11835928460E-01 -0.62176685783E+00 -0.10031561107E+01  0.11802780593E+01  0.00000000000E+00 0.  1.
         11    1    3    3    0    0  0.12732114965E+02 -0.45000375761E+01 -0.57685206191E+01  0.14684444833E+02  0.51100000000E-03 0. -1.
        -11    1    3    3    0    0  0.29148692383E+02 -0.87841894628E+01  0.67503006863E+01  0.31182925003E+02  0.51100000000E-03 0.  1.
         12    1    3    3    0    0 -0.41892643276E+02  0.13905993897E+02  0.21376043471E-01  0.44140352104E+02  0.00000000000E+00 0. -1.
</event>
<event>
 7    1  0.3505640E-015  0.9000771E+02  0.7816164E-02  0.1186339E+00
        -11   -1    0    0    0    0  0.00000000000E+00  0.00000000000E+00  0.45593999997E+02  0.45594000000E+02  0.51100000000E-03 0.  1.
         11   -1    0    0    0    0 -0.00000000000E+00 -0.00000000000E+00 -0.45593999997E+02  0.45594000000E+02  0.51100000000E-03 0. -1.
    9900012    2    1    2    0    0  0.84552584310E+00 -0.32609488541E+00 -0.75619966493E+00  0.90007707765E+02  0.89999968708E+02 0.  0.
        -12    1    1    2    0    0 -0.84552584310E+00  0.32609488541E+00  0.75619966493E+00  0.11802922345E+01  0.00000000000E+00 0.  1.
         11    1    3    3    0    0 -0.80067580340E+01  0.26094833082E+01  0.76506612442E+01  0.11377618164E+02  0.51100000000E-03 0. -1.
        -11    1    3    3    0    0  0.79363056563E+01  0.14239858438E+01  0.34531958049E+02  0.35460806676E+02  0.51100000000E-03 0.  1.
         12    1    3    3    0    0  0.91597822079E+00 -0.43595640374E+01 -0.42938818959E+02  0.43169282925E+02  0.00000000000E+00 0. -1.
</event>
<event>
 7    1  0.3505640E-015  0.9000774E+02  0.7816164E-02  0.1186339E+00
        -11   -1    0    0    0    0  0.00000000000E+00  0.00000000000E+00  0.45593999997E+02  0.45594000000E+02  0.51100000000E-03 0. -1.
         11   -1    0    0    0    0 -0.00000000000E+00 -0.00000000000E+00 -0.45593999997E+02  0.45594000000E+02  0.51100000000E-03 0.  1.
    9900012    2    1    2    0    0 -0.60760801854E+00 -0.93535753458E+00  0.38590582361E+00  0.90007743873E+02  0.90000005292E+02 0.  0.
        -12    1    1    2    0    0  0.60760801854E+00  0.93535753458E+00 -0.38590582361E+00  0.11802561275E+01  0.00000000000E+00 0.  1.
         11    1    3    3    0    0  0.11848671321E+02 -0.24128069976E+01  0.30864376300E+01  0.12479533131E+02  0.51100000000E-03 0. -1.
        -11    1    3    3    0    0  0.22502369713E+02  0.26229219801E+02 -0.30430252265E+01  0.34692774707E+02  0.51100000000E-03 0.  1.
         12    1    3    3    0    0 -0.34958649053E+02 -0.24751770338E+02  0.34249342009E+00  0.42835436034E+02  0.00000000000E+00 0. -1.
</event>
<event>
 7    1  0.3505640E-015  0.9000779E+02  0.7816164E-02  0.1186339E+00
        -11   -1    0    0    0    0  0.00000000000E+00  0.00000000000E+00  0.45593999997E+02  0.45594000000E+02  0.51100000000E-03 0.  1.
         11   -1    0    0    0    0 -0.00000000000E+00 -0.00000000000E+00 -0.45593999997E+02  0.45594000000E+02  0.51100000000E-03 0. -1.
    9900012    2    1    2    0    0  0.95670548010E+00  0.74401321410E-01  0.68708493907E+00  0.90007785339E+02  0.90000047306E+02 0.  0.
        -12    1    1    2    0    0 -0.95670548010E+00 -0.74401321410E-01 -0.68708493907E+00  0.11802146609E+01  0.00000000000E+00 0.  1.
         11    1    3    3    0    0 -0.15198452561E+02  0.20923353547E+02  0.12799170263E+02  0.28854781988E+02  0.51100000000E-03 0. -1.
        -11    1    3    3    0    0  0.20271079776E+01  0.60673242117E+01  0.17550507453E+02  0.18679986669E+02  0.51100000000E-03 0.  1.
        -12    1    3    3    0    0  0.14128050063E+02 -0.26916276437E+02 -0.29662592777E+02  0.42473016682E+02  0.00000000000E+00 0.  1.
</event>
<event>
 7    1  0.3505640E-015  0.9000784E+02  0.7816164E-02  0.1186339E+00
        -11   -1    0    0    0    0  0.00000000000E+00  0.00000000000E+00  0.45593999997E+02  0.45594000000E+02  0.51100000000E-03 0.  1.
         11   -1    0    0    0    0 -0.00000000000E+00 -0.00000000000E+00 -0.45593999997E+02  0.45594000000E+02  0.51100000000E-03 0. -1.
    9900012    2    1    2    0    0 -0.14439995858E+00 -0.11224325639E+01 -0.33478321068E+00  0.90007836449E+02  0.90000099090E+02 0.  0.
        -12    1    1    2    0    0  0.14439995858E+00  0.11224325639E+01  0.33478321068E+00  0.11801635509E+01  0.00000000000E+00 0.  1.
         11    1    3    3    0    0 -0.14838866583E+01 -0.61418381584E+01  0.56917573276E+01  0.85041282514E+01  0.51100000000E-03 0. -1.
        -11    1    3    3    0    0  0.35878406221E+02  0.89315573577E+01  0.16070424879E+02  0.40314901784E+02  0.51100000000E-03 0.  1.
         12    1    3    3    0    0 -0.34538919521E+02 -0.39121517633E+01 -0.22096965417E+02  0.41188806414E+02  0.00000000000E+00 0. -1.
</event>
<event>
 7    1  0.3505640E-015  0.9000775E+02  0.7816164E-02  0.1186339E+00
        -11   -1    0    0    0    0  0.00000000000E+00  0.00000000000E+00  0.45593999997E+02  0.45594000000E+02  0.51100000000E-03 0. -1.
         11   -1    0    0    0    0 -0.00000000000E+00 -0.00000000000E+00 -0.45593999997E+02  0.45594000000E+02  0.51100000000E-03 0.  1.
    9900012    2    1    2    0    0 -0.67545276591E+00 -0.23909802732E+00  0.93786309563E+00  0.90007749394E+02  0.90000010887E+02 0.  0.
        -12    1    1    2    0    0  0.67545276591E+00  0.23909802732E+00 -0.93786309563E+00  0.11802506055E+01  0.00000000000E+00 0.  1.
         11    1    3    3    0    0 -0.64580504747E+01  0.49260579943E+01 -0.77342652192E+00  0.81590840260E+01  0.51100000000E-03 0. -1.
        -11    1    3    3    0    0 -0.12369930802E+02  0.48252509391E+01 -0.36247556746E+02  0.38602896329E+02  0.51100000000E-03 0.  1.
         12    1    3    3    0    0  0.18152528511E+02 -0.99904069608E+01  0.37958846363E+02  0.43245769040E+02  0.00000000000E+00 0. -1.
</event>
<event>
 7    1  0.3505640E-015  0.9000770E+02  0.7816164E-02  0.1186339E+00
        -11   -1    0    0    0    0  0.00000000000E+00  0.00000000000E+00  0.45593999997E+02  0.45594000000E+02  0.51100000000E-03 0. -1.
         11   -1    0    0    0    0 -0.00000000000E+00 -0.00000000000E+00 -0.45593999997E+02  0.45594000000E+02  0.51100000000E-03 0.  1.
    9900012    2    1    2    0    0  0.98445695313E-01 -0.62846862216E+00  0.99420814524E+00  0.90007697412E+02  0.89999958217E+02 0.  0.
        -12    1    1    2    0    0 -0.98445695313E-01  0.62846862216E+00 -0.99420814524E+00  0.11803025883E+01  0.00000000000E+00 0.  1.
         11    1    3    3    0    0 -0.17867425352E+02  0.27011543201E+02  0.14460837139E+02  0.35468072485E+02  0.51100000000E-03 0. -1.
        -11    1    3    3    0    0 -0.11753871537E+01 -0.21626122692E+02  0.98382438005E+01  0.23787848978E+02  0.51100000000E-03 0.  1.
        -12    1    3    3    0    0  0.19141258201E+02 -0.60138891304E+01 -0.23304872794E+02  0.30751775948E+02  0.00000000000E+00 0.  1.
</event>
<event>
 7    1  0.3505640E-015  0.9000774E+02  0.7816164E-02  0.1186339E+00
        -11   -1    0    0    0    0  0.00000000000E+00  0.00000000000E+00  0.45593999997E+02  0.45594000000E+02  0.51100000000E-03 0. -1.
         11   -1    0    0    0    0 -0.00000000000E+00 -0.00000000000E+00 -0.45593999997E+02  0.45594000000E+02  0.51100000000E-03 0.  1.
    9900012    2    1    2    0    0  0.13408840426E-01  0.27927799867E+00  0.11466643069E+01  0.90007739423E+02  0.90000000783E+02 0.  0.
        -12    1    1    2    0    0 -0.13408840426E-01 -0.27927799867E+00 -0.11466643069E+01  0.11802605773E+01  0.00000000000E+00 0.  1.
         11    1    3    3    0    0 -0.19829013610E+02  0.24348769342E+02 -0.27017696503E+02  0.41424730220E+02  0.51100000000E-03 0. -1.
        -11    1    3    3    0    0  0.90792750647E+01  0.10427572356E+01 -0.27903463634E+00  0.91432181940E+01  0.51100000000E-03 0.  1.
        -12    1    3    3    0    0  0.10763147385E+02 -0.25112248579E+02  0.28443395446E+02  0.39439791009E+02  0.00000000000E+00 0.  1.
</event>
<event>
 7    1  0.3505640E-015  0.9000772E+02  0.7816164E-02  0.1186339E+00
        -11   -1    0    0    0    0  0.00000000000E+00  0.00000000000E+00  0.45593999997E+02  0.45594000000E+02  0.51100000000E-03 0.  1.
         11   -1    0    0    0    0 -0.00000000000E+00 -0.00000000000E+00 -0.45593999997E+02  0.45594000000E+02  0.51100000000E-03 0. -1.
    9900012    2    1    2    0    0 -0.11247074951E+01  0.29732919892E+00 -0.19924073791E+00  0.90007716782E+02  0.89999977844E+02 0.  0.
        -12    1    1    2    0    0  0.11247074951E+01 -0.29732919892E+00  0.19924073791E+00  0.11802832176E+01  0.00000000000E+00 0.  1.
         11    1    3    3    0    0 -0.95795166475E+01 -0.12672695471E+01  0.29294899187E+01  0.10097277987E+02  0.51100000000E-03 0. -1.
        -11    1    3    3    0    0 -0.20278000993E+02  0.21898585977E+01  0.29858541473E+02  0.36159719358E+02  0.51100000000E-03 0.  1.
         12    1    3    3    0    0  0.28732810145E+02 -0.62525985170E+00 -0.32987272129E+02  0.43750719437E+02  0.00000000000E+00 0. -1.
</event>
<event>
 7    1  0.3505640E-015  0.9000773E+02  0.7816164E-02  0.1186339E+00
        -11   -1    0    0    0    0  0.00000000000E+00  0.00000000000E+00  0.45593999997E+02  0.45594000000E+02  0.51100000000E-03 0. -1.
         11   -1    0    0    0    0 -0.00000000000E+00 -0.00000000000E+00 -0.45593999997E+02  0.45594000000E+02  0.51100000000E-03 0.  1.
    9900012    2    1    2    0    0  0.24167363413E+00 -0.25094074161E-01  0.11549946432E+01  0.90007725251E+02  0.89999986424E+02 0.  0.
        -12    1    1    2    0    0 -0.24167363413E+00  0.25094074161E-01 -0.11549946432E+01  0.11802747493E+01  0.00000000000E+00 0.  1.
         11    1    3    3    0    0 -0.34405393208E+00  0.97055089121E+01  0.57147955723E+01  0.11268281371E+02  0.51100000000E-03 0. -1.
        -11    1    3    3    0    0 -0.98512626784E+01  0.32728519097E+02  0.32173223096E+01  0.34330081587E+02  0.51100000000E-03 0.  1.
         12    1    3    3    0    0  0.10436990245E+02 -0.42459122083E+02 -0.77771232388E+01  0.44409362294E+02  0.00000000000E+00 0. -1.
</event>
<event>
 7    1  0.3505640E-015  0.9000754E+02  0.7816164E-02  0.1186339E+00
        -11   -1    0    0    0    0  0.00000000000E+00  0.00000000000E+00  0.45593999997E+02  0.45594000000E+02  0.51100000000E-03 0.  1.
         11   -1    0    0    0    0 -0.00000000000E+00 -0.00000000000E+00 -0.45593999997E+02  0.45594000000E+02  0.51100000000E-03 0. -1.
    9900012    2    1    2    0    0 -0.61182912495E+00  0.84390321092E+00  0.55405740067E+00  0.90007539450E+02  0.89999798170E+02 0.  0.
        -12    1    1    2    0    0  0.61182912495E+00 -0.84390321092E+00 -0.55405740067E+00  0.11804605503E+01  0.00000000000E+00 0.  1.
         11    1    3    3    0    0  0.17864388236E+02  0.23092431832E+02 -0.30234268340E+02  0.42029843650E+02  0.51100000000E-03 0. -1.
        -11    1    3    3    0    0 -0.99238121122E+01 -0.11632756719E+01  0.38026173590E+00  0.99989927680E+01  0.51100000000E-03 0.  1.
        -12    1    3    3    0    0 -0.85524052484E+01 -0.21085252949E+02  0.30408064004E+02  0.37978703032E+02  0.00000000000E+00 0.  1.
</event>
<event>
 7    1  0.3505640E-015  0.9000788E+02  0.7816164E-02  0.1186339E+00
        -11   -1    0    0    0    0  0.00000000000E+00  0.00000000000E+00  0.45593999997E+02  0.45594000000E+02  0.51100000000E-03 0. -1.
         11   -1    0    0    0    0 -0.00000000000E+00 -0.00000000000E+00 -0.45593999997E+02  0.45594000000E+02  0.51100000000E-03 0.  1.
    9900012    2    1    2    0    0 -0.89256720372E+00  0.76934030162E+00 -0.64282031616E-01  0.90007875900E+02  0.90000139061E+02 0.  0.
        -12    1    1    2    0    0  0.89256720372E+00 -0.76934030162E+00  0.64282031616E-01  0.11801241004E+01  0.00000000000E+00 0.  1.
         11    1    3    3    0    0  0.14176097099E+02 -0.34041002085E+02  0.66015642158E+01  0.37461075829E+02  0.51100000000E-03 0. -1.
        -11    1    3    3    0    0  0.16153000651E+01 -0.33311395301E+01  0.76700353273E+01  0.85167556647E+01  0.51100000000E-03 0.  1.
        -12    1    3    3    0    0 -0.16683964368E+02  0.38141481917E+02 -0.14335881575E+02  0.44030044406E+02  0.00000000000E+00 0.  1.
</event>
<event>
 7    1  0.3505640E-015  0.9000769E+02  0.7816164E-02  0.1186339E+00
        -11   -1    0    0    0    0  0.00000000000E+00  0.00000000000E+00  0.45593999997E+02  0.45594000000E+02  0.51100000000E-03 0.  1.
         11   -1    0    0    0    0 -0.00000000000E+00 -0.00000000000E+00 -0.45593999997E+02  0.45594000000E+02  0.51100000000E-03 0. -1.
    9900012    2    1    2    0    0 -0.96929390326E+00  0.14729737918E+00  0.65720328959E+00  0.90007685062E+02  0.89999945705E+02 0.  0.
        -12    1    1    2    0    0  0.96929390326E+00 -0.14729737918E+00 -0.65720328959E+00  0.11803149379E+01  0.00000000000E+00 0.  1.
         11    1    3    3    0    0 -0.30050024794E+02  0.20786341853E+02  0.84225386704E+01  0.37496868611E+02  0.51100000000E-03 0. -1.
        -11    1    3    3    0    0 -0.79222402406E+01 -0.31299184465E+01  0.46868992330E+01  0.97224124883E+01  0.51100000000E-03 0.  1.
        -12    1    3    3    0    0  0.37002971131E+02 -0.17509126027E+02 -0.12452234614E+02  0.42788403962E+02  0.00000000000E+00 0.  1.
</event>
<event>
 7    1  0.3505640E-015  0.9000774E+02  0.7816164E-02  0.1186339E+00
        -11   -1    0    0    0    0  0.00000000000E+00  0.00000000000E+00  0.45593999997E+02  0.45594000000E+02  0.51100000000E-03 0. -1.
         11   -1    0    0    0    0 -0.00000000000E+00 -0.00000000000E+00 -0.45593999997E+02  0.45594000000E+02  0.51100000000E-03 0.  1.
    9900012    2    1    2    0    0  0.91457550008E+00 -0.45710729682E+00  0.58958195451E+00  0.90007744813E+02  0.90000006244E+02 0.  0.
        -12    1    1    2    0    0 -0.91457550008E+00  0.45710729682E+00 -0.58958195451E+00  0.11802551873E+01  0.00000000000E+00 0.  1.
         11    1    3    3    0    0 -0.14835571921E+01 -0.35554596492E+01 -0.70095666119E+01  0.79985160878E+01  0.51100000000E-03 0. -1.
        -11    1    3    3    0    0  0.24169415430E-01 -0.13892566153E+02 -0.34152633960E+02  0.36870128629E+02  0.51100000000E-03 0.  1.
         12    1    3    3    0    0  0.23739632768E+01  0.16990918505E+02  0.41751782526E+02  0.45139100095E+02  0.00000000000E+00 0. -1.
</event>
<event>
 7    1  0.3505640E-015  0.9000774E+02  0.7816164E-02  0.1186339E+00
        -11   -1    0    0    0    0  0.00000000000E+00  0.00000000000E+00  0.45593999997E+02  0.45594000000E+02  0.51100000000E-03 0. -1.
         11   -1    0    0    0    0 -0.00000000000E+00 -0.00000000000E+00 -0.45593999997E+02  0.45594000000E+02  0.51100000000E-03 0.  1.
    9900012    2    1    2    0    0 -0.10907967457E-02 -0.55374561138E+00  0.10422949154E+01  0.90007739824E+02  0.90000001190E+02 0.  0.
        -12    1    1    2    0    0  0.10907967457E-02  0.55374561138E+00 -0.10422949154E+01  0.11802601759E+01  0.00000000000E+00 0.  1.
         11    1    3    3    0    0  0.31456997514E+02 -0.24782063628E+02  0.49113910447E+01  0.40346191053E+02  0.51100000000E-03 0. -1.
        -11    1    3    3    0    0  0.33103086025E+01  0.51004079549E+01 -0.76806950960E+01  0.97961922076E+01  0.51100000000E-03 0.  1.
        -12    1    3    3    0    0 -0.34768396913E+02  0.19127910062E+02  0.38115989667E+01  0.39865356563E+02  0.00000000000E+00 0.  1.
</event>
<event>
 7    1  0.3505640E-015  0.9000764E+02  0.7816164E-02  0.1186339E+00
        -11   -1    0    0    0    0  0.00000000000E+00  0.00000000000E+00  0.45593999997E+02  0.45594000000E+02  0.51100000000E-03 0. -1.
         11   -1    0    0    0    0 -0.00000000000E+00 -0.00000000000E+00 -0.45593999997E+02  0.45594000000E+02  0.51100000000E-03 0.  1.
    9900012    2    1    2    0    0 -0.11550684274E+01 -0.11673683045E+00 -0.21316490469E+00  0.90007639955E+02  0.89999900002E+02 0.  0.
        -12    1    1    2    0    0  0.11550684274E+01  0.11673683045E+00  0.21316490469E+00  0.11803600452E+01  0.00000000000E+00 0.  1.
         11    1    3    3    0    0  0.91804989669E+00  0.58535130770E+01  0.10689286989E+01  0.60207175469E+01  0.51100000000E-03 0. -1.
        -11    1    3    3    0    0  0.31332501873E+02  0.12411579107E+01 -0.26869380444E+02  0.41294427618E+02  0.51100000000E-03 0.  1.
         12    1    3    3    0    0 -0.33405620197E+02 -0.72114078181E+01  0.25587286841E+02  0.42692494790E+02  0.00000000000E+00 0. -1.
</event>
<event>
 7    1  0.3505640E-015  0.9000774E+02  0.7816164E-02  0.1186339E+00
        -11   -1    0    0    0    0  0.00000000000E+00  0.00000000000E+00  0.45593999997E+02  0.45594000000E+02  0.51100000000E-03 0. -1.
         11   -1    0    0    0    0 -0.00000000000E+00 -0.00000000000E+00 -0.45593999997E+02  0.45594000000E+02  0.51100000000E-03 0.  1.
    9900012    2    1    2    0    0  0.25695209504E+00  0.42029019520E+00  0.10725455415E+01  0.90007736400E+02  0.89999997720E+02 0.  0.
        -12    1    1    2    0    0 -0.25695209504E+00 -0.42029019520E+00 -0.10725455415E+01  0.11802636002E+01  0.00000000000E+00 0.  1.
         11    1    3    3    0    0 -0.67892228066E+01  0.23691612160E+01  0.55031834341E+01  0.90549157565E+01  0.51100000000E-03 0. -1.
        -11    1    3    3    0    0 -0.26199980229E+02 -0.26370990956E+02  0.76822608831E+01  0.37958994461E+02  0.51100000000E-03 0.  1.
         12    1    3    3    0    0  0.33246155130E+02  0.24422119935E+02 -0.12112898776E+02  0.42993826182E+02  0.00000000000E+00 0. -1.
</event>
<event>
 7    1  0.3505640E-015  0.9000766E+02  0.7816164E-02  0.1186339E+00
        -11   -1    0    0    0    0  0.00000000000E+00  0.00000000000E+00  0.45593999997E+02  0.45594000000E+02  0.51100000000E-03 0.  1.
         11   -1    0    0    0    0 -0.00000000000E+00 -0.00000000000E+00 -0.45593999997E+02  0.45594000000E+02  0.51100000000E-03 0. -1.
    9900012    2    1    2    0    0 -0.11466980107E+01  0.27803386976E+00 -0.31529219590E-01  0.90007655452E+02  0.89999915704E+02 0.  0.
        -12    1    1    2    0    0  0.11466980107E+01 -0.27803386976E+00  0.31529219590E-01  0.11803445481E+01  0.00000000000E+00 0.  1.
         11    1    3    3    0    0  0.34178032093E+02 -0.12319250841E+02 -0.21767835631E+01  0.36395606960E+02  0.51100000000E-03 0. -1.
        -11    1    3    3    0    0  0.37745569798E+01  0.74205353569E+01  0.10395044255E+02  0.13317979228E+02  0.51100000000E-03 0.  1.
        -12    1    3    3    0    0 -0.39099287084E+02  0.51767493536E+01 -0.82497899117E+01  0.40294069265E+02  0.00000000000E+00 0.  1.
</event>
<event>
 8    1  0.3505640E-015  0.9000781E+02  0.7816164E-02  0.1186339E+00
        -11   -1    0    0    0    0  0.00000000000E+00  0.00000000000E+00  0.45593999997E+02  0.45594000000E+02  0.51100000000E-03 0.  1.
         11   -1    0    0    0    0 -0.00000000000E+00 -0.00000000000E+00 -0.45593999997E+02  0.45594000000E+02  0.51100000000E-03 0. -1.
    9900012    2    1    2    0    0  0.71951963225E+00  0.11376577407E+00 -0.92855185502E+00  0.90007805228E+02  0.90000067457E+02 0.  0.
         23    2    3    3    0    0  0.21341882681E+02 -0.18131343207E+02 -0.52106393436E+01  0.62142017374E+02  0.55229140842E+02 0.  0.
        -12    1    1    2    0    0 -0.71951963225E+00 -0.11376577407E+00  0.92855185502E+00  0.11801947721E+01  0.00000000000E+00 0.  1.
         11    1    4    4    0    0 -0.89081510823E+01  0.10810571253E+02  0.10415257927E+02  0.17455692609E+02  0.51100000000E-03 0.  1.
        -11    1    4    4    0    0  0.30250033763E+02 -0.28941914460E+02 -0.15625897270E+02  0.44686324765E+02  0.51100000000E-03 0. -1.
         12    1    3    3    0    0 -0.20622363048E+02  0.18245108981E+02  0.42820874886E+01  0.27865787854E+02  0.00000000000E+00 0. -1.
</event>
<event>
 7    1  0.3505640E-015  0.9000778E+02  0.7816164E-02  0.1186339E+00
        -11   -1    0    0    0    0  0.00000000000E+00  0.00000000000E+00  0.45593999997E+02  0.45594000000E+02  0.51100000000E-03 0.  1.
         11   -1    0    0    0    0 -0.00000000000E+00 -0.00000000000E+00 -0.45593999997E+02  0.45594000000E+02  0.51100000000E-03 0. -1.
    9900012    2    1    2    0    0  0.58466434296E+00  0.10130677672E+01 -0.15741742946E+00  0.90007780130E+02  0.90000042028E+02 0.  0.
        -12    1    1    2    0    0 -0.58466434296E+00 -0.10130677672E+01  0.15741742946E+00  0.11802198701E+01  0.00000000000E+00 0.  1.
         11    1    3    3    0    0  0.37759541007E+01  0.36134211500E+02 -0.75760254974E+01  0.37112467349E+02  0.51100000000E-03 0. -1.
        -11    1    3    3    0    0 -0.35238029032E-01  0.76332183899E+01 -0.38770741230E+01  0.85614816897E+01  0.51100000000E-03 0.  1.
        -12    1    3    3    0    0 -0.31560517287E+01 -0.42754362123E+02  0.11295682191E+02  0.44333831091E+02  0.00000000000E+00 0.  1.
</event>
<event>
 7    1  0.3505640E-015  0.9000773E+02  0.7816164E-02  0.1186339E+00
        -11   -1    0    0    0    0  0.00000000000E+00  0.00000000000E+00  0.45593999997E+02  0.45594000000E+02  0.51100000000E-03 0. -1.
         11   -1    0    0    0    0 -0.00000000000E+00 -0.00000000000E+00 -0.45593999997E+02  0.45594000000E+02  0.51100000000E-03 0.  1.
    9900012    2    1    2    0    0 -0.10402669066E+01  0.38344468887E+00  0.40477807568E+00  0.90007732930E+02  0.89999994204E+02 0.  0.
        -12    1    1    2    0    0  0.10402669066E+01 -0.38344468887E+00 -0.40477807568E+00  0.11802670702E+01  0.00000000000E+00 0.  1.
         11    1    3    3    0    0  0.76554298258E+01 -0.14748554735E+01 -0.60947699941E+01  0.98958085080E+01  0.51100000000E-03 0. -1.
        -11    1    3    3    0    0  0.17747726373E+02 -0.26592608260E+02  0.21441164345E+02  0.38495092340E+02  0.51100000000E-03 0.  1.
         12    1    3    3    0    0 -0.26443423105E+02  0.28450908423E+02 -0.14941616275E+02  0.41616832082E+02  0.00000000000E+00 0. -1.
</event>
<event>
 7    1  0.3505640E-015  0.9000778E+02  0.7816164E-02  0.1186339E+00
        -11   -1    0    0    0    0  0.00000000000E+00  0.00000000000E+00  0.45593999997E+02  0.45594000000E+02  0.51100000000E-03 0. -1.
         11   -1    0    0    0    0 -0.00000000000E+00 -0.00000000000E+00 -0.45593999997E+02  0.45594000000E+02  0.51100000000E-03 0.  1.
    9900012    2    1    2    0    0 -0.10167961323E+01 -0.18080234980E-01 -0.59893801628E+00  0.90007776285E+02  0.90000038132E+02 0.  0.
        -12    1    1    2    0    0  0.10167961323E+01  0.18080234980E-01  0.59893801628E+00  0.11802237148E+01  0.00000000000E+00 0.  1.
         11    1    3    3    0    0 -0.24648387562E+02 -0.28706625374E+02 -0.59464068330E+01  0.38301084896E+02  0.51100000000E-03 0. -1.
        -11    1    3    3    0    0  0.48011138223E+01 -0.79096496444E+01 -0.29671239703E+01  0.97168449791E+01  0.51100000000E-03 0.  1.
        -12    1    3    3    0    0  0.18830477607E+02  0.36598194783E+02  0.83145927870E+01  0.41989846410E+02  0.00000000000E+00 0.  1.
</event>
<event>
 7    1  0.3505640E-015  0.9000776E+02  0.7816164E-02  0.1186339E+00
        -11   -1    0    0    0    0  0.00000000000E+00  0.00000000000E+00  0.45593999997E+02  0.45594000000E+02  0.51100000000E-03 0.  1.
         11   -1    0    0    0    0 -0.00000000000E+00 -0.00000000000E+00 -0.45593999997E+02  0.45594000000E+02  0.51100000000E-03 0. -1.
    9900012    2    1    2    0    0  0.10704186279E+01  0.35341175989E-01 -0.49589677150E+00  0.90007763309E+02  0.90000024985E+02 0.  0.
        -12    1    1    2    0    0 -0.10704186279E+01 -0.35341175989E-01  0.49589677150E+00  0.11802366906E+01  0.00000000000E+00 0.  1.
         11    1    3    3    0    0  0.39383054341E+02  0.30142110383E+01 -0.79922031907E+00  0.39506318365E+02  0.51100000000E-03 0. -1.
        -11    1    3    3    0    0  0.34240323131E+01  0.66049052414E+01 -0.17011425869E+01  0.76316876830E+01  0.51100000000E-03 0.  1.
        -12    1    3    3    0    0 -0.41736668026E+02 -0.95837751038E+01  0.20044661345E+01  0.42869757261E+02  0.00000000000E+00 0.  1.
</event>
<event>
 7    1  0.3505640E-015  0.9000771E+02  0.7816164E-02  0.1186339E+00
        -11   -1    0    0    0    0  0.00000000000E+00  0.00000000000E+00  0.45593999997E+02  0.45594000000E+02  0.51100000000E-03 0. -1.
         11   -1    0    0    0    0 -0.00000000000E+00 -0.00000000000E+00 -0.45593999997E+02  0.45594000000E+02  0.51100000000E-03 0.  1.
    9900012    2    1    2    0    0  0.54387300988E+00  0.98537349376E-02  0.10474628653E+01  0.90007714695E+02  0.89999975729E+02 0.  0.
        -12    1    1    2    0    0 -0.54387300988E+00 -0.98537349376E-02 -0.10474628653E+01  0.11802853050E+01  0.00000000000E+00 0.  1.
         11    1    3    3    0    0 -0.23031171929E+02 -0.19769308991E+02  0.22313227978E+02  0.37671482602E+02  0.51100000000E-03 0. -1.
        -11    1    3    3    0    0  0.24316022196E+01 -0.44563291646E+01  0.75869997868E+01  0.91287526532E+01  0.51100000000E-03 0.  1.
        -12    1    3    3    0    0  0.21143442719E+02  0.24235491891E+02 -0.28852764899E+02  0.43207479440E+02  0.00000000000E+00 0.  1.
</event>
<event>
 7    1  0.3505640E-015  0.9000792E+02  0.7816164E-02  0.1186339E+00
        -11   -1    0    0    0    0  0.00000000000E+00  0.00000000000E+00  0.45593999997E+02  0.45594000000E+02  0.51100000000E-03 0.  1.
         11   -1    0    0    0    0 -0.00000000000E+00 -0.00000000000E+00 -0.45593999997E+02  0.45594000000E+02  0.51100000000E-03 0. -1.
    9900012    2    1    2    0    0 -0.59355865956E+00  0.68483232067E+00  0.75582886226E+00  0.90007921842E+02  0.90000185610E+02 0.  0.
        -12    1    1    2    0    0  0.59355865956E+00 -0.68483232067E+00 -0.75582886226E+00  0.11800781579E+01  0.00000000000E+00 0.  1.
         11    1    3    3    0    0 -0.39780727177E+01  0.76277802863E+01 -0.88316088855E+00  0.86480094854E+01  0.51100000000E-03 0. -1.
        -11    1    3    3    0    0 -0.18877393002E+02  0.15752172907E+02  0.29978654843E+02  0.38771209219E+02  0.51100000000E-03 0.  1.
         12    1    3    3    0    0  0.22261907060E+02 -0.22695120872E+02 -0.28339665092E+02  0.42588703137E+02  0.00000000000E+00 0. -1.
</event>
<event>
 7    1  0.3505640E-015  0.9000762E+02  0.7816164E-02  0.1186339E+00
        -11   -1    0    0    0    0  0.00000000000E+00  0.00000000000E+00  0.45593999997E+02  0.45594000000E+02  0.51100000000E-03 0.  1.
         11   -1    0    0    0    0 -0.00000000000E+00 -0.00000000000E+00 -0.45593999997E+02  0.45594000000E+02  0.51100000000E-03 0. -1.
    9900012    2    1    2    0    0  0.22162152237E+00  0.11069666769E+01 -0.34467249435E+00  0.90007622750E+02  0.89999882571E+02 0.  0.
        -12    1    1    2    0    0 -0.22162152237E+00 -0.11069666769E+01  0.34467249435E+00  0.11803772495E+01  0.00000000000E+00 0.  1.
         11    1    3    3    0    0 -0.10500540583E+02  0.15342690990E+01  0.69347174335E+00  0.10634671482E+02  0.51100000000E-03 0. -1.
        -11    1    3    3    0    0 -0.20285843255E+02 -0.28197135907E+02 -0.11251784164E+02  0.36512964233E+02  0.51100000000E-03 0.  1.
         12    1    3    3    0    0  0.31008005361E+02  0.27769833485E+02  0.10213639926E+02  0.42859987036E+02  0.00000000000E+00 0. -1.
</event>
<event>
 7    1  0.3505640E-015  0.9000780E+02  0.7816164E-02  0.1186339E+00
        -11   -1    0    0    0    0  0.00000000000E+00  0.00000000000E+00  0.45593999997E+02  0.45594000000E+02  0.51100000000E-03 0.  1.
         11   -1    0    0    0    0 -0.00000000000E+00 -0.00000000000E+00 -0.45593999997E+02  0.45594000000E+02  0.51100000000E-03 0. -1.
    9900012    2    1    2    0    0 -0.16560736458E+00 -0.10120665807E+01 -0.58409691979E+00  0.90007799265E+02  0.90000061415E+02 0.  0.
        -12    1    1    2    0    0  0.16560736458E+00  0.10120665807E+01  0.58409691979E+00  0.11802007349E+01  0.00000000000E+00 0.  1.
         11    1    3    3    0    0 -0.28851646252E+02 -0.17321825420E+02 -0.14301783898E+02  0.36565067350E+02  0.51100000000E-03 0. -1.
        -11    1    3    3    0    0  0.44455808306E+01 -0.11444099335E+02 -0.35042280250E+01  0.12767545293E+02  0.51100000000E-03 0.  1.
        -12    1    3    3    0    0  0.24240458057E+02  0.27753858174E+02  0.17221915003E+02  0.40675186622E+02  0.00000000000E+00 0.  1.
</event>
<event>
 7    1  0.3505640E-015  0.9000755E+02  0.7816164E-02  0.1186339E+00
        -11   -1    0    0    0    0  0.00000000000E+00  0.00000000000E+00  0.45593999997E+02  0.45594000000E+02  0.51100000000E-03 0.  1.
         11   -1    0    0    0    0 -0.00000000000E+00 -0.00000000000E+00 -0.45593999997E+02  0.45594000000E+02  0.51100000000E-03 0. -1.
    9900012    2    1    2    0    0 -0.33530520104E+00 -0.61165376386E+00 -0.95232538851E+00  0.90007545193E+02  0.89999803990E+02 0.  0.
        -12    1    1    2    0    0  0.33530520104E+00  0.61165376386E+00  0.95232538851E+00  0.11804548065E+01  0.00000000000E+00 0.  1.
         11    1    3    3    0    0 -0.34826380833E+02 -0.20306914865E+02  0.62765247371E+01  0.40800028876E+02  0.51100000000E-03 0. -1.
        -11    1    3    3    0    0 -0.20408327885E+01  0.17067745607E+01 -0.80504249201E+01  0.84786449110E+01  0.51100000000E-03 0.  1.
        -12    1    3    3    0    0  0.36531908421E+02  0.17988486540E+02  0.82157479443E+00  0.40728871406E+02  0.00000000000E+00 0.  1.
</event>
<event>
 7    1  0.3505640E-015  0.9000809E+02  0.7816164E-02  0.1186338E+00
        -11   -1    0    0    0    0  0.00000000000E+00  0.00000000000E+00  0.45593999997E+02  0.45594000000E+02  0.51100000000E-03 0.  1.
         11   -1    0    0    0    0 -0.00000000000E+00 -0.00000000000E+00 -0.45593999997E+02  0.45594000000E+02  0.51100000000E-03 0. -1.
    9900012    2    1    2    0    0  0.20098440228E+00  0.10036015882E+01  0.58701073320E+00  0.90008087936E+02  0.90000353896E+02 0.  0.
        -12    1    1    2    0    0 -0.20098440228E+00 -0.10036015882E+01 -0.58701073320E+00  0.11799120640E+01  0.00000000000E+00 0.  1.
         11    1    3    3    0    0  0.32116606183E+02  0.20118238265E+02 -0.12865380286E+02  0.40021718026E+02  0.51100000000E-03 0. -1.
        -11    1    3    3    0    0 -0.11545129555E+01 -0.45062069140E+01 -0.83450250129E+01  0.95539648127E+01  0.51100000000E-03 0.  1.
        -12    1    3    3    0    0 -0.30761108825E+02 -0.14608429763E+02  0.21797416032E+02  0.40432405097E+02  0.00000000000E+00 0.  1.
</event>
<event>
 7    1  0.3505640E-015  0.9000780E+02  0.7816164E-02  0.1186339E+00
        -11   -1    0    0    0    0  0.00000000000E+00  0.00000000000E+00  0.45593999997E+02  0.45594000000E+02  0.51100000000E-03 0.  1.
         11   -1    0    0    0    0 -0.00000000000E+00 -0.00000000000E+00 -0.45593999997E+02  0.45594000000E+02  0.51100000000E-03 0. -1.
    9900012    2    1    2    0    0 -0.43435670597E+00  0.69734677766E+00 -0.84730324606E+00  0.90007796176E+02  0.90000058285E+02 0.  0.
        -12    1    1    2    0    0  0.43435670597E+00 -0.69734677766E+00  0.84730324606E+00  0.11802038244E+01  0.00000000000E+00 0.  1.
         11    1    3    3    0    0  0.10052622795E+02  0.93972071022E+01 -0.22672619607E+02  0.26521885425E+02  0.51100000000E-03 0. -1.
        -11    1    3    3    0    0  0.13453620383E+02  0.13533776198E+02 -0.65866536767E+01  0.20187793503E+02  0.51100000000E-03 0.  1.
         12    1    3    3    0    0 -0.23940599884E+02 -0.22233636523E+02  0.28411970037E+02  0.43298117248E+02  0.00000000000E+00 0. -1.
</event>
<event>
 7    1  0.3505640E-015  0.9000775E+02  0.7816164E-02  0.1186339E+00
        -11   -1    0    0    0    0  0.00000000000E+00  0.00000000000E+00  0.45593999997E+02  0.45594000000E+02  0.51100000000E-03 0. -1.
         11   -1    0    0    0    0 -0.00000000000E+00 -0.00000000000E+00 -0.45593999997E+02  0.45594000000E+02  0.51100000000E-03 0.  1.
    9900012    2    1    2    0    0  0.94443719834E+00 -0.48849608609E+00 -0.51225304419E+00  0.90007748659E+02  0.90000010141E+02 0.  0.
        -12    1    1    2    0    0 -0.94443719834E+00  0.48849608609E+00  0.51225304419E+00  0.11802513415E+01  0.00000000000E+00 0.  1.
         11    1    3    3    0    0 -0.22380691686E+01 -0.78862586957E+01 -0.11889788289E+00  0.81985466265E+01  0.51100000000E-03 0. -1.
        -11    1    3    3    0    0 -0.57704539517E+01 -0.32077760047E+02 -0.18487680119E+02  0.37470990711E+02  0.51100000000E-03 0.  1.
         12    1    3    3    0    0  0.89529603187E+01  0.39475522656E+02  0.18094324958E+02  0.44338211321E+02  0.00000000000E+00 0. -1.
</event>
<event>
 7    1  0.3505640E-015  0.9000772E+02  0.7816164E-02  0.1186339E+00
        -11   -1    0    0    0    0  0.00000000000E+00  0.00000000000E+00  0.45593999997E+02  0.45594000000E+02  0.51100000000E-03 0.  1.
         11   -1    0    0    0    0 -0.00000000000E+00 -0.00000000000E+00 -0.45593999997E+02  0.45594000000E+02  0.51100000000E-03 0. -1.
    9900012    2    1    2    0    0  0.29519760650E+00  0.72672832267E+00 -0.88191844928E+00  0.90007722137E+02  0.89999983270E+02 0.  0.
        -12    1    1    2    0    0 -0.29519760650E+00 -0.72672832267E+00  0.88191844928E+00  0.11802778626E+01  0.00000000000E+00 0.  1.
         11    1    3    3    0    0 -0.24664543776E+02  0.33817603739E+02  0.15260964178E+01  0.41884352841E+02  0.51100000000E-03 0. -1.
        -11    1    3    3    0    0  0.14033267633E+01 -0.29127480929E+01  0.78497071932E+01  0.84894835377E+01  0.51100000000E-03 0.  1.
        -12    1    3    3    0    0  0.23556414619E+02 -0.30178127324E+02 -0.10257722060E+02  0.39633885759E+02  0.00000000000E+00 0.  1.
</event>
<event>
 7    1  0.3505640E-015  0.9000774E+02  0.7816164E-02  0.1186339E+00
        -11   -1    0    0    0    0  0.00000000000E+00  0.00000000000E+00  0.45593999997E+02  0.45594000000E+02  0.51100000000E-03 0. -1.
         11   -1    0    0    0    0 -0.00000000000E+00 -0.00000000000E+00 -0.45593999997E+02  0.45594000000E+02  0.51100000000E-03 0.  1.
    9900012    2    1    2    0    0  0.44418909811E+00 -0.10583028325E+01  0.27513134031E+00  0.90007743208E+02  0.90000004619E+02 0.  0.
        -12    1    1    2    0    0 -0.44418909811E+00  0.10583028325E+01 -0.27513134031E+00  0.11802567918E+01  0.00000000000E+00 0.  1.
         11    1    3    3    0    0  0.92725838506E+01  0.11256295942E+02  0.22446919280E+01  0.14755461759E+02  0.51100000000E-03 0. -1.
        -11    1    3    3    0    0  0.22651482829E+02 -0.30575757853E+02  0.44012230529E+01  0.38305840381E+02  0.51100000000E-03 0.  1.
         12    1    3    3    0    0 -0.31479877582E+02  0.18261159078E+02 -0.63707836406E+01  0.36946441069E+02  0.00000000000E+00 0. -1.
</event>
<event>
 7    1  0.3505640E-015  0.9000776E+02  0.7816164E-02  0.1186339E+00
        -11   -1    0    0    0    0  0.00000000000E+00  0.00000000000E+00  0.45593999997E+02  0.45594000000E+02  0.51100000000E-03 0.  1.
         11   -1    0    0    0    0 -0.00000000000E+00 -0.00000000000E+00 -0.45593999997E+02  0.45594000000E+02  0.51100000000E-03 0. -1.
    9900012    2    1    2    0    0  0.49036395330E+00 -0.12836803836E+00 -0.10658441148E+01  0.90007763228E+02  0.90000024903E+02 0.  0.
        -12    1    1    2    0    0 -0.49036395330E+00  0.12836803836E+00  0.10658441148E+01  0.11802367716E+01  0.00000000000E+00 0.  1.
         11    1    3    3    0    0 -0.14808073896E+01 -0.11736780190E+02 -0.38550280942E+02  0.40324545388E+02  0.51100000000E-03 0. -1.
        -11    1    3    3    0    0  0.11636844083E+01  0.90044883666E+01 -0.26485107790E+01  0.94577789017E+01  0.51100000000E-03 0.  1.
        -12    1    3    3    0    0  0.80748693467E+00  0.26039237849E+01  0.40132947607E+02  0.40225438939E+02  0.00000000000E+00 0.  1.
</event>
<event>
 7    1  0.3505640E-015  0.9000779E+02  0.7816164E-02  0.1186339E+00
        -11   -1    0    0    0    0  0.00000000000E+00  0.00000000000E+00  0.45593999997E+02  0.45594000000E+02  0.51100000000E-03 0.  1.
         11   -1    0    0    0    0 -0.00000000000E+00 -0.00000000000E+00 -0.45593999997E+02  0.45594000000E+02  0.51100000000E-03 0. -1.
    9900012    2    1    2    0    0 -0.59148569640E+00  0.52932592614E+00 -0.87341175111E+00  0.90007792666E+02  0.90000054729E+02 0.  0.
        -12    1    1    2    0    0  0.59148569640E+00 -0.52932592614E+00  0.87341175111E+00  0.11802073344E+01  0.00000000000E+00 0.  1.
         11    1    3    3    0    0 -0.17471857766E+02 -0.31113182126E+02 -0.56057220483E+01  0.36120908567E+02  0.51100000000E-03 0. -1.
        -11    1    3    3    0    0 -0.13329864447E+01 -0.89592950154E+01  0.21651327367E+01  0.93130886425E+01  0.51100000000E-03 0.  1.
        -12    1    3    3    0    0  0.18213358515E+02  0.40601803067E+02  0.25671775605E+01  0.44573795456E+02  0.00000000000E+00 0.  1.
</event>
<event>
 7    1  0.3505640E-015  0.9000770E+02  0.7816164E-02  0.1186339E+00
        -11   -1    0    0    0    0  0.00000000000E+00  0.00000000000E+00  0.45593999997E+02  0.45594000000E+02  0.51100000000E-03 0.  1.
         11   -1    0    0    0    0 -0.00000000000E+00 -0.00000000000E+00 -0.45593999997E+02  0.45594000000E+02  0.51100000000E-03 0. -1.
    9900012    2    1    2    0    0 -0.10531609733E+01  0.53028199520E+00  0.52652348474E-01  0.90007695251E+02  0.89999956029E+02 0.  0.
        -12    1    1    2    0    0  0.10531609733E+01 -0.53028199520E+00 -0.52652348474E-01  0.11803047487E+01  0.00000000000E+00 0.  1.
         11    1    3    3    0    0  0.56747662188E+01  0.26867716103E+01 -0.11547426133E+01  0.63839755708E+01  0.51100000000E-03 0. -1.
        -11    1    3    3    0    0 -0.12305251451E+02  0.28321355111E+02  0.28732688789E+02  0.42179210209E+02  0.51100000000E-03 0.  1.
         12    1    3    3    0    0  0.55773242587E+01 -0.30477844726E+02 -0.27525293827E+02  0.41444509471E+02  0.00000000000E+00 0. -1.
</event>
<event>
 7    1  0.3505640E-015  0.9000777E+02  0.7816164E-02  0.1186339E+00
        -11   -1    0    0    0    0  0.00000000000E+00  0.00000000000E+00  0.45593999997E+02  0.45594000000E+02  0.51100000000E-03 0.  1.
         11   -1    0    0    0    0 -0.00000000000E+00 -0.00000000000E+00 -0.45593999997E+02  0.45594000000E+02  0.51100000000E-03 0. -1.
    9900012    2    1    2    0    0 -0.71927406634E+00  0.69917989625E+00  0.62187963924E+00  0.90007770363E+02  0.90000032132E+02 0.  0.
        -12    1    1    2    0    0  0.71927406634E+00 -0.69917989625E+00 -0.62187963924E+00  0.11802296368E+01  0.00000000000E+00 0.  1.
         11    1    3    3    0    0 -0.24979742516E+02  0.28860008529E+02 -0.11854401500E+01  0.38187601353E+02  0.51100000000E-03 0. -1.
        -11    1    3    3    0    0  0.38350546095E+01  0.86763083821E+01 -0.13472323346E+01  0.95812841636E+01  0.51100000000E-03 0.  1.
        -12    1    3    3    0    0  0.20425413841E+02 -0.36837137015E+02  0.31545521239E+01  0.42238884847E+02  0.00000000000E+00 0.  1.
</event>
<event>
 7    1  0.3505640E-015  0.9000779E+02  0.7816164E-02  0.1186339E+00
        -11   -1    0    0    0    0  0.00000000000E+00  0.00000000000E+00  0.45593999997E+02  0.45594000000E+02  0.51100000000E-03 0. -1.
         11   -1    0    0    0    0 -0.00000000000E+00 -0.00000000000E+00 -0.45593999997E+02  0.45594000000E+02  0.51100000000E-03 0.  1.
    9900012    2    1    2    0    0 -0.39665021716E+00  0.10215038597E+01 -0.43827708827E+00  0.90007793096E+02  0.90000055165E+02 0.  0.
        -12    1    1    2    0    0  0.39665021716E+00 -0.10215038597E+01  0.43827708827E+00  0.11802069040E+01  0.00000000000E+00 0.  1.
         11    1    3    3    0    0 -0.28860919291E+02 -0.22437806141E+02  0.39142638075E+01  0.36765870969E+02  0.51100000000E-03 0. -1.
        -11    1    3    3    0    0 -0.84576000275E+01  0.58658758320E+01  0.47595093298E+01  0.11339860088E+02  0.51100000000E-03 0.  1.
        -12    1    3    3    0    0  0.36921869101E+02  0.17593434168E+02 -0.91120502255E+01  0.41902062038E+02  0.00000000000E+00 0.  1.
</event>
<event>
 7    1  0.3505640E-015  0.9000773E+02  0.7816164E-02  0.1186339E+00
        -11   -1    0    0    0    0  0.00000000000E+00  0.00000000000E+00  0.45593999997E+02  0.45594000000E+02  0.51100000000E-03 0. -1.
         11   -1    0    0    0    0 -0.00000000000E+00 -0.00000000000E+00 -0.45593999997E+02  0.45594000000E+02  0.51100000000E-03 0.  1.
    9900012    2    1    2    0    0 -0.29839957010E+00  0.89024914834E-01  0.11384550084E+01  0.90007725648E+02  0.89999986827E+02 0.  0.
        -12    1    1    2    0    0  0.29839957010E+00 -0.89024914834E-01 -0.11384550084E+01  0.11802743516E+01  0.00000000000E+00 0.  1.
         11    1    3    3    0    0 -0.14909900198E+01 -0.39109408338E+02  0.83649051360E+01  0.40021750461E+02  0.51100000000E-03 0. -1.
        -11    1    3    3    0    0 -0.63190645074E+01  0.18939830751E+00 -0.80699152379E+01  0.10251340409E+02  0.51100000000E-03 0.  1.
        -12    1    3    3    0    0  0.75116549571E+01  0.39009034945E+02  0.84346511033E+00  0.39734634778E+02  0.00000000000E+00 0.  1.
</event>
<event>
 7    1  0.3505640E-015  0.9000735E+02  0.7816164E-02  0.1186340E+00
        -11   -1    0    0    0    0  0.00000000000E+00  0.00000000000E+00  0.45593999997E+02  0.45594000000E+02  0.51100000000E-03 0.  1.
         11   -1    0    0    0    0 -0.00000000000E+00 -0.00000000000E+00 -0.45593999997E+02  0.45594000000E+02  0.51100000000E-03 0. -1.
    9900012    2    1    2    0    0 -0.40140101024E+00  0.10189956965E+01  0.44096539986E+00  0.90007353785E+02  0.89999610054E+02 0.  0.
        -12    1    1    2    0    0  0.40140101024E+00 -0.10189956965E+01 -0.44096539986E+00  0.11806462147E+01  0.00000000000E+00 0.  1.
         11    1    3    3    0    0  0.43970418021E+01  0.25003993567E+00  0.76588360771E+01  0.88348325902E+01  0.51100000000E-03 0. -1.
        -11    1    3    3    0    0  0.23724207065E+01 -0.32181112864E+01  0.36486385067E+02  0.36704780558E+02  0.51100000000E-03 0.  1.
         12    1    3    3    0    0 -0.71708635189E+01  0.39870670472E+01 -0.43704255744E+02  0.44467740638E+02  0.00000000000E+00 0. -1.
</event>
<event>
 7    1  0.3505640E-015  0.9000773E+02  0.7816164E-02  0.1186339E+00
        -11   -1    0    0    0    0  0.00000000000E+00  0.00000000000E+00  0.45593999997E+02  0.45594000000E+02  0.51100000000E-03 0.  1.
         11   -1    0    0    0    0 -0.00000000000E+00 -0.00000000000E+00 -0.45593999997E+02  0.45594000000E+02  0.51100000000E-03 0. -1.
    9900012    2    1    2    0    0 -0.32320999803E-01  0.10953001564E+01 -0.43853621394E+00  0.90007728383E+02  0.89999989597E+02 0.  0.
        -12    1    1    2    0    0  0.32320999803E-01 -0.10953001564E+01  0.43853621394E+00  0.11802716173E+01  0.00000000000E+00 0.  1.
         11    1    3    3    0    0 -0.88464231314E+01  0.12001808485E+01 -0.21014238308E+01  0.91714567364E+01  0.51100000000E-03 0. -1.
        -11    1    3    3    0    0 -0.23747332408E+02  0.15384861901E+02  0.25105726975E+02  0.37827599705E+02  0.51100000000E-03 0.  1.
         12    1    3    3    0    0  0.32561434540E+02 -0.15489742593E+02 -0.23442839359E+02  0.43008671941E+02  0.00000000000E+00 0. -1.
</event>
<event>
 7    1  0.3505640E-015  0.9000774E+02  0.7816164E-02  0.1186339E+00
        -11   -1    0    0    0    0  0.00000000000E+00  0.00000000000E+00  0.45593999997E+02  0.45594000000E+02  0.51100000000E-03 0. -1.
         11   -1    0    0    0    0 -0.00000000000E+00 -0.00000000000E+00 -0.45593999997E+02  0.45594000000E+02  0.51100000000E-03 0.  1.
    9900012    2    1    2    0    0  0.74893413260E-01 -0.11471330339E+01  0.26738892870E+00  0.90007737292E+02  0.89999998624E+02 0.  0.
        -12    1    1    2    0    0 -0.74893413260E-01  0.11471330339E+01 -0.26738892870E+00  0.11802627081E+01  0.00000000000E+00 0.  1.
         11    1    3    3    0    0 -0.20977617552E+01  0.51198621023E+01 -0.78273658457E+01  0.95854707069E+01  0.51100000000E-03 0. -1.
        -11    1    3    3    0    0 -0.21379580674E+02  0.17922234246E+02 -0.21739267364E+02  0.35367904885E+02  0.51100000000E-03 0.  1.
         12    1    3    3    0    0  0.23552235842E+02 -0.24189229382E+02  0.29834022138E+02  0.45054361700E+02  0.00000000000E+00 0. -1.
</event>
<event>
 7    1  0.3505640E-015  0.9000786E+02  0.7816164E-02  0.1186339E+00
        -11   -1    0    0    0    0  0.00000000000E+00  0.00000000000E+00  0.45593999997E+02  0.45594000000E+02  0.51100000000E-03 0.  1.
         11   -1    0    0    0    0 -0.00000000000E+00 -0.00000000000E+00 -0.45593999997E+02  0.45594000000E+02  0.51100000000E-03 0. -1.
    9900012    2    1    2    0    0  0.79714644073E+00  0.58129063743E+00  0.64759917491E+00  0.90007861896E+02  0.90000124873E+02 0.  0.
        -12    1    1    2    0    0 -0.79714644073E+00 -0.58129063743E+00 -0.64759917491E+00  0.11801381040E+01  0.00000000000E+00 0.  1.
         11    1    3    3    0    0 -0.11291474392E+01 -0.11990915428E+02  0.85289669761E+01  0.14758058974E+02  0.51100000000E-03 0. -1.
        -11    1    3    3    0    0  0.29287400293E+02 -0.94667061996E+01  0.14048713141E+02  0.33833957548E+02  0.51100000000E-03 0.  1.
         12    1    3    3    0    0 -0.27361106413E+02  0.22038912265E+02 -0.21930080942E+02  0.41415845374E+02  0.00000000000E+00 0. -1.
</event>
<event>
 7    1  0.3505640E-015  0.9000775E+02  0.7816164E-02  0.1186339E+00
        -11   -1    0    0    0    0  0.00000000000E+00  0.00000000000E+00  0.45593999997E+02  0.45594000000E+02  0.51100000000E-03 0. -1.
         11   -1    0    0    0    0 -0.00000000000E+00 -0.00000000000E+00 -0.45593999997E+02  0.45594000000E+02  0.51100000000E-03 0.  1.
    9900012    2    1    2    0    0 -0.11123757386E+01 -0.38332196705E+00 -0.93116235169E-01  0.90007751659E+02  0.90000013180E+02 0.  0.
        -12    1    1    2    0    0  0.11123757386E+01  0.38332196705E+00  0.93116235169E-01  0.11802483415E+01  0.00000000000E+00 0.  1.
         11    1    3    3    0    0 -0.23072820217E+01 -0.15321026352E+02 -0.82849003143E+01  0.17569774395E+02  0.51100000000E-03 0. -1.
        -11    1    3    3    0    0 -0.98362664681E+01  0.23632420218E+02 -0.25379595010E+02  0.36046737252E+02  0.51100000000E-03 0.  1.
         12    1    3    3    0    0  0.11031172751E+02 -0.86947158333E+01  0.33571379089E+02  0.36391240012E+02  0.00000000000E+00 0. -1.
</event>
<event>
 7    1  0.3505640E-015  0.9000760E+02  0.7816164E-02  0.1186339E+00
        -11   -1    0    0    0    0  0.00000000000E+00  0.00000000000E+00  0.45593999997E+02  0.45594000000E+02  0.51100000000E-03 0.  1.
         11   -1    0    0    0    0 -0.00000000000E+00 -0.00000000000E+00 -0.45593999997E+02  0.45594000000E+02  0.51100000000E-03 0. -1.
    9900012    2    1    2    0    0 -0.17283583392E+00 -0.97976471852E+00 -0.63523616772E+00  0.90007603407E+02  0.89999862971E+02 0.  0.
        -12    1    1    2    0    0  0.17283583392E+00  0.97976471852E+00  0.63523616772E+00  0.11803965935E+01  0.00000000000E+00 0.  1.
         11    1    3    3    0    0 -0.31481269822E+01  0.17867438400E+01  0.80196765400E+01  0.87987708865E+01  0.51100000000E-03 0. -1.
        -11    1    3    3    0    0  0.76509257985E+01  0.17681928014E+01  0.35610881466E+02  0.36466396180E+02  0.51100000000E-03 0.  1.
         12    1    3    3    0    0 -0.46756346503E+01 -0.45347013599E+01 -0.44265794173E+02  0.44742436340E+02  0.00000000000E+00 0. -1.
</event>
<event>
 7    1  0.3505640E-015  0.9000770E+02  0.7816164E-02  0.1186339E+00
        -11   -1    0    0    0    0  0.00000000000E+00  0.00000000000E+00  0.45593999997E+02  0.45594000000E+02  0.51100000000E-03 0.  1.
         11   -1    0    0    0    0 -0.00000000000E+00 -0.00000000000E+00 -0.45593999997E+02  0.45594000000E+02  0.51100000000E-03 0. -1.
    9900012    2    1    2    0    0  0.93567185433E+00  0.42086378537E+00 -0.58353005894E+00  0.90007696872E+02  0.89999957670E+02 0.  0.
        -12    1    1    2    0    0 -0.93567185433E+00 -0.42086378537E+00  0.58353005894E+00  0.11803031282E+01  0.00000000000E+00 0.  1.
         11    1    3    3    0    0 -0.10185210897E+02  0.10370738085E+01 -0.31755188364E+01  0.10719046750E+02  0.51100000000E-03 0. -1.
        -11    1    3    3    0    0 -0.33906857476E+02  0.95002402462E+00  0.43586514303E+01  0.34199055135E+02  0.51100000000E-03 0.  1.
         12    1    3    3    0    0  0.45027740228E+02 -0.15662340477E+01 -0.17666626529E+01  0.45089594986E+02  0.00000000000E+00 0. -1.
</event>
<event>
 7    1  0.3505640E-015  0.9000767E+02  0.7816164E-02  0.1186339E+00
        -11   -1    0    0    0    0  0.00000000000E+00  0.00000000000E+00  0.45593999997E+02  0.45594000000E+02  0.51100000000E-03 0. -1.
         11   -1    0    0    0    0 -0.00000000000E+00 -0.00000000000E+00 -0.45593999997E+02  0.45594000000E+02  0.51100000000E-03 0.  1.
    9900012    2    1    2    0    0  0.10897937577E+01 -0.45188047832E+00 -0.36366847052E-01  0.90007674219E+02  0.89999934719E+02 0.  0.
        -12    1    1    2    0    0 -0.10897937577E+01  0.45188047832E+00  0.36366847052E-01  0.11803257807E+01  0.00000000000E+00 0.  1.
         11    1    3    3    0    0 -0.89252771618E+00  0.38200130595E+02 -0.39835022821E+01  0.38417637536E+02  0.51100000000E-03 0. -1.
        -11    1    3    3    0    0 -0.89315312910E+01 -0.64942665380E+01  0.12389987249E+02  0.16596973621E+02  0.51100000000E-03 0.  1.
        -12    1    3    3    0    0  0.10913852765E+02 -0.32157744535E+02 -0.84428518139E+01  0.34993063063E+02  0.00000000000E+00 0.  1.
</event>
<event>
 7    1  0.3505640E-015  0.9000781E+02  0.7816164E-02  0.1186339E+00
        -11   -1    0    0    0    0  0.00000000000E+00  0.00000000000E+00  0.45593999997E+02  0.45594000000E+02  0.51100000000E-03 0. -1.
         11   -1    0    0    0    0 -0.00000000000E+00 -0.00000000000E+00 -0.45593999997E+02  0.45594000000E+02  0.51100000000E-03 0.  1.
    9900012    2    1    2    0    0 -0.86900142441E+00 -0.43383898870E+00  0.67043112212E+00  0.90007806104E+02  0.90000068344E+02 0.  0.
        -12    1    1    2    0    0  0.86900142441E+00  0.43383898870E+00 -0.67043112212E+00  0.11801938965E+01  0.00000000000E+00 0.  1.
         11    1    3    3    0    0  0.95791304696E+01 -0.37977418765E+02 -0.12347628346E+02  0.41067115831E+02  0.51100000000E-03 0. -1.
        -11    1    3    3    0    0 -0.79053850537E+01 -0.33384036336E+00  0.68794443141E+01  0.10484908992E+02  0.51100000000E-03 0.  1.
        -12    1    3    3    0    0 -0.25427468403E+01  0.37877420140E+02  0.61386151542E+01  0.38455781281E+02  0.00000000000E+00 0.  1.
</event>
<event>
 7    1  0.3505640E-015  0.9000760E+02  0.7816164E-02  0.1186339E+00
        -11   -1    0    0    0    0  0.00000000000E+00  0.00000000000E+00  0.45593999997E+02  0.45594000000E+02  0.51100000000E-03 0. -1.
         11   -1    0    0    0    0 -0.00000000000E+00 -0.00000000000E+00 -0.45593999997E+02  0.45594000000E+02  0.51100000000E-03 0.  1.
    9900012    2    1    2    0    0 -0.26971450322E+00  0.93317532349E+00  0.67065329031E+00  0.90007602637E+02  0.89999862192E+02 0.  0.
        -12    1    1    2    0    0  0.26971450322E+00 -0.93317532349E+00 -0.67065329031E+00  0.11803973625E+01  0.00000000000E+00 0.  1.
         11    1    3    3    0    0  0.86673668970E+00 -0.94760220298E+01 -0.33844249173E+01  0.10099532577E+02  0.51100000000E-03 0. -1.
        -11    1    3    3    0    0  0.38216585254E+02 -0.26649506093E+01  0.29995704568E+01  0.38426641454E+02  0.51100000000E-03 0.  1.
         12    1    3    3    0    0 -0.39353036447E+02  0.13074147963E+02  0.10555077508E+01  0.41481428606E+02  0.00000000000E+00 0. -1.
</event>
<event>
 7    1  0.3505640E-015  0.9000757E+02  0.7816164E-02  0.1186339E+00
        -11   -1    0    0    0    0  0.00000000000E+00  0.00000000000E+00  0.45593999997E+02  0.45594000000E+02  0.51100000000E-03 0.  1.
         11   -1    0    0    0    0 -0.00000000000E+00 -0.00000000000E+00 -0.45593999997E+02  0.45594000000E+02  0.51100000000E-03 0. -1.
    9900012    2    1    2    0    0 -0.35542510984E+00 -0.44250757769E+00 -0.10350189211E+01  0.90007574597E+02  0.89999833782E+02 0.  0.
        -12    1    1    2    0    0  0.35542510984E+00  0.44250757769E+00  0.10350189211E+01  0.11804254030E+01  0.00000000000E+00 0.  1.
         11    1    3    3    0    0  0.28776673043E+02  0.12756357673E+02 -0.23622126949E+02  0.39355132503E+02  0.51100000000E-03 0. -1.
        -11    1    3    3    0    0  0.54344655808E+01 -0.89742715823E+01  0.59056060781E+01  0.12039399902E+02  0.51100000000E-03 0.  1.
        -12    1    3    3    0    0 -0.34566563734E+02 -0.42245936685E+01  0.16681501950E+02  0.38613042192E+02  0.00000000000E+00 0.  1.
</event>
<event>
 7    1  0.3505640E-015  0.9000770E+02  0.7816164E-02  0.1186339E+00
        -11   -1    0    0    0    0  0.00000000000E+00  0.00000000000E+00  0.45593999997E+02  0.45594000000E+02  0.51100000000E-03 0.  1.
         11   -1    0    0    0    0 -0.00000000000E+00 -0.00000000000E+00 -0.45593999997E+02  0.45594000000E+02  0.51100000000E-03 0. -1.
    9900012    2    1    2    0    0 -0.17127053309E+00  0.57494881219E+00 -0.10164710576E+01  0.90007697859E+02  0.89999958671E+02 0.  0.
        -12    1    1    2    0    0  0.17127053309E+00 -0.57494881219E+00  0.10164710576E+01  0.11803021406E+01  0.00000000000E+00 0.  1.
         11    1    3    3    0    0 -0.43545319685E+01 -0.60006074560E+01 -0.17907442291E+00  0.74162865651E+01  0.51100000000E-03 0. -1.
        -11    1    3    3    0    0  0.25181621701E+02  0.29999431662E+00  0.33467093386E+02  0.41883772610E+02  0.51100000000E-03 0.  1.
         12    1    3    3    0    0 -0.20998360266E+02  0.62755619516E+01 -0.34304490021E+02  0.40707638684E+02  0.00000000000E+00 0. -1.
</event>
<event>
 7    1  0.3505640E-015  0.9000776E+02  0.7816164E-02  0.1186339E+00
        -11   -1    0    0    0    0  0.00000000000E+00  0.00000000000E+00  0.45593999997E+02  0.45594000000E+02  0.51100000000E-03 0.  1.
         11   -1    0    0    0    0 -0.00000000000E+00 -0.00000000000E+00 -0.45593999997E+02  0.45594000000E+02  0.51100000000E-03 0. -1.
    9900012    2    1    2    0    0  0.74797291133E+00  0.11724945129E+00 -0.90540321080E+00  0.90007760243E+02  0.90000021878E+02 0.  0.
        -12    1    1    2    0    0 -0.74797291133E+00 -0.11724945129E+00  0.90540321080E+00  0.11802397570E+01  0.00000000000E+00 0.  1.
         11    1    3    3    0    0 -0.34719032873E+02 -0.19560083517E+02  0.96682137378E+01  0.41005883334E+02  0.51100000000E-03 0. -1.
        -11    1    3    3    0    0 -0.85760816896E-01  0.11208544608E+02 -0.12103498874E+01  0.11274030968E+02  0.51100000000E-03 0.  1.
        -12    1    3    3    0    0  0.35552766601E+02  0.84687883602E+01 -0.93632670613E+01  0.37727845941E+02  0.00000000000E+00 0.  1.
</event>
<event>
 7    1  0.3505640E-015  0.9000757E+02  0.7816164E-02  0.1186339E+00
        -11   -1    0    0    0    0  0.00000000000E+00  0.00000000000E+00  0.45593999997E+02  0.45594000000E+02  0.51100000000E-03 0.  1.
         11   -1    0    0    0    0 -0.00000000000E+00 -0.00000000000E+00 -0.45593999997E+02  0.45594000000E+02  0.51100000000E-03 0. -1.
    9900012    2    1    2    0    0  0.31243388887E+00 -0.58605117320E+00 -0.97588266911E+00  0.90007568767E+02  0.89999827874E+02 0.  0.
        -12    1    1    2    0    0 -0.31243388887E+00  0.58605117320E+00  0.97588266911E+00  0.11804312332E+01  0.00000000000E+00 0.  1.
         11    1    3    3    0    0 -0.41255579001E+02 -0.29793495540E+01 -0.46096441108E+00  0.41365587278E+02  0.51100000000E-03 0. -1.
        -11    1    3    3    0    0  0.27093186669E+01  0.67078631857E+01  0.54958315316E+01  0.90851527583E+01  0.51100000000E-03 0.  1.
        -12    1    3    3    0    0  0.38858694223E+02 -0.43145648049E+01 -0.60107497897E+01  0.39556828730E+02  0.00000000000E+00 0.  1.
</event>
<event>
 7    1  0.3505640E-015  0.9000779E+02  0.7816164E-02  0.1186339E+00
        -11   -1    0    0    0    0  0.00000000000E+00  0.00000000000E+00  0.45593999997E+02  0.45594000000E+02  0.51100000000E-03 0. -1.
         11   -1    0    0    0    0 -0.00000000000E+00 -0.00000000000E+00 -0.45593999997E+02  0.45594000000E+02  0.51100000000E-03 0.  1.
    9900012    2    1    2    0    0  0.31682048738E+00  0.98564664963E+00 -0.56658732334E+00  0.90007789962E+02  0.90000051989E+02 0.  0.
        -12    1    1    2    0    0 -0.31682048738E+00 -0.98564664963E+00  0.56658732334E+00  0.11802100381E+01  0.00000000000E+00 0.  1.
         11    1    3    3    0    0 -0.33936692664E+02  0.49894340196E+01  0.16138662789E+02  0.37908442301E+02  0.51100000000E-03 0. -1.
        -11    1    3    3    0    0 -0.63363861992E+01 -0.14106587119E+01  0.27049198238E+01  0.70325201444E+01  0.51100000000E-03 0.  1.
        -12    1    3    3    0    0  0.40589899350E+02 -0.25931286581E+01 -0.19410169936E+02  0.45066827517E+02  0.00000000000E+00 0.  1.
</event>
<event>
 7    1  0.3505640E-015  0.9000773E+02  0.7816164E-02  0.1186339E+00
        -11   -1    0    0    0    0  0.00000000000E+00  0.00000000000E+00  0.45593999997E+02  0.45594000000E+02  0.51100000000E-03 0. -1.
         11   -1    0    0    0    0 -0.00000000000E+00 -0.00000000000E+00 -0.45593999997E+02  0.45594000000E+02  0.51100000000E-03 0.  1.
    9900012    2    1    2    0    0  0.62598639242E+00 -0.31576898589E+00  0.94945112949E+00  0.90007734579E+02  0.89999995876E+02 0.  0.
        -12    1    1    2    0    0 -0.62598639242E+00  0.31576898589E+00 -0.94945112949E+00  0.11802654207E+01  0.00000000000E+00 0.  1.
         11    1    3    3    0    0 -0.12002887385E+02  0.35407027352E+02 -0.13130861804E+02  0.39625073166E+02  0.51100000000E-03 0. -1.
        -11    1    3    3    0    0  0.56756597045E+01  0.42820635957E+01  0.52260088188E+01  0.88238512087E+01  0.51100000000E-03 0.  1.
        -12    1    3    3    0    0  0.69532140734E+01 -0.40004859933E+02  0.88543041149E+01  0.41558810204E+02  0.00000000000E+00 0.  1.
</event>
<event>
 7    1  0.3505640E-015  0.9000767E+02  0.7816164E-02  0.1186339E+00
        -11   -1    0    0    0    0  0.00000000000E+00  0.00000000000E+00  0.45593999997E+02  0.45594000000E+02  0.51100000000E-03 0.  1.
         11   -1    0    0    0    0 -0.00000000000E+00 -0.00000000000E+00 -0.45593999997E+02  0.45594000000E+02  0.51100000000E-03 0. -1.
    9900012    2    1    2    0    0 -0.99575615776E+00 -0.21792467760E+00 -0.59511323135E+00  0.90007669009E+02  0.89999929440E+02 0.  0.
        -12    1    1    2    0    0  0.99575615776E+00  0.21792467760E+00  0.59511323135E+00  0.11803309913E+01  0.00000000000E+00 0.  1.
         11    1    3    3    0    0 -0.10874696072E+02 -0.29856402722E+01 -0.40805283162E+02  0.42334905181E+02  0.51100000000E-03 0. -1.
        -11    1    3    3    0    0 -0.68239289346E+01 -0.32132055032E+01  0.87262268798E+01  0.11534198348E+02  0.51100000000E-03 0.  1.
        -12    1    3    3    0    0  0.16702868849E+02  0.59809210978E+01  0.31483943050E+02  0.36138565480E+02  0.00000000000E+00 0.  1.
</event>
<event>
 7    1  0.3505640E-015  0.9000767E+02  0.7816164E-02  0.1186339E+00
        -11   -1    0    0    0    0  0.00000000000E+00  0.00000000000E+00  0.45593999997E+02  0.45594000000E+02  0.51100000000E-03 0.  1.
         11   -1    0    0    0    0 -0.00000000000E+00 -0.00000000000E+00 -0.45593999997E+02  0.45594000000E+02  0.51100000000E-03 0. -1.
    9900012    2    1    2    0    0  0.34471345975E+00 -0.11288710956E+01 -0.51856292021E-04  0.90007670672E+02  0.89999931125E+02 0.  0.
        -12    1    1    2    0    0 -0.34471345975E+00  0.11288710956E+01  0.51856292027E-04  0.11803293280E+01  0.00000000000E+00 0.  1.
         11    1    3    3    0    0 -0.24308841792E+02  0.18815893800E+02 -0.22628818022E+02  0.38170945155E+02  0.51100000000E-03 0. -1.
        -11    1    3    3    0    0 -0.79736185744E+01 -0.57034854401E+01  0.28844214730E+00  0.98077285071E+01  0.51100000000E-03 0.  1.
        -12    1    3    3    0    0  0.32627173826E+02 -0.14241279455E+02  0.22340324018E+02  0.42028997010E+02  0.00000000000E+00 0.  1.
</event>
<event>
 7    1  0.3505640E-015  0.9000778E+02  0.7816164E-02  0.1186339E+00
        -11   -1    0    0    0    0  0.00000000000E+00  0.00000000000E+00  0.45593999997E+02  0.45594000000E+02  0.51100000000E-03 0. -1.
         11   -1    0    0    0    0 -0.00000000000E+00 -0.00000000000E+00 -0.45593999997E+02  0.45594000000E+02  0.51100000000E-03 0.  1.
    9900012    2    1    2    0    0 -0.28511112715E+00  0.67862745806E+00  0.92254598526E+00  0.90007781937E+02  0.90000043858E+02 0.  0.
        -12    1    1    2    0    0  0.28511112715E+00 -0.67862745806E+00 -0.92254598526E+00  0.11802180631E+01  0.00000000000E+00 0.  1.
         11    1    3    3    0    0  0.57545706910E+01 -0.11183728620E+01 -0.35829543297E+01  0.68704733233E+01  0.51100000000E-03 0. -1.
        -11    1    3    3    0    0  0.32920813596E+02 -0.89321078605E+01 -0.16164202172E+02  0.37747105197E+02  0.51100000000E-03 0.  1.
         12    1    3    3    0    0 -0.38960495414E+02  0.10729108181E+02  0.20669702487E+02  0.45390203416E+02  0.00000000000E+00 0. -1.
</event>
<event>
 7    1  0.3505640E-015  0.9000836E+02  0.7816164E-02  0.1186338E+00
        -11   -1    0    0    0    0  0.00000000000E+00  0.00000000000E+00  0.45593999997E+02  0.45594000000E+02  0.51100000000E-03 0. -1.
         11   -1    0    0    0    0 -0.00000000000E+00 -0.00000000000E+00 -0.45593999997E+02  0.45594000000E+02  0.51100000000E-03 0.  1.
    9900012    2    1    2    0    0  0.51039148181E-01 -0.11221747680E+01 -0.36009704434E+00  0.90008359764E+02  0.90000629311E+02 0.  0.
        -12    1    1    2    0    0 -0.51039148181E-01  0.11221747680E+01  0.36009704434E+00  0.11796402358E+01  0.00000000000E+00 0.  1.
         11    1    3    3    0    0  0.24485987587E+02  0.14426637608E+02 -0.23849654464E+02  0.37101178945E+02  0.51100000000E-03 0. -1.
        -11    1    3    3    0    0 -0.35822285416E+01  0.55628899773E+01 -0.75001029601E+01  0.10001482435E+02  0.51100000000E-03 0.  1.
        -12    1    3    3    0    0 -0.20852719897E+02 -0.21111702354E+02  0.30989660380E+02  0.42905698384E+02  0.00000000000E+00 0.  1.
</event>
<event>
 7    1  0.3505640E-015  0.9000773E+02  0.7816164E-02  0.1186339E+00
        -11   -1    0    0    0    0  0.00000000000E+00  0.00000000000E+00  0.45593999997E+02  0.45594000000E+02  0.51100000000E-03 0.  1.
         11   -1    0    0    0    0 -0.00000000000E+00 -0.00000000000E+00 -0.45593999997E+02  0.45594000000E+02  0.51100000000E-03 0. -1.
    9900012    2    1    2    0    0  0.10667178224E+01  0.32285653367E+00  0.38846510787E+00  0.90007733761E+02  0.89999995047E+02 0.  0.
        -12    1    1    2    0    0 -0.10667178224E+01 -0.32285653367E+00 -0.38846510787E+00  0.11802662386E+01  0.00000000000E+00 0.  1.
         11    1    3    3    0    0 -0.26599340115E+01  0.70662077505E+01  0.64419104277E+01  0.99249559766E+01  0.51100000000E-03 0. -1.
        -11    1    3    3    0    0 -0.30256722310E+02  0.30423608227E+01  0.19790118191E+02  0.36281868510E+02  0.51100000000E-03 0.  1.
         12    1    3    3    0    0  0.33983374144E+02 -0.97857120395E+01 -0.25843563511E+02  0.43800909274E+02  0.00000000000E+00 0. -1.
</event>
<event>
 7    1  0.3505640E-015  0.9000772E+02  0.7816164E-02  0.1186339E+00
        -11   -1    0    0    0    0  0.00000000000E+00  0.00000000000E+00  0.45593999997E+02  0.45594000000E+02  0.51100000000E-03 0. -1.
         11   -1    0    0    0    0 -0.00000000000E+00 -0.00000000000E+00 -0.45593999997E+02  0.45594000000E+02  0.51100000000E-03 0.  1.
    9900012    2    1    2    0    0  0.54116982713E+00  0.99275113349E+00  0.33859616981E+00  0.90007717423E+02  0.89999978493E+02 0.  0.
        -12    1    1    2    0    0 -0.54116982713E+00 -0.99275113349E+00 -0.33859616981E+00  0.11802825768E+01  0.00000000000E+00 0.  1.
         11    1    3    3    0    0 -0.46247080460E+01 -0.74578925820E+01 -0.51203392271E+01  0.10160017733E+02  0.51100000000E-03 0. -1.
        -11    1    3    3    0    0  0.15533510955E+02 -0.14394019518E+02 -0.29809944321E+02  0.36566522136E+02  0.51100000000E-03 0.  1.
         12    1    3    3    0    0 -0.10367633082E+02  0.22844663233E+02  0.35268879717E+02  0.43281177554E+02  0.00000000000E+00 0. -1.
</event>
<event>
 7    1  0.3505640E-015  0.9000773E+02  0.7816164E-02  0.1186339E+00
        -11   -1    0    0    0    0  0.00000000000E+00  0.00000000000E+00  0.45593999997E+02  0.45594000000E+02  0.51100000000E-03 0.  1.
         11   -1    0    0    0    0 -0.00000000000E+00 -0.00000000000E+00 -0.45593999997E+02  0.45594000000E+02  0.51100000000E-03 0. -1.
    9900012    2    1    2    0    0  0.33064953980E+00  0.67783930685E+00 -0.90787860161E+00  0.90007729353E+02  0.89999990581E+02 0.  0.
        -12    1    1    2    0    0 -0.33064953980E+00 -0.67783930685E+00  0.90787860161E+00  0.11802706467E+01  0.00000000000E+00 0.  1.
         11    1    3    3    0    0  0.26180181763E+02 -0.14456200747E+01 -0.35421747806E+02  0.44070306925E+02  0.51100000000E-03 0. -1.
        -11    1    3    3    0    0 -0.67512421102E+01  0.61512072211E+01  0.46188426863E+01  0.10234760785E+02  0.51100000000E-03 0.  1.
        -12    1    3    3    0    0 -0.19098290113E+02 -0.40277478395E+01  0.29895026518E+02  0.35702661643E+02  0.00000000000E+00 0.  1.
</event>
<event>
 7    1  0.3505640E-015  0.9000694E+02  0.7816164E-02  0.1186341E+00
        -11   -1    0    0    0    0  0.00000000000E+00  0.00000000000E+00  0.45593999997E+02  0.45594000000E+02  0.51100000000E-03 0.  1.
         11   -1    0    0    0    0 -0.00000000000E+00 -0.00000000000E+00 -0.45593999997E+02  0.45594000000E+02  0.51100000000E-03 0. -1.
    9900012    2    1    2    0    0  0.36559970735E+00 -0.11100692647E+01  0.17023832091E+00  0.90006941998E+02  0.89999192829E+02 0.  0.
        -12    1    1    2    0    0 -0.36559970735E+00  0.11100692647E+01 -0.17023832091E+00  0.11810580021E+01  0.00000000000E+00 0.  1.
         11    1    3    3    0    0  0.78042390414E+01  0.45314842840E+01 -0.31819126525E+01  0.95689636441E+01  0.51100000000E-03 0. -1.
        -11    1    3    3    0    0  0.19498500242E+02  0.16831355109E+02  0.27631158227E+02  0.37775215840E+02  0.51100000000E-03 0.  1.
         12    1    3    3    0    0 -0.26937139576E+02 -0.22472908658E+02 -0.24279007254E+02  0.42662762514E+02  0.00000000000E+00 0. -1.
</event>
<event>
 7    1  0.3505640E-015  0.9000764E+02  0.7816164E-02  0.1186339E+00
        -11   -1    0    0    0    0  0.00000000000E+00  0.00000000000E+00  0.45593999997E+02  0.45594000000E+02  0.51100000000E-03 0.  1.
         11   -1    0    0    0    0 -0.00000000000E+00 -0.00000000000E+00 -0.45593999997E+02  0.45594000000E+02  0.51100000000E-03 0. -1.
    9900012    2    1    2    0    0  0.71321193904E+00 -0.54317135043E+00  0.76781495133E+00  0.90007641501E+02  0.89999901569E+02 0.  0.
        -12    1    1    2    0    0 -0.71321193904E+00  0.54317135043E+00 -0.76781495133E+00  0.11803584987E+01  0.00000000000E+00 0.  1.
         11    1    3    3    0    0  0.16522117494E+02  0.32830888459E+02 -0.11981286363E+02  0.38657454995E+02  0.51100000000E-03 0. -1.
        -11    1    3    3    0    0 -0.28144215479E+00 -0.31368479860E+01 -0.99766203362E+01  0.10461929964E+02  0.51100000000E-03 0.  1.
        -12    1    3    3    0    0 -0.15527463400E+02 -0.30237211824E+02  0.22725721651E+02  0.40888256542E+02  0.00000000000E+00 0.  1.
</event>
<event>
 7    1  0.3505640E-015  0.9000782E+02  0.7816164E-02  0.1186339E+00
        -11   -1    0    0    0    0  0.00000000000E+00  0.00000000000E+00  0.45593999997E+02  0.45594000000E+02  0.51100000000E-03 0.  1.
         11   -1    0    0    0    0 -0.00000000000E+00 -0.00000000000E+00 -0.45593999997E+02  0.45594000000E+02  0.51100000000E-03 0. -1.
    9900012    2    1    2    0    0  0.10833274171E+01  0.31477479072E+00  0.34661243376E+00  0.90007821352E+02  0.90000083794E+02 0.  0.
        -12    1    1    2    0    0 -0.10833274171E+01 -0.31477479072E+00 -0.34661243376E+00  0.11801786479E+01  0.00000000000E+00 0.  1.
         11    1    3    3    0    0 -0.53576749169E+01 -0.43526957059E+01 -0.39664449077E+02  0.40260640349E+02  0.51100000000E-03 0. -1.
        -11    1    3    3    0    0  0.99820678923E+00 -0.93328446130E+01  0.30805020733E+01  0.98786587475E+01  0.51100000000E-03 0.  1.
        -12    1    3    3    0    0  0.54427955448E+01  0.14000315110E+02  0.36930559438E+02  0.39868522256E+02  0.00000000000E+00 0.  1.
</event>
<event>
 7    1  0.3505640E-015  0.9000768E+02  0.7816164E-02  0.1186339E+00
        -11   -1    0    0    0    0  0.00000000000E+00  0.00000000000E+00  0.45593999997E+02  0.45594000000E+02  0.51100000000E-03 0. -1.
         11   -1    0    0    0    0 -0.00000000000E+00 -0.00000000000E+00 -0.45593999997E+02  0.45594000000E+02  0.51100000000E-03 0.  1.
    9900012    2    1    2    0    0  0.23551475209E+00 -0.11490587989E+01  0.13171278976E+00  0.90007681577E+02  0.89999942173E+02 0.  0.
        -12    1    1    2    0    0 -0.23551475209E+00  0.11490587989E+01 -0.13171278976E+00  0.11803184235E+01  0.00000000000E+00 0.  1.
         11    1    3    3    0    0  0.13992215729E+02 -0.16897447528E+02  0.11920327329E+02  0.24967980252E+02  0.51100000000E-03 0. -1.
        -11    1    3    3    0    0  0.17311385865E+02  0.33490407806E+01  0.14232425274E+02  0.22659701767E+02  0.51100000000E-03 0.  1.
        -12    1    3    3    0    0 -0.31068086842E+02  0.12399347948E+02 -0.26021039813E+02  0.42379999558E+02  0.00000000000E+00 0.  1.
</event>
<event>
 7    1  0.3505640E-015  0.9000781E+02  0.7816164E-02  0.1186339E+00
        -11   -1    0    0    0    0  0.00000000000E+00  0.00000000000E+00  0.45593999997E+02  0.45594000000E+02  0.51100000000E-03 0. -1.
         11   -1    0    0    0    0 -0.00000000000E+00 -0.00000000000E+00 -0.45593999997E+02  0.45594000000E+02  0.51100000000E-03 0.  1.
    9900012    2    1    2    0    0  0.46260276533E+00  0.27233596273E+00  0.10510432928E+01  0.90007805017E+02  0.90000067243E+02 0.  0.
        -12    1    1    2    0    0 -0.46260276533E+00 -0.27233596273E+00 -0.10510432928E+01  0.11801949833E+01  0.00000000000E+00 0.  1.
         11    1    3    3    0    0  0.88714953550E+01  0.34403953346E+02  0.51413811823E+01  0.35899432258E+02  0.51100000000E-03 0. -1.
        -11    1    3    3    0    0 -0.24467773550E+01  0.95530720020E+01 -0.94673894690E+00  0.99067764180E+01  0.51100000000E-03 0.  1.
        -12    1    3    3    0    0 -0.59621152347E+01 -0.43684689386E+02 -0.31435989425E+01  0.44201596341E+02  0.00000000000E+00 0.  1.
</event>
<event>
 7    1  0.3505640E-015  0.9000771E+02  0.7816164E-02  0.1186339E+00
        -11   -1    0    0    0    0  0.00000000000E+00  0.00000000000E+00  0.45593999997E+02  0.45594000000E+02  0.51100000000E-03 0.  1.
         11   -1    0    0    0    0 -0.00000000000E+00 -0.00000000000E+00 -0.45593999997E+02  0.45594000000E+02  0.51100000000E-03 0. -1.
    9900012    2    1    2    0    0 -0.60545863053E+00 -0.30070265013E+00 -0.96751577500E+00  0.90007708082E+02  0.89999969029E+02 0.  0.
        -12    1    1    2    0    0  0.60545863053E+00  0.30070265013E+00  0.96751577500E+00  0.11802919181E+01  0.00000000000E+00 0.  1.
         11    1    3    3    0    0 -0.37078280159E+02 -0.84879221056E+01 -0.15041878346E+02  0.40903566906E+02  0.51100000000E-03 0. -1.
        -11    1    3    3    0    0 -0.30434008901E+01  0.21090900460E+01  0.77994663429E+01  0.86337839500E+01  0.51100000000E-03 0.  1.
        -12    1    3    3    0    0  0.39516222418E+02  0.60781294095E+01  0.62748962281E+01  0.40470357226E+02  0.00000000000E+00 0.  1.
</event>
<event>
 7    1  0.3505640E-015  0.9000770E+02  0.7816164E-02  0.1186339E+00
        -11   -1    0    0    0    0  0.00000000000E+00  0.00000000000E+00  0.45593999997E+02  0.45594000000E+02  0.51100000000E-03 0.  1.
         11   -1    0    0    0    0 -0.00000000000E+00 -0.00000000000E+00 -0.45593999997E+02  0.45594000000E+02  0.51100000000E-03 0. -1.
    9900012    2    1    2    0    0  0.66732834360E+00 -0.89582457984E+00 -0.38114363982E+00  0.90007703736E+02  0.89999964626E+02 0.  0.
        -12    1    1    2    0    0 -0.66732834360E+00  0.89582457984E+00  0.38114363982E+00  0.11802962637E+01  0.00000000000E+00 0.  1.
         11    1    3    3    0    0  0.29811456789E+02 -0.19836872891E+02  0.99844951422E+00  0.35822079555E+02  0.51100000000E-03 0. -1.
        -11    1    3    3    0    0  0.61667612030E+01 -0.74528402254E+01  0.23133274543E+01  0.99461176010E+01  0.51100000000E-03 0.  1.
        -12    1    3    3    0    0 -0.35310889649E+02  0.26393888536E+02 -0.36929206083E+01  0.44239506580E+02  0.00000000000E+00 0.  1.
</event>
<event>
 7    1  0.3505640E-015  0.9000785E+02  0.7816164E-02  0.1186339E+00
        -11   -1    0    0    0    0  0.00000000000E+00  0.00000000000E+00  0.45593999997E+02  0.45594000000E+02  0.51100000000E-03 0.  1.
         11   -1    0    0    0    0 -0.00000000000E+00 -0.00000000000E+00 -0.45593999997E+02  0.45594000000E+02  0.51100000000E-03 0. -1.
    9900012    2    1    2    0    0  0.66254630156E+00  0.35495503518E+00 -0.90982612377E+00  0.90007854139E+02  0.90000117013E+02 0.  0.
        -12    1    1    2    0    0 -0.66254630156E+00 -0.35495503518E+00  0.90982612377E+00  0.11801458614E+01  0.00000000000E+00 0.  1.
         11    1    3    3    0    0  0.38321543717E+00 -0.11174126558E+02 -0.27855379279E+02  0.30015497888E+02  0.51100000000E-03 0. -1.
        -11    1    3    3    0    0  0.21935896458E+02  0.58873815645E+01 -0.26737593866E+01  0.22869057799E+02  0.51100000000E-03 0.  1.
        -12    1    3    3    0    0 -0.21656565593E+02  0.56417000283E+01  0.29619312542E+02  0.37123298452E+02  0.00000000000E+00 0.  1.
</event>
<event>
 7    1  0.3505640E-015  0.9000777E+02  0.7816164E-02  0.1186339E+00
        -11   -1    0    0    0    0  0.00000000000E+00  0.00000000000E+00  0.45593999997E+02  0.45594000000E+02  0.51100000000E-03 0. -1.
         11   -1    0    0    0    0 -0.00000000000E+00 -0.00000000000E+00 -0.45593999997E+02  0.45594000000E+02  0.51100000000E-03 0.  1.
    9900012    2    1    2    0    0  0.68545097053E+00  0.25257343335E+00  0.92699331668E+00  0.90007765709E+02  0.90000027416E+02 0.  0.
        -12    1    1    2    0    0 -0.68545097053E+00 -0.25257343335E+00 -0.92699331668E+00  0.11802342909E+01  0.00000000000E+00 0.  1.
         11    1    3    3    0    0 -0.76042986776E+01  0.41488389087E+01  0.63589532187E+01  0.10745906614E+02  0.51100000000E-03 0. -1.
        -11    1    3    3    0    0 -0.87965894004E+01 -0.24389834585E+02 -0.32284572813E+02  0.41406975960E+02  0.51100000000E-03 0.  1.
         12    1    3    3    0    0  0.17086339048E+02  0.20493569110E+02  0.26852612911E+02  0.37854883134E+02  0.00000000000E+00 0. -1.
</event>
<event>
 7    1  0.3505640E-015  0.9000736E+02  0.7816164E-02  0.1186340E+00
        -11   -1    0    0    0    0  0.00000000000E+00  0.00000000000E+00  0.45593999997E+02  0.45594000000E+02  0.51100000000E-03 0.  1.
         11   -1    0    0    0    0 -0.00000000000E+00 -0.00000000000E+00 -0.45593999997E+02  0.45594000000E+02  0.51100000000E-03 0. -1.
    9900012    2    1    2    0    0 -0.74953719673E-02 -0.11595954728E+01  0.22178501465E+00  0.90007361853E+02  0.89999618229E+02 0.  0.
        -12    1    1    2    0    0  0.74953719673E-02  0.11595954728E+01 -0.22178501465E+00  0.11806381469E+01  0.00000000000E+00 0.  1.
         11    1    3    3    0    0 -0.52961579674E+01  0.74229583948E+01 -0.32985303770E+02  0.34222505250E+02  0.51100000000E-03 0. -1.
        -11    1    3    3    0    0 -0.17072078749E+00 -0.51291788241E+01 -0.10455431647E+02  0.11647045641E+02  0.51100000000E-03 0.  1.
        -12    1    3    3    0    0  0.54593833829E+01 -0.34533750435E+01  0.43662520431E+02  0.44137810962E+02  0.00000000000E+00 0.  1.
</event>
<event>
 7    1  0.3505640E-015  0.9000779E+02  0.7816164E-02  0.1186339E+00
        -11   -1    0    0    0    0  0.00000000000E+00  0.00000000000E+00  0.45593999997E+02  0.45594000000E+02  0.51100000000E-03 0.  1.
         11   -1    0    0    0    0 -0.00000000000E+00 -0.00000000000E+00 -0.45593999997E+02  0.45594000000E+02  0.51100000000E-03 0. -1.
    9900012    2    1    2    0    0  0.82347800495E+00  0.82445377870E+00  0.18725345768E+00  0.90007786496E+02  0.90000048478E+02 0.  0.
        -12    1    1    2    0    0 -0.82347800495E+00 -0.82445377870E+00 -0.18725345768E+00  0.11802135041E+01  0.00000000000E+00 0.  1.
         11    1    3    3    0    0  0.11883234778E+02 -0.29163426059E+02  0.19873877657E+02  0.37238255889E+02  0.51100000000E-03 0. -1.
        -11    1    3    3    0    0  0.50467959250E+01 -0.59089494784E+01  0.17479811593E+01  0.79650029153E+01  0.51100000000E-03 0.  1.
        -12    1    3    3    0    0 -0.16106552698E+02  0.35896829316E+02 -0.21434605359E+02  0.44804527691E+02  0.00000000000E+00 0.  1.
</event>
<event>
 7    1  0.3505640E-015  0.9000777E+02  0.7816164E-02  0.1186339E+00
        -11   -1    0    0    0    0  0.00000000000E+00  0.00000000000E+00  0.45593999997E+02  0.45594000000E+02  0.51100000000E-03 0.  1.
         11   -1    0    0    0    0 -0.00000000000E+00 -0.00000000000E+00 -0.45593999997E+02  0.45594000000E+02  0.51100000000E-03 0. -1.
    9900012    2    1    2    0    0  0.37804199854E+00  0.50911754487E-01 -0.11168856200E+01  0.90007770680E+02  0.90000032453E+02 0.  0.
        -12    1    1    2    0    0 -0.37804199854E+00 -0.50911754487E-01  0.11168856200E+01  0.11802293199E+01  0.00000000000E+00 0.  1.
         11    1    3    3    0    0 -0.74402880865E+01 -0.29637346905E+02 -0.25557371361E+02  0.39836032050E+02  0.51100000000E-03 0. -1.
        -11    1    3    3    0    0  0.79953263815E+01 -0.45543732379E+01  0.79710515099E+01  0.12173956710E+02  0.51100000000E-03 0.  1.
        -12    1    3    3    0    0 -0.17699629645E+00  0.34242631897E+02  0.16469434231E+02  0.37997781920E+02  0.00000000000E+00 0.  1.
</event>
<event>
 7    1  0.3505640E-015  0.9000766E+02  0.7816164E-02  0.1186339E+00
        -11   -1    0    0    0    0  0.00000000000E+00  0.00000000000E+00  0.45593999997E+02  0.45594000000E+02  0.51100000000E-03 0. -1.
         11   -1    0    0    0    0 -0.00000000000E+00 -0.00000000000E+00 -0.45593999997E+02  0.45594000000E+02  0.51100000000E-03 0.  1.
    9900012    2    1    2    0    0  0.64687108025E+00  0.43663187363E+00  0.88550118088E+00  0.90007660249E+02  0.89999920564E+02 0.  0.
        -12    1    1    2    0    0 -0.64687108025E+00 -0.43663187363E+00 -0.88550118088E+00  0.11803397515E+01  0.00000000000E+00 0.  1.
         11    1    3    3    0    0  0.24038052285E+02  0.30180938341E+02  0.17849373239E+02  0.42512552524E+02  0.51100000000E-03 0. -1.
        -11    1    3    3    0    0 -0.75238879055E+01  0.28537160004E+01 -0.21375712414E+01  0.83259711325E+01  0.51100000000E-03 0.  1.
        -12    1    3    3    0    0 -0.15867293299E+02 -0.32598022468E+02 -0.14826300817E+02  0.39169136592E+02  0.00000000000E+00 0.  1.
</event>
<event>
 7    1  0.3505640E-015  0.9000790E+02  0.7816164E-02  0.1186339E+00
        -11   -1    0    0    0    0  0.00000000000E+00  0.00000000000E+00  0.45593999997E+02  0.45594000000E+02  0.51100000000E-03 0. -1.
         11   -1    0    0    0    0 -0.00000000000E+00 -0.00000000000E+00 -0.45593999997E+02  0.45594000000E+02  0.51100000000E-03 0.  1.
    9900012    2    1    2    0    0 -0.83989549278E+00 -0.65134970845E+00 -0.51279003036E+00  0.90007900641E+02  0.90000164129E+02 0.  0.
        -12    1    1    2    0    0  0.83989549278E+00  0.65134970845E+00  0.51279003036E+00  0.11800993588E+01  0.00000000000E+00 0.  1.
         11    1    3    3    0    0 -0.17085280230E+02  0.34881100600E+01  0.23390630143E+02  0.29175251345E+02  0.51100000000E-03 0. -1.
        -11    1    3    3    0    0  0.62216161595E+01 -0.15391454337E+02  0.12925636880E+02  0.21039901694E+02  0.51100000000E-03 0.  1.
        -12    1    3    3    0    0  0.10023768577E+02  0.11251994569E+02 -0.36829057054E+02  0.39792747602E+02  0.00000000000E+00 0.  1.
</event>
<event>
 7    1  0.3505640E-015  0.9000771E+02  0.7816164E-02  0.1186339E+00
        -11   -1    0    0    0    0  0.00000000000E+00  0.00000000000E+00  0.45593999997E+02  0.45594000000E+02  0.51100000000E-03 0.  1.
         11   -1    0    0    0    0 -0.00000000000E+00 -0.00000000000E+00 -0.45593999997E+02  0.45594000000E+02  0.51100000000E-03 0. -1.
    9900012    2    1    2    0    0 -0.69940425231E-01 -0.93435113012E+00 -0.71775352548E+00  0.90007714517E+02  0.89999975549E+02 0.  0.
        -12    1    1    2    0    0  0.69940425231E-01  0.93435113012E+00  0.71775352548E+00  0.11802854827E+01  0.00000000000E+00 0.  1.
         11    1    3    3    0    0 -0.32060675223E+02 -0.22442710311E+02  0.57730697723E+01  0.39558696600E+02  0.51100000000E-03 0. -1.
        -11    1    3    3    0    0 -0.60946423475E+01  0.62898447579E+01  0.79216180234E+00  0.87939941440E+01  0.51100000000E-03 0.  1.
        -12    1    3    3    0    0  0.38085377145E+02  0.15218514423E+02 -0.72829851001E+01  0.41655023773E+02  0.00000000000E+00 0.  1.
</event>
<event>
 7    1  0.3505640E-015  0.9000771E+02  0.7816164E-02  0.1186339E+00
        -11   -1    0    0    0    0  0.00000000000E+00  0.00000000000E+00  0.45593999997E+02  0.45594000000E+02  0.51100000000E-03 0. -1.
         11   -1    0    0    0    0 -0.00000000000E+00 -0.00000000000E+00 -0.45593999997E+02  0.45594000000E+02  0.51100000000E-03 0.  1.
    9900012    2    1    2    0    0  0.11492098894E+01 -0.20741931406E+00 -0.17141255414E+00  0.90007708339E+02  0.89999969289E+02 0.  0.
        -12    1    1    2    0    0 -0.11492098894E+01  0.20741931406E+00  0.17141255414E+00  0.11802916612E+01  0.00000000000E+00 0.  1.
         11    1    3    3    0    0 -0.44021208259E+01  0.86517612866E+01 -0.14561200617E+01  0.98159017426E+01  0.51100000000E-03 0. -1.
        -11    1    3    3    0    0 -0.11269209754E+02 -0.14717817066E+02 -0.35092835190E+02  0.39687735003E+02  0.51100000000E-03 0.  1.
         12    1    3    3    0    0  0.16820540469E+02  0.58586364656E+01  0.36377542698E+02  0.40504071594E+02  0.00000000000E+00 0. -1.
</event>
<event>
 7    1  0.3505640E-015  0.9000777E+02  0.7816164E-02  0.1186339E+00
        -11   -1    0    0    0    0  0.00000000000E+00  0.00000000000E+00  0.45593999997E+02  0.45594000000E+02  0.51100000000E-03 0.  1.
         11   -1    0    0    0    0 -0.00000000000E+00 -0.00000000000E+00 -0.45593999997E+02  0.45594000000E+02  0.51100000000E-03 0. -1.
    9900012    2    1    2    0    0  0.28746366246E+00 -0.11347839286E+01  0.15024442138E+00  0.90007769807E+02  0.90000031569E+02 0.  0.
        -12    1    1    2    0    0 -0.28746366246E+00  0.11347839286E+01 -0.15024442138E+00  0.11802301928E+01  0.00000000000E+00 0.  1.
         11    1    3    3    0    0 -0.70878179412E+00 -0.53303469864E+01  0.78842241749E+01  0.95433726600E+01  0.51100000000E-03 0. -1.
        -11    1    3    3    0    0 -0.25756136926E+02  0.48059597099E+01  0.26331236941E+02  0.37145792187E+02  0.51100000000E-03 0.  1.
         12    1    3    3    0    0  0.26752382383E+02 -0.61039665201E+00 -0.34065216695E+02  0.43318604960E+02  0.00000000000E+00 0. -1.
</event>
<event>
 7    1  0.3505640E-015  0.9000754E+02  0.7816164E-02  0.1186339E+00
        -11   -1    0    0    0    0  0.00000000000E+00  0.00000000000E+00  0.45593999997E+02  0.45594000000E+02  0.51100000000E-03 0. -1.
         11   -1    0    0    0    0 -0.00000000000E+00 -0.00000000000E+00 -0.45593999997E+02  0.45594000000E+02  0.51100000000E-03 0.  1.
    9900012    2    1    2    0    0 -0.45752558908E+00 -0.10881771360E+01  0.40102429841E-02  0.90007544484E+02  0.89999803271E+02 0.  0.
        -12    1    1    2    0    0  0.45752558908E+00  0.10881771360E+01 -0.40102429841E-02  0.11804555163E+01  0.00000000000E+00 0.  1.
         11    1    3    3    0    0 -0.75077353927E+01  0.17705078322E+00 -0.31383976078E+01  0.81392246260E+01  0.51100000000E-03 0. -1.
        -11    1    3    3    0    0 -0.26947961941E+02 -0.12032380360E+02 -0.23193657464E+02  0.37535537518E+02  0.51100000000E-03 0.  1.
         12    1    3    3    0    0  0.33998171745E+02  0.10767152441E+02  0.26336065315E+02  0.44332782340E+02  0.00000000000E+00 0. -1.
</event>
<event>
 7    1  0.3505640E-015  0.9000773E+02  0.7816164E-02  0.1186339E+00
        -11   -1    0    0    0    0  0.00000000000E+00  0.00000000000E+00  0.45593999997E+02  0.45594000000E+02  0.51100000000E-03 0. -1.
         11   -1    0    0    0    0 -0.00000000000E+00 -0.00000000000E+00 -0.45593999997E+02  0.45594000000E+02  0.51100000000E-03 0.  1.
    9900012    2    1    2    0    0 -0.23366091807E+00 -0.78867790217E+00  0.84642026938E+00  0.90007729891E+02  0.89999991125E+02 0.  0.
        -12    1    1    2    0    0  0.23366091807E+00  0.78867790217E+00 -0.84642026938E+00  0.11802701091E+01  0.00000000000E+00 0.  1.
         11    1    3    3    0    0 -0.26697638767E+02 -0.24502104083E+02 -0.21577122157E+02  0.42174509139E+02  0.51100000000E-03 0. -1.
        -11    1    3    3    0    0  0.76411400820E+01  0.35114032994E+01 -0.42670448001E+01  0.94299865573E+01  0.51100000000E-03 0.  1.
        -12    1    3    3    0    0  0.18822837767E+02  0.20202022882E+02  0.26690587227E+02  0.38403234195E+02  0.00000000000E+00 0.  1.
</event>
<event>
 7    1  0.3505640E-015  0.9000774E+02  0.7816164E-02  0.1186339E+00
        -11   -1    0    0    0    0  0.00000000000E+00  0.00000000000E+00  0.45593999997E+02  0.45594000000E+02  0.51100000000E-03 0. -1.
         11   -1    0    0    0    0 -0.00000000000E+00 -0.00000000000E+00 -0.45593999997E+02  0.45594000000E+02  0.51100000000E-03 0.  1.
    9900012    2    1    2    0    0  0.81442721077E+00 -0.15534560715E+00  0.83999469028E+00  0.90007739427E+02  0.90000000788E+02 0.  0.
        -12    1    1    2    0    0 -0.81442721077E+00  0.15534560715E+00 -0.83999469028E+00  0.11802605725E+01  0.00000000000E+00 0.  1.
         11    1    3    3    0    0 -0.69558287639E+01 -0.70022070018E+01 -0.23940606535E+01  0.10156081103E+02  0.51100000000E-03 0. -1.
        -11    1    3    3    0    0  0.69125291475E+00  0.41649011716E+02  0.11848341325E+02  0.43307057161E+02  0.51100000000E-03 0.  1.
         12    1    3    3    0    0  0.70790030599E+01 -0.34802150321E+02 -0.86142859816E+01  0.36544601164E+02  0.00000000000E+00 0. -1.
</event>
<event>
 7    1  0.3505640E-015  0.9000780E+02  0.7816164E-02  0.1186339E+00
        -11   -1    0    0    0    0  0.00000000000E+00  0.00000000000E+00  0.45593999997E+02  0.45594000000E+02  0.51100000000E-03 0. -1.
         11   -1    0    0    0    0 -0.00000000000E+00 -0.00000000000E+00 -0.45593999997E+02  0.45594000000E+02  0.51100000000E-03 0.  1.
    9900012    2    1    2    0    0 -0.85466684677E+00  0.40114041897E+00  0.70817239016E+00  0.90007797819E+02  0.90000059950E+02 0.  0.
        -12    1    1    2    0    0  0.85466684677E+00 -0.40114041897E+00 -0.70817239016E+00  0.11802021814E+01  0.00000000000E+00 0.  1.
         11    1    3    3    0    0 -0.20450063845E+01  0.31744131853E+02 -0.21580956337E+02  0.38439688278E+02  0.51100000000E-03 0. -1.
        -11    1    3    3    0    0  0.18514065565E+01  0.40865358227E+00 -0.76746663416E+01  0.79053910532E+01  0.51100000000E-03 0.  1.
        -12    1    3    3    0    0 -0.66106701879E+00 -0.31751645016E+02  0.29963795069E+02  0.43662718488E+02  0.00000000000E+00 0.  1.
</event>
<event>
 7    1  0.3505640E-015  0.9000771E+02  0.7816164E-02  0.1186339E+00
        -11   -1    0    0    0    0  0.00000000000E+00  0.00000000000E+00  0.45593999997E+02  0.45594000000E+02  0.51100000000E-03 0.  1.
         11   -1    0    0    0    0 -0.00000000000E+00 -0.00000000000E+00 -0.45593999997E+02  0.45594000000E+02  0.51100000000E-03 0. -1.
    9900012    2    1    2    0    0  0.46163280927E+00  0.10644403973E+01  0.21667520666E+00  0.90007709207E+02  0.89999970169E+02 0.  0.
        -12    1    1    2    0    0 -0.46163280927E+00 -0.10644403973E+01 -0.21667520666E+00  0.11802907926E+01  0.00000000000E+00 0.  1.
         11    1    3    3    0    0 -0.69945352710E+01  0.85741166735E+01  0.17302798890E+01  0.11199681654E+02  0.51100000000E-03 0. -1.
        -11    1    3    3    0    0 -0.96314413150E+01  0.31064235872E+02  0.11753784035E+02  0.34581828343E+02  0.51100000000E-03 0.  1.
         12    1    3    3    0    0  0.17087609395E+02 -0.38573912148E+02 -0.13267388718E+02  0.44226199211E+02  0.00000000000E+00 0. -1.
</event>
<event>
 7    1  0.3505640E-015  0.9000781E+02  0.7816164E-02  0.1186339E+00
        -11   -1    0    0    0    0  0.00000000000E+00  0.00000000000E+00  0.45593999997E+02  0.45594000000E+02  0.51100000000E-03 0.  1.
         11   -1    0    0    0    0 -0.00000000000E+00 -0.00000000000E+00 -0.45593999997E+02  0.45594000000E+02  0.51100000000E-03 0. -1.
    9900012    2    1    2    0    0  0.61145510468E+00 -0.50115729921E+00 -0.87624612479E+00  0.90007812195E+02  0.90000074516E+02 0.  0.
        -12    1    1    2    0    0 -0.61145510468E+00  0.50115729921E+00  0.87624612479E+00  0.11801878049E+01  0.00000000000E+00 0.  1.
         11    1    3    3    0    0  0.71287355195E+01 -0.88228502924E+01  0.34916125076E+01  0.11868147099E+02  0.51100000000E-03 0. -1.
        -11    1    3    3    0    0  0.30933567102E+02  0.21904402929E+02 -0.54121088433E+01  0.38288109952E+02  0.51100000000E-03 0.  1.
         12    1    3    3    0    0 -0.37450847517E+02 -0.13582709936E+02  0.10442502109E+01  0.39851555144E+02  0.00000000000E+00 0. -1.
</event>
<event>
 7    1  0.3505640E-015  0.9000772E+02  0.7816164E-02  0.1186339E+00
        -11   -1    0    0    0    0  0.00000000000E+00  0.00000000000E+00  0.45593999997E+02  0.45594000000E+02  0.51100000000E-03 0.  1.
         11   -1    0    0    0    0 -0.00000000000E+00 -0.00000000000E+00 -0.45593999997E+02  0.45594000000E+02  0.51100000000E-03 0. -1.
    9900012    2    1    2    0    0 -0.76296942975E+00  0.45600855336E+00 -0.77653011232E+00  0.90007718183E+02  0.89999979263E+02 0.  0.
        -12    1    1    2    0    0  0.76296942975E+00 -0.45600855336E+00  0.77653011232E+00  0.11802818167E+01  0.00000000000E+00 0.  1.
         11    1    3    3    0    0  0.15064730882E+02 -0.29031908485E+02  0.61442472968E+01  0.33279867817E+02  0.51100000000E-03 0. -1.
        -11    1    3    3    0    0  0.68099078763E+00 -0.10531767294E+02  0.52094848763E+01  0.11769477632E+02  0.51100000000E-03 0.  1.
        -12    1    3    3    0    0 -0.16508691100E+02  0.40019684332E+02 -0.12130262285E+02  0.44958372735E+02  0.00000000000E+00 0.  1.
</event>
<event>
 7    1  0.3505640E-015  0.9000785E+02  0.7816164E-02  0.1186339E+00
        -11   -1    0    0    0    0  0.00000000000E+00  0.00000000000E+00  0.45593999997E+02  0.45594000000E+02  0.51100000000E-03 0.  1.
         11   -1    0    0    0    0 -0.00000000000E+00 -0.00000000000E+00 -0.45593999997E+02  0.45594000000E+02  0.51100000000E-03 0. -1.
    9900012    2    1    2    0    0 -0.75028065338E+00  0.80066651382E+00 -0.43447408543E+00  0.90007849308E+02  0.90000112119E+02 0.  0.
        -12    1    1    2    0    0  0.75028065338E+00 -0.80066651382E+00  0.43447408543E+00  0.11801506921E+01  0.00000000000E+00 0.  1.
         11    1    3    3    0    0  0.74309596336E+01  0.36796803276E+01  0.43733547645E+01  0.93747234917E+01  0.51100000000E-03 0. -1.
        -11    1    3    3    0    0  0.29133732466E+02  0.60290579750E+01  0.19170389657E+02  0.35392481509E+02  0.51100000000E-03 0.  1.
         12    1    3    3    0    0 -0.37314972753E+02 -0.89080717888E+01 -0.23978218507E+02  0.45240644307E+02  0.00000000000E+00 0. -1.
</event>
<event>
 7    1  0.3505640E-015  0.9000765E+02  0.7816164E-02  0.1186339E+00
        -11   -1    0    0    0    0  0.00000000000E+00  0.00000000000E+00  0.45593999997E+02  0.45594000000E+02  0.51100000000E-03 0.  1.
         11   -1    0    0    0    0 -0.00000000000E+00 -0.00000000000E+00 -0.45593999997E+02  0.45594000000E+02  0.51100000000E-03 0. -1.
    9900012    2    1    2    0    0 -0.16216616306E+00  0.25957129404E+00 -0.11399832802E+01  0.90007645392E+02  0.89999905511E+02 0.  0.
        -12    1    1    2    0    0  0.16216616306E+00 -0.25957129404E+00  0.11399832802E+01  0.11803546078E+01  0.00000000000E+00 0.  1.
         11    1    3    3    0    0  0.12456535046E+02 -0.20849102087E+01 -0.52815112506E+01  0.13689648545E+02  0.51100000000E-03 0. -1.
        -11    1    3    3    0    0  0.66560293398E+01  0.32233982121E+02  0.18737720939E+02  0.37873929241E+02  0.51100000000E-03 0.  1.
         12    1    3    3    0    0 -0.19274730549E+02 -0.29889500618E+02 -0.14596192969E+02  0.38444067606E+02  0.00000000000E+00 0. -1.
</event>
<event>
 7    1  0.3505640E-015  0.9000771E+02  0.7816164E-02  0.1186339E+00
        -11   -1    0    0    0    0  0.00000000000E+00  0.00000000000E+00  0.45593999997E+02  0.45594000000E+02  0.51100000000E-03 0. -1.
         11   -1    0    0    0    0 -0.00000000000E+00 -0.00000000000E+00 -0.45593999997E+02  0.45594000000E+02  0.51100000000E-03 0.  1.
    9900012    2    1    2    0    0 -0.56329530518E+00  0.10354087486E+01 -0.60879391639E-01  0.90007712248E+02  0.89999973250E+02 0.  0.
        -12    1    1    2    0    0  0.56329530518E+00 -0.10354087486E+01  0.60879391639E-01  0.11802877522E+01  0.00000000000E+00 0.  1.
         11    1    3    3    0    0  0.19704438265E+01  0.18392419535E+01  0.12393428441E+02  0.12683159252E+02  0.51100000000E-03 0. -1.
        -11    1    3    3    0    0  0.20661518122E+02  0.30814401631E+02 -0.58736978880E+01  0.37562295006E+02  0.51100000000E-03 0.  1.
         12    1    3    3    0    0 -0.23195257253E+02 -0.31618234836E+02 -0.65806099448E+01  0.39762257990E+02  0.00000000000E+00 0. -1.
</event>
<event>
 7    1  0.3505640E-015  0.9000776E+02  0.7816164E-02  0.1186339E+00
        -11   -1    0    0    0    0  0.00000000000E+00  0.00000000000E+00  0.45593999997E+02  0.45594000000E+02  0.51100000000E-03 0.  1.
         11   -1    0    0    0    0 -0.00000000000E+00 -0.00000000000E+00 -0.45593999997E+02  0.45594000000E+02  0.51100000000E-03 0. -1.
    9900012    2    1    2    0    0  0.76271872988E+00 -0.84692205100E+00 -0.30653027189E+00  0.90007755267E+02  0.90000016837E+02 0.  0.
        -12    1    1    2    0    0 -0.76271872988E+00  0.84692205100E+00  0.30653027189E+00  0.11802447327E+01  0.00000000000E+00 0.  1.
         11    1    3    3    0    0  0.13812613059E+02  0.31479495287E+02 -0.13738569398E+02  0.37020199789E+02  0.51100000000E-03 0. -1.
        -11    1    3    3    0    0  0.59698675093E+01  0.10820367961E+01 -0.71533727991E+01  0.93798115318E+01  0.51100000000E-03 0.  1.
        -12    1    3    3    0    0 -0.19019761839E+02 -0.33408454134E+02  0.20585411925E+02  0.43607743947E+02  0.00000000000E+00 0.  1.
</event>
<event>
 7    1  0.3505640E-015  0.9000769E+02  0.7816164E-02  0.1186339E+00
        -11   -1    0    0    0    0  0.00000000000E+00  0.00000000000E+00  0.45593999997E+02  0.45594000000E+02  0.51100000000E-03 0. -1.
         11   -1    0    0    0    0 -0.00000000000E+00 -0.00000000000E+00 -0.45593999997E+02  0.45594000000E+02  0.51100000000E-03 0.  1.
    9900012    2    1    2    0    0  0.94001374121E-01 -0.88089286344E+00  0.77995027533E+00  0.90007690326E+02  0.89999951038E+02 0.  0.
        -12    1    1    2    0    0 -0.94001374121E-01  0.88089286344E+00 -0.77995027533E+00  0.11803096743E+01  0.00000000000E+00 0.  1.
         11    1    3    3    0    0  0.46005083013E+01 -0.82474189359E+01  0.48319349123E+01  0.10608119107E+02  0.51100000000E-03 0. -1.
        -11    1    3    3    0    0 -0.50858429443E+01 -0.51640502856E+01 -0.40349680554E+02  0.40995486762E+02  0.51100000000E-03 0.  1.
         12    1    3    3    0    0  0.57933601711E+00  0.12530576358E+02  0.36297695917E+02  0.38404084457E+02  0.00000000000E+00 0. -1.
</event>
<event>
 7    1  0.3505640E-015  0.9000776E+02  0.7816164E-02  0.1186339E+00
        -11   -1    0    0    0    0  0.00000000000E+00  0.00000000000E+00  0.45593999997E+02  0.45594000000E+02  0.51100000000E-03 0. -1.
         11   -1    0    0    0    0 -0.00000000000E+00 -0.00000000000E+00 -0.45593999997E+02  0.45594000000E+02  0.51100000000E-03 0.  1.
    9900012    2    1    2    0    0 -0.58839128855E+00 -0.81083484242E+00  0.62393976352E+00  0.90007763465E+02  0.90000025143E+02 0.  0.
        -12    1    1    2    0    0  0.58839128855E+00  0.81083484242E+00 -0.62393976352E+00  0.11802365350E+01  0.00000000000E+00 0.  1.
         11    1    3    3    0    0 -0.22851651561E+01 -0.15081344137E+01 -0.95966023415E+01  0.99795403683E+01  0.51100000000E-03 0. -1.
        -11    1    3    3    0    0  0.45378587647E+01  0.33061370230E+02 -0.17174312919E+02  0.37531365392E+02  0.51100000000E-03 0.  1.
         12    1    3    3    0    0 -0.28410848972E+01 -0.32364070659E+02  0.27394855024E+02  0.42496857705E+02  0.00000000000E+00 0. -1.
</event>
<event>
 7    1  0.3505640E-015  0.9000773E+02  0.7816164E-02  0.1186339E+00
        -11   -1    0    0    0    0  0.00000000000E+00  0.00000000000E+00  0.45593999997E+02  0.45594000000E+02  0.51100000000E-03 0.  1.
         11   -1    0    0    0    0 -0.00000000000E+00 -0.00000000000E+00 -0.45593999997E+02  0.45594000000E+02  0.51100000000E-03 0. -1.
    9900012    2    1    2    0    0 -0.77629376995E+00 -0.74145731408E-01 -0.88594420403E+00  0.90007734462E+02  0.89999995757E+02 0.  0.
        -12    1    1    2    0    0  0.77629376995E+00  0.74145731408E-01  0.88594420403E+00  0.11802655377E+01  0.00000000000E+00 0.  1.
         11    1    3    3    0    0  0.79933640606E+01  0.16181314234E+01 -0.66754921782E+01  0.10539184712E+02  0.51100000000E-03 0. -1.
        -11    1    3    3    0    0  0.26169871502E+02  0.44778275585E+01  0.27215372139E+02  0.38020909971E+02  0.51100000000E-03 0.  1.
         12    1    3    3    0    0 -0.34939529333E+02 -0.61701047134E+01 -0.21425824165E+02  0.41447639780E+02  0.00000000000E+00 0. -1.
</event>
<event>
 7    1  0.3505640E-015  0.9000765E+02  0.7816164E-02  0.1186339E+00
        -11   -1    0    0    0    0  0.00000000000E+00  0.00000000000E+00  0.45593999997E+02  0.45594000000E+02  0.51100000000E-03 0. -1.
         11   -1    0    0    0    0 -0.00000000000E+00 -0.00000000000E+00 -0.45593999997E+02  0.45594000000E+02  0.51100000000E-03 0.  1.
    9900012    2    1    2    0    0 -0.11759360616E+00  0.22086196534E+00  0.11535285695E+01  0.90007645636E+02  0.89999905758E+02 0.  0.
        -12    1    1    2    0    0  0.11759360616E+00 -0.22086196534E+00 -0.11535285695E+01  0.11803543640E+01  0.00000000000E+00 0.  1.
         11    1    3    3    0    0  0.39066309192E+02 -0.24664400746E+01  0.11942556098E+00  0.39144272930E+02  0.51100000000E-03 0. -1.
        -11    1    3    3    0    0 -0.63766026048E-02  0.67666937873E+01 -0.79729483742E+01  0.10457346294E+02  0.51100000000E-03 0.  1.
        -12    1    3    3    0    0 -0.39177526195E+02 -0.40793917473E+01  0.90070513827E+01  0.40406026412E+02  0.00000000000E+00 0.  1.
</event>
<event>
 7    1  0.3505640E-015  0.9000776E+02  0.7816164E-02  0.1186339E+00
        -11   -1    0    0    0    0  0.00000000000E+00  0.00000000000E+00  0.45593999997E+02  0.45594000000E+02  0.51100000000E-03 0.  1.
         11   -1    0    0    0    0 -0.00000000000E+00 -0.00000000000E+00 -0.45593999997E+02  0.45594000000E+02  0.51100000000E-03 0. -1.
    9900012    2    1    2    0    0  0.84632524005E+00  0.35373525740E+00 -0.74267686950E+00  0.90007761051E+02  0.90000022697E+02 0.  0.
        -12    1    1    2    0    0 -0.84632524005E+00 -0.35373525740E+00  0.74267686950E+00  0.11802389490E+01  0.00000000000E+00 0.  1.
         11    1    3    3    0    0 -0.16979762945E+02  0.32999177955E+02 -0.91122395168E+01  0.38213754129E+02  0.51100000000E-03 0. -1.
        -11    1    3    3    0    0  0.39282449948E+01  0.65268320464E+01  0.67816222385E+01  0.10199070828E+02  0.51100000000E-03 0.  1.
        -12    1    3    3    0    0  0.13897843190E+02 -0.39172274744E+02  0.15879404088E+01  0.41594936094E+02  0.00000000000E+00 0.  1.
</event>
<event>
 7    1  0.3505640E-015  0.9000773E+02  0.7816164E-02  0.1186339E+00
        -11   -1    0    0    0    0  0.00000000000E+00  0.00000000000E+00  0.45593999997E+02  0.45594000000E+02  0.51100000000E-03 0. -1.
         11   -1    0    0    0    0 -0.00000000000E+00 -0.00000000000E+00 -0.45593999997E+02  0.45594000000E+02  0.51100000000E-03 0.  1.
    9900012    2    1    2    0    0  0.94351940822E+00 -0.66193823551E+00 -0.25423862909E+00  0.90007733767E+02  0.89999995052E+02 0.  0.
        -12    1    1    2    0    0 -0.94351940822E+00  0.66193823551E+00  0.25423862909E+00  0.11802662335E+01  0.00000000000E+00 0.  1.
         11    1    3    3    0    0  0.22292207990E+00 -0.90647368373E+01  0.33778098624E+00  0.90737668274E+01  0.51100000000E-03 0. -1.
        -11    1    3    3    0    0 -0.38708443965E+02 -0.12645747944E+01 -0.83083769163E+01  0.39610250073E+02  0.51100000000E-03 0.  1.
         12    1    3    3    0    0  0.39429041293E+02  0.96673733961E+01  0.77163573010E+01  0.41323716866E+02  0.00000000000E+00 0. -1.
</event>
<event>
 7    1  0.3505640E-015  0.9000728E+02  0.7816164E-02  0.1186340E+00
        -11   -1    0    0    0    0  0.00000000000E+00  0.00000000000E+00  0.45593999997E+02  0.45594000000E+02  0.51100000000E-03 0.  1.
         11   -1    0    0    0    0 -0.00000000000E+00 -0.00000000000E+00 -0.45593999997E+02  0.45594000000E+02  0.51100000000E-03 0. -1.
    9900012    2    1    2    0    0  0.17143093429E+00 -0.27058340137E-02 -0.11682021033E+01  0.90007283251E+02  0.89999538589E+02 0.  0.
        -12    1    1    2    0    0 -0.17143093429E+00  0.27058340137E-02  0.11682021033E+01  0.11807167488E+01  0.00000000000E+00 0.  1.
         11    1    3    3    0    0 -0.21768989034E+01  0.98710544322E+01 -0.22154192250E+01  0.10348173126E+02  0.51100000000E-03 0. -1.
        -11    1    3    3    0    0  0.37564045942E+02  0.97124238191E+01 -0.41870425570E+01  0.39024608257E+02  0.51100000000E-03 0.  1.
         12    1    3    3    0    0 -0.35215716104E+02 -0.19586184085E+02  0.52342596787E+01  0.40634501869E+02  0.00000000000E+00 0. -1.
</event>
<event>
 7    1  0.3505640E-015  0.9000814E+02  0.7816164E-02  0.1186338E+00
        -11   -1    0    0    0    0  0.00000000000E+00  0.00000000000E+00  0.45593999997E+02  0.45594000000E+02  0.51100000000E-03 0.  1.
         11   -1    0    0    0    0 -0.00000000000E+00 -0.00000000000E+00 -0.45593999997E+02  0.45594000000E+02  0.51100000000E-03 0. -1.
    9900012    2    1    2    0    0 -0.15598300819E+00  0.10002295626E+01 -0.60604120309E+00  0.90008137374E+02  0.90000403986E+02 0.  0.
        -12    1    1    2    0    0  0.15598300819E+00 -0.10002295626E+01  0.60604120309E+00  0.11798626261E+01  0.00000000000E+00 0.  1.
         11    1    3    3    0    0  0.64966966627E+01 -0.29246254438E+01 -0.36022138324E+02  0.36719953040E+02  0.51100000000E-03 0. -1.
        -11    1    3    3    0    0 -0.93742525235E+01  0.20462046961E+01 -0.62759332724E+01  0.11465203999E+02  0.51100000000E-03 0.  1.
        -12    1    3    3    0    0  0.27215728526E+01  0.18786503103E+01  0.41692030394E+02  0.41822980335E+02  0.00000000000E+00 0.  1.
</event>
<event>
 7    1  0.3505640E-015  0.9000781E+02  0.7816164E-02  0.1186339E+00
        -11   -1    0    0    0    0  0.00000000000E+00  0.00000000000E+00  0.45593999997E+02  0.45594000000E+02  0.51100000000E-03 0.  1.
         11   -1    0    0    0    0 -0.00000000000E+00 -0.00000000000E+00 -0.45593999997E+02  0.45594000000E+02  0.51100000000E-03 0. -1.
    9900012    2    1    2    0    0  0.15232531571E+00 -0.27767234632E+00 -0.11369013430E+01  0.90007809508E+02  0.90000071794E+02 0.  0.
        -12    1    1    2    0    0 -0.15232531571E+00  0.27767234632E+00  0.11369013430E+01  0.11801904920E+01  0.00000000000E+00 0.  1.
         11    1    3    3    0    0 -0.28298395195E+02  0.22598429914E+02 -0.11061759926E+02  0.37866221599E+02  0.51100000000E-03 0. -1.
        -11    1    3    3    0    0 -0.85860845022E+01 -0.39261163698E+01  0.33732566891E+01  0.10025671937E+02  0.51100000000E-03 0.  1.
        -12    1    3    3    0    0  0.37036805013E+02 -0.18949985891E+02  0.65516018939E+01  0.42115915973E+02  0.00000000000E+00 0.  1.
</event>
<event>
 7    1  0.3505640E-015  0.9000791E+02  0.7816164E-02  0.1186339E+00
        -11   -1    0    0    0    0  0.00000000000E+00  0.00000000000E+00  0.45593999997E+02  0.45594000000E+02  0.51100000000E-03 0. -1.
         11   -1    0    0    0    0 -0.00000000000E+00 -0.00000000000E+00 -0.45593999997E+02  0.45594000000E+02  0.51100000000E-03 0.  1.
    9900012    2    1    2    0    0  0.23598983982E+00  0.10830795937E+01  0.40479201275E+00  0.90007911366E+02  0.90000174996E+02 0.  0.
        -12    1    1    2    0    0 -0.23598983982E+00 -0.10830795937E+01 -0.40479201275E+00  0.11800886342E+01  0.00000000000E+00 0.  1.
         11    1    3    3    0    0  0.59509284627E+01  0.24530840633E+01  0.29671040286E+01  0.70876567050E+01  0.51100000000E-03 0. -1.
        -11    1    3    3    0    0  0.21612249787E+02 -0.38074065383E+01 -0.34455267967E+02  0.40850350994E+02  0.51100000000E-03 0.  1.
         12    1    3    3    0    0 -0.27327188410E+02  0.24374020688E+01  0.31892955951E+02  0.42069903667E+02  0.00000000000E+00 0. -1.
</event>
<event>
 7    1  0.3505640E-015  0.9000765E+02  0.7816164E-02  0.1186339E+00
        -11   -1    0    0    0    0  0.00000000000E+00  0.00000000000E+00  0.45593999997E+02  0.45594000000E+02  0.51100000000E-03 0.  1.
         11   -1    0    0    0    0 -0.00000000000E+00 -0.00000000000E+00 -0.45593999997E+02  0.45594000000E+02  0.51100000000E-03 0. -1.
    9900012    2    1    2    0    0 -0.18463107512E+00  0.78126681620E+00 -0.86531099392E+00  0.90007648532E+02  0.89999908692E+02 0.  0.
        -12    1    1    2    0    0  0.18463107512E+00 -0.78126681620E+00  0.86531099392E+00  0.11803514681E+01  0.00000000000E+00 0.  1.
         11    1    3    3    0    0 -0.69919447929E+01 -0.11279427618E+02 -0.10514672999E+02  0.16931365211E+02  0.51100000000E-03 0. -1.
        -11    1    3    3    0    0 -0.41924244676E+01 -0.27045958995E+02  0.16383171975E+02  0.31897784329E+02  0.51100000000E-03 0.  1.
         12    1    3    3    0    0  0.10999738185E+02  0.39106653429E+02 -0.67338099707E+01  0.41178498992E+02  0.00000000000E+00 0. -1.
</event>
<event>
 7    1  0.3505640E-015  0.9000756E+02  0.7816164E-02  0.1186339E+00
        -11   -1    0    0    0    0  0.00000000000E+00  0.00000000000E+00  0.45593999997E+02  0.45594000000E+02  0.51100000000E-03 0.  1.
         11   -1    0    0    0    0 -0.00000000000E+00 -0.00000000000E+00 -0.45593999997E+02  0.45594000000E+02  0.51100000000E-03 0. -1.
    9900012    2    1    2    0    0  0.74326143647E+00  0.85060550608E+00 -0.34273337292E+00  0.90007562177E+02  0.89999821197E+02 0.  0.
        -12    1    1    2    0    0 -0.74326143647E+00 -0.85060550608E+00  0.34273337292E+00  0.11804378234E+01  0.00000000000E+00 0.  1.
         11    1    3    3    0    0 -0.57274175956E+00  0.38395620483E+02  0.19005521920E+00  0.38400362325E+02  0.51100000000E-03 0. -1.
        -11    1    3    3    0    0 -0.12556695790E+02 -0.14956511263E+01 -0.26598011352E+01  0.12922156313E+02  0.51100000000E-03 0.  1.
        -12    1    3    3    0    0  0.13872698986E+02 -0.36049363851E+02  0.21270125431E+01  0.38685043538E+02  0.00000000000E+00 0.  1.
</event>
<event>
 7    1  0.3505640E-015  0.9000773E+02  0.7816164E-02  0.1186339E+00
        -11   -1    0    0    0    0  0.00000000000E+00  0.00000000000E+00  0.45593999997E+02  0.45594000000E+02  0.51100000000E-03 0.  1.
         11   -1    0    0    0    0 -0.00000000000E+00 -0.00000000000E+00 -0.45593999997E+02  0.45594000000E+02  0.51100000000E-03 0. -1.
    9900012    2    1    2    0    0  0.94871481350E+00  0.54591343713E+00  0.44153499152E+00  0.90007731206E+02  0.89999992458E+02 0.  0.
        -12    1    1    2    0    0 -0.94871481350E+00 -0.54591343713E+00 -0.44153499152E+00  0.11802687944E+01  0.00000000000E+00 0.  1.
         11    1    3    3    0    0 -0.75072591115E+01 -0.26665621342E+00 -0.11960129398E+02  0.14123552683E+02  0.51100000000E-03 0. -1.
        -11    1    3    3    0    0  0.14966604567E+02 -0.23467360264E+02 -0.20435320343E+02  0.34529966230E+02  0.51100000000E-03 0.  1.
        -12    1    3    3    0    0 -0.65106306423E+01  0.24279929915E+02  0.32836984733E+02  0.41354212293E+02  0.00000000000E+00 0.  1.
</event>
<event>
 7    1  0.3505640E-015  0.9000778E+02  0.7816164E-02  0.1186339E+00
        -11   -1    0    0    0    0  0.00000000000E+00  0.00000000000E+00  0.45593999997E+02  0.45594000000E+02  0.51100000000E-03 0.  1.
         11   -1    0    0    0    0 -0.00000000000E+00 -0.00000000000E+00 -0.45593999997E+02  0.45594000000E+02  0.51100000000E-03 0. -1.
    9900012    2    1    2    0    0  0.68406329858E+00 -0.32354399763E+00 -0.90570825399E+00  0.90007775125E+02  0.90000036956E+02 0.  0.
        -12    1    1    2    0    0 -0.68406329858E+00  0.32354399763E+00  0.90570825399E+00  0.11802248753E+01  0.00000000000E+00 0.  1.
         11    1    3    3    0    0 -0.13833695847E+02  0.26739390295E+02 -0.22635583253E+02  0.37666108953E+02  0.51100000000E-03 0. -1.
        -11    1    3    3    0    0  0.68368933199E+01  0.45605528774E+01 -0.55169501039E+01  0.98984085350E+01  0.51100000000E-03 0.  1.
        -12    1    3    3    0    0  0.76808658260E+01 -0.31623487170E+02  0.27246825103E+02  0.42443257637E+02  0.00000000000E+00 0.  1.
</event>
<event>
 7    1  0.3630703E-015  0.9000771E+02  0.7816164E-02  0.1186339E+00
        -11   -1    0    0    0    0  0.00000000000E+00  0.00000000000E+00  0.45593999997E+02  0.45594000000E+02  0.51100000000E-03 0.  1.
         11   -1    0    0    0    0 -0.00000000000E+00 -0.00000000000E+00 -0.45593999997E+02  0.45594000000E+02  0.51100000000E-03 0. -1.
    9900012    2    1    2    0    0 -0.61009894431E+00  0.15905554400E+00 -0.99778025289E+00  0.90007709857E+02  0.89999970827E+02 0.  0.
        -12    1    1    2    0    0  0.61009894431E+00 -0.15905554400E+00  0.99778025289E+00  0.11802901427E+01  0.00000000000E+00 0.  1.
         11    1    3    3    0    0 -0.42280074364E+01  0.90369093071E+01 -0.17929689734E+00  0.99786734763E+01  0.51100000000E-03 0. -1.
        -11    1    3    3    0    0 -0.29535595203E+02  0.12299275795E+02  0.17683113358E+02  0.36555657118E+02  0.51100000000E-03 0.  1.
         12    1    3    3    0    0  0.33153503695E+02 -0.21177129558E+02 -0.18501596714E+02  0.43473379263E+02  0.00000000000E+00 0. -1.
</event>
<event>
 7    1  0.3505640E-015  0.9000772E+02  0.7816164E-02  0.1186339E+00
        -11   -1    0    0    0    0  0.00000000000E+00  0.00000000000E+00  0.45593999997E+02  0.45594000000E+02  0.51100000000E-03 0.  1.
         11   -1    0    0    0    0 -0.00000000000E+00 -0.00000000000E+00 -0.45593999997E+02  0.45594000000E+02  0.51100000000E-03 0. -1.
    9900012    2    1    2    0    0 -0.29672911647E+00  0.10786094672E+01 -0.37632500581E+00  0.90007717381E+02  0.89999978450E+02 0.  0.
        -12    1    1    2    0    0  0.29672911647E+00 -0.10786094672E+01  0.37632500581E+00  0.11802826192E+01  0.00000000000E+00 0.  1.
         11    1    3    3    0    0  0.35219106486E+02  0.15531272750E+02 -0.13900296278E+02  0.40924615231E+02  0.51100000000E-03 0. -1.
        -11    1    3    3    0    0  0.19321660292E+01 -0.91337726819E+01  0.32978561400E+01  0.99012587255E+01  0.51100000000E-03 0.  1.
        -12    1    3    3    0    0 -0.37448001632E+02 -0.53188906008E+01  0.10226115133E+02  0.39181843424E+02  0.00000000000E+00 0.  1.
</event>
<event>
 7    1  0.3505640E-015  0.9000770E+02  0.7816164E-02  0.1186339E+00
        -11   -1    0    0    0    0  0.00000000000E+00  0.00000000000E+00  0.45593999997E+02  0.45594000000E+02  0.51100000000E-03 0.  1.
         11   -1    0    0    0    0 -0.00000000000E+00 -0.00000000000E+00 -0.45593999997E+02  0.45594000000E+02  0.51100000000E-03 0. -1.
    9900012    2    1    2    0    0  0.37096997055E+00  0.10092797892E+01 -0.48665399879E+00  0.90007704899E+02  0.89999965803E+02 0.  0.
        -12    1    1    2    0    0 -0.37096997055E+00 -0.10092797892E+01  0.48665399879E+00  0.11802951015E+01  0.00000000000E+00 0.  1.
         11    1    3    3    0    0  0.45804611672E+01 -0.80066076186E+01  0.34627213751E+01  0.98527574640E+01  0.51100000000E-03 0. -1.
        -11    1    3    3    0    0  0.91708181145E+01  0.23097909456E+02  0.31264553087E+02  0.39938572910E+02  0.51100000000E-03 0.  1.
         12    1    3    3    0    0 -0.13380309311E+02 -0.14082022049E+02 -0.35213928461E+02  0.40216374524E+02  0.00000000000E+00 0. -1.
</event>
<event>
 7    1  0.3505640E-015  0.9000809E+02  0.7816164E-02  0.1186338E+00
        -11   -1    0    0    0    0  0.00000000000E+00  0.00000000000E+00  0.45593999997E+02  0.45594000000E+02  0.51100000000E-03 0. -1.
         11   -1    0    0    0    0 -0.00000000000E+00 -0.00000000000E+00 -0.45593999997E+02  0.45594000000E+02  0.51100000000E-03 0.  1.
    9900012    2    1    2    0    0  0.71921893260E+00  0.74400172127E+00  0.56690187635E+00  0.90008088066E+02  0.90000354028E+02 0.  0.
        -12    1    1    2    0    0 -0.71921893260E+00 -0.74400172127E+00 -0.56690187635E+00  0.11799119339E+01  0.00000000000E+00 0.  1.
         11    1    3    3    0    0  0.16129848303E+01  0.61404783549E+01 -0.65981196815E+01  0.91565483717E+01  0.51100000000E-03 0. -1.
        -11    1    3    3    0    0 -0.13446027598E+02 -0.10551691629E+02 -0.33703199516E+02  0.37789410054E+02  0.51100000000E-03 0.  1.
         12    1    3    3    0    0  0.12552261700E+02  0.51552149949E+01  0.40868221074E+02  0.43062129640E+02  0.00000000000E+00 0. -1.
</event>
<event>
 7    1  0.3505640E-015  0.9000772E+02  0.7816164E-02  0.1186339E+00
        -11   -1    0    0    0    0  0.00000000000E+00  0.00000000000E+00  0.45593999997E+02  0.45594000000E+02  0.51100000000E-03 0.  1.
         11   -1    0    0    0    0 -0.00000000000E+00 -0.00000000000E+00 -0.45593999997E+02  0.45594000000E+02  0.51100000000E-03 0. -1.
    9900012    2    1    2    0    0  0.45805066307E+00 -0.67288713931E+00 -0.85467390717E+00  0.90007722490E+02  0.89999983627E+02 0.  0.
        -12    1    1    2    0    0 -0.45805066307E+00  0.67288713931E+00  0.85467390717E+00  0.11802775096E+01  0.00000000000E+00 0.  1.
         11    1    3    3    0    0  0.31512697751E+02  0.35860244448E+00  0.29622138575E+02  0.43251009344E+02  0.51100000000E-03 0. -1.
        -11    1    3    3    0    0 -0.85072377320E+01  0.21942067753E+01 -0.96378930662E-01  0.87861781431E+01  0.51100000000E-03 0.  1.
        -12    1    3    3    0    0 -0.22547409355E+02 -0.32256963591E+01 -0.30380433552E+02  0.37970535003E+02  0.00000000000E+00 0.  1.
</event>
<event>
 7    1  0.3505640E-015  0.9000768E+02  0.7816164E-02  0.1186339E+00
        -11   -1    0    0    0    0  0.00000000000E+00  0.00000000000E+00  0.45593999997E+02  0.45594000000E+02  0.51100000000E-03 0. -1.
         11   -1    0    0    0    0 -0.00000000000E+00 -0.00000000000E+00 -0.45593999997E+02  0.45594000000E+02  0.51100000000E-03 0.  1.
    9900012    2    1    2    0    0  0.31896169098E+00  0.52604963393E+00  0.10073219847E+01  0.90007677011E+02  0.89999937547E+02 0.  0.
        -12    1    1    2    0    0 -0.31896169098E+00 -0.52604963393E+00 -0.10073219847E+01  0.11803229890E+01  0.00000000000E+00 0.  1.
         11    1    3    3    0    0 -0.37574812793E+01  0.96862531665E+01 -0.34800684028E+01  0.10956871922E+02  0.51100000000E-03 0. -1.
        -11    1    3    3    0    0  0.31079908448E+01  0.23579572502E+02 -0.25338317341E+02  0.34751779413E+02  0.51100000000E-03 0.  1.
         12    1    3    3    0    0  0.96845212547E+00 -0.32739776034E+02  0.29825707729E+02  0.44299025675E+02  0.00000000000E+00 0. -1.
</event>
<event>
 7    1  0.3505640E-015  0.9000772E+02  0.7816164E-02  0.1186339E+00
        -11   -1    0    0    0    0  0.00000000000E+00  0.00000000000E+00  0.45593999997E+02  0.45594000000E+02  0.51100000000E-03 0. -1.
         11   -1    0    0    0    0 -0.00000000000E+00 -0.00000000000E+00 -0.45593999997E+02  0.45594000000E+02  0.51100000000E-03 0.  1.
    9900012    2    1    2    0    0 -0.73470353614E+00 -0.78216847600E+00  0.49141591323E+00  0.90007717656E+02  0.89999978729E+02 0.  0.
        -12    1    1    2    0    0  0.73470353614E+00  0.78216847600E+00 -0.49141591323E+00  0.11802823436E+01  0.00000000000E+00 0.  1.
         11    1    3    3    0    0  0.68528710598E+01 -0.10538270902E+02 -0.67682332278E+00  0.12588688789E+02  0.51100000000E-03 0. -1.
        -11    1    3    3    0    0  0.32615080500E+02  0.72546394790E+01  0.12339977199E+02  0.35618089611E+02  0.51100000000E-03 0.  1.
         12    1    3    3    0    0 -0.40202655096E+02  0.25014629466E+01 -0.11171737963E+02  0.41800939257E+02  0.00000000000E+00 0. -1.
</event>
<event>
 7    1  0.3505640E-015  0.9000766E+02  0.7816164E-02  0.1186339E+00
        -11   -1    0    0    0    0  0.00000000000E+00  0.00000000000E+00  0.45593999997E+02  0.45594000000E+02  0.51100000000E-03 0.  1.
         11   -1    0    0    0    0 -0.00000000000E+00 -0.00000000000E+00 -0.45593999997E+02  0.45594000000E+02  0.51100000000E-03 0. -1.
    9900012    2    1    2    0    0  0.65887415465E-01 -0.11238283198E+01  0.35477582880E+00  0.90007662280E+02  0.89999922622E+02 0.  0.
        -12    1    1    2    0    0 -0.65887415465E-01  0.11238283198E+01 -0.35477582880E+00  0.11803377198E+01  0.00000000000E+00 0.  1.
         11    1    3    3    0    0  0.36161337900E+02 -0.10090559215E+02 -0.34559134697E+01  0.37701526258E+02  0.51100000000E-03 0. -1.
        -11    1    3    3    0    0 -0.42430873642E+01 -0.12090230041E+02 -0.38143692674E+01  0.13368876766E+02  0.51100000000E-03 0.  1.
        -12    1    3    3    0    0 -0.31852363121E+02  0.21056960936E+02  0.76250585660E+01  0.38937259256E+02  0.00000000000E+00 0.  1.
</event>
<event>
 7    1  0.3505640E-015  0.9000733E+02  0.7816164E-02  0.1186340E+00
        -11   -1    0    0    0    0  0.00000000000E+00  0.00000000000E+00  0.45593999997E+02  0.45594000000E+02  0.51100000000E-03 0.  1.
         11   -1    0    0    0    0 -0.00000000000E+00 -0.00000000000E+00 -0.45593999997E+02  0.45594000000E+02  0.51100000000E-03 0. -1.
    9900012    2    1    2    0    0 -0.52754626327E+00  0.89962438947E+00 -0.55349715416E+00  0.90007327225E+02  0.89999583143E+02 0.  0.
        -12    1    1    2    0    0  0.52754626327E+00 -0.89962438947E+00  0.55349715416E+00  0.11806727750E+01  0.00000000000E+00 0.  1.
         11    1    3    3    0    0 -0.56392322442E+01  0.53015797884E+01 -0.35544410215E+01  0.85171438753E+01  0.51100000000E-03 0. -1.
        -11    1    3    3    0    0  0.36516895702E+02  0.19923620752E+02 -0.60172209637E+00  0.41602841313E+02  0.51100000000E-03 0.  1.
         12    1    3    3    0    0 -0.31405209721E+02 -0.24325576151E+02  0.36026659637E+01  0.39887342037E+02  0.00000000000E+00 0. -1.
</event>
<event>
 7    1  0.3505640E-015  0.9000774E+02  0.7816164E-02  0.1186339E+00
        -11   -1    0    0    0    0  0.00000000000E+00  0.00000000000E+00  0.45593999997E+02  0.45594000000E+02  0.51100000000E-03 0.  1.
         11   -1    0    0    0    0 -0.00000000000E+00 -0.00000000000E+00 -0.45593999997E+02  0.45594000000E+02  0.51100000000E-03 0. -1.
    9900012    2    1    2    0    0  0.96733059326E+00 -0.43380272324E+00 -0.51875133763E+00  0.90007738915E+02  0.90000000268E+02 0.  0.
        -12    1    1    2    0    0 -0.96733059326E+00  0.43380272324E+00  0.51875133763E+00  0.11802610854E+01  0.00000000000E+00 0.  1.
         11    1    3    3    0    0 -0.56796389183E+01 -0.61124984287E+01  0.19894026165E+01  0.85778003191E+01  0.51100000000E-03 0. -1.
        -11    1    3    3    0    0 -0.11932373713E+02 -0.34732152585E+02 -0.38976452007E+01  0.36930957258E+02  0.51100000000E-03 0.  1.
         12    1    3    3    0    0  0.18579343224E+02  0.40410848290E+02  0.13894912465E+01  0.44498981338E+02  0.00000000000E+00 0. -1.
</event>
<event>
 7    1  0.5655960E-015  0.9000737E+02  0.7816164E-02  0.1186340E+00
        -11   -1    0    0    0    0  0.00000000000E+00  0.00000000000E+00  0.45593999997E+02  0.45594000000E+02  0.51100000000E-03 0.  1.
         11   -1    0    0    0    0 -0.00000000000E+00 -0.00000000000E+00 -0.45593999997E+02  0.45594000000E+02  0.51100000000E-03 0. -1.
    9900012    2    1    2    0    0  0.55799139715E+00 -0.71859320279E+00 -0.75243632004E+00  0.90007368387E+02  0.89999624849E+02 0.  0.
        -12    1    1    2    0    0 -0.55799139715E+00  0.71859320279E+00  0.75243632004E+00  0.11806316132E+01  0.00000000000E+00 0.  1.
         11    1    3    3    0    0 -0.38687218837E+01  0.26300495820E+01  0.83067175814E+01  0.95334006029E+01  0.51100000000E-03 0. -1.
        -11    1    3    3    0    0 -0.19775744793E+02  0.18289633572E+02  0.22574643381E+02  0.35145487653E+02  0.51100000000E-03 0.  1.
         12    1    3    3    0    0  0.24202458074E+02 -0.21638276356E+02 -0.31633797283E+02  0.45328480131E+02  0.00000000000E+00 0. -1.
</event>
<event>
 7    1  0.3505640E-015  0.9000776E+02  0.7816164E-02  0.1186339E+00
        -11   -1    0    0    0    0  0.00000000000E+00  0.00000000000E+00  0.45593999997E+02  0.45594000000E+02  0.51100000000E-03 0.  1.
         11   -1    0    0    0    0 -0.00000000000E+00 -0.00000000000E+00 -0.45593999997E+02  0.45594000000E+02  0.51100000000E-03 0. -1.
    9900012    2    1    2    0    0 -0.10585998810E+00 -0.71975645339E+00 -0.92935724421E+00  0.90007762491E+02  0.90000024156E+02 0.  0.
        -12    1    1    2    0    0  0.10585998810E+00  0.71975645339E+00  0.92935724421E+00  0.11802375086E+01  0.00000000000E+00 0.  1.
         11    1    3    3    0    0  0.15658684258E+01  0.14249062107E+02 -0.37776202357E+02  0.40404568796E+02  0.51100000000E-03 0. -1.
        -11    1    3    3    0    0  0.30388815760E+00  0.86760934267E+01  0.54547595427E+01  0.10252870188E+02  0.51100000000E-03 0.  1.
        -12    1    3    3    0    0 -0.19756165715E+01 -0.23644911987E+02  0.31392085570E+02  0.39350323507E+02  0.00000000000E+00 0.  1.
</event>
<event>
 7    1  0.3505640E-015  0.9000779E+02  0.7816164E-02  0.1186339E+00
        -11   -1    0    0    0    0  0.00000000000E+00  0.00000000000E+00  0.45593999997E+02  0.45594000000E+02  0.51100000000E-03 0. -1.
         11   -1    0    0    0    0 -0.00000000000E+00 -0.00000000000E+00 -0.45593999997E+02  0.45594000000E+02  0.51100000000E-03 0.  1.
    9900012    2    1    2    0    0  0.67454786395E+00  0.95647434734E+00 -0.15181634599E+00  0.90007785528E+02  0.90000047497E+02 0.  0.
        -12    1    1    2    0    0 -0.67454786395E+00 -0.95647434734E+00  0.15181634599E+00  0.11802144724E+01  0.00000000000E+00 0.  1.
         11    1    3    3    0    0  0.50208187123E+01 -0.15735336671E+02  0.30735381261E+02  0.34892307207E+02  0.51100000000E-03 0. -1.
        -11    1    3    3    0    0 -0.24083574176E+01  0.50078422936E+00  0.10419853736E+02  0.10706274909E+02  0.51100000000E-03 0.  1.
        -12    1    3    3    0    0 -0.19379134308E+01  0.16191026789E+02 -0.41307051343E+02  0.44409203411E+02  0.00000000000E+00 0.  1.
</event>
<event>
 7    1  0.3505640E-015  0.9000778E+02  0.7816164E-02  0.1186339E+00
        -11   -1    0    0    0    0  0.00000000000E+00  0.00000000000E+00  0.45593999997E+02  0.45594000000E+02  0.51100000000E-03 0. -1.
         11   -1    0    0    0    0 -0.00000000000E+00 -0.00000000000E+00 -0.45593999997E+02  0.45594000000E+02  0.51100000000E-03 0.  1.
    9900012    2    1    2    0    0 -0.99143897193E-01 -0.36170875453E+00  0.11190383475E+01  0.90007784105E+02  0.90000046055E+02 0.  0.
        -12    1    1    2    0    0  0.99143897193E-01  0.36170875453E+00 -0.11190383475E+01  0.11802158949E+01  0.00000000000E+00 0.  1.
         11    1    3    3    0    0 -0.21472850324E+02 -0.15700017774E+02  0.31761521605E+02  0.41429073295E+02  0.51100000000E-03 0. -1.
        -11    1    3    3    0    0 -0.58022042825E+01  0.66125835223E+01 -0.10206640766E+02  0.13474692997E+02  0.51100000000E-03 0.  1.
        -12    1    3    3    0    0  0.27175910709E+02  0.87257254974E+01 -0.20435842491E+02  0.35104017814E+02  0.00000000000E+00 0.  1.
</event>
<event>
 7    1  0.3505640E-015  0.9000772E+02  0.7816164E-02  0.1186339E+00
        -11   -1    0    0    0    0  0.00000000000E+00  0.00000000000E+00  0.45593999997E+02  0.45594000000E+02  0.51100000000E-03 0.  1.
         11   -1    0    0    0    0 -0.00000000000E+00 -0.00000000000E+00 -0.45593999997E+02  0.45594000000E+02  0.51100000000E-03 0. -1.
    9900012    2    1    2    0    0 -0.60862679221E+00  0.40131760916E+00 -0.92820657643E+00  0.90007724674E+02  0.89999985840E+02 0.  0.
        -12    1    1    2    0    0  0.60862679221E+00 -0.40131760916E+00  0.92820657643E+00  0.11802753256E+01  0.00000000000E+00 0.  1.
         11    1    3    3    0    0  0.29290464971E+01 -0.41457573289E+02 -0.61255478614E+01  0.42009903991E+02  0.51100000000E-03 0. -1.
        -11    1    3    3    0    0 -0.70854794019E+01  0.73987707393E+01 -0.56473109475E+01  0.11697775344E+02  0.51100000000E-03 0.  1.
        -12    1    3    3    0    0  0.35478061126E+01  0.34460120159E+02  0.10844652232E+02  0.36300045339E+02  0.00000000000E+00 0.  1.
</event>
<event>
 7    1  0.3505640E-015  0.9000774E+02  0.7816164E-02  0.1186339E+00
        -11   -1    0    0    0    0  0.00000000000E+00  0.00000000000E+00  0.45593999997E+02  0.45594000000E+02  0.51100000000E-03 0.  1.
         11   -1    0    0    0    0 -0.00000000000E+00 -0.00000000000E+00 -0.45593999997E+02  0.45594000000E+02  0.51100000000E-03 0. -1.
    9900012    2    1    2    0    0 -0.59091195644E-01 -0.13516828441E+00 -0.11710054730E+01  0.90007738990E+02  0.90000000344E+02 0.  0.
        -12    1    1    2    0    0  0.59091195644E-01  0.13516828441E+00  0.11710054730E+01  0.11802610102E+01  0.00000000000E+00 0.  1.
         11    1    3    3    0    0  0.58152233890E+01 -0.10467912612E+00 -0.70715656886E+01  0.91561357752E+01  0.51100000000E-03 0. -1.
        -11    1    3    3    0    0  0.24072923107E+02 -0.14729164009E+02  0.28851529606E+02  0.40359195485E+02  0.51100000000E-03 0.  1.
         12    1    3    3    0    0 -0.29947237692E+02  0.14698674851E+02 -0.22950969391E+02  0.40492407729E+02  0.00000000000E+00 0. -1.
</event>
<event>
 7    1  0.5049485E-015  0.9000771E+02  0.7816164E-02  0.1186339E+00
        -11   -1    0    0    0    0  0.00000000000E+00  0.00000000000E+00  0.45593999997E+02  0.45594000000E+02  0.51100000000E-03 0. -1.
         11   -1    0    0    0    0 -0.00000000000E+00 -0.00000000000E+00 -0.45593999997E+02  0.45594000000E+02  0.51100000000E-03 0.  1.
    9900012    2    1    2    0    0 -0.83079138191E+00 -0.38388430763E+00  0.74531996152E+00  0.90007710490E+02  0.89999971469E+02 0.  0.
        -12    1    1    2    0    0  0.83079138191E+00  0.38388430763E+00 -0.74531996152E+00  0.11802895098E+01  0.00000000000E+00 0.  1.
         11    1    3    3    0    0  0.90184376583E+01  0.23481403978E+01  0.22624552320E+01  0.95898219515E+01  0.51100000000E-03 0. -1.
        -11    1    3    3    0    0  0.22758030194E+02 -0.21241287578E+02 -0.21593706270E+02  0.37886783804E+02  0.51100000000E-03 0.  1.
         12    1    3    3    0    0 -0.32607259234E+02  0.18509262872E+02  0.20076571000E+02  0.42531104735E+02  0.00000000000E+00 0. -1.
</event>
<event>
 7    1  0.3505640E-015  0.9000778E+02  0.7816164E-02  0.1186339E+00
        -11   -1    0    0    0    0  0.00000000000E+00  0.00000000000E+00  0.45593999997E+02  0.45594000000E+02  0.51100000000E-03 0.  1.
         11   -1    0    0    0    0 -0.00000000000E+00 -0.00000000000E+00 -0.45593999997E+02  0.45594000000E+02  0.51100000000E-03 0. -1.
    9900012    2    1    2    0    0  0.53895477575E+00 -0.17807772032E+00 -0.10347673367E+01  0.90007776561E+02  0.90000038412E+02 0.  0.
        -12    1    1    2    0    0 -0.53895477575E+00  0.17807772032E+00  0.10347673367E+01  0.11802234389E+01  0.00000000000E+00 0.  1.
         11    1    3    3    0    0  0.17232555691E+02  0.14017987959E+02 -0.33030531547E+02  0.39805539521E+02  0.51100000000E-03 0. -1.
        -11    1    3    3    0    0  0.82071978142E+01 -0.68464893115E+01  0.26332770932E+01  0.11007572864E+02  0.51100000000E-03 0.  1.
        -12    1    3    3    0    0 -0.24900798729E+02 -0.73495763674E+01  0.29362487117E+02  0.39194664175E+02  0.00000000000E+00 0.  1.
</event>
<event>
 8    1  0.3505640E-015  0.9000773E+02  0.7816164E-02  0.1186339E+00
        -11   -1    0    0    0    0  0.00000000000E+00  0.00000000000E+00  0.45593999997E+02  0.45594000000E+02  0.51100000000E-03 0. -1.
         11   -1    0    0    0    0 -0.00000000000E+00 -0.00000000000E+00 -0.45593999997E+02  0.45594000000E+02  0.51100000000E-03 0.  1.
    9900012    2    1    2    0    0 -0.89626103331E+00 -0.75891269082E+00 -0.11753908688E+00  0.90007725562E+02  0.89999986739E+02 0.  0.
         23    2    3    3    0    0 -0.18829782743E+02  0.11612531234E+02  0.18822114986E+02  0.61139502165E+02  0.53799211078E+02 0.  0.
        -12    1    1    2    0    0  0.89626103331E+00  0.75891269082E+00  0.11753908688E+00  0.11802744380E+01  0.00000000000E+00 0.  1.
         11    1    4    4    0    0  0.39388341849E+01 -0.15000374892E+02 -0.75963381334E+01  0.17269337420E+02  0.51100000000E-03 0. -1.
        -11    1    4    4    0    0 -0.22768616928E+02  0.26612906126E+02  0.26418453120E+02  0.43870164745E+02  0.51100000000E-03 0.  1.
         12    1    3    3    0    0  0.17933521710E+02 -0.12371443925E+02 -0.18939654073E+02  0.28868223397E+02  0.00000000000E+00 0. -1.
</event>
<event>
 7    1  0.3505640E-015  0.9000783E+02  0.7816164E-02  0.1186339E+00
        -11   -1    0    0    0    0  0.00000000000E+00  0.00000000000E+00  0.45593999997E+02  0.45594000000E+02  0.51100000000E-03 0. -1.
         11   -1    0    0    0    0 -0.00000000000E+00 -0.00000000000E+00 -0.45593999997E+02  0.45594000000E+02  0.51100000000E-03 0.  1.
    9900012    2    1    2    0    0  0.65214339319E+00  0.84050160408E+00  0.51095031779E+00  0.90007828750E+02  0.90000091290E+02 0.  0.
        -12    1    1    2    0    0 -0.65214339319E+00 -0.84050160408E+00 -0.51095031779E+00  0.11801712499E+01  0.00000000000E+00 0.  1.
         11    1    3    3    0    0  0.63348627703E+01 -0.10886975855E+01  0.79231770551E+00  0.64763814247E+01  0.51100000000E-03 0. -1.
        -11    1    3    3    0    0  0.33218326853E+02 -0.19480516525E+02  0.49294539721E+01  0.38823282702E+02  0.51100000000E-03 0.  1.
         12    1    3    3    0    0 -0.38901046230E+02  0.21409715715E+02 -0.52108213598E+01  0.44708164624E+02  0.00000000000E+00 0. -1.
</event>
<event>
 7    1  0.3505640E-015  0.9000775E+02  0.7816164E-02  0.1186339E+00
        -11   -1    0    0    0    0  0.00000000000E+00  0.00000000000E+00  0.45593999997E+02  0.45594000000E+02  0.51100000000E-03 0.  1.
         11   -1    0    0    0    0 -0.00000000000E+00 -0.00000000000E+00 -0.45593999997E+02  0.45594000000E+02  0.51100000000E-03 0. -1.
    9900012    2    1    2    0    0 -0.28564907703E+00  0.75391130544E+00 -0.86198211023E+00  0.90007749683E+02  0.90000011179E+02 0.  0.
        -12    1    1    2    0    0  0.28564907703E+00 -0.75391130544E+00  0.86198211023E+00  0.11802503167E+01  0.00000000000E+00 0.  1.
         11    1    3    3    0    0  0.81134058448E+01  0.92116648779E+00  0.42348683752E+01  0.91983701011E+01  0.51100000000E-03 0. -1.
        -11    1    3    3    0    0 -0.19220924859E+02  0.30065530981E+02 -0.24505276336E+02  0.43288435802E+02  0.51100000000E-03 0.  1.
         12    1    3    3    0    0  0.10821869937E+02 -0.30232786164E+02  0.19408425850E+02  0.37520943780E+02  0.00000000000E+00 0. -1.
</event>
<event>
 7    1  0.3505640E-015  0.9000755E+02  0.7816164E-02  0.1186339E+00
        -11   -1    0    0    0    0  0.00000000000E+00  0.00000000000E+00  0.45593999997E+02  0.45594000000E+02  0.51100000000E-03 0.  1.
         11   -1    0    0    0    0 -0.00000000000E+00 -0.00000000000E+00 -0.45593999997E+02  0.45594000000E+02  0.51100000000E-03 0. -1.
    9900012    2    1    2    0    0  0.10455160939E+01  0.32562286477E+00  0.44083176060E+00  0.90007548055E+02  0.89999806889E+02 0.  0.
        -12    1    1    2    0    0 -0.10455160939E+01 -0.32562286477E+00 -0.44083176060E+00  0.11804519448E+01  0.00000000000E+00 0.  1.
         11    1    3    3    0    0 -0.21470299290E+02  0.10942194638E+02 -0.26666170045E+02  0.35941480218E+02  0.51100000000E-03 0. -1.
        -11    1    3    3    0    0 -0.50262770566E+01 -0.15641892338E+01 -0.73464416496E+01  0.90377184168E+01  0.51100000000E-03 0.  1.
        -12    1    3    3    0    0  0.27542092440E+02 -0.90523825393E+01  0.34453443455E+02  0.45028349421E+02  0.00000000000E+00 0.  1.
</event>
<event>
 7    1  0.3505640E-015  0.9000771E+02  0.7816164E-02  0.1186339E+00
        -11   -1    0    0    0    0  0.00000000000E+00  0.00000000000E+00  0.45593999997E+02  0.45594000000E+02  0.51100000000E-03 0. -1.
         11   -1    0    0    0    0 -0.00000000000E+00 -0.00000000000E+00 -0.45593999997E+02  0.45594000000E+02  0.51100000000E-03 0.  1.
    9900012    2    1    2    0    0  0.55760721538E+00 -0.56519480551E+00  0.87333240978E+00  0.90007711699E+02  0.89999972694E+02 0.  0.
        -12    1    1    2    0    0 -0.55760721538E+00  0.56519480551E+00 -0.87333240978E+00  0.11802883007E+01  0.00000000000E+00 0.  1.
         11    1    3    3    0    0 -0.91993608064E-01 -0.21881873603E+01 -0.10824395700E+02  0.11043738918E+02  0.51100000000E-03 0. -1.
        -11    1    3    3    0    0  0.13173321453E+02  0.52640945670E+01 -0.31121638174E+02  0.34202389574E+02  0.51100000000E-03 0.  1.
         12    1    3    3    0    0 -0.12523720630E+02 -0.36411020122E+01  0.42819366284E+02  0.44761583207E+02  0.00000000000E+00 0. -1.
</event>
<event>
 7    1  0.3505640E-015  0.9000790E+02  0.7816164E-02  0.1186339E+00
        -11   -1    0    0    0    0  0.00000000000E+00  0.00000000000E+00  0.45593999997E+02  0.45594000000E+02  0.51100000000E-03 0. -1.
         11   -1    0    0    0    0 -0.00000000000E+00 -0.00000000000E+00 -0.45593999997E+02  0.45594000000E+02  0.51100000000E-03 0.  1.
    9900012    2    1    2    0    0  0.57399384737E+00 -0.10253865443E+01 -0.10836852597E+00  0.90007902445E+02  0.90000165957E+02 0.  0.
        -12    1    1    2    0    0 -0.57399384737E+00  0.10253865443E+01  0.10836852597E+00  0.11800975551E+01  0.00000000000E+00 0.  1.
         11    1    3    3    0    0  0.10496038353E+02 -0.20376915628E+02  0.30993681217E+02  0.38548589952E+02  0.51100000000E-03 0. -1.
        -11    1    3    3    0    0 -0.14144519208E+01 -0.87386242574E+01 -0.22028693032E+00  0.88550976698E+01  0.51100000000E-03 0.  1.
        -12    1    3    3    0    0 -0.85075925844E+01  0.28090153341E+02 -0.30881762813E+02  0.42604214824E+02  0.00000000000E+00 0.  1.
</event>
<event>
 7    1  0.3505640E-015  0.9000783E+02  0.7816164E-02  0.1186339E+00
        -11   -1    0    0    0    0  0.00000000000E+00  0.00000000000E+00  0.45593999997E+02  0.45594000000E+02  0.51100000000E-03 0.  1.
         11   -1    0    0    0    0 -0.00000000000E+00 -0.00000000000E+00 -0.45593999997E+02  0.45594000000E+02  0.51100000000E-03 0. -1.
    9900012    2    1    2    0    0 -0.24813208957E+00  0.49938282310E+00 -0.10401251301E+01  0.90007825003E+02  0.90000087493E+02 0.  0.
        -12    1    1    2    0    0  0.24813208957E+00 -0.49938282310E+00  0.10401251301E+01  0.11801749973E+01  0.00000000000E+00 0.  1.
         11    1    3    3    0    0 -0.13892703894E+02 -0.33380779199E+02 -0.13598099604E+02  0.38628900509E+02  0.51100000000E-03 0. -1.
        -11    1    3    3    0    0  0.78061555148E+01 -0.56000070362E+01  0.47322934307E+01  0.10709376457E+02  0.51100000000E-03 0.  1.
        -12    1    3    3    0    0  0.58384162895E+01  0.39480169059E+02  0.78256810432E+01  0.40669548036E+02  0.00000000000E+00 0.  1.
</event>
<event>
 7    1  0.3505640E-015  0.9000774E+02  0.7816164E-02  0.1186339E+00
        -11   -1    0    0    0    0  0.00000000000E+00  0.00000000000E+00  0.45593999997E+02  0.45594000000E+02  0.51100000000E-03 0. -1.
         11   -1    0    0    0    0 -0.00000000000E+00 -0.00000000000E+00 -0.45593999997E+02  0.45594000000E+02  0.51100000000E-03 0.  1.
    9900012    2    1    2    0    0  0.17533686276E+00 -0.11638650315E+01 -0.87626326232E-01  0.90007744434E+02  0.90000005861E+02 0.  0.
        -12    1    1    2    0    0 -0.17533686276E+00  0.11638650315E+01  0.87626326232E-01  0.11802555655E+01  0.00000000000E+00 0.  1.
         11    1    3    3    0    0  0.25697407697E+01  0.95552061524E+01 -0.26712200212E-01  0.98947585136E+01  0.51100000000E-03 0. -1.
        -11    1    3    3    0    0  0.15564753165E+02  0.11019723866E+02 -0.32158936397E+02  0.37388407904E+02  0.51100000000E-03 0.  1.
         12    1    3    3    0    0 -0.17959157072E+02 -0.21738795050E+02  0.32098022271E+02  0.42724578016E+02  0.00000000000E+00 0. -1.
</event>
<event>
 7    1  0.3505640E-015  0.9000763E+02  0.7816164E-02  0.1186339E+00
        -11   -1    0    0    0    0  0.00000000000E+00  0.00000000000E+00  0.45593999997E+02  0.45594000000E+02  0.51100000000E-03 0.  1.
         11   -1    0    0    0    0 -0.00000000000E+00 -0.00000000000E+00 -0.45593999997E+02  0.45594000000E+02  0.51100000000E-03 0. -1.
    9900012    2    1    2    0    0  0.91615264935E+00  0.52260226458E+00  0.52991803934E+00  0.90007634831E+02  0.89999894811E+02 0.  0.
        -12    1    1    2    0    0 -0.91615264935E+00 -0.52260226458E+00 -0.52991803934E+00  0.11803651690E+01  0.00000000000E+00 0.  1.
         11    1    3    3    0    0  0.10861241003E+01  0.60223082173E+01 -0.75584375965E+01  0.97251139318E+01  0.51100000000E-03 0. -1.
        -11    1    3    3    0    0 -0.22304305470E+01  0.35219409607E+02  0.16005149744E+02  0.38749792929E+02  0.51100000000E-03 0.  1.
         12    1    3    3    0    0  0.20604590961E+01 -0.40719115560E+02 -0.79167941084E+01  0.41532727970E+02  0.00000000000E+00 0. -1.
</event>
<event>
 7    1  0.3505640E-015  0.9000766E+02  0.7816164E-02  0.1186339E+00
        -11   -1    0    0    0    0  0.00000000000E+00  0.00000000000E+00  0.45593999997E+02  0.45594000000E+02  0.51100000000E-03 0. -1.
         11   -1    0    0    0    0 -0.00000000000E+00 -0.00000000000E+00 -0.45593999997E+02  0.45594000000E+02  0.51100000000E-03 0.  1.
    9900012    2    1    2    0    0  0.78203458075E+00 -0.81533470433E+00  0.34183436945E+00  0.90007661277E+02  0.89999921606E+02 0.  0.
        -12    1    1    2    0    0 -0.78203458075E+00  0.81533470433E+00 -0.34183436945E+00  0.11803387233E+01  0.00000000000E+00 0.  1.
         11    1    3    3    0    0 -0.72785045358E+01 -0.60891836169E+01  0.29552977394E+01  0.99392439545E+01  0.51100000000E-03 0. -1.
        -11    1    3    3    0    0 -0.21322177345E+02 -0.15485294230E+02  0.23743186043E+02  0.35470670530E+02  0.51100000000E-03 0.  1.
         12    1    3    3    0    0  0.29382716461E+02  0.20759143143E+02 -0.26356649413E+02  0.44597746792E+02  0.00000000000E+00 0. -1.
</event>
<event>
 7    1  0.3505640E-015  0.9000775E+02  0.7816164E-02  0.1186339E+00
        -11   -1    0    0    0    0  0.00000000000E+00  0.00000000000E+00  0.45593999997E+02  0.45594000000E+02  0.51100000000E-03 0. -1.
         11   -1    0    0    0    0 -0.00000000000E+00 -0.00000000000E+00 -0.45593999997E+02  0.45594000000E+02  0.51100000000E-03 0.  1.
    9900012    2    1    2    0    0 -0.72349742625E+00 -0.19523087833E+00  0.91182303630E+00  0.90007752199E+02  0.90000013728E+02 0.  0.
        -12    1    1    2    0    0  0.72349742625E+00  0.19523087833E+00 -0.91182303630E+00  0.11802478007E+01  0.00000000000E+00 0.  1.
         11    1    3    3    0    0 -0.75104345277E+01 -0.18564016468E+01  0.50173801146E+00  0.77527153412E+01  0.51100000000E-03 0. -1.
        -11    1    3    3    0    0 -0.13133590096E+02 -0.33157843600E+01 -0.37098537786E+02  0.39494140336E+02  0.51100000000E-03 0.  1.
         12    1    3    3    0    0  0.19920527198E+02  0.49769551285E+01  0.37508622811E+02  0.42760896522E+02  0.00000000000E+00 0. -1.
</event>
<event>
 7    1  0.3505640E-015  0.9000771E+02  0.7816164E-02  0.1186339E+00
        -11   -1    0    0    0    0  0.00000000000E+00  0.00000000000E+00  0.45593999997E+02  0.45594000000E+02  0.51100000000E-03 0.  1.
         11   -1    0    0    0    0 -0.00000000000E+00 -0.00000000000E+00 -0.45593999997E+02  0.45594000000E+02  0.51100000000E-03 0. -1.
    9900012    2    1    2    0    0  0.11042409505E+01 -0.41542501364E-01 -0.41472897751E+00  0.90007714449E+02  0.89999975480E+02 0.  0.
        -12    1    1    2    0    0 -0.11042409505E+01  0.41542501364E-01  0.41472897751E+00  0.11802855506E+01  0.00000000000E+00 0.  1.
         11    1    3    3    0    0  0.15165749812E+02 -0.15282025011E+02 -0.33460190018E+02  0.39788497988E+02  0.51100000000E-03 0. -1.
        -11    1    3    3    0    0  0.78047733645E+01 -0.17111960953E+01  0.12767954709E+01  0.80915317637E+01  0.51100000000E-03 0.  1.
        -12    1    3    3    0    0 -0.21866282226E+02  0.16951678605E+02  0.31768665570E+02  0.42127684698E+02  0.00000000000E+00 0.  1.
</event>
<event>
 7    1  0.3505640E-015  0.9000783E+02  0.7816164E-02  0.1186339E+00
        -11   -1    0    0    0    0  0.00000000000E+00  0.00000000000E+00  0.45593999997E+02  0.45594000000E+02  0.51100000000E-03 0.  1.
         11   -1    0    0    0    0 -0.00000000000E+00 -0.00000000000E+00 -0.45593999997E+02  0.45594000000E+02  0.51100000000E-03 0. -1.
    9900012    2    1    2    0    0 -0.43556762886E+00  0.71534860251E+00 -0.83148010824E+00  0.90007829693E+02  0.90000092245E+02 0.  0.
        -12    1    1    2    0    0  0.43556762886E+00 -0.71534860251E+00  0.83148010824E+00  0.11801703067E+01  0.00000000000E+00 0.  1.
         11    1    3    3    0    0  0.28626682066E+01 -0.86342808005E+01 -0.43394876467E+01  0.10078533003E+02  0.51100000000E-03 0. -1.
        -11    1    3    3    0    0  0.35797545533E+02  0.43452850749E+01  0.14722861441E+02  0.38950075967E+02  0.51100000000E-03 0.  1.
         12    1    3    3    0    0 -0.39095781369E+02  0.50043443281E+01 -0.11214853903E+02  0.40979220723E+02  0.00000000000E+00 0. -1.
</event>
<event>
 7    1  0.3505640E-015  0.9000794E+02  0.7816164E-02  0.1186339E+00
        -11   -1    0    0    0    0  0.00000000000E+00  0.00000000000E+00  0.45593999997E+02  0.45594000000E+02  0.51100000000E-03 0. -1.
         11   -1    0    0    0    0 -0.00000000000E+00 -0.00000000000E+00 -0.45593999997E+02  0.45594000000E+02  0.51100000000E-03 0.  1.
    9900012    2    1    2    0    0 -0.74148293096E+00  0.33258922232E+00  0.85564730697E+00  0.90007938628E+02  0.90000202618E+02 0.  0.
        -12    1    1    2    0    0  0.74148293096E+00 -0.33258922232E+00 -0.85564730697E+00  0.11800613720E+01  0.00000000000E+00 0.  1.
         11    1    3    3    0    0  0.33119982858E+00  0.86100794433E+01 -0.28479933096E+01  0.90749230024E+01  0.51100000000E-03 0. -1.
        -11    1    3    3    0    0  0.10579430985E+02  0.10257430419E+02 -0.34155933819E+02  0.37199019532E+02  0.51100000000E-03 0.  1.
         12    1    3    3    0    0 -0.11652113745E+02 -0.18534920641E+02  0.37859574436E+02  0.43733996094E+02  0.00000000000E+00 0. -1.
</event>
<event>
 7    1  0.3505640E-015  0.9000769E+02  0.7816164E-02  0.1186339E+00
        -11   -1    0    0    0    0  0.00000000000E+00  0.00000000000E+00  0.45593999997E+02  0.45594000000E+02  0.51100000000E-03 0.  1.
         11   -1    0    0    0    0 -0.00000000000E+00 -0.00000000000E+00 -0.45593999997E+02  0.45594000000E+02  0.51100000000E-03 0. -1.
    9900012    2    1    2    0    0  0.11094265055E+01 -0.18483602001E+00  0.35796696506E+00  0.90007689925E+02  0.89999950632E+02 0.  0.
        -12    1    1    2    0    0 -0.11094265055E+01  0.18483602001E+00 -0.35796696506E+00  0.11803100751E+01  0.00000000000E+00 0.  1.
         11    1    3    3    0    0  0.27094918005E+02  0.18716694809E+02 -0.14472247736E+02  0.35970754802E+02  0.51100000000E-03 0. -1.
        -11    1    3    3    0    0  0.19598051076E+01 -0.18295603614E+01 -0.11630262056E+02  0.11935288975E+02  0.51100000000E-03 0.  1.
        -12    1    3    3    0    0 -0.27945296607E+02 -0.17071970467E+02  0.26460476757E+02  0.42101646147E+02  0.00000000000E+00 0.  1.
</event>
<event>
 7    1  0.3505640E-015  0.9000775E+02  0.7816164E-02  0.1186339E+00
        -11   -1    0    0    0    0  0.00000000000E+00  0.00000000000E+00  0.45593999997E+02  0.45594000000E+02  0.51100000000E-03 0. -1.
         11   -1    0    0    0    0 -0.00000000000E+00 -0.00000000000E+00 -0.45593999997E+02  0.45594000000E+02  0.51100000000E-03 0.  1.
    9900012    2    1    2    0    0  0.27047506324E+00 -0.71500640049E+00 -0.89922349707E+00  0.90007748412E+02  0.90000009891E+02 0.  0.
        -12    1    1    2    0    0 -0.27047506324E+00  0.71500640049E+00  0.89922349707E+00  0.11802515877E+01  0.00000000000E+00 0.  1.
         11    1    3    3    0    0  0.55230675180E+01  0.25381223894E+01 -0.51129804538E+01  0.79428527277E+01  0.51100000000E-03 0. -1.
        -11    1    3    3    0    0  0.36845212327E+02  0.60561729737E+01 -0.58395755327E+01  0.37793485486E+02  0.51100000000E-03 0.  1.
         12    1    3    3    0    0 -0.42097804782E+02 -0.93093017636E+01  0.10053332489E+02  0.44271410198E+02  0.00000000000E+00 0. -1.
</event>
<event>
 7    1  0.3505640E-015  0.9000775E+02  0.7816164E-02  0.1186339E+00
        -11   -1    0    0    0    0  0.00000000000E+00  0.00000000000E+00  0.45593999997E+02  0.45594000000E+02  0.51100000000E-03 0. -1.
         11   -1    0    0    0    0 -0.00000000000E+00 -0.00000000000E+00 -0.45593999997E+02  0.45594000000E+02  0.51100000000E-03 0.  1.
    9900012    2    1    2    0    0  0.16335989598E+00 -0.93678055469E+00  0.69910662978E+00  0.90007748187E+02  0.90000009663E+02 0.  0.
        -12    1    1    2    0    0 -0.16335989598E+00  0.93678055469E+00 -0.69910662978E+00  0.11802518134E+01  0.00000000000E+00 0.  1.
         11    1    3    3    0    0  0.43256808489E+01 -0.65510599767E+01 -0.63548197030E+01  0.10100080957E+02  0.51100000000E-03 0. -1.
        -11    1    3    3    0    0  0.35604824285E+02  0.78552581226E+01 -0.79984789240E+01  0.37328062606E+02  0.51100000000E-03 0.  1.
         12    1    3    3    0    0 -0.39767145238E+02 -0.22409787006E+01  0.15052405257E+02  0.42579604624E+02  0.00000000000E+00 0. -1.
</event>
<event>
 7    1  0.3505640E-015  0.9000771E+02  0.7816164E-02  0.1186339E+00
        -11   -1    0    0    0    0  0.00000000000E+00  0.00000000000E+00  0.45593999997E+02  0.45594000000E+02  0.51100000000E-03 0. -1.
         11   -1    0    0    0    0 -0.00000000000E+00 -0.00000000000E+00 -0.45593999997E+02  0.45594000000E+02  0.51100000000E-03 0.  1.
    9900012    2    1    2    0    0 -0.27373716870E+00  0.11474637384E+01 -0.38525228451E-01  0.90007707976E+02  0.89999968921E+02 0.  0.
        -12    1    1    2    0    0  0.27373716870E+00 -0.11474637384E+01  0.38525228451E-01  0.11802920239E+01  0.00000000000E+00 0.  1.
         11    1    3    3    0    0 -0.76899759487E+01  0.26502700842E+00 -0.63368830767E+01  0.99680518054E+01  0.51100000000E-03 0. -1.
        -11    1    3    3    0    0  0.79388318525E+00 -0.38135664751E+02 -0.59640446343E+01  0.38607369830E+02  0.51100000000E-03 0.  1.
         12    1    3    3    0    0  0.66223555947E+01  0.39018101481E+02  0.12262402483E+02  0.41432286341E+02  0.00000000000E+00 0. -1.
</event>
<event>
 7    1  0.3505640E-015  0.9000854E+02  0.7816164E-02  0.1186337E+00
        -11   -1    0    0    0    0  0.00000000000E+00  0.00000000000E+00  0.45593999997E+02  0.45594000000E+02  0.51100000000E-03 0.  1.
         11   -1    0    0    0    0 -0.00000000000E+00 -0.00000000000E+00 -0.45593999997E+02  0.45594000000E+02  0.51100000000E-03 0. -1.
    9900012    2    1    2    0    0 -0.82370758529E+00  0.60593799486E+00  0.58776234296E+00  0.90008542662E+02  0.90000814622E+02 0.  0.
        -12    1    1    2    0    0  0.82370758529E+00 -0.60593799486E+00 -0.58776234296E+00  0.11794573377E+01  0.00000000000E+00 0.  1.
         11    1    3    3    0    0  0.17018929166E+02 -0.15234575283E+02 -0.26305916064E+02  0.34838734969E+02  0.51100000000E-03 0. -1.
        -11    1    3    3    0    0  0.55007394123E+01 -0.21133073419E+01 -0.77274500177E+01  0.97179054348E+01  0.51100000000E-03 0.  1.
        -12    1    3    3    0    0 -0.23343376163E+02  0.17953820620E+02  0.34621128424E+02  0.45451902259E+02  0.00000000000E+00 0.  1.
</event>
<event>
 7    1  0.3505640E-015  0.9000776E+02  0.7816164E-02  0.1186339E+00
        -11   -1    0    0    0    0  0.00000000000E+00  0.00000000000E+00  0.45593999997E+02  0.45594000000E+02  0.51100000000E-03 0. -1.
         11   -1    0    0    0    0 -0.00000000000E+00 -0.00000000000E+00 -0.45593999997E+02  0.45594000000E+02  0.51100000000E-03 0.  1.
    9900012    2    1    2    0    0 -0.54695327473E+00  0.17170602159E+00  0.10316625183E+01  0.90007759180E+02  0.90000020801E+02 0.  0.
        -12    1    1    2    0    0  0.54695327473E+00 -0.17170602159E+00 -0.10316625183E+01  0.11802408205E+01  0.00000000000E+00 0.  1.
         11    1    3    3    0    0 -0.49847216585E+01  0.31240118846E+02  0.17474855452E+02  0.36140877810E+02  0.51100000000E-03 0. -1.
        -11    1    3    3    0    0 -0.20740732990E+01  0.52454242587E+01  0.78701547349E+01  0.96827471059E+01  0.51100000000E-03 0.  1.
        -12    1    3    3    0    0  0.65118416827E+01 -0.36313837083E+02 -0.24313347669E+02  0.44184134264E+02  0.00000000000E+00 0.  1.
</event>
<event>
 7    1  0.3505640E-015  0.9000767E+02  0.7816164E-02  0.1186339E+00
        -11   -1    0    0    0    0  0.00000000000E+00  0.00000000000E+00  0.45593999997E+02  0.45594000000E+02  0.51100000000E-03 0. -1.
         11   -1    0    0    0    0 -0.00000000000E+00 -0.00000000000E+00 -0.45593999997E+02  0.45594000000E+02  0.51100000000E-03 0.  1.
    9900012    2    1    2    0    0  0.10702137057E+01 -0.49051215072E+00  0.84993404349E-01  0.90007668087E+02  0.89999928506E+02 0.  0.
        -12    1    1    2    0    0 -0.10702137057E+01  0.49051215072E+00 -0.84993404349E-01  0.11803319129E+01  0.00000000000E+00 0.  1.
         11    1    3    3    0    0 -0.22934902538E+02  0.31230719630E+02 -0.93471723349E+01  0.39858966795E+02  0.51100000000E-03 0. -1.
        -11    1    3    3    0    0  0.70181174656E+01  0.48527237725E+01 -0.72400949560E+00  0.85631238917E+01  0.51100000000E-03 0.  1.
        -12    1    3    3    0    0  0.16986998778E+02 -0.36573955554E+02  0.10156175235E+02  0.41585577400E+02  0.00000000000E+00 0.  1.
</event>
<event>
 7    1  0.3505640E-015  0.9000777E+02  0.7816164E-02  0.1186339E+00
        -11   -1    0    0    0    0  0.00000000000E+00  0.00000000000E+00  0.45593999997E+02  0.45594000000E+02  0.51100000000E-03 0. -1.
         11   -1    0    0    0    0 -0.00000000000E+00 -0.00000000000E+00 -0.45593999997E+02  0.45594000000E+02  0.51100000000E-03 0.  1.
    9900012    2    1    2    0    0 -0.10885579614E+01 -0.22044628759E+00 -0.39922104607E+00  0.90007774409E+02  0.90000036232E+02 0.  0.
        -12    1    1    2    0    0  0.10885579614E+01  0.22044628759E+00  0.39922104607E+00  0.11802255905E+01  0.00000000000E+00 0.  1.
         11    1    3    3    0    0 -0.12344529481E+02 -0.34255588867E+02 -0.81898782741E+01  0.37321667743E+02  0.51100000000E-03 0. -1.
        -11    1    3    3    0    0 -0.27402255592E+01 -0.48411093343E+01  0.98538878599E+01  0.11315665333E+02  0.51100000000E-03 0.  1.
        -12    1    3    3    0    0  0.13996197078E+02  0.38876251914E+02 -0.20632306318E+01  0.41370441334E+02  0.00000000000E+00 0.  1.
</event>
<event>
 7    1  0.3505640E-015  0.9000777E+02  0.7816164E-02  0.1186339E+00
        -11   -1    0    0    0    0  0.00000000000E+00  0.00000000000E+00  0.45593999997E+02  0.45594000000E+02  0.51100000000E-03 0.  1.
         11   -1    0    0    0    0 -0.00000000000E+00 -0.00000000000E+00 -0.45593999997E+02  0.45594000000E+02  0.51100000000E-03 0. -1.
    9900012    2    1    2    0    0 -0.35490549409E+00  0.75728115141E+00 -0.83277663773E+00  0.90007767150E+02  0.90000028876E+02 0.  0.
        -12    1    1    2    0    0  0.35490549409E+00 -0.75728115141E+00  0.83277663773E+00  0.11802328501E+01  0.00000000000E+00 0.  1.
         11    1    3    3    0    0 -0.44885740208E+00  0.14256457316E+02 -0.73971021297E+01  0.16067519048E+02  0.51100000000E-03 0. -1.
        -11    1    3    3    0    0  0.34810302167E+02  0.26000642352E+01  0.73140461914E+01  0.35665287647E+02  0.51100000000E-03 0.  1.
         12    1    3    3    0    0 -0.34716350259E+02 -0.16099240400E+02 -0.74972069948E+00  0.38274960455E+02  0.00000000000E+00 0. -1.
</event>
<event>
 7    1  0.3505640E-015  0.9000778E+02  0.7816164E-02  0.1186339E+00
        -11   -1    0    0    0    0  0.00000000000E+00  0.00000000000E+00  0.45593999997E+02  0.45594000000E+02  0.51100000000E-03 0. -1.
         11   -1    0    0    0    0 -0.00000000000E+00 -0.00000000000E+00 -0.45593999997E+02  0.45594000000E+02  0.51100000000E-03 0.  1.
    9900012    2    1    2    0    0 -0.52563910751E+00 -0.10445739095E+01  0.15967089957E+00  0.90007777174E+02  0.90000039032E+02 0.  0.
        -12    1    1    2    0    0  0.52563910751E+00  0.10445739095E+01 -0.15967089957E+00  0.11802228264E+01  0.00000000000E+00 0.  1.
         11    1    3    3    0    0  0.20535119092E+02 -0.22400822054E+02  0.30495346328E+02  0.43051760623E+02  0.51100000000E-03 0. -1.
        -11    1    3    3    0    0 -0.93401252483E+01  0.28337677681E+01 -0.29026257702E+00  0.97648569904E+01  0.51100000000E-03 0.  1.
        -12    1    3    3    0    0 -0.11720632951E+02  0.18522480376E+02 -0.30045412851E+02  0.37191159561E+02  0.00000000000E+00 0.  1.
</event>
<event>
 7    1  0.3505640E-015  0.9000813E+02  0.7816164E-02  0.1186338E+00
        -11   -1    0    0    0    0  0.00000000000E+00  0.00000000000E+00  0.45593999997E+02  0.45594000000E+02  0.51100000000E-03 0.  1.
         11   -1    0    0    0    0 -0.00000000000E+00 -0.00000000000E+00 -0.45593999997E+02  0.45594000000E+02  0.51100000000E-03 0. -1.
    9900012    2    1    2    0    0 -0.10457567571E+01 -0.43926009533E+00 -0.32487848099E+00  0.90008126001E+02  0.90000392463E+02 0.  0.
        -12    1    1    2    0    0  0.10457567571E+01  0.43926009533E+00  0.32487848099E+00  0.11798739991E+01  0.00000000000E+00 0.  1.
         11    1    3    3    0    0  0.75874319950E+01  0.28396674807E+01  0.36611304887E+01  0.88902594110E+01  0.51100000000E-03 0. -1.
        -11    1    3    3    0    0 -0.23743301711E+02  0.11292345901E+01  0.33145634516E+02  0.40787898139E+02  0.51100000000E-03 0.  1.
         12    1    3    3    0    0  0.15110112958E+02 -0.44081621661E+01 -0.37131643486E+02  0.40329968451E+02  0.00000000000E+00 0. -1.
</event>
<event>
 7    1  0.3505640E-015  0.9000775E+02  0.7816164E-02  0.1186339E+00
        -11   -1    0    0    0    0  0.00000000000E+00  0.00000000000E+00  0.45593999997E+02  0.45594000000E+02  0.51100000000E-03 0. -1.
         11   -1    0    0    0    0 -0.00000000000E+00 -0.00000000000E+00 -0.45593999997E+02  0.45594000000E+02  0.51100000000E-03 0.  1.
    9900012    2    1    2    0    0  0.92985207889E+00 -0.51664825139E+00 -0.51130173977E+00  0.90007754359E+02  0.90000015916E+02 0.  0.
        -12    1    1    2    0    0 -0.92985207889E+00  0.51664825139E+00  0.51130173977E+00  0.11802456411E+01  0.00000000000E+00 0.  1.
         11    1    3    3    0    0  0.22145104959E+02 -0.20632394890E+02  0.11555140290E+02  0.32397880485E+02  0.51100000000E-03 0. -1.
        -11    1    3    3    0    0  0.97793429111E+01 -0.82788612606E+01 -0.86017368309E+01  0.15432594348E+02  0.51100000000E-03 0.  1.
        -12    1    3    3    0    0 -0.30994595791E+02  0.28394607900E+02 -0.34647051986E+01  0.42177279525E+02  0.00000000000E+00 0.  1.
</event>
<event>
 7    1  0.3505640E-015  0.9000780E+02  0.7816164E-02  0.1186339E+00
        -11   -1    0    0    0    0  0.00000000000E+00  0.00000000000E+00  0.45593999997E+02  0.45594000000E+02  0.51100000000E-03 0.  1.
         11   -1    0    0    0    0 -0.00000000000E+00 -0.00000000000E+00 -0.45593999997E+02  0.45594000000E+02  0.51100000000E-03 0. -1.
    9900012    2    1    2    0    0 -0.51446191939E+00  0.77435991288E+00 -0.72702601002E+00  0.90007800373E+02  0.90000062538E+02 0.  0.
        -12    1    1    2    0    0  0.51446191939E+00 -0.77435991288E+00  0.72702601002E+00  0.11801996274E+01  0.00000000000E+00 0.  1.
         11    1    3    3    0    0 -0.13512501979E+02 -0.33332033946E+02 -0.16696722932E+02  0.39653407844E+02  0.51100000000E-03 0. -1.
        -11    1    3    3    0    0  0.30802103493E+01  0.42402072918E+01 -0.88428655746E+01  0.10279266779E+02  0.51100000000E-03 0.  1.
        -12    1    3    3    0    0  0.99178297103E+01  0.29866186567E+02  0.24812562496E+02  0.40075125750E+02  0.00000000000E+00 0.  1.
</event>
<event>
 7    1  0.3505640E-015  0.9000770E+02  0.7816164E-02  0.1186339E+00
        -11   -1    0    0    0    0  0.00000000000E+00  0.00000000000E+00  0.45593999997E+02  0.45594000000E+02  0.51100000000E-03 0.  1.
         11   -1    0    0    0    0 -0.00000000000E+00 -0.00000000000E+00 -0.45593999997E+02  0.45594000000E+02  0.51100000000E-03 0. -1.
    9900012    2    1    2    0    0  0.93449624177E+00  0.71850624866E+00 -0.59756687929E-01  0.90007701175E+02  0.89999962030E+02 0.  0.
        -12    1    1    2    0    0 -0.93449624177E+00 -0.71850624866E+00  0.59756687929E-01  0.11802988253E+01  0.00000000000E+00 0.  1.
         11    1    3    3    0    0  0.97170177687E+01  0.24212952300E+01 -0.13081727082E+01  0.10099228733E+02  0.51100000000E-03 0. -1.
        -11    1    3    3    0    0 -0.17648428293E+02 -0.38625298462E+01  0.37981326592E+02  0.42059093286E+02  0.51100000000E-03 0.  1.
         12    1    3    3    0    0  0.88659067663E+01  0.21597408648E+01 -0.36732910572E+02  0.37849379156E+02  0.00000000000E+00 0. -1.
</event>
<event>
 7    1  0.3505640E-015  0.9000771E+02  0.7816164E-02  0.1186339E+00
        -11   -1    0    0    0    0  0.00000000000E+00  0.00000000000E+00  0.45593999997E+02  0.45594000000E+02  0.51100000000E-03 0. -1.
         11   -1    0    0    0    0 -0.00000000000E+00 -0.00000000000E+00 -0.45593999997E+02  0.45594000000E+02  0.51100000000E-03 0.  1.
    9900012    2    1    2    0    0 -0.10467312672E+01 -0.45853761143E+00  0.29526128808E+00  0.90007710919E+02  0.89999971903E+02 0.  0.
        -12    1    1    2    0    0  0.10467312672E+01  0.45853761143E+00 -0.29526128808E+00  0.11802890812E+01  0.00000000000E+00 0.  1.
         11    1    3    3    0    0  0.95594765381E+00 -0.83553512174E+01 -0.57753327115E+01  0.10201970303E+02  0.51100000000E-03 0. -1.
        -11    1    3    3    0    0 -0.35863972827E+02 -0.24992667195E+01 -0.14590716054E+02  0.38798967464E+02  0.51100000000E-03 0.  1.
         12    1    3    3    0    0  0.33861293906E+02  0.10396080325E+02  0.20661310054E+02  0.41006773151E+02  0.00000000000E+00 0. -1.
</event>
<event>
 7    1  0.3505640E-015  0.9000754E+02  0.7816164E-02  0.1186339E+00
        -11   -1    0    0    0    0  0.00000000000E+00  0.00000000000E+00  0.45593999997E+02  0.45594000000E+02  0.51100000000E-03 0.  1.
         11   -1    0    0    0    0 -0.00000000000E+00 -0.00000000000E+00 -0.45593999997E+02  0.45594000000E+02  0.51100000000E-03 0. -1.
    9900012    2    1    2    0    0 -0.93402646240E-01  0.91312260621E+00 -0.74227330265E+00  0.90007539664E+02  0.89999798388E+02 0.  0.
        -12    1    1    2    0    0  0.93402646240E-01 -0.91312260621E+00  0.74227330265E+00  0.11804603357E+01  0.00000000000E+00 0.  1.
         11    1    3    3    0    0 -0.15294927211E+02 -0.69260991398E+01  0.18157106864E+02  0.24730268450E+02  0.51100000000E-03 0. -1.
        -11    1    3    3    0    0  0.16047378635E+02  0.21372951673E+02  0.13654007275E+02  0.30012553027E+02  0.51100000000E-03 0.  1.
         12    1    3    3    0    0 -0.84585407098E+00 -0.13533729927E+02 -0.32553387442E+02  0.35264718187E+02  0.00000000000E+00 0. -1.
</event>
<event>
 7    1  0.3505640E-015  0.9000770E+02  0.7816164E-02  0.1186339E+00
        -11   -1    0    0    0    0  0.00000000000E+00  0.00000000000E+00  0.45593999997E+02  0.45594000000E+02  0.51100000000E-03 0.  1.
         11   -1    0    0    0    0 -0.00000000000E+00 -0.00000000000E+00 -0.45593999997E+02  0.45594000000E+02  0.51100000000E-03 0. -1.
    9900012    2    1    2    0    0  0.89060954624E+00 -0.74291910274E+00  0.21905293929E+00  0.90007704127E+02  0.89999965022E+02 0.  0.
        -12    1    1    2    0    0 -0.89060954624E+00  0.74291910274E+00 -0.21905293929E+00  0.11802958728E+01  0.00000000000E+00 0.  1.
         11    1    3    3    0    0  0.66848562272E+01 -0.41047747837E+02  0.15573798652E+02  0.44408874225E+02  0.51100000000E-03 0. -1.
        -11    1    3    3    0    0  0.25721015602E+01  0.30527858070E+01 -0.42632326419E+01  0.58404075577E+01  0.51100000000E-03 0.  1.
        -12    1    3    3    0    0 -0.83663482412E+01  0.37252042927E+02 -0.11091513071E+02  0.39758422344E+02  0.00000000000E+00 0.  1.
</event>
<event>
 7    1  0.3505640E-015  0.9000775E+02  0.7816164E-02  0.1186339E+00
        -11   -1    0    0    0    0  0.00000000000E+00  0.00000000000E+00  0.45593999997E+02  0.45594000000E+02  0.51100000000E-03 0.  1.
         11   -1    0    0    0    0 -0.00000000000E+00 -0.00000000000E+00 -0.45593999997E+02  0.45594000000E+02  0.51100000000E-03 0. -1.
    9900012    2    1    2    0    0 -0.48390836380E+00 -0.18838499875E+00 -0.10598724573E+01  0.90007751790E+02  0.90000013313E+02 0.  0.
        -12    1    1    2    0    0  0.48390836380E+00  0.18838499875E+00  0.10598724573E+01  0.11802482103E+01  0.00000000000E+00 0.  1.
         11    1    3    3    0    0 -0.96413837410E+01 -0.54790252063E+00  0.70269821838E+00  0.96824719293E+01  0.51100000000E-03 0. -1.
        -11    1    3    3    0    0  0.14685152218E+02 -0.35785125588E+02 -0.14929057532E+02  0.41462099176E+02  0.51100000000E-03 0.  1.
         12    1    3    3    0    0 -0.55276768409E+01  0.36144643110E+02  0.13166486857E+02  0.38863180685E+02  0.00000000000E+00 0. -1.
</event>
<event>
 7    1  0.3505640E-015  0.9000775E+02  0.7816164E-02  0.1186339E+00
        -11   -1    0    0    0    0  0.00000000000E+00  0.00000000000E+00  0.45593999997E+02  0.45594000000E+02  0.51100000000E-03 0.  1.
         11   -1    0    0    0    0 -0.00000000000E+00 -0.00000000000E+00 -0.45593999997E+02  0.45594000000E+02  0.51100000000E-03 0. -1.
    9900012    2    1    2    0    0 -0.66858459105E+00 -0.89686244360E+00  0.37631357893E+00  0.90007754471E+02  0.90000016030E+02 0.  0.
        -12    1    1    2    0    0  0.66858459105E+00  0.89686244360E+00 -0.37631357893E+00  0.11802455286E+01  0.00000000000E+00 0.  1.
         11    1    3    3    0    0  0.32227417444E+01 -0.39568101303E+01  0.88851499391E+01  0.10246379871E+02  0.51100000000E-03 0. -1.
        -11    1    3    3    0    0  0.11666695802E+02  0.48658946321E+01  0.33030850571E+02  0.35367015865E+02  0.51100000000E-03 0.  1.
         12    1    3    3    0    0 -0.15558022138E+02 -0.18059469453E+01 -0.41539686931E+02  0.44394358735E+02  0.00000000000E+00 0. -1.
</event>
<event>
 7    1  0.3505640E-015  0.9000775E+02  0.7816164E-02  0.1186339E+00
        -11   -1    0    0    0    0  0.00000000000E+00  0.00000000000E+00  0.45593999997E+02  0.45594000000E+02  0.51100000000E-03 0. -1.
         11   -1    0    0    0    0 -0.00000000000E+00 -0.00000000000E+00 -0.45593999997E+02  0.45594000000E+02  0.51100000000E-03 0.  1.
    9900012    2    1    2    0    0  0.99764510869E+00  0.62409566416E+00  0.90611033507E-01  0.90007745146E+02  0.90000006582E+02 0.  0.
        -12    1    1    2    0    0 -0.99764510869E+00 -0.62409566416E+00 -0.90611033507E-01  0.11802548540E+01  0.00000000000E+00 0.  1.
         11    1    3    3    0    0  0.83683127293E+00 -0.75295954136E+01  0.38866796209E+02  0.39598269425E+02  0.51100000000E-03 0. -1.
        -11    1    3    3    0    0 -0.87566140318E+01 -0.41905730112E+01 -0.10971893661E+01  0.97694941645E+01  0.51100000000E-03 0.  1.
        -12    1    3    3    0    0  0.89174278676E+01  0.12344264089E+02 -0.37678995809E+02  0.40639981556E+02  0.00000000000E+00 0.  1.
</event>
<event>
 7    1  0.3505640E-015  0.9000771E+02  0.7816164E-02  0.1186339E+00
        -11   -1    0    0    0    0  0.00000000000E+00  0.00000000000E+00  0.45593999997E+02  0.45594000000E+02  0.51100000000E-03 0. -1.
         11   -1    0    0    0    0 -0.00000000000E+00 -0.00000000000E+00 -0.45593999997E+02  0.45594000000E+02  0.51100000000E-03 0.  1.
    9900012    2    1    2    0    0 -0.22031908057E+00 -0.31190621025E+00  0.11168080205E+01  0.90007709300E+02  0.89999970263E+02 0.  0.
        -12    1    1    2    0    0  0.22031908057E+00  0.31190621025E+00 -0.11168080205E+01  0.11802906997E+01  0.00000000000E+00 0.  1.
         11    1    3    3    0    0 -0.24981409960E+02  0.18167673403E+02 -0.22328925836E+02  0.38114513373E+02  0.51100000000E-03 0. -1.
        -11    1    3    3    0    0 -0.41287108504E+01  0.33876990960E+01 -0.38042947731E+01  0.65570890976E+01  0.51100000000E-03 0.  1.
        -12    1    3    3    0    0  0.28889801730E+02 -0.21867278709E+02  0.27250028629E+02  0.45336106829E+02  0.00000000000E+00 0.  1.
</event>
<event>
 7    1  0.3505640E-015  0.9000778E+02  0.7816164E-02  0.1186339E+00
        -11   -1    0    0    0    0  0.00000000000E+00  0.00000000000E+00  0.45593999997E+02  0.45594000000E+02  0.51100000000E-03 0. -1.
         11   -1    0    0    0    0 -0.00000000000E+00 -0.00000000000E+00 -0.45593999997E+02  0.45594000000E+02  0.51100000000E-03 0.  1.
    9900012    2    1    2    0    0  0.56957569953E+00 -0.10162297231E+01 -0.18915455989E+00  0.90007780201E+02  0.90000042099E+02 0.  0.
        -12    1    1    2    0    0 -0.56957569953E+00  0.10162297231E+01  0.18915455989E+00  0.11802197995E+01  0.00000000000E+00 0.  1.
         11    1    3    3    0    0 -0.43477791381E+01  0.10616504916E+02  0.39734983627E+01  0.12140924576E+02  0.51100000000E-03 0. -1.
        -11    1    3    3    0    0 -0.17404564077E+02 -0.83956360437E+01 -0.34810198966E+02  0.39814011449E+02  0.51100000000E-03 0.  1.
         12    1    3    3    0    0  0.22321918915E+02 -0.32370985954E+01  0.30647546044E+02  0.38052844176E+02  0.00000000000E+00 0. -1.
</event>
<event>
 7    1  0.3505640E-015  0.9000770E+02  0.7816164E-02  0.1186339E+00
        -11   -1    0    0    0    0  0.00000000000E+00  0.00000000000E+00  0.45593999997E+02  0.45594000000E+02  0.51100000000E-03 0.  1.
         11   -1    0    0    0    0 -0.00000000000E+00 -0.00000000000E+00 -0.45593999997E+02  0.45594000000E+02  0.51100000000E-03 0. -1.
    9900012    2    1    2    0    0  0.10447856067E+01  0.48026364407E+00 -0.26622135177E+00  0.90007701758E+02  0.89999962621E+02 0.  0.
        -12    1    1    2    0    0 -0.10447856067E+01 -0.48026364407E+00  0.26622135177E+00  0.11802982419E+01  0.00000000000E+00 0.  1.
         11    1    3    3    0    0  0.26875748163E+02  0.32662390060E+02  0.69129668470E+00  0.42303846812E+02  0.51100000000E-03 0. -1.
        -11    1    3    3    0    0 -0.14688220616E+01 -0.60004448390E+01  0.86903498574E+01  0.10662314825E+02  0.51100000000E-03 0.  1.
        -12    1    3    3    0    0 -0.24362140494E+02 -0.26181681577E+02 -0.96478678939E+01  0.37041540121E+02  0.00000000000E+00 0.  1.
</event>
<event>
 7    1  0.3505640E-015  0.9000761E+02  0.7816164E-02  0.1186339E+00
        -11   -1    0    0    0    0  0.00000000000E+00  0.00000000000E+00  0.45593999997E+02  0.45594000000E+02  0.51100000000E-03 0.  1.
         11   -1    0    0    0    0 -0.00000000000E+00 -0.00000000000E+00 -0.45593999997E+02  0.45594000000E+02  0.51100000000E-03 0. -1.
    9900012    2    1    2    0    0  0.71310920116E+00  0.80688203773E+00 -0.48345344292E+00  0.90007614221E+02  0.89999873929E+02 0.  0.
        -12    1    1    2    0    0 -0.71310920116E+00 -0.80688203773E+00  0.48345344292E+00  0.11803857789E+01  0.00000000000E+00 0.  1.
         11    1    3    3    0    0 -0.10543277374E+02 -0.29107074400E+02 -0.18036276862E+02  0.35828616513E+02  0.51100000000E-03 0. -1.
        -11    1    3    3    0    0  0.32119105885E+01 -0.83875269367E+01 -0.36178585663E+01  0.96827619308E+01  0.51100000000E-03 0.  1.
        -12    1    3    3    0    0  0.80444759862E+01  0.38301483375E+02  0.21170681986E+02  0.44496235777E+02  0.00000000000E+00 0.  1.
</event>
<event>
 7    1  0.3505640E-015  0.9000776E+02  0.7816164E-02  0.1186339E+00
        -11   -1    0    0    0    0  0.00000000000E+00  0.00000000000E+00  0.45593999997E+02  0.45594000000E+02  0.51100000000E-03 0.  1.
         11   -1    0    0    0    0 -0.00000000000E+00 -0.00000000000E+00 -0.45593999997E+02  0.45594000000E+02  0.51100000000E-03 0. -1.
    9900012    2    1    2    0    0  0.28585075266E-01 -0.11733179695E+01  0.12436659961E+00  0.90007763068E+02  0.90000024741E+02 0.  0.
        -12    1    1    2    0    0 -0.28585075266E-01  0.11733179695E+01 -0.12436659961E+00  0.11802369318E+01  0.00000000000E+00 0.  1.
         11    1    3    3    0    0 -0.26534993964E+02  0.15627196473E+02 -0.21510278434E+02  0.37563376483E+02  0.51100000000E-03 0. -1.
        -11    1    3    3    0    0 -0.77884063055E+01 -0.38379216911E+01 -0.18261575986E+01  0.88726415189E+01  0.51100000000E-03 0.  1.
        -12    1    3    3    0    0  0.34351985345E+02 -0.12962592751E+02  0.23460802632E+02  0.43571745066E+02  0.00000000000E+00 0.  1.
</event>
<event>
 7    1  0.3505640E-015  0.9000771E+02  0.7816164E-02  0.1186339E+00
        -11   -1    0    0    0    0  0.00000000000E+00  0.00000000000E+00  0.45593999997E+02  0.45594000000E+02  0.51100000000E-03 0. -1.
         11   -1    0    0    0    0 -0.00000000000E+00 -0.00000000000E+00 -0.45593999997E+02  0.45594000000E+02  0.51100000000E-03 0.  1.
    9900012    2    1    2    0    0 -0.67458305453E+00  0.83749281659E+00 -0.48643388443E+00  0.90007714255E+02  0.89999975283E+02 0.  0.
        -12    1    1    2    0    0  0.67458305453E+00 -0.83749281659E+00  0.48643388443E+00  0.11802857447E+01  0.00000000000E+00 0.  1.
         11    1    3    3    0    0 -0.57015535799E+01  0.26280567584E+01  0.38236347602E+02  0.38748324787E+02  0.51100000000E-03 0. -1.
        -11    1    3    3    0    0  0.81882271688E+01  0.27498614304E+01  0.30209077994E+01  0.91506658910E+01  0.51100000000E-03 0.  1.
        -12    1    3    3    0    0 -0.31612566435E+01 -0.45404253722E+01 -0.41743689286E+02  0.42108723578E+02  0.00000000000E+00 0.  1.
</event>
<event>
 7    1  0.3505640E-015  0.9000776E+02  0.7816164E-02  0.1186339E+00
        -11   -1    0    0    0    0  0.00000000000E+00  0.00000000000E+00  0.45593999997E+02  0.45594000000E+02  0.51100000000E-03 0.  1.
         11   -1    0    0    0    0 -0.00000000000E+00 -0.00000000000E+00 -0.45593999997E+02  0.45594000000E+02  0.51100000000E-03 0. -1.
    9900012    2    1    2    0    0  0.54160623933E+00 -0.67717459407E+00 -0.80066864355E+00  0.90007757217E+02  0.90000018813E+02 0.  0.
        -12    1    1    2    0    0 -0.54160623933E+00  0.67717459407E+00  0.80066864355E+00  0.11802427827E+01  0.00000000000E+00 0.  1.
         11    1    3    3    0    0 -0.68595981435E+01  0.33507095650E+02 -0.14541207698E+02  0.37164852578E+02  0.51100000000E-03 0. -1.
        -11    1    3    3    0    0 -0.29046473126E+00  0.21483218451E+01 -0.90256773851E+01  0.92823762600E+01  0.51100000000E-03 0.  1.
        -12    1    3    3    0    0  0.76916691141E+01 -0.36332592089E+02  0.22766216439E+02  0.43560528379E+02  0.00000000000E+00 0.  1.
</event>
<event>
 7    1  0.3505640E-015  0.9000779E+02  0.7816164E-02  0.1186339E+00
        -11   -1    0    0    0    0  0.00000000000E+00  0.00000000000E+00  0.45593999997E+02  0.45594000000E+02  0.51100000000E-03 0.  1.
         11   -1    0    0    0    0 -0.00000000000E+00 -0.00000000000E+00 -0.45593999997E+02  0.45594000000E+02  0.51100000000E-03 0. -1.
    9900012    2    1    2    0    0  0.69467347340E+00 -0.17860067978E+00 -0.93724804302E+00  0.90007786743E+02  0.90000048728E+02 0.  0.
        -12    1    1    2    0    0 -0.69467347340E+00  0.17860067978E+00  0.93724804302E+00  0.11802132568E+01  0.00000000000E+00 0.  1.
         11    1    3    3    0    0 -0.10722143306E+02  0.25881463158E+01  0.56091688125E+01  0.12374394266E+02  0.51100000000E-03 0. -1.
        -11    1    3    3    0    0 -0.21722453444E+02 -0.23199884652E+02  0.12672969245E+02  0.34215548823E+02  0.51100000000E-03 0.  1.
         12    1    3    3    0    0  0.33139270224E+02  0.20433137657E+02 -0.19219386101E+02  0.43417843654E+02  0.00000000000E+00 0. -1.
</event>
<event>
 7    1  0.3505640E-015  0.9000758E+02  0.7816164E-02  0.1186339E+00
        -11   -1    0    0    0    0  0.00000000000E+00  0.00000000000E+00  0.45593999997E+02  0.45594000000E+02  0.51100000000E-03 0.  1.
         11   -1    0    0    0    0 -0.00000000000E+00 -0.00000000000E+00 -0.45593999997E+02  0.45594000000E+02  0.51100000000E-03 0. -1.
    9900012    2    1    2    0    0  0.29310027596E+00 -0.11047019722E+01  0.29514483091E+00  0.90007582832E+02  0.89999842125E+02 0.  0.
        -12    1    1    2    0    0 -0.29310027596E+00  0.11047019722E+01 -0.29514483091E+00  0.11804171679E+01  0.00000000000E+00 0.  1.
         11    1    3    3    0    0  0.30721824901E+02  0.19494019141E+02  0.23940038441E+01  0.36463386598E+02  0.51100000000E-03 0. -1.
        -11    1    3    3    0    0  0.75901625215E+01  0.29148711151E+01  0.27412708564E+01  0.85803034265E+01  0.51100000000E-03 0.  1.
        -12    1    3    3    0    0 -0.38018887146E+02 -0.23513592228E+02 -0.48401298696E+01  0.44963892808E+02  0.00000000000E+00 0.  1.
</event>
<event>
 7    1  0.3505640E-015  0.9000779E+02  0.7816164E-02  0.1186339E+00
        -11   -1    0    0    0    0  0.00000000000E+00  0.00000000000E+00  0.45593999997E+02  0.45594000000E+02  0.51100000000E-03 0.  1.
         11   -1    0    0    0    0 -0.00000000000E+00 -0.00000000000E+00 -0.45593999997E+02  0.45594000000E+02  0.51100000000E-03 0. -1.
    9900012    2    1    2    0    0  0.94477629946E+00 -0.48238239009E+00 -0.51730921735E+00  0.90007786522E+02  0.90000048505E+02 0.  0.
        -12    1    1    2    0    0 -0.94477629946E+00  0.48238239009E+00  0.51730921735E+00  0.11802134776E+01  0.00000000000E+00 0.  1.
         11    1    3    3    0    0  0.27295141625E+00 -0.28741579613E+02 -0.27112149511E+02  0.39512296219E+02  0.51100000000E-03 0. -1.
        -11    1    3    3    0    0  0.87019100811E+01 -0.30223067444E+01  0.95847263150E+00  0.92615466939E+01  0.51100000000E-03 0.  1.
        -12    1    3    3    0    0 -0.80300851979E+01  0.31281503967E+02  0.25636367662E+02  0.41233943610E+02  0.00000000000E+00 0.  1.
</event>
<event>
 7    1  0.3505640E-015  0.9000776E+02  0.7816164E-02  0.1186339E+00
        -11   -1    0    0    0    0  0.00000000000E+00  0.00000000000E+00  0.45593999997E+02  0.45594000000E+02  0.51100000000E-03 0.  1.
         11   -1    0    0    0    0 -0.00000000000E+00 -0.00000000000E+00 -0.45593999997E+02  0.45594000000E+02  0.51100000000E-03 0. -1.
    9900012    2    1    2    0    0 -0.30791991115E+00  0.11071834917E+01  0.26889823236E+00  0.90007755866E+02  0.90000017444E+02 0.  0.
        -12    1    1    2    0    0  0.30791991115E+00 -0.11071834917E+01 -0.26889823236E+00  0.11802441337E+01  0.00000000000E+00 0.  1.
         11    1    3    3    0    0 -0.28481971267E+02  0.13959693550E+02 -0.18327288954E+02  0.36633116874E+02  0.51100000000E-03 0. -1.
        -11    1    3    3    0    0 -0.10681637677E+01  0.42631395266E+01 -0.87771767723E+01  0.98160157300E+01  0.51100000000E-03 0.  1.
        -12    1    3    3    0    0  0.29242215124E+02 -0.17115649585E+02  0.27373363958E+02  0.43558623262E+02  0.00000000000E+00 0.  1.
</event>
<event>
 7    1  0.3505640E-015  0.9000771E+02  0.7816164E-02  0.1186339E+00
        -11   -1    0    0    0    0  0.00000000000E+00  0.00000000000E+00  0.45593999997E+02  0.45594000000E+02  0.51100000000E-03 0.  1.
         11   -1    0    0    0    0 -0.00000000000E+00 -0.00000000000E+00 -0.45593999997E+02  0.45594000000E+02  0.51100000000E-03 0. -1.
    9900012    2    1    2    0    0 -0.11574142833E+01 -0.10802953669E+00 -0.20445402058E+00  0.90007712048E+02  0.89999973047E+02 0.  0.
        -12    1    1    2    0    0  0.11574142833E+01  0.10802953669E+00  0.20445402058E+00  0.11802879523E+01  0.00000000000E+00 0.  1.
         11    1    3    3    0    0  0.31887840935E+01 -0.90530805741E+00 -0.87938579904E+01  0.93978649326E+01  0.51100000000E-03 0. -1.
        -11    1    3    3    0    0 -0.36007961195E+02  0.21339931115E+02 -0.20356813840E+00  0.41856987107E+02  0.51100000000E-03 0.  1.
         12    1    3    3    0    0  0.31661762818E+02 -0.20542652594E+02  0.87929721083E+01  0.38752860009E+02  0.00000000000E+00 0. -1.
</event>
<event>
 7    1  0.3505640E-015  0.9000774E+02  0.7816164E-02  0.1186339E+00
        -11   -1    0    0    0    0  0.00000000000E+00  0.00000000000E+00  0.45593999997E+02  0.45594000000E+02  0.51100000000E-03 0. -1.
         11   -1    0    0    0    0 -0.00000000000E+00 -0.00000000000E+00 -0.45593999997E+02  0.45594000000E+02  0.51100000000E-03 0.  1.
    9900012    2    1    2    0    0  0.33219827399E+00  0.85037780017E+00  0.74801372516E+00  0.90007736204E+02  0.89999997521E+02 0.  0.
        -12    1    1    2    0    0 -0.33219827399E+00 -0.85037780017E+00 -0.74801372516E+00  0.11802637965E+01  0.00000000000E+00 0.  1.
         11    1    3    3    0    0  0.14150410219E+02 -0.20177615101E+02  0.22135131248E+02  0.33126036530E+02  0.51100000000E-03 0. -1.
        -11    1    3    3    0    0  0.10142148311E+02 -0.94307733576E+01 -0.40691264588E+01  0.14434696009E+02  0.51100000000E-03 0.  1.
        -12    1    3    3    0    0 -0.23960360255E+02  0.30458766259E+02 -0.17317991064E+02  0.42447003665E+02  0.00000000000E+00 0.  1.
</event>
<event>
 7    1  0.3505640E-015  0.9000774E+02  0.7816164E-02  0.1186339E+00
        -11   -1    0    0    0    0  0.00000000000E+00  0.00000000000E+00  0.45593999997E+02  0.45594000000E+02  0.51100000000E-03 0. -1.
         11   -1    0    0    0    0 -0.00000000000E+00 -0.00000000000E+00 -0.45593999997E+02  0.45594000000E+02  0.51100000000E-03 0.  1.
    9900012    2    1    2    0    0  0.39021427036E+00  0.93846313935E+00  0.60002904191E+00  0.90007739397E+02  0.90000000757E+02 0.  0.
        -12    1    1    2    0    0 -0.39021427036E+00 -0.93846313935E+00 -0.60002904191E+00  0.11802606034E+01  0.00000000000E+00 0.  1.
         11    1    3    3    0    0 -0.21710496206E+02 -0.16764405494E+02  0.22577378341E+02  0.35526454229E+02  0.51100000000E-03 0. -1.
        -11    1    3    3    0    0 -0.25099697555E+01 -0.54399416542E+01  0.75326743489E+01  0.96246608502E+01  0.51100000000E-03 0.  1.
        -12    1    3    3    0    0  0.24610680232E+02  0.23142810288E+02 -0.29510023648E+02  0.44856624318E+02  0.00000000000E+00 0.  1.
</event>
<event>
 7    1  0.3505640E-015  0.9000771E+02  0.7816164E-02  0.1186339E+00
        -11   -1    0    0    0    0  0.00000000000E+00  0.00000000000E+00  0.45593999997E+02  0.45594000000E+02  0.51100000000E-03 0. -1.
         11   -1    0    0    0    0 -0.00000000000E+00 -0.00000000000E+00 -0.45593999997E+02  0.45594000000E+02  0.51100000000E-03 0.  1.
    9900012    2    1    2    0    0 -0.38241495992E+00  0.15566476739E+00  0.11057167805E+01  0.90007710917E+02  0.89999971901E+02 0.  0.
        -12    1    1    2    0    0  0.38241495992E+00 -0.15566476739E+00 -0.11057167805E+01  0.11802890833E+01  0.00000000000E+00 0.  1.
         11    1    3    3    0    0  0.71782057312E+01  0.35894796923E+02  0.11530194876E+02  0.38378489781E+02  0.51100000000E-03 0. -1.
        -11    1    3    3    0    0 -0.32620134165E+01 -0.28025858659E+01  0.11198097766E+02  0.11995524703E+02  0.51100000000E-03 0.  1.
        -12    1    3    3    0    0 -0.42986072746E+01 -0.32936546290E+02 -0.21622575862E+02  0.39633696433E+02  0.00000000000E+00 0.  1.
</event>
<event>
 7    1  0.3505640E-015  0.9000822E+02  0.7816164E-02  0.1186338E+00
        -11   -1    0    0    0    0  0.00000000000E+00  0.00000000000E+00  0.45593999997E+02  0.45594000000E+02  0.51100000000E-03 0.  1.
         11   -1    0    0    0    0 -0.00000000000E+00 -0.00000000000E+00 -0.45593999997E+02  0.45594000000E+02  0.51100000000E-03 0. -1.
    9900012    2    1    2    0    0  0.83617677833E+00 -0.37064121892E+00 -0.74520201148E+00  0.90008215038E+02  0.90000482676E+02 0.  0.
        -12    1    1    2    0    0 -0.83617677833E+00  0.37064121892E+00  0.74520201148E+00  0.11797849616E+01  0.00000000000E+00 0.  1.
         11    1    3    3    0    0 -0.11732392595E+00 -0.94669075987E+01 -0.84466307550E+00  0.95052385745E+01  0.51100000000E-03 0. -1.
        -11    1    3    3    0    0 -0.12219098291E+02  0.46381917121E+01  0.37971796076E+02  0.40158143420E+02  0.51100000000E-03 0.  1.
         12    1    3    3    0    0  0.13172598996E+02  0.44580746677E+01 -0.37872335012E+02  0.40344833044E+02  0.00000000000E+00 0. -1.
</event>
<event>
 7    1  0.3505640E-015  0.9000776E+02  0.7816164E-02  0.1186339E+00
        -11   -1    0    0    0    0  0.00000000000E+00  0.00000000000E+00  0.45593999997E+02  0.45594000000E+02  0.51100000000E-03 0.  1.
         11   -1    0    0    0    0 -0.00000000000E+00 -0.00000000000E+00 -0.45593999997E+02  0.45594000000E+02  0.51100000000E-03 0. -1.
    9900012    2    1    2    0    0 -0.33758914747E+00  0.19981820951E+00 -0.11131333324E+01  0.90007762920E+02  0.90000024591E+02 0.  0.
        -12    1    1    2    0    0  0.33758914747E+00 -0.19981820951E+00  0.11131333324E+01  0.11802370800E+01  0.00000000000E+00 0.  1.
         11    1    3    3    0    0 -0.70909158889E+01 -0.61757222358E+01 -0.35636412675E+02  0.36856133029E+02  0.51100000000E-03 0. -1.
        -11    1    3    3    0    0  0.65605731111E+00  0.43598347675E+01 -0.85406475085E+01  0.96115155163E+01  0.51100000000E-03 0.  1.
        -12    1    3    3    0    0  0.60972694303E+01  0.20157056778E+01  0.43063926851E+02  0.43540114374E+02  0.00000000000E+00 0.  1.
</event>
<event>
 7    1  0.5506640E-015  0.9000777E+02  0.7816164E-02  0.1186339E+00
        -11   -1    0    0    0    0  0.00000000000E+00  0.00000000000E+00  0.45593999997E+02  0.45594000000E+02  0.51100000000E-03 0. -1.
         11   -1    0    0    0    0 -0.00000000000E+00 -0.00000000000E+00 -0.45593999997E+02  0.45594000000E+02  0.51100000000E-03 0.  1.
    9900012    2    1    2    0    0 -0.45576654406E+00  0.10729754234E+01  0.18425640769E+00  0.90007767046E+02  0.90000028771E+02 0.  0.
        -12    1    1    2    0    0  0.45576654406E+00 -0.10729754234E+01 -0.18425640769E+00  0.11802329540E+01  0.00000000000E+00 0.  1.
         11    1    3    3    0    0 -0.43702210597E+01  0.52005391856E+01  0.71136224983E+01  0.98360594366E+01  0.51100000000E-03 0. -1.
        -11    1    3    3    0    0 -0.33306116783E+02  0.13599519207E+02 -0.13499507215E+02  0.38425005311E+02  0.51100000000E-03 0.  1.
         12    1    3    3    0    0  0.37220571299E+02 -0.17727082969E+02  0.65701411242E+01  0.41746702299E+02  0.00000000000E+00 0. -1.
</event>
<event>
 7    1  0.3505640E-015  0.9000781E+02  0.7816164E-02  0.1186339E+00
        -11   -1    0    0    0    0  0.00000000000E+00  0.00000000000E+00  0.45593999997E+02  0.45594000000E+02  0.51100000000E-03 0.  1.
         11   -1    0    0    0    0 -0.00000000000E+00 -0.00000000000E+00 -0.45593999997E+02  0.45594000000E+02  0.51100000000E-03 0. -1.
    9900012    2    1    2    0    0  0.56248950150E+00 -0.92055817054E+00 -0.47855993856E+00  0.90007812981E+02  0.90000075312E+02 0.  0.
        -12    1    1    2    0    0 -0.56248950150E+00  0.92055817054E+00  0.47855993856E+00  0.11801870188E+01  0.00000000000E+00 0.  1.
         11    1    3    3    0    0  0.78642231767E+01  0.11050646271E+02 -0.32627237522E+02  0.35334111249E+02  0.51100000000E-03 0. -1.
        -11    1    3    3    0    0  0.95825230719E+01  0.46458819523E+01 -0.40657637928E+01  0.11399096588E+02  0.51100000000E-03 0.  1.
        -12    1    3    3    0    0 -0.16884256747E+02 -0.16617086394E+02  0.36214441377E+02  0.43274605144E+02  0.00000000000E+00 0.  1.
</event>
<event>
 7    1  0.3505640E-015  0.9000769E+02  0.7816164E-02  0.1186339E+00
        -11   -1    0    0    0    0  0.00000000000E+00  0.00000000000E+00  0.45593999997E+02  0.45594000000E+02  0.51100000000E-03 0.  1.
         11   -1    0    0    0    0 -0.00000000000E+00 -0.00000000000E+00 -0.45593999997E+02  0.45594000000E+02  0.51100000000E-03 0. -1.
    9900012    2    1    2    0    0  0.12804592909E+00 -0.10538361373E+01 -0.51591854897E+00  0.90007687197E+02  0.89999947868E+02 0.  0.
        -12    1    1    2    0    0 -0.12804592909E+00  0.10538361373E+01  0.51591854897E+00  0.11803128032E+01  0.00000000000E+00 0.  1.
         11    1    3    3    0    0 -0.26605275985E+01 -0.59174333431E+01 -0.65428235580E+01  0.92142804843E+01  0.51100000000E-03 0. -1.
        -11    1    3    3    0    0 -0.20131530780E+02  0.20047048725E+02 -0.26050650318E+02  0.38546064343E+02  0.51100000000E-03 0.  1.
         12    1    3    3    0    0  0.22920104308E+02 -0.15183451519E+02  0.32077555327E+02  0.42247342369E+02  0.00000000000E+00 0. -1.
</event>
<event>
 7    1  0.3505640E-015  0.9000768E+02  0.7816164E-02  0.1186339E+00
        -11   -1    0    0    0    0  0.00000000000E+00  0.00000000000E+00  0.45593999997E+02  0.45594000000E+02  0.51100000000E-03 0. -1.
         11   -1    0    0    0    0 -0.00000000000E+00 -0.00000000000E+00 -0.45593999997E+02  0.45594000000E+02  0.51100000000E-03 0.  1.
    9900012    2    1    2    0    0  0.73364412614E+00  0.91240267207E+00  0.14980479885E+00  0.90007680629E+02  0.89999941213E+02 0.  0.
        -12    1    1    2    0    0 -0.73364412614E+00 -0.91240267207E+00 -0.14980479885E+00  0.11803193710E+01  0.00000000000E+00 0.  1.
         11    1    3    3    0    0 -0.31280305360E+02  0.64765565812E+01  0.11560340987E+02  0.33971234487E+02  0.51100000000E-03 0. -1.
        -11    1    3    3    0    0  0.21876857102E+01  0.16249436873E+02 -0.96882578661E+01  0.19044487607E+02  0.51100000000E-03 0.  1.
        -12    1    3    3    0    0  0.29826263776E+02 -0.21813590783E+02 -0.17222783216E+01  0.36991958535E+02  0.00000000000E+00 0.  1.
</event>
<event>
 7    1  0.3505640E-015  0.9000772E+02  0.7816164E-02  0.1186339E+00
        -11   -1    0    0    0    0  0.00000000000E+00  0.00000000000E+00  0.45593999997E+02  0.45594000000E+02  0.51100000000E-03 0.  1.
         11   -1    0    0    0    0 -0.00000000000E+00 -0.00000000000E+00 -0.45593999997E+02  0.45594000000E+02  0.51100000000E-03 0. -1.
    9900012    2    1    2    0    0 -0.40151921281E+00  0.10981833553E+01  0.16073891671E+00  0.90007719796E+02  0.89999980898E+02 0.  0.
        -12    1    1    2    0    0  0.40151921281E+00 -0.10981833553E+01 -0.16073891671E+00  0.11802802038E+01  0.00000000000E+00 0.  1.
         11    1    3    3    0    0  0.33868996256E+02  0.18823502328E+01 -0.98254093660E+01  0.35315588899E+02  0.51100000000E-03 0. -1.
        -11    1    3    3    0    0  0.52378451846E+01  0.10142384084E+02 -0.27988458351E+01  0.11753149167E+02  0.51100000000E-03 0.  1.
        -12    1    3    3    0    0 -0.39508360654E+02 -0.10926550961E+02  0.12784994118E+02  0.42938981730E+02  0.00000000000E+00 0.  1.
</event>
<event>
 7    1  0.3505640E-015  0.9000791E+02  0.7816164E-02  0.1186339E+00
        -11   -1    0    0    0    0  0.00000000000E+00  0.00000000000E+00  0.45593999997E+02  0.45594000000E+02  0.51100000000E-03 0.  1.
         11   -1    0    0    0    0 -0.00000000000E+00 -0.00000000000E+00 -0.45593999997E+02  0.45594000000E+02  0.51100000000E-03 0. -1.
    9900012    2    1    2    0    0  0.80728395315E+00  0.83289531242E+00  0.21725040314E+00  0.90007906902E+02  0.90000170473E+02 0.  0.
        -12    1    1    2    0    0 -0.80728395315E+00 -0.83289531242E+00 -0.21725040314E+00  0.11800930981E+01  0.00000000000E+00 0.  1.
         11    1    3    3    0    0 -0.16107773844E+02 -0.21874619881E+02 -0.27291765195E+02  0.38507139869E+02  0.51100000000E-03 0. -1.
        -11    1    3    3    0    0  0.11608989726E+02  0.64742948828E+00 -0.43276728316E+01  0.12406311289E+02  0.51100000000E-03 0.  1.
        -12    1    3    3    0    0  0.53060680709E+01  0.22060085706E+02  0.31836688430E+02  0.39094455744E+02  0.00000000000E+00 0.  1.
</event>
<event>
 7    1  0.3505640E-015  0.9000769E+02  0.7816164E-02  0.1186339E+00
        -11   -1    0    0    0    0  0.00000000000E+00  0.00000000000E+00  0.45593999997E+02  0.45594000000E+02  0.51100000000E-03 0. -1.
         11   -1    0    0    0    0 -0.00000000000E+00 -0.00000000000E+00 -0.45593999997E+02  0.45594000000E+02  0.51100000000E-03 0.  1.
    9900012    2    1    2    0    0 -0.11365434421E+01 -0.27494184301E+00  0.16064323534E+00  0.90007690608E+02  0.89999951324E+02 0.  0.
        -12    1    1    2    0    0  0.11365434421E+01  0.27494184301E+00 -0.16064323534E+00  0.11803093924E+01  0.00000000000E+00 0.  1.
         11    1    3    3    0    0 -0.11351159055E+02 -0.32519524908E+02  0.49264282880E+01  0.34794223775E+02  0.51100000000E-03 0. -1.
        -11    1    3    3    0    0  0.28503756779E+01 -0.10885726782E+02 -0.10333593539E+01  0.11300067296E+02  0.51100000000E-03 0.  1.
        -12    1    3    3    0    0  0.73642399353E+01  0.43130309847E+02 -0.37324256988E+01  0.43913399537E+02  0.00000000000E+00 0.  1.
</event>
<event>
 7    1  0.3505640E-015  0.9000776E+02  0.7816164E-02  0.1186339E+00
        -11   -1    0    0    0    0  0.00000000000E+00  0.00000000000E+00  0.45593999997E+02  0.45594000000E+02  0.51100000000E-03 0.  1.
         11   -1    0    0    0    0 -0.00000000000E+00 -0.00000000000E+00 -0.45593999997E+02  0.45594000000E+02  0.51100000000E-03 0. -1.
    9900012    2    1    2    0    0  0.71057005159E+00 -0.56268875555E+00 -0.75592940480E+00  0.90007763711E+02  0.90000025392E+02 0.  0.
        -12    1    1    2    0    0 -0.71057005159E+00  0.56268875555E+00  0.75592940480E+00  0.11802362894E+01  0.00000000000E+00 0.  1.
         11    1    3    3    0    0  0.11221730934E+02 -0.10431947003E+02 -0.11322297012E+02  0.19051172492E+02  0.51100000000E-03 0. -1.
        -11    1    3    3    0    0  0.29214220889E+02  0.71945087818E+01  0.75930091358E+01  0.31030395530E+02  0.51100000000E-03 0.  1.
         12    1    3    3    0    0 -0.39725381771E+02  0.26747494653E+01  0.29733584715E+01  0.39926195689E+02  0.00000000000E+00 0. -1.
</event>
<event>
 7    1  0.3505640E-015  0.9000766E+02  0.7816164E-02  0.1186339E+00
        -11   -1    0    0    0    0  0.00000000000E+00  0.00000000000E+00  0.45593999997E+02  0.45594000000E+02  0.51100000000E-03 0.  1.
         11   -1    0    0    0    0 -0.00000000000E+00 -0.00000000000E+00 -0.45593999997E+02  0.45594000000E+02  0.51100000000E-03 0. -1.
    9900012    2    1    2    0    0  0.53389173008E+00  0.25613736163E+00 -0.10210530298E+01  0.90007662753E+02  0.89999923101E+02 0.  0.
        -12    1    1    2    0    0 -0.53389173008E+00 -0.25613736163E+00  0.10210530298E+01  0.11803372472E+01  0.00000000000E+00 0.  1.
         11    1    3    3    0    0  0.24692519591E+01  0.21917370580E+01 -0.10305296832E+02  0.10821278096E+02  0.51100000000E-03 0. -1.
        -11    1    3    3    0    0 -0.12873280487E+02  0.36172006001E+02  0.94476288664E+01  0.39539765554E+02  0.51100000000E-03 0.  1.
         12    1    3    3    0    0  0.10937920257E+02 -0.38107605698E+02 -0.16338506397E+00  0.39646619102E+02  0.00000000000E+00 0. -1.
</event>
<event>
 7    1  0.3505640E-015  0.9000770E+02  0.7816164E-02  0.1186339E+00
        -11   -1    0    0    0    0  0.00000000000E+00  0.00000000000E+00  0.45593999997E+02  0.45594000000E+02  0.51100000000E-03 0.  1.
         11   -1    0    0    0    0 -0.00000000000E+00 -0.00000000000E+00 -0.45593999997E+02  0.45594000000E+02  0.51100000000E-03 0. -1.
    9900012    2    1    2    0    0 -0.96204505092E+00  0.40384135275E+00  0.55180885096E+00  0.90007698544E+02  0.89999959365E+02 0.  0.
        -12    1    1    2    0    0  0.96204505092E+00 -0.40384135275E+00 -0.55180885096E+00  0.11803014556E+01  0.00000000000E+00 0.  1.
         11    1    3    3    0    0 -0.84830050354E+01 -0.38775788932E+01  0.28401174921E+01  0.97500389812E+01  0.51100000000E-03 0. -1.
        -11    1    3    3    0    0 -0.46576617464E+01  0.12906391307E+02  0.36341469990E+02  0.38845478383E+02  0.51100000000E-03 0.  1.
         12    1    3    3    0    0  0.12178621731E+02 -0.86249710606E+01 -0.38629778631E+02  0.41412181181E+02  0.00000000000E+00 0. -1.
</event>
<event>
 7    1  0.3505640E-015  0.9000776E+02  0.7816164E-02  0.1186339E+00
        -11   -1    0    0    0    0  0.00000000000E+00  0.00000000000E+00  0.45593999997E+02  0.45594000000E+02  0.51100000000E-03 0.  1.
         11   -1    0    0    0    0 -0.00000000000E+00 -0.00000000000E+00 -0.45593999997E+02  0.45594000000E+02  0.51100000000E-03 0. -1.
    9900012    2    1    2    0    0 -0.34153574246E+00  0.87987256528E+00 -0.70862102312E+00  0.90007760131E+02  0.90000021764E+02 0.  0.
        -12    1    1    2    0    0  0.34153574246E+00 -0.87987256528E+00  0.70862102312E+00  0.11802398692E+01  0.00000000000E+00 0.  1.
         11    1    3    3    0    0  0.23032274010E+01  0.33405330388E+00  0.64435993627E+01  0.68510160617E+01  0.51100000000E-03 0. -1.
        -11    1    3    3    0    0 -0.24406121011E+02 -0.36461741407E+01  0.30642668487E+02  0.39343696585E+02  0.51100000000E-03 0.  1.
         12    1    3    3    0    0  0.21761357868E+02  0.41919934021E+01 -0.37794888873E+02  0.43813047484E+02  0.00000000000E+00 0. -1.
</event>
<event>
 7    1  0.3505640E-015  0.9000778E+02  0.7816164E-02  0.1186339E+00
        -11   -1    0    0    0    0  0.00000000000E+00  0.00000000000E+00  0.45593999997E+02  0.45594000000E+02  0.51100000000E-03 0.  1.
         11   -1    0    0    0    0 -0.00000000000E+00 -0.00000000000E+00 -0.45593999997E+02  0.45594000000E+02  0.51100000000E-03 0. -1.
    9900012    2    1    2    0    0 -0.28913057226E+00 -0.20827322656E+00 -0.11251389364E+01  0.90007783134E+02  0.90000045071E+02 0.  0.
        -12    1    1    2    0    0  0.28913057226E+00  0.20827322656E+00  0.11251389364E+01  0.11802168661E+01  0.00000000000E+00 0.  1.
         11    1    3    3    0    0 -0.77961173277E+01 -0.15281127749E+02 -0.35905791929E+02  0.39793444246E+02  0.51100000000E-03 0. -1.
        -11    1    3    3    0    0  0.89791791946E+01  0.36417558705E+01 -0.34489900216E+01  0.10285114353E+02  0.51100000000E-03 0.  1.
        -12    1    3    3    0    0 -0.14721924391E+01  0.11431098652E+02  0.38229643014E+02  0.39929224535E+02  0.00000000000E+00 0.  1.
</event>
<event>
 7    1  0.3505640E-015  0.9000770E+02  0.7816164E-02  0.1186339E+00
        -11   -1    0    0    0    0  0.00000000000E+00  0.00000000000E+00  0.45593999997E+02  0.45594000000E+02  0.51100000000E-03 0. -1.
         11   -1    0    0    0    0 -0.00000000000E+00 -0.00000000000E+00 -0.45593999997E+02  0.45594000000E+02  0.51100000000E-03 0.  1.
    9900012    2    1    2    0    0 -0.33503788600E+00  0.11143097937E+01  0.19791276764E+00  0.90007700816E+02  0.89999961666E+02 0.  0.
        -12    1    1    2    0    0  0.33503788600E+00 -0.11143097937E+01 -0.19791276764E+00  0.11802991845E+01  0.00000000000E+00 0.  1.
         11    1    3    3    0    0 -0.19089965028E+01  0.15153224117E+02  0.50804185851E+01  0.16095810699E+02  0.51100000000E-03 0. -1.
        -11    1    3    3    0    0  0.12148893107E+02  0.19942118785E+02 -0.24023579298E+02  0.33502478534E+02  0.51100000000E-03 0.  1.
         12    1    3    3    0    0 -0.10574934490E+02 -0.33981033108E+02  0.19141073480E+02  0.40409411583E+02  0.00000000000E+00 0. -1.
</event>
<event>
 7    1  0.3505640E-015  0.9000777E+02  0.7816164E-02  0.1186339E+00
        -11   -1    0    0    0    0  0.00000000000E+00  0.00000000000E+00  0.45593999997E+02  0.45594000000E+02  0.51100000000E-03 0.  1.
         11   -1    0    0    0    0 -0.00000000000E+00 -0.00000000000E+00 -0.45593999997E+02  0.45594000000E+02  0.51100000000E-03 0. -1.
    9900012    2    1    2    0    0 -0.10663468592E+01 -0.47864163957E+00 -0.16358208023E+00  0.90007765896E+02  0.90000027606E+02 0.  0.
        -12    1    1    2    0    0  0.10663468592E+01  0.47864163957E+00  0.16358208023E+00  0.11802341040E+01  0.00000000000E+00 0.  1.
         11    1    3    3    0    0  0.90902484504E+01 -0.37968836833E+01 -0.13192171295E+01  0.99392794855E+01  0.51100000000E-03 0. -1.
        -11    1    3    3    0    0  0.25210159960E+02 -0.38187672832E+01  0.25879711468E+02  0.36330353903E+02  0.51100000000E-03 0.  1.
         12    1    3    3    0    0 -0.35366755270E+02  0.71370093270E+01 -0.24724076419E+02  0.43738132507E+02  0.00000000000E+00 0. -1.
</event>
<event>
 7    1  0.3505640E-015  0.9000766E+02  0.7816164E-02  0.1186339E+00
        -11   -1    0    0    0    0  0.00000000000E+00  0.00000000000E+00  0.45593999997E+02  0.45594000000E+02  0.51100000000E-03 0.  1.
         11   -1    0    0    0    0 -0.00000000000E+00 -0.00000000000E+00 -0.45593999997E+02  0.45594000000E+02  0.51100000000E-03 0. -1.
    9900012    2    1    2    0    0  0.31490077403E+00 -0.95325275168E+00 -0.62076074941E+00  0.90007662246E+02  0.89999922587E+02 0.  0.
        -12    1    1    2    0    0 -0.31490077403E+00  0.95325275168E+00  0.62076074941E+00  0.11803377542E+01  0.00000000000E+00 0.  1.
         11    1    3    3    0    0 -0.25450565032E+00  0.93363680074E+01  0.37541437437E+01  0.10066088426E+02  0.51100000000E-03 0. -1.
        -11    1    3    3    0    0  0.23058203032E+02 -0.35295800880E+02  0.10059598066E+02  0.43343624680E+02  0.51100000000E-03 0.  1.
         12    1    3    3    0    0 -0.22488796608E+02  0.25006180121E+02 -0.14434502559E+02  0.36597949140E+02  0.00000000000E+00 0. -1.
</event>
<event>
 7    1  0.3505640E-015  0.9000772E+02  0.7816164E-02  0.1186339E+00
        -11   -1    0    0    0    0  0.00000000000E+00  0.00000000000E+00  0.45593999997E+02  0.45594000000E+02  0.51100000000E-03 0.  1.
         11   -1    0    0    0    0 -0.00000000000E+00 -0.00000000000E+00 -0.45593999997E+02  0.45594000000E+02  0.51100000000E-03 0. -1.
    9900012    2    1    2    0    0 -0.41018776146E+00 -0.10648514296E+01  0.30151135975E+00  0.90007715430E+02  0.89999976473E+02 0.  0.
        -12    1    1    2    0    0  0.41018776146E+00  0.10648514296E+01 -0.30151135975E+00  0.11802845703E+01  0.00000000000E+00 0.  1.
         11    1    3    3    0    0 -0.14943524963E+01  0.87644617095E+01  0.25655824456E+01  0.92537069322E+01  0.51100000000E-03 0. -1.
        -11    1    3    3    0    0 -0.29202726302E+02 -0.18375546307E+02  0.22083693397E+02  0.40965222322E+02  0.51100000000E-03 0.  1.
         12    1    3    3    0    0  0.30286891037E+02  0.85462331675E+01 -0.24347764483E+02  0.39788786176E+02  0.00000000000E+00 0. -1.
</event>
<event>
 7    1  0.3505640E-015  0.9000777E+02  0.7816164E-02  0.1186339E+00
        -11   -1    0    0    0    0  0.00000000000E+00  0.00000000000E+00  0.45593999997E+02  0.45594000000E+02  0.51100000000E-03 0.  1.
         11   -1    0    0    0    0 -0.00000000000E+00 -0.00000000000E+00 -0.45593999997E+02  0.45594000000E+02  0.51100000000E-03 0. -1.
    9900012    2    1    2    0    0  0.37805101005E+00  0.91574925846E+00 -0.64142480881E+00  0.90007769067E+02  0.90000030818E+02 0.  0.
        -12    1    1    2    0    0 -0.37805101005E+00 -0.91574925846E+00  0.64142480881E+00  0.11802309333E+01  0.00000000000E+00 0.  1.
         11    1    3    3    0    0 -0.33088332012E+02  0.71699065124E+01 -0.18971187357E+02  0.38809164185E+02  0.51100000000E-03 0. -1.
        -11    1    3    3    0    0  0.32368414229E+01  0.56622849999E+01 -0.73179244746E+01  0.98025829604E+01  0.51100000000E-03 0.  1.
        -12    1    3    3    0    0  0.30229541599E+02 -0.11916442254E+02  0.25647687023E+02  0.41396021921E+02  0.00000000000E+00 0.  1.
</event>
<event>
 7    1  0.3505640E-015  0.9000771E+02  0.7816164E-02  0.1186339E+00
        -11   -1    0    0    0    0  0.00000000000E+00  0.00000000000E+00  0.45593999997E+02  0.45594000000E+02  0.51100000000E-03 0.  1.
         11   -1    0    0    0    0 -0.00000000000E+00 -0.00000000000E+00 -0.45593999997E+02  0.45594000000E+02  0.51100000000E-03 0. -1.
    9900012    2    1    2    0    0  0.15569519191E+00 -0.10456460949E+01 -0.52485462009E+00  0.90007708036E+02  0.89999968982E+02 0.  0.
        -12    1    1    2    0    0 -0.15569519191E+00  0.10456460949E+01  0.52485462009E+00  0.11802919642E+01  0.00000000000E+00 0.  1.
         11    1    3    3    0    0  0.22429002447E+02 -0.26147797393E+02  0.11707523086E+02  0.36384523583E+02  0.51100000000E-03 0. -1.
        -11    1    3    3    0    0 -0.31721421389E+01 -0.83892169485E+01  0.61849142690E+01  0.10894705665E+02  0.51100000000E-03 0.  1.
        -12    1    3    3    0    0 -0.19101165116E+02  0.33491368246E+02 -0.18417291975E+02  0.42728478788E+02  0.00000000000E+00 0.  1.
</event>
<event>
 7    1  0.3505640E-015  0.9000770E+02  0.7816164E-02  0.1186339E+00
        -11   -1    0    0    0    0  0.00000000000E+00  0.00000000000E+00  0.45593999997E+02  0.45594000000E+02  0.51100000000E-03 0.  1.
         11   -1    0    0    0    0 -0.00000000000E+00 -0.00000000000E+00 -0.45593999997E+02  0.45594000000E+02  0.51100000000E-03 0. -1.
    9900012    2    1    2    0    0  0.53641757995E+00 -0.73509426695E+00 -0.75165807868E+00  0.90007704584E+02  0.89999965485E+02 0.  0.
        -12    1    1    2    0    0 -0.53641757995E+00  0.73509426695E+00  0.75165807868E+00  0.11802954158E+01  0.00000000000E+00 0.  1.
         11    1    3    3    0    0  0.21905924950E+02  0.28022061344E+02  0.77458164969E+01  0.36401966202E+02  0.51100000000E-03 0. -1.
        -11    1    3    3    0    0  0.68192934305E+01  0.49840254796E+01  0.13392961320E+01  0.85520165612E+01  0.51100000000E-03 0.  1.
        -12    1    3    3    0    0 -0.28188800800E+02 -0.33741181091E+02 -0.98367707076E+01  0.45053721821E+02  0.00000000000E+00 0.  1.
</event>
<event>
 7    1  0.3505640E-015  0.9000788E+02  0.7816164E-02  0.1186339E+00
        -11   -1    0    0    0    0  0.00000000000E+00  0.00000000000E+00  0.45593999997E+02  0.45594000000E+02  0.51100000000E-03 0. -1.
         11   -1    0    0    0    0 -0.00000000000E+00 -0.00000000000E+00 -0.45593999997E+02  0.45594000000E+02  0.51100000000E-03 0.  1.
    9900012    2    1    2    0    0  0.10719132096E+01 -0.12306554677E+00  0.47806699582E+00  0.90007876655E+02  0.90000139826E+02 0.  0.
        -12    1    1    2    0    0 -0.10719132096E+01  0.12306554677E+00 -0.47806699582E+00  0.11801233454E+01  0.00000000000E+00 0.  1.
         11    1    3    3    0    0  0.14993512482E+01  0.16438277787E+01 -0.83848856276E+01  0.86750522293E+01  0.51100000000E-03 0. -1.
        -11    1    3    3    0    0 -0.38854225151E+02 -0.11868961532E+02  0.12847859362E-01  0.40626631971E+02  0.51100000000E-03 0.  1.
         12    1    3    3    0    0  0.38426787112E+02  0.10102068207E+02  0.88501047641E+01  0.40706192455E+02  0.00000000000E+00 0. -1.
</event>
<event>
 7    1  0.3505640E-015  0.9000772E+02  0.7816164E-02  0.1186339E+00
        -11   -1    0    0    0    0  0.00000000000E+00  0.00000000000E+00  0.45593999997E+02  0.45594000000E+02  0.51100000000E-03 0. -1.
         11   -1    0    0    0    0 -0.00000000000E+00 -0.00000000000E+00 -0.45593999997E+02  0.45594000000E+02  0.51100000000E-03 0.  1.
    9900012    2    1    2    0    0 -0.89401498836E+00  0.74037491209E+00 -0.21362433203E+00  0.90007723268E+02  0.89999984415E+02 0.  0.
        -12    1    1    2    0    0  0.89401498836E+00 -0.74037491209E+00  0.21362433203E+00  0.11802767324E+01  0.00000000000E+00 0.  1.
         11    1    3    3    0    0  0.30974534948E+02  0.18332502852E+02  0.10591331102E+02  0.37519045441E+02  0.51100000000E-03 0. -1.
        -11    1    3    3    0    0  0.36785501157E+01  0.65152935982E+01 -0.53388800557E+01  0.91915407922E+01  0.51100000000E-03 0.  1.
        -12    1    3    3    0    0 -0.35547100052E+02 -0.24107421538E+02 -0.54660753787E+01  0.43297137034E+02  0.00000000000E+00 0.  1.
</event>
<event>
 7    1  0.3505640E-015  0.9000796E+02  0.7816164E-02  0.1186339E+00
        -11   -1    0    0    0    0  0.00000000000E+00  0.00000000000E+00  0.45593999997E+02  0.45594000000E+02  0.51100000000E-03 0.  1.
         11   -1    0    0    0    0 -0.00000000000E+00 -0.00000000000E+00 -0.45593999997E+02  0.45594000000E+02  0.51100000000E-03 0. -1.
    9900012    2    1    2    0    0 -0.76939095982E+00 -0.77400867509E+00  0.44881715466E+00  0.90007962409E+02  0.90000226712E+02 0.  0.
        -12    1    1    2    0    0  0.76939095982E+00  0.77400867509E+00 -0.44881715466E+00  0.11800375911E+01  0.00000000000E+00 0.  1.
         11    1    3    3    0    0  0.23483967011E+02  0.11952068126E+02 -0.22378377104E+02  0.34570802726E+02  0.51100000000E-03 0. -1.
        -11    1    3    3    0    0  0.53454107069E+01  0.29109750663E+01 -0.79167840101E+01  0.99861234113E+01  0.51100000000E-03 0.  1.
        -12    1    3    3    0    0 -0.29598768678E+02 -0.15637051867E+02  0.30743978269E+02  0.45451036271E+02  0.00000000000E+00 0.  1.
</event>
<event>
 7    1  0.3505640E-015  0.9000778E+02  0.7816164E-02  0.1186339E+00
        -11   -1    0    0    0    0  0.00000000000E+00  0.00000000000E+00  0.45593999997E+02  0.45594000000E+02  0.51100000000E-03 0.  1.
         11   -1    0    0    0    0 -0.00000000000E+00 -0.00000000000E+00 -0.45593999997E+02  0.45594000000E+02  0.51100000000E-03 0. -1.
    9900012    2    1    2    0    0 -0.11059840078E+01 -0.14478187655E+00  0.38567701846E+00  0.90007784266E+02  0.90000046218E+02 0.  0.
        -12    1    1    2    0    0  0.11059840078E+01  0.14478187655E+00 -0.38567701846E+00  0.11802157345E+01  0.00000000000E+00 0.  1.
         11    1    3    3    0    0  0.63006195086E+01 -0.31574167563E+02  0.18548697847E+02  0.37157503355E+02  0.51100000000E-03 0. -1.
        -11    1    3    3    0    0  0.25239458177E+01 -0.64012956872E+01  0.39354234291E+01  0.79268182011E+01  0.51100000000E-03 0.  1.
        -12    1    3    3    0    0 -0.99305493341E+01  0.37830681373E+02 -0.22098444257E+02  0.44923462710E+02  0.00000000000E+00 0.  1.
</event>
<event>
 7    1  0.3505640E-015  0.9000767E+02  0.7816164E-02  0.1186339E+00
        -11   -1    0    0    0    0  0.00000000000E+00  0.00000000000E+00  0.45593999997E+02  0.45594000000E+02  0.51100000000E-03 0.  1.
         11   -1    0    0    0    0 -0.00000000000E+00 -0.00000000000E+00 -0.45593999997E+02  0.45594000000E+02  0.51100000000E-03 0. -1.
    9900012    2    1    2    0    0  0.67046942735E+00  0.66386556734E+00 -0.70918440111E+00  0.90007665615E+02  0.89999926002E+02 0.  0.
        -12    1    1    2    0    0 -0.67046942735E+00 -0.66386556734E+00  0.70918440111E+00  0.11803343845E+01  0.00000000000E+00 0.  1.
         11    1    3    3    0    0  0.53099927723E+01  0.28425620300E+02 -0.13673185209E+02  0.31986995900E+02  0.51100000000E-03 0. -1.
        -11    1    3    3    0    0  0.44957479872E-02  0.10511752472E+02 -0.88340610203E+01  0.13730899265E+02  0.51100000000E-03 0.  1.
        -12    1    3    3    0    0 -0.46440190929E+01 -0.38273507205E+02  0.21798061828E+02  0.44289770451E+02  0.00000000000E+00 0.  1.
</event>
<event>
 7    1  0.3505640E-015  0.9000769E+02  0.7816164E-02  0.1186339E+00
        -11   -1    0    0    0    0  0.00000000000E+00  0.00000000000E+00  0.45593999997E+02  0.45594000000E+02  0.51100000000E-03 0.  1.
         11   -1    0    0    0    0 -0.00000000000E+00 -0.00000000000E+00 -0.45593999997E+02  0.45594000000E+02  0.51100000000E-03 0. -1.
    9900012    2    1    2    0    0 -0.38036823378E+00 -0.36997055668E+00 -0.10543130072E+01  0.90007688972E+02  0.89999949666E+02 0.  0.
        -12    1    1    2    0    0  0.38036823378E+00  0.36997055668E+00  0.10543130072E+01  0.11803110282E+01  0.00000000000E+00 0.  1.
         11    1    3    3    0    0  0.71454848275E+01 -0.17809955089E+02 -0.27865541502E+02  0.33834019229E+02  0.51100000000E-03 0. -1.
        -11    1    3    3    0    0  0.12336857029E+02 -0.36929214680E+01 -0.43611600055E+01  0.13596154867E+02  0.51100000000E-03 0.  1.
        -12    1    3    3    0    0 -0.19862710090E+02  0.21132906000E+02  0.31172388500E+02  0.42577514876E+02  0.00000000000E+00 0.  1.
</event>
<event>
 7    1  0.3505640E-015  0.9000774E+02  0.7816164E-02  0.1186339E+00
        -11   -1    0    0    0    0  0.00000000000E+00  0.00000000000E+00  0.45593999997E+02  0.45594000000E+02  0.51100000000E-03 0.  1.
         11   -1    0    0    0    0 -0.00000000000E+00 -0.00000000000E+00 -0.45593999997E+02  0.45594000000E+02  0.51100000000E-03 0. -1.
    9900012    2    1    2    0    0  0.62409240898E+00  0.40773543077E+00 -0.91502156850E+00  0.90007744101E+02  0.90000005523E+02 0.  0.
        -12    1    1    2    0    0 -0.62409240898E+00 -0.40773543077E+00  0.91502156850E+00  0.11802558991E+01  0.00000000000E+00 0.  1.
         11    1    3    3    0    0 -0.60530863231E+01 -0.13835126670E+01 -0.34615477121E+02  0.35167957261E+02  0.51100000000E-03 0. -1.
        -11    1    3    3    0    0  0.92415954265E+00 -0.53482589029E+00 -0.10324537344E+02  0.10379604097E+02  0.51100000000E-03 0.  1.
        -12    1    3    3    0    0  0.57530191894E+01  0.23260739881E+01  0.44024992896E+02  0.44460182743E+02  0.00000000000E+00 0.  1.
</event>
<event>
 7    1  0.3505640E-015  0.9000779E+02  0.7816164E-02  0.1186339E+00
        -11   -1    0    0    0    0  0.00000000000E+00  0.00000000000E+00  0.45593999997E+02  0.45594000000E+02  0.51100000000E-03 0.  1.
         11   -1    0    0    0    0 -0.00000000000E+00 -0.00000000000E+00 -0.45593999997E+02  0.45594000000E+02  0.51100000000E-03 0. -1.
    9900012    2    1    2    0    0  0.12814164721E+00  0.11676403034E+01  0.11438524339E+00  0.90007793178E+02  0.90000055247E+02 0.  0.
        -12    1    1    2    0    0 -0.12814164721E+00 -0.11676403034E+01 -0.11438524339E+00  0.11802068225E+01  0.00000000000E+00 0.  1.
         11    1    3    3    0    0  0.32805042185E+01  0.33849500170E+01  0.28399525096E+01  0.55031740898E+01  0.51100000000E-03 0. -1.
        -11    1    3    3    0    0  0.37498632860E+02  0.45193287640E+01  0.13655157933E+02  0.40162608696E+02  0.51100000000E-03 0.  1.
         12    1    3    3    0    0 -0.40650995431E+02 -0.67366384776E+01 -0.16380725199E+02  0.44342010392E+02  0.00000000000E+00 0. -1.
</event>
<event>
 7    1  0.3505640E-015  0.9000776E+02  0.7816164E-02  0.1186339E+00
        -11   -1    0    0    0    0  0.00000000000E+00  0.00000000000E+00  0.45593999997E+02  0.45594000000E+02  0.51100000000E-03 0.  1.
         11   -1    0    0    0    0 -0.00000000000E+00 -0.00000000000E+00 -0.45593999997E+02  0.45594000000E+02  0.51100000000E-03 0. -1.
    9900012    2    1    2    0    0  0.21488041817E-02  0.25352306379E+00 -0.11526824391E+01  0.90007764699E+02  0.90000026393E+02 0.  0.
        -12    1    1    2    0    0 -0.21488041817E-02 -0.25352306379E+00  0.11526824391E+01  0.11802353014E+01  0.00000000000E+00 0.  1.
         11    1    3    3    0    0 -0.17642821833E+02 -0.28901286274E+01  0.11066662337E+01  0.17912194621E+02  0.51100000000E-03 0. -1.
        -11    1    3    3    0    0  0.37244864703E+02 -0.16579970001E+02 -0.12217923467E+02  0.42559993023E+02  0.51100000000E-03 0.  1.
         12    1    3    3    0    0 -0.19599894066E+02  0.19723621692E+02  0.99585747936E+01  0.29535577055E+02  0.00000000000E+00 0. -1.
</event>
<event>
 7    1  0.3505640E-015  0.9000772E+02  0.7816164E-02  0.1186339E+00
        -11   -1    0    0    0    0  0.00000000000E+00  0.00000000000E+00  0.45593999997E+02  0.45594000000E+02  0.51100000000E-03 0.  1.
         11   -1    0    0    0    0 -0.00000000000E+00 -0.00000000000E+00 -0.45593999997E+02  0.45594000000E+02  0.51100000000E-03 0. -1.
    9900012    2    1    2    0    0  0.10624445816E+01 -0.15563678733E+00 -0.48995547278E+00  0.90007717125E+02  0.89999978192E+02 0.  0.
        -12    1    1    2    0    0 -0.10624445816E+01  0.15563678733E+00  0.48995547278E+00  0.11802828745E+01  0.00000000000E+00 0.  1.
         11    1    3    3    0    0 -0.32170430917E+02  0.10062718398E+02  0.17047345239E+02  0.37773097661E+02  0.51100000000E-03 0. -1.
        -11    1    3    3    0    0 -0.39082217333E+01  0.48310814843E+01  0.33330708868E+01  0.70514471722E+01  0.51100000000E-03 0.  1.
        -12    1    3    3    0    0  0.37141097232E+02 -0.15049436669E+02 -0.20870371599E+02  0.45183172292E+02  0.00000000000E+00 0.  1.
</event>
<event>
 7    1  0.3505640E-015  0.9000717E+02  0.7816164E-02  0.1186340E+00
        -11   -1    0    0    0    0  0.00000000000E+00  0.00000000000E+00  0.45593999997E+02  0.45594000000E+02  0.51100000000E-03 0.  1.
         11   -1    0    0    0    0 -0.00000000000E+00 -0.00000000000E+00 -0.45593999997E+02  0.45594000000E+02  0.51100000000E-03 0. -1.
    9900012    2    1    2    0    0  0.49507647508E+00 -0.38211798130E+00 -0.10016152719E+01  0.90007174856E+02  0.89999428762E+02 0.  0.
        -12    1    1    2    0    0 -0.49507647508E+00  0.38211798130E+00  0.10016152719E+01  0.11808251440E+01  0.00000000000E+00 0.  1.
         11    1    3    3    0    0  0.15953457907E+02 -0.35834386309E+02 -0.11191673470E+02  0.40790557935E+02  0.51100000000E-03 0. -1.
        -11    1    3    3    0    0 -0.13097322491E+02  0.10384644809E+02 -0.76261259320E+01  0.18372220912E+02  0.51100000000E-03 0.  1.
        -12    1    3    3    0    0 -0.23610589406E+01  0.25067623519E+02  0.17816184130E+02  0.30844396009E+02  0.00000000000E+00 0.  1.
</event>
<event>
 7    1  0.3505640E-015  0.9000788E+02  0.7816164E-02  0.1186339E+00
        -11   -1    0    0    0    0  0.00000000000E+00  0.00000000000E+00  0.45593999997E+02  0.45594000000E+02  0.51100000000E-03 0.  1.
         11   -1    0    0    0    0 -0.00000000000E+00 -0.00000000000E+00 -0.45593999997E+02  0.45594000000E+02  0.51100000000E-03 0. -1.
    9900012    2    1    2    0    0  0.10350184912E+01 -0.72703634922E-01 -0.56226774626E+00  0.90007875382E+02  0.90000138537E+02 0.  0.
        -12    1    1    2    0    0 -0.10350184912E+01  0.72703634922E-01  0.56226774626E+00  0.11801246181E+01  0.00000000000E+00 0.  1.
         11    1    3    3    0    0 -0.45367397322E+01  0.76102319158E+01 -0.45581425696E+01  0.99636489880E+01  0.51100000000E-03 0. -1.
        -11    1    3    3    0    0 -0.25521845177E+02 -0.12088606390E+02  0.28567450043E+02  0.40169617722E+02  0.51100000000E-03 0.  1.
         12    1    3    3    0    0  0.31093603400E+02  0.44056708393E+01 -0.24571575220E+02  0.39874608672E+02  0.00000000000E+00 0. -1.
</event>
<event>
 7    1  0.3505640E-015  0.9000890E+02  0.7816164E-02  0.1186337E+00
        -11   -1    0    0    0    0  0.00000000000E+00  0.00000000000E+00  0.45593999997E+02  0.45594000000E+02  0.51100000000E-03 0. -1.
         11   -1    0    0    0    0 -0.00000000000E+00 -0.00000000000E+00 -0.45593999997E+02  0.45594000000E+02  0.51100000000E-03 0.  1.
    9900012    2    1    2    0    0 -0.98355983591E+00 -0.21831446816E+00  0.61255586520E+00  0.90008900409E+02  0.90001177087E+02 0.  0.
        -12    1    1    2    0    0  0.98355983591E+00  0.21831446816E+00 -0.61255586520E+00  0.11790995911E+01  0.00000000000E+00 0.  1.
         11    1    3    3    0    0 -0.10084028010E+02 -0.42859223195E+00 -0.22740895739E+01  0.10346148842E+02  0.51100000000E-03 0. -1.
        -11    1    3    3    0    0  0.22918008755E+01  0.39525075205E+02 -0.73888471082E+00  0.39598356936E+02  0.51100000000E-03 0.  1.
         12    1    3    3    0    0  0.68086672990E+01 -0.39314797441E+02  0.36255301499E+01  0.40064394630E+02  0.00000000000E+00 0. -1.
</event>
<event>
 7    1  0.3505640E-015  0.9000768E+02  0.7816164E-02  0.1186339E+00
        -11   -1    0    0    0    0  0.00000000000E+00  0.00000000000E+00  0.45593999997E+02  0.45594000000E+02  0.51100000000E-03 0.  1.
         11   -1    0    0    0    0 -0.00000000000E+00 -0.00000000000E+00 -0.45593999997E+02  0.45594000000E+02  0.51100000000E-03 0. -1.
    9900012    2    1    2    0    0  0.92260570970E+00  0.56029593385E+00 -0.47751381177E+00  0.90007681285E+02  0.89999941878E+02 0.  0.
        -12    1    1    2    0    0 -0.92260570970E+00 -0.56029593385E+00  0.47751381177E+00  0.11803187152E+01  0.00000000000E+00 0.  1.
         11    1    3    3    0    0  0.24357134386E+01  0.34251295361E+02 -0.20024088418E+02  0.39749818253E+02  0.51100000000E-03 0. -1.
        -11    1    3    3    0    0 -0.74617775980E+01  0.37428934003E+01  0.44356706888E+01  0.94531767490E+01  0.51100000000E-03 0.  1.
        -12    1    3    3    0    0  0.59486698690E+01 -0.37433892828E+02  0.15110903917E+02  0.40804686283E+02  0.00000000000E+00 0.  1.
</event>
<event>
 7    1  0.3505640E-015  0.9000774E+02  0.7816164E-02  0.1186339E+00
        -11   -1    0    0    0    0  0.00000000000E+00  0.00000000000E+00  0.45593999997E+02  0.45594000000E+02  0.51100000000E-03 0. -1.
         11   -1    0    0    0    0 -0.00000000000E+00 -0.00000000000E+00 -0.45593999997E+02  0.45594000000E+02  0.51100000000E-03 0.  1.
    9900012    2    1    2    0    0 -0.12978168263E+00 -0.11588792033E+00  0.11673601754E+01  0.90007744488E+02  0.90000005915E+02 0.  0.
        -12    1    1    2    0    0  0.12978168263E+00  0.11588792033E+00 -0.11673601754E+01  0.11802555123E+01  0.00000000000E+00 0.  1.
         11    1    3    3    0    0 -0.28014896462E+02  0.23227258603E+02  0.16464187056E+02  0.39942576553E+02  0.51100000000E-03 0. -1.
        -11    1    3    3    0    0  0.27173364729E+01  0.71906855581E+01 -0.50271209908E+01  0.91848691890E+01  0.51100000000E-03 0.  1.
        -12    1    3    3    0    0  0.25167778307E+02 -0.30533832082E+02 -0.10269705890E+02  0.40880298746E+02  0.00000000000E+00 0.  1.
</event>
<event>
 7    1  0.3505640E-015  0.9000769E+02  0.7816164E-02  0.1186339E+00
        -11   -1    0    0    0    0  0.00000000000E+00  0.00000000000E+00  0.45593999997E+02  0.45594000000E+02  0.51100000000E-03 0. -1.
         11   -1    0    0    0    0 -0.00000000000E+00 -0.00000000000E+00 -0.45593999997E+02  0.45594000000E+02  0.51100000000E-03 0.  1.
    9900012    2    1    2    0    0  0.42146055499E+00 -0.27008736600E-01  0.11021650949E+01  0.90007692257E+02  0.89999952995E+02 0.  0.
        -12    1    1    2    0    0 -0.42146055499E+00  0.27008736600E-01 -0.11021650949E+01  0.11803077428E+01  0.00000000000E+00 0.  1.
         11    1    3    3    0    0 -0.26779682505E+02 -0.41391539512E+01  0.25230144621E+02  0.37024913077E+02  0.51100000000E-03 0. -1.
        -11    1    3    3    0    0  0.34082965397E+01  0.35890405527E+01  0.10127192929E+02  0.11271988923E+02  0.51100000000E-03 0.  1.
        -12    1    3    3    0    0  0.23792846520E+02  0.52310466195E+00 -0.34255172455E+02  0.41710790258E+02  0.00000000000E+00 0.  1.
</event>
<event>
 7    1  0.3505640E-015  0.9000777E+02  0.7816164E-02  0.1186339E+00
        -11   -1    0    0    0    0  0.00000000000E+00  0.00000000000E+00  0.45593999997E+02  0.45594000000E+02  0.51100000000E-03 0. -1.
         11   -1    0    0    0    0 -0.00000000000E+00 -0.00000000000E+00 -0.45593999997E+02  0.45594000000E+02  0.51100000000E-03 0.  1.
    9900012    2    1    2    0    0 -0.11300666602E+01  0.26174840129E+00  0.21768600975E+00  0.90007766938E+02  0.90000028661E+02 0.  0.
        -12    1    1    2    0    0  0.11300666602E+01 -0.26174840129E+00 -0.21768600975E+00  0.11802330621E+01  0.00000000000E+00 0.  1.
         11    1    3    3    0    0  0.73755586939E+01  0.25878379157E+01  0.41256724145E+01  0.88383790515E+01  0.51100000000E-03 0. -1.
        -11    1    3    3    0    0  0.18377134894E+02  0.44785859625E+01 -0.34829828463E+02  0.39634502270E+02  0.51100000000E-03 0.  1.
         12    1    3    3    0    0 -0.26882760248E+02 -0.68046754770E+01  0.30921842058E+02  0.41534885617E+02  0.00000000000E+00 0. -1.
</event>
<event>
 7    1  0.3505640E-015  0.9000777E+02  0.7816164E-02  0.1186339E+00
        -11   -1    0    0    0    0  0.00000000000E+00  0.00000000000E+00  0.45593999997E+02  0.45594000000E+02  0.51100000000E-03 0. -1.
         11   -1    0    0    0    0 -0.00000000000E+00 -0.00000000000E+00 -0.45593999997E+02  0.45594000000E+02  0.51100000000E-03 0.  1.
    9900012    2    1    2    0    0  0.69452686673E+00  0.90576463233E+00 -0.30027350401E+00  0.90007770652E+02  0.90000032424E+02 0.  0.
        -12    1    1    2    0    0 -0.69452686673E+00 -0.90576463233E+00  0.30027350401E+00  0.11802293485E+01  0.00000000000E+00 0.  1.
         11    1    3    3    0    0 -0.28796855202E+01  0.13399251883E+02  0.69577414286E+01  0.15370188865E+02  0.51100000000E-03 0. -1.
        -11    1    3    3    0    0 -0.54430155245E+01 -0.42553529510E+02 -0.40976230414E+01  0.43095473157E+02  0.51100000000E-03 0.  1.
         12    1    3    3    0    0  0.90172279115E+01  0.30060042260E+02 -0.31603918912E+01  0.31542108629E+02  0.00000000000E+00 0. -1.
</event>
<event>
 7    1  0.3505640E-015  0.9000778E+02  0.7816164E-02  0.1186339E+00
        -11   -1    0    0    0    0  0.00000000000E+00  0.00000000000E+00  0.45593999997E+02  0.45594000000E+02  0.51100000000E-03 0.  1.
         11   -1    0    0    0    0 -0.00000000000E+00 -0.00000000000E+00 -0.45593999997E+02  0.45594000000E+02  0.51100000000E-03 0. -1.
    9900012    2    1    2    0    0  0.95995422541E-01  0.58963424214E+00  0.10178532158E+01  0.90007784414E+02  0.90000046368E+02 0.  0.
        -12    1    1    2    0    0 -0.95995422541E-01 -0.58963424214E+00 -0.10178532158E+01  0.11802155860E+01  0.00000000000E+00 0.  1.
         11    1    3    3    0    0 -0.77901923041E+01 -0.28612469159E+02 -0.10975193911E+02  0.31619857197E+02  0.51100000000E-03 0. -1.
        -11    1    3    3    0    0 -0.69298317099E+01 -0.91795851441E+01 -0.65767491980E+01  0.13249187946E+02  0.51100000000E-03 0.  1.
        -12    1    3    3    0    0  0.14816019436E+02  0.38381688545E+02  0.18569796325E+02  0.45138739272E+02  0.00000000000E+00 0.  1.
</event>
<event>
 7    1  0.3505640E-015  0.9000810E+02  0.7816164E-02  0.1186338E+00
        -11   -1    0    0    0    0  0.00000000000E+00  0.00000000000E+00  0.45593999997E+02  0.45594000000E+02  0.51100000000E-03 0.  1.
         11   -1    0    0    0    0 -0.00000000000E+00 -0.00000000000E+00 -0.45593999997E+02  0.45594000000E+02  0.51100000000E-03 0. -1.
    9900012    2    1    2    0    0 -0.93324092221E+00 -0.62015154935E-01 -0.71929116858E+00  0.90008099884E+02  0.90000366002E+02 0.  0.
        -12    1    1    2    0    0  0.93324092221E+00  0.62015154935E-01  0.71929116858E+00  0.11799001159E+01  0.00000000000E+00 0.  1.
         11    1    3    3    0    0 -0.11719135144E+01  0.46525358016E+01 -0.74312596451E+01  0.88455124693E+01  0.51100000000E-03 0. -1.
        -11    1    3    3    0    0 -0.35366341139E+02  0.16919719314E+02  0.40819427587E+01  0.39417220148E+02  0.51100000000E-03 0.  1.
         12    1    3    3    0    0  0.35605013732E+02 -0.21634270270E+02  0.26300257178E+01  0.41745367267E+02  0.00000000000E+00 0. -1.
</event>
<event>
 7    1  0.3505640E-015  0.9000761E+02  0.7816164E-02  0.1186339E+00
        -11   -1    0    0    0    0  0.00000000000E+00  0.00000000000E+00  0.45593999997E+02  0.45594000000E+02  0.51100000000E-03 0.  1.
         11   -1    0    0    0    0 -0.00000000000E+00 -0.00000000000E+00 -0.45593999997E+02  0.45594000000E+02  0.51100000000E-03 0. -1.
    9900012    2    1    2    0    0 -0.38336306932E+00 -0.10720691615E+01 -0.31149470513E+00  0.90007606641E+02  0.89999866249E+02 0.  0.
        -12    1    1    2    0    0  0.38336306932E+00  0.10720691615E+01  0.31149470513E+00  0.11803933587E+01  0.00000000000E+00 0.  1.
         11    1    3    3    0    0  0.65295827396E+00  0.31188155691E+02 -0.27349844290E+02  0.41486641138E+02  0.51100000000E-03 0. -1.
        -11    1    3    3    0    0 -0.47497099054E+01  0.12632342486E+01  0.90425834885E+01  0.10291929914E+02  0.51100000000E-03 0.  1.
        -12    1    3    3    0    0  0.37133885621E+01 -0.33523459101E+02  0.17995766097E+02  0.38229035590E+02  0.00000000000E+00 0.  1.
</event>
<event>
 7    1  0.3505640E-015  0.9000775E+02  0.7816164E-02  0.1186339E+00
        -11   -1    0    0    0    0  0.00000000000E+00  0.00000000000E+00  0.45593999997E+02  0.45594000000E+02  0.51100000000E-03 0. -1.
         11   -1    0    0    0    0 -0.00000000000E+00 -0.00000000000E+00 -0.45593999997E+02  0.45594000000E+02  0.51100000000E-03 0.  1.
    9900012    2    1    2    0    0 -0.23071259554E+00 -0.57594422579E-01  0.11560430131E+01  0.90007753895E+02  0.90000015447E+02 0.  0.
        -12    1    1    2    0    0  0.23071259554E+00  0.57594422579E-01 -0.11560430131E+01  0.11802461045E+01  0.00000000000E+00 0.  1.
         11    1    3    3    0    0 -0.60931198958E+01  0.10423207930E+02  0.36988420134E+02  0.38909029773E+02  0.51100000000E-03 0. -1.
        -11    1    3    3    0    0  0.49019006657E+01 -0.37627323337E+01  0.60630493036E+01  0.86572138631E+01  0.51100000000E-03 0.  1.
        -12    1    3    3    0    0  0.96050663454E+00 -0.67180700191E+01 -0.41895426425E+02  0.42441510259E+02  0.00000000000E+00 0.  1.
</event>
<event>
 7    1  0.3505640E-015  0.9000782E+02  0.7816164E-02  0.1186339E+00
        -11   -1    0    0    0    0  0.00000000000E+00  0.00000000000E+00  0.45593999997E+02  0.45594000000E+02  0.51100000000E-03 0.  1.
         11   -1    0    0    0    0 -0.00000000000E+00 -0.00000000000E+00 -0.45593999997E+02  0.45594000000E+02  0.51100000000E-03 0. -1.
    9900012    2    1    2    0    0  0.43871678665E+00 -0.10256671349E+01 -0.38517704049E+00  0.90007819148E+02  0.90000081561E+02 0.  0.
        -12    1    1    2    0    0 -0.43871678665E+00  0.10256671349E+01  0.38517704049E+00  0.11801808518E+01  0.00000000000E+00 0.  1.
         11    1    3    3    0    0  0.15364280395E+02  0.34257977567E+02 -0.11666739484E+02  0.39316446298E+02  0.51100000000E-03 0. -1.
        -11    1    3    3    0    0  0.76009091860E+01 -0.41829283677E+01 -0.37511533314E+01  0.94520824033E+01  0.51100000000E-03 0.  1.
        -12    1    3    3    0    0 -0.22526472794E+02 -0.31100716334E+02  0.15032715775E+02  0.41239290447E+02  0.00000000000E+00 0.  1.
</event>
<event>
 7    1  0.3505640E-015  0.9000692E+02  0.7816164E-02  0.1186341E+00
        -11   -1    0    0    0    0  0.00000000000E+00  0.00000000000E+00  0.45593999997E+02  0.45594000000E+02  0.51100000000E-03 0.  1.
         11   -1    0    0    0    0 -0.00000000000E+00 -0.00000000000E+00 -0.45593999997E+02  0.45594000000E+02  0.51100000000E-03 0. -1.
    9900012    2    1    2    0    0 -0.99154813341E+00 -0.54006692615E+00  0.34655818990E+00  0.90006923134E+02  0.89999173715E+02 0.  0.
        -12    1    1    2    0    0  0.99154813341E+00  0.54006692615E+00 -0.34655818990E+00  0.11810768665E+01  0.00000000000E+00 0.  1.
         11    1    3    3    0    0  0.54262243980E+01 -0.62043375163E+01  0.66266245723E+01  0.10575909829E+02  0.51100000000E-03 0. -1.
        -11    1    3    3    0    0  0.26378516253E+01  0.29763817430E+02  0.24971239370E+02  0.38941056549E+02  0.51100000000E-03 0.  1.
         12    1    3    3    0    0 -0.90556241567E+01 -0.24099546840E+02 -0.31251305753E+02  0.40489956755E+02  0.00000000000E+00 0. -1.
</event>
<event>
 7    1  0.3505640E-015  0.9000765E+02  0.7816164E-02  0.1186339E+00
        -11   -1    0    0    0    0  0.00000000000E+00  0.00000000000E+00  0.45593999997E+02  0.45594000000E+02  0.51100000000E-03 0. -1.
         11   -1    0    0    0    0 -0.00000000000E+00 -0.00000000000E+00 -0.45593999997E+02  0.45594000000E+02  0.51100000000E-03 0.  1.
    9900012    2    1    2    0    0  0.69757660380E-01  0.10974957848E+01  0.42879921126E+00  0.90007647556E+02  0.89999907704E+02 0.  0.
        -12    1    1    2    0    0 -0.69757660380E-01 -0.10974957848E+01 -0.42879921126E+00  0.11803524441E+01  0.00000000000E+00 0.  1.
         11    1    3    3    0    0  0.26005400433E+02 -0.15660851262E+02  0.80134136766E+00  0.30367503391E+02  0.51100000000E-03 0. -1.
        -11    1    3    3    0    0 -0.42352569050E+01 -0.19816469007E+01  0.22488638922E+02  0.22969614849E+02  0.51100000000E-03 0.  1.
        -12    1    3    3    0    0 -0.21700385868E+02  0.18739993947E+02 -0.22861181079E+02  0.36670529316E+02  0.00000000000E+00 0.  1.
</event>
<event>
 7    1  0.3505640E-015  0.9000773E+02  0.7816164E-02  0.1186339E+00
        -11   -1    0    0    0    0  0.00000000000E+00  0.00000000000E+00  0.45593999997E+02  0.45594000000E+02  0.51100000000E-03 0. -1.
         11   -1    0    0    0    0 -0.00000000000E+00 -0.00000000000E+00 -0.45593999997E+02  0.45594000000E+02  0.51100000000E-03 0.  1.
    9900012    2    1    2    0    0 -0.20619654183E+00 -0.41152228720E+00  0.10868168705E+01  0.90007729473E+02  0.89999990702E+02 0.  0.
        -12    1    1    2    0    0  0.20619654183E+00  0.41152228720E+00 -0.10868168705E+01  0.11802705269E+01  0.00000000000E+00 0.  1.
         11    1    3    3    0    0  0.66870106026E+01  0.70063216226E+01  0.13239421523E+00  0.96861851091E+01  0.51100000000E-03 0. -1.
        -11    1    3    3    0    0  0.20019384590E+02 -0.32766339656E+02 -0.13389781501E+02  0.40665649174E+02  0.51100000000E-03 0.  1.
         12    1    3    3    0    0 -0.26912591735E+02  0.25348495746E+02  0.14344204156E+02  0.39655895190E+02  0.00000000000E+00 0. -1.
</event>
<event>
 7    1  0.3505640E-015  0.9000767E+02  0.7816164E-02  0.1186339E+00
        -11   -1    0    0    0    0  0.00000000000E+00  0.00000000000E+00  0.45593999997E+02  0.45594000000E+02  0.51100000000E-03 0.  1.
         11   -1    0    0    0    0 -0.00000000000E+00 -0.00000000000E+00 -0.45593999997E+02  0.45594000000E+02  0.51100000000E-03 0. -1.
    9900012    2    1    2    0    0  0.48215661324E+00 -0.17519925959E+00 -0.10630194756E+01  0.90007669459E+02  0.89999929896E+02 0.  0.
        -12    1    1    2    0    0 -0.48215661324E+00  0.17519925959E+00  0.10630194756E+01  0.11803305409E+01  0.00000000000E+00 0.  1.
         11    1    3    3    0    0  0.11950470362E+02  0.34233732967E+02  0.14185716018E+02  0.38935802983E+02  0.51100000000E-03 0. -1.
        -11    1    3    3    0    0  0.90964721368E+01 -0.79849375847E+00 -0.10617843053E+01  0.91929746975E+01  0.51100000000E-03 0.  1.
        -12    1    3    3    0    0 -0.20564785886E+02 -0.33610438468E+02 -0.14186951189E+02  0.41878891778E+02  0.00000000000E+00 0.  1.
</event>
<event>
 7    1  0.3505640E-015  0.9000772E+02  0.7816164E-02  0.1186339E+00
        -11   -1    0    0    0    0  0.00000000000E+00  0.00000000000E+00  0.45593999997E+02  0.45594000000E+02  0.51100000000E-03 0. -1.
         11   -1    0    0    0    0 -0.00000000000E+00 -0.00000000000E+00 -0.45593999997E+02  0.45594000000E+02  0.51100000000E-03 0.  1.
    9900012    2    1    2    0    0  0.90487495818E+00 -0.61112674667E-01  0.75533345874E+00  0.90007719490E+02  0.89999980587E+02 0.  0.
        -12    1    1    2    0    0 -0.90487495818E+00  0.61112674667E-01 -0.75533345874E+00  0.11802805102E+01  0.00000000000E+00 0.  1.
         11    1    3    3    0    0  0.78552379651E+01  0.33880951349E+02  0.23681739617E+02  0.42076696869E+02  0.51100000000E-03 0. -1.
        -11    1    3    3    0    0  0.12442609957E+01 -0.65767166722E+01  0.47100366205E+01  0.81844873291E+01  0.51100000000E-03 0.  1.
        -12    1    3    3    0    0 -0.81946240027E+01 -0.27365347352E+02 -0.27636442779E+02  0.39746535292E+02  0.00000000000E+00 0.  1.
</event>
<event>
 7    1  0.3505640E-015  0.9000787E+02  0.7816164E-02  0.1186339E+00
        -11   -1    0    0    0    0  0.00000000000E+00  0.00000000000E+00  0.45593999997E+02  0.45594000000E+02  0.51100000000E-03 0. -1.
         11   -1    0    0    0    0 -0.00000000000E+00 -0.00000000000E+00 -0.45593999997E+02  0.45594000000E+02  0.51100000000E-03 0.  1.
    9900012    2    1    2    0    0 -0.10513933953E+01 -0.13694710730E+00  0.51819307525E+00  0.90007870073E+02  0.90000133158E+02 0.  0.
        -12    1    1    2    0    0  0.10513933953E+01  0.13694710730E+00 -0.51819307525E+00  0.11801299272E+01  0.00000000000E+00 0.  1.
         11    1    3    3    0    0 -0.89064534364E+00 -0.38841351007E+02  0.38716927601E+01  0.39043998288E+02  0.51100000000E-03 0. -1.
        -11    1    3    3    0    0  0.40548631707E+01 -0.17326645827E+01  0.76633584829E+01  0.88414424947E+01  0.51100000000E-03 0.  1.
        -12    1    3    3    0    0 -0.42156112223E+01  0.40437068483E+02 -0.11016858168E+02  0.42122429290E+02  0.00000000000E+00 0.  1.
</event>
<event>
 7    1  0.3505640E-015  0.9000774E+02  0.7816164E-02  0.1186339E+00
        -11   -1    0    0    0    0  0.00000000000E+00  0.00000000000E+00  0.45593999997E+02  0.45594000000E+02  0.51100000000E-03 0. -1.
         11   -1    0    0    0    0 -0.00000000000E+00 -0.00000000000E+00 -0.45593999997E+02  0.45594000000E+02  0.51100000000E-03 0.  1.
    9900012    2    1    2    0    0  0.10192763372E+01  0.46067302457E+00  0.37664334606E+00  0.90007744054E+02  0.90000005476E+02 0.  0.
        -12    1    1    2    0    0 -0.10192763372E+01 -0.46067302457E+00 -0.37664334606E+00  0.11802559456E+01  0.00000000000E+00 0.  1.
         11    1    3    3    0    0  0.17117751423E+01  0.78549414417E+00  0.11498195648E+02  0.11651423888E+02  0.51100000000E-03 0. -1.
        -11    1    3    3    0    0  0.37454535185E+02 -0.33548608830E+01 -0.13651101900E+02  0.40005623115E+02  0.51100000000E-03 0.  1.
         12    1    3    3    0    0 -0.38147033990E+02  0.30300397634E+01  0.25295495979E+01  0.38350697052E+02  0.00000000000E+00 0. -1.
</event>
<event>
 7    1  0.3505640E-015  0.9000773E+02  0.7816164E-02  0.1186339E+00
        -11   -1    0    0    0    0  0.00000000000E+00  0.00000000000E+00  0.45593999997E+02  0.45594000000E+02  0.51100000000E-03 0. -1.
         11   -1    0    0    0    0 -0.00000000000E+00 -0.00000000000E+00 -0.45593999997E+02  0.45594000000E+02  0.51100000000E-03 0.  1.
    9900012    2    1    2    0    0  0.15177363414E+00  0.10235812495E+01  0.56770514593E+00  0.90007727598E+02  0.89999988802E+02 0.  0.
        -12    1    1    2    0    0 -0.15177363414E+00 -0.10235812495E+01 -0.56770514593E+00  0.11802724021E+01  0.00000000000E+00 0.  1.
         11    1    3    3    0    0  0.35345476015E+02  0.94074637757E+00  0.11692406341E+01  0.35377320452E+02  0.51100000000E-03 0.  1.
        -11    1    3    3    0    0 -0.31338162913E+01  0.12393802032E+02 -0.12891342921E+02  0.18155270748E+02  0.51100000000E-03 0. -1.
        -12    1    3    3    0    0 -0.32059886089E+02 -0.12310967160E+02  0.12289807433E+02  0.36475136398E+02  0.00000000000E+00 0.  1.
</event>
<event>
 7    1  0.3505640E-015  0.9000784E+02  0.7816164E-02  0.1186339E+00
        -11   -1    0    0    0    0  0.00000000000E+00  0.00000000000E+00  0.45593999997E+02  0.45594000000E+02  0.51100000000E-03 0. -1.
         11   -1    0    0    0    0 -0.00000000000E+00 -0.00000000000E+00 -0.45593999997E+02  0.45594000000E+02  0.51100000000E-03 0.  1.
    9900012    2    1    2    0    0  0.10323403392E+01  0.16704055630E+00  0.54694241977E+00  0.90007841056E+02  0.90000103758E+02 0.  0.
        -12    1    1    2    0    0 -0.10323403392E+01 -0.16704055630E+00 -0.54694241977E+00  0.11801589444E+01  0.00000000000E+00 0.  1.
         11    1    3    3    0    0  0.12896938468E+02 -0.41893181709E+02  0.73709990739E+01  0.44448861888E+02  0.51100000000E-03 0. -1.
        -11    1    3    3    0    0 -0.18132095685E+01  0.59217053736E+01 -0.50767903601E+01  0.80080037520E+01  0.51100000000E-03 0.  1.
        -12    1    3    3    0    0 -0.10051388560E+02  0.36138516892E+02 -0.17472662939E+01  0.37550975415E+02  0.00000000000E+00 0.  1.
</event>
<event>
 7    1  0.3505640E-015  0.9000779E+02  0.7816164E-02  0.1186339E+00
        -11   -1    0    0    0    0  0.00000000000E+00  0.00000000000E+00  0.45593999997E+02  0.45594000000E+02  0.51100000000E-03 0.  1.
         11   -1    0    0    0    0 -0.00000000000E+00 -0.00000000000E+00 -0.45593999997E+02  0.45594000000E+02  0.51100000000E-03 0. -1.
    9900012    2    1    2    0    0 -0.56127142686E+00  0.48508111858E+00 -0.91790877836E+00  0.90007794157E+02  0.90000056240E+02 0.  0.
        -12    1    1    2    0    0  0.56127142686E+00 -0.48508111858E+00  0.91790877836E+00  0.11802058429E+01  0.00000000000E+00 0.  1.
         11    1    3    3    0    0 -0.39613478143E+01 -0.39149258603E+01 -0.69097074791E+01  0.88748509117E+01  0.51100000000E-03 0. -1.
        -11    1    3    3    0    0 -0.10015058471E+02  0.26809456748E+02  0.32918941745E+02  0.43620007946E+02  0.51100000000E-03 0.  1.
         12    1    3    3    0    0  0.13415134859E+02 -0.22409449769E+02 -0.26927143044E+02  0.37512935299E+02  0.00000000000E+00 0. -1.
</event>
<event>
 7    1  0.3505640E-015  0.9000783E+02  0.7816164E-02  0.1186339E+00
        -11   -1    0    0    0    0  0.00000000000E+00  0.00000000000E+00  0.45593999997E+02  0.45594000000E+02  0.51100000000E-03 0.  1.
         11   -1    0    0    0    0 -0.00000000000E+00 -0.00000000000E+00 -0.45593999997E+02  0.45594000000E+02  0.51100000000E-03 0. -1.
    9900012    2    1    2    0    0 -0.12290883714E+00 -0.83523264975E+00  0.82467162042E+00  0.90007829062E+02  0.90000091606E+02 0.  0.
        -12    1    1    2    0    0  0.12290883714E+00  0.83523264975E+00 -0.82467162042E+00  0.11801709380E+01  0.00000000000E+00 0.  1.
         11    1    3    3    0    0 -0.11158314657E+01  0.68517791032E+00  0.91685264591E+01  0.92615563661E+01  0.51100000000E-03 0. -1.
        -11    1    3    3    0    0  0.37527658948E+02  0.79611319751E+01  0.86914728481E+01  0.39335054455E+02  0.51100000000E-03 0.  1.
         12    1    3    3    0    0 -0.36534736320E+02 -0.94815425351E+01 -0.17035327687E+02  0.41411218241E+02  0.00000000000E+00 0. -1.
</event>
<event>
 7    1  0.3505640E-015  0.9000775E+02  0.7816164E-02  0.1186339E+00
        -11   -1    0    0    0    0  0.00000000000E+00  0.00000000000E+00  0.45593999997E+02  0.45594000000E+02  0.51100000000E-03 0.  1.
         11   -1    0    0    0    0 -0.00000000000E+00 -0.00000000000E+00 -0.45593999997E+02  0.45594000000E+02  0.51100000000E-03 0. -1.
    9900012    2    1    2    0    0 -0.10743045054E+01 -0.15965333934E+00 -0.46191235343E+00  0.90007753254E+02  0.90000014797E+02 0.  0.
        -12    1    1    2    0    0  0.10743045054E+01  0.15965333934E+00  0.46191235343E+00  0.11802467459E+01  0.00000000000E+00 0.  1.
         11    1    3    3    0    0 -0.85457004152E+01  0.76292434971E+00  0.47975955473E-02  0.85796895298E+01  0.51100000000E-03 0. -1.
        -11    1    3    3    0    0  0.70568761662E+01 -0.27241155740E+02  0.30022342157E+02  0.41148767857E+02  0.51100000000E-03 0.  1.
         12    1    3    3    0    0  0.41451974363E+00  0.26318578051E+02 -0.30489052106E+02  0.40279295867E+02  0.00000000000E+00 0. -1.
</event>
<event>
 7    1  0.3505640E-015  0.9000777E+02  0.7816164E-02  0.1186339E+00
        -11   -1    0    0    0    0  0.00000000000E+00  0.00000000000E+00  0.45593999997E+02  0.45594000000E+02  0.51100000000E-03 0.  1.
         11   -1    0    0    0    0 -0.00000000000E+00 -0.00000000000E+00 -0.45593999997E+02  0.45594000000E+02  0.51100000000E-03 0. -1.
    9900012    2    1    2    0    0  0.47091846144E+00  0.79754457730E+00  0.73151205393E+00  0.90007766364E+02  0.90000028080E+02 0.  0.
        -12    1    1    2    0    0 -0.47091846144E+00 -0.79754457730E+00 -0.73151205393E+00  0.11802336358E+01  0.00000000000E+00 0.  1.
         11    1    3    3    0    0  0.11892267336E+02  0.39376998905E+02  0.14064645199E+02  0.43471695504E+02  0.51100000000E-03 0. -1.
        -11    1    3    3    0    0  0.34462904679E+01 -0.11904657076E+02  0.16801338048E+01  0.12506823255E+02  0.51100000000E-03 0.  1.
        -12    1    3    3    0    0 -0.14867639343E+02 -0.26674797252E+02 -0.15013266950E+02  0.34029247605E+02  0.00000000000E+00 0.  1.
</event>
<event>
 7    1  0.3505640E-015  0.9000783E+02  0.7816164E-02  0.1186339E+00
        -11   -1    0    0    0    0  0.00000000000E+00  0.00000000000E+00  0.45593999997E+02  0.45594000000E+02  0.51100000000E-03 0.  1.
         11   -1    0    0    0    0 -0.00000000000E+00 -0.00000000000E+00 -0.45593999997E+02  0.45594000000E+02  0.51100000000E-03 0. -1.
    9900012    2    1    2    0    0  0.78773613556E+00 -0.71744892903E+00  0.50749259809E+00  0.90007826317E+02  0.90000088824E+02 0.  0.
        -12    1    1    2    0    0 -0.78773613556E+00  0.71744892903E+00 -0.50749259809E+00  0.11801736830E+01  0.00000000000E+00 0.  1.
         11    1    3    3    0    0 -0.16240027000E+02 -0.17562259264E+02  0.12429103312E+02  0.26956521230E+02  0.51100000000E-03 0. -1.
        -11    1    3    3    0    0 -0.96489299084E+01 -0.74119429874E+01  0.14071797835E+02  0.18602533209E+02  0.51100000000E-03 0.  1.
        -12    1    3    3    0    0  0.26676693044E+02  0.24256753322E+02 -0.25993408549E+02  0.44448771878E+02  0.00000000000E+00 0.  1.
</event>
<event>
 7    1  0.3505640E-015  0.9000781E+02  0.7816164E-02  0.1186339E+00
        -11   -1    0    0    0    0  0.00000000000E+00  0.00000000000E+00  0.45593999997E+02  0.45594000000E+02  0.51100000000E-03 0.  1.
         11   -1    0    0    0    0 -0.00000000000E+00 -0.00000000000E+00 -0.45593999997E+02  0.45594000000E+02  0.51100000000E-03 0. -1.
    9900012    2    1    2    0    0  0.59225677078E+00 -0.82384704968E+00 -0.60279809445E+00  0.90007806123E+02  0.90000068364E+02 0.  0.
        -12    1    1    2    0    0 -0.59225677078E+00  0.82384704968E+00  0.60279809445E+00  0.11801938766E+01  0.00000000000E+00 0.  1.
         11    1    3    3    0    0  0.65818125205E+01 -0.65497406375E+01  0.89931549163E+00  0.93288867014E+01  0.51100000000E-03 0. -1.
        -11    1    3    3    0    0  0.24699419139E+02 -0.21776500347E+02  0.15132435254E+02  0.36239037931E+02  0.51100000000E-03 0.  1.
         12    1    3    3    0    0 -0.30688974888E+02  0.27502393935E+02 -0.16634548840E+02  0.44439881491E+02  0.00000000000E+00 0. -1.
</event>
<event>
 7    1  0.3505640E-015  0.9000778E+02  0.7816164E-02  0.1186339E+00
        -11   -1    0    0    0    0  0.00000000000E+00  0.00000000000E+00  0.45593999997E+02  0.45594000000E+02  0.51100000000E-03 0.  1.
         11   -1    0    0    0    0 -0.00000000000E+00 -0.00000000000E+00 -0.45593999997E+02  0.45594000000E+02  0.51100000000E-03 0. -1.
    9900012    2    1    2    0    0 -0.19399929983E+00  0.88536232481E+00 -0.75591846434E+00  0.90007781843E+02  0.90000043763E+02 0.  0.
        -12    1    1    2    0    0  0.19399929983E+00 -0.88536232481E+00  0.75591846434E+00  0.11802181575E+01  0.00000000000E+00 0.  1.
         11    1    3    3    0    0  0.45679616734E+01 -0.63932887222E+01  0.46304834064E+01  0.91204052198E+01  0.51100000000E-03 0. -1.
        -11    1    3    3    0    0  0.20136065664E+02  0.25249015468E+02  0.22538824832E+02  0.39382388800E+02  0.51100000000E-03 0.  1.
         12    1    3    3    0    0 -0.24898026637E+02 -0.17970364421E+02 -0.27925226702E+02  0.41504987823E+02  0.00000000000E+00 0. -1.
</event>
<event>
 7    1  0.3505640E-015  0.9000778E+02  0.7816164E-02  0.1186339E+00
        -11   -1    0    0    0    0  0.00000000000E+00  0.00000000000E+00  0.45593999997E+02  0.45594000000E+02  0.51100000000E-03 0. -1.
         11   -1    0    0    0    0 -0.00000000000E+00 -0.00000000000E+00 -0.45593999997E+02  0.45594000000E+02  0.51100000000E-03 0.  1.
    9900012    2    1    2    0    0  0.11678487919E+01 -0.20841527178E-01 -0.16914119164E+00  0.90007782260E+02  0.90000044186E+02 0.  0.
        -12    1    1    2    0    0 -0.11678487919E+01  0.20841527178E-01  0.16914119164E+00  0.11802177395E+01  0.00000000000E+00 0.  1.
         11    1    3    3    0    0  0.81573631459E+01 -0.61754296515E+01  0.33173844322E+01  0.10755628508E+02  0.51100000000E-03 0. -1.
        -11    1    3    3    0    0 -0.14912700966E+02 -0.22827583477E+02  0.25623690507E+02  0.37417385437E+02  0.51100000000E-03 0.  1.
         12    1    3    3    0    0  0.79231866119E+01  0.28982171601E+02 -0.29110216131E+02  0.41834768315E+02  0.00000000000E+00 0. -1.
</event>
<event>
 7    1  0.3505640E-015  0.9000769E+02  0.7816164E-02  0.1186339E+00
        -11   -1    0    0    0    0  0.00000000000E+00  0.00000000000E+00  0.45593999997E+02  0.45594000000E+02  0.51100000000E-03 0.  1.
         11   -1    0    0    0    0 -0.00000000000E+00 -0.00000000000E+00 -0.45593999997E+02  0.45594000000E+02  0.51100000000E-03 0. -1.
    9900012    2    1    2    0    0 -0.40327933617E+00 -0.11062566190E+01  0.81837298451E-01  0.90007688485E+02  0.89999949173E+02 0.  0.
        -12    1    1    2    0    0  0.40327933617E+00  0.11062566190E+01 -0.81837298451E-01  0.11803115155E+01  0.00000000000E+00 0.  1.
         11    1    3    3    0    0  0.71569035378E+01 -0.29607337297E+02 -0.27645656175E+02  0.41135118763E+02  0.51100000000E-03 0. -1.
        -11    1    3    3    0    0 -0.79732443934E+01  0.23123986723E+01 -0.26952143192E+01  0.87283443026E+01  0.51100000000E-03 0.  1.
        -12    1    3    3    0    0  0.41306151942E+00  0.26188682005E+02  0.30422707793E+02  0.40144225419E+02  0.00000000000E+00 0.  1.
</event>
<event>
 8    1  0.3505640E-015  0.9000767E+02  0.7816164E-02  0.1186339E+00
        -11   -1    0    0    0    0  0.00000000000E+00  0.00000000000E+00  0.45593999997E+02  0.45594000000E+02  0.51100000000E-03 0.  1.
         11   -1    0    0    0    0 -0.00000000000E+00 -0.00000000000E+00 -0.45593999997E+02  0.45594000000E+02  0.51100000000E-03 0. -1.
    9900012    2    1    2    0    0 -0.10493436310E+01  0.22643871102E+00 -0.49070764970E+00  0.90007665072E+02  0.89999925450E+02 0.  0.
         23    2    3    3    0    0 -0.10692113445E+02 -0.20913248340E+02  0.11210303683E+02  0.63992610882E+02  0.58461081864E+02 0.  0.
        -12    1    1    2    0    0  0.10493436310E+01 -0.22643871102E+00  0.49070764970E+00  0.11803349285E+01  0.00000000000E+00 0.  1.
         11    1    4    4    0    0 -0.14388705078E+02 -0.38381629950E+02 -0.31047472889E+01  0.41107466566E+02  0.51100000000E-03 0. -1.
        -11    1    4    4    0    0  0.36965916332E+01  0.17468381610E+02  0.14315050972E+02  0.22885144316E+02  0.51100000000E-03 0.  1.
        -12    1    3    3    0    0  0.96427698137E+01  0.21139687051E+02 -0.11701011333E+02  0.26015054190E+02  0.00000000000E+00 0.  1.
</event>
<event>
 7    1  0.3505640E-015  0.9000774E+02  0.7816164E-02  0.1186339E+00
        -11   -1    0    0    0    0  0.00000000000E+00  0.00000000000E+00  0.45593999997E+02  0.45594000000E+02  0.51100000000E-03 0. -1.
         11   -1    0    0    0    0 -0.00000000000E+00 -0.00000000000E+00 -0.45593999997E+02  0.45594000000E+02  0.51100000000E-03 0.  1.
    9900012    2    1    2    0    0  0.19440754655E+00  0.69978115736E+00  0.93033752300E+00  0.90007739067E+02  0.90000000423E+02 0.  0.
        -12    1    1    2    0    0 -0.19440754655E+00 -0.69978115736E+00 -0.93033752300E+00  0.11802609326E+01  0.00000000000E+00 0.  1.
         11    1    3    3    0    0  0.20172275375E+01 -0.36839941305E+01  0.25297954490E+02  0.25644249283E+02  0.51100000000E-03 0. -1.
        -11    1    3    3    0    0 -0.16130101152E+02  0.23009968710E+02  0.30452431788E+01  0.28265037228E+02  0.51100000000E-03 0.  1.
        -12    1    3    3    0    0  0.14307281161E+02 -0.18626193422E+02 -0.27412860145E+02  0.36098452556E+02  0.00000000000E+00 0.  1.
</event>
<event>
 7    1  0.4631420E-015  0.9000775E+02  0.7816164E-02  0.1186339E+00
        -11   -1    0    0    0    0  0.00000000000E+00  0.00000000000E+00  0.45593999997E+02  0.45594000000E+02  0.51100000000E-03 0. -1.
         11   -1    0    0    0    0 -0.00000000000E+00 -0.00000000000E+00 -0.45593999997E+02  0.45594000000E+02  0.51100000000E-03 0.  1.
    9900012    2    1    2    0    0  0.23029394882E+00  0.10448323948E+01  0.49827291401E+00  0.90007751749E+02  0.90000013273E+02 0.  0.
        -12    1    1    2    0    0 -0.23029394882E+00 -0.10448323948E+01 -0.49827291401E+00  0.11802482506E+01  0.00000000000E+00 0.  1.
         11    1    3    3    0    0  0.13909034431E+01  0.16635082160E+01 -0.94692657569E+01  0.97143639117E+01  0.51100000000E-03 0. -1.
        -11    1    3    3    0    0  0.10310765900E+02  0.34475579696E+02 -0.11259489526E+02  0.37704821886E+02  0.51100000000E-03 0.  1.
         12    1    3    3    0    0 -0.11471375394E+02 -0.35094255517E+02  0.21227028197E+02  0.42588565952E+02  0.00000000000E+00 0. -1.
</event>
<event>
 7    1  0.3505640E-015  0.9000773E+02  0.7816164E-02  0.1186339E+00
        -11   -1    0    0    0    0  0.00000000000E+00  0.00000000000E+00  0.45593999997E+02  0.45594000000E+02  0.51100000000E-03 0.  1.
         11   -1    0    0    0    0 -0.00000000000E+00 -0.00000000000E+00 -0.45593999997E+02  0.45594000000E+02  0.51100000000E-03 0. -1.
    9900012    2    1    2    0    0  0.10003627813E+01 -0.61771384542E+00 -0.10363099389E+00  0.90007730763E+02  0.89999992009E+02 0.  0.
        -12    1    1    2    0    0 -0.10003627813E+01  0.61771384542E+00  0.10363099389E+00  0.11802692370E+01  0.00000000000E+00 0.  1.
         11    1    3    3    0    0 -0.14706875958E+02 -0.10289096314E+01  0.25114374712E+01  0.14955205579E+02  0.51100000000E-03 0. -1.
        -11    1    3    3    0    0  0.58576583412E+01 -0.28780273523E+02  0.21108252896E+02  0.36168697044E+02  0.51100000000E-03 0.  1.
         12    1    3    3    0    0  0.98495803979E+01  0.29191469309E+02 -0.23723321361E+02  0.38883828140E+02  0.00000000000E+00 0. -1.
</event>
<event>
 7    1  0.3505640E-015  0.9000764E+02  0.7816164E-02  0.1186339E+00
        -11   -1    0    0    0    0  0.00000000000E+00  0.00000000000E+00  0.45593999997E+02  0.45594000000E+02  0.51100000000E-03 0.  1.
         11   -1    0    0    0    0 -0.00000000000E+00 -0.00000000000E+00 -0.45593999997E+02  0.45594000000E+02  0.51100000000E-03 0. -1.
    9900012    2    1    2    0    0 -0.88750681240E+00 -0.18206848912E+00 -0.75658639585E+00  0.90007644015E+02  0.89999904116E+02 0.  0.
        -12    1    1    2    0    0  0.88750681240E+00  0.18206848912E+00  0.75658639585E+00  0.11803559849E+01  0.00000000000E+00 0.  1.
         11    1    3    3    0    0 -0.33297895356E+02 -0.22333918111E+02 -0.16962361017E+01  0.40130175062E+02  0.51100000000E-03 0. -1.
        -11    1    3    3    0    0  0.19616586617E+01 -0.34813157727E+01 -0.81268126561E+01  0.90560890247E+01  0.51100000000E-03 0.  1.
        -12    1    3    3    0    0  0.30448729882E+02  0.25633165394E+02  0.90664623620E+01  0.40821379929E+02  0.00000000000E+00 0.  1.
</event>
<event>
 7    1  0.3505640E-015  0.9000749E+02  0.7816164E-02  0.1186340E+00
        -11   -1    0    0    0    0  0.00000000000E+00  0.00000000000E+00  0.45593999997E+02  0.45594000000E+02  0.51100000000E-03 0.  1.
         11   -1    0    0    0    0 -0.00000000000E+00 -0.00000000000E+00 -0.45593999997E+02  0.45594000000E+02  0.51100000000E-03 0. -1.
    9900012    2    1    2    0    0 -0.86790415687E+00  0.79883175929E+00  0.46962859017E-01  0.90007493619E+02  0.89999751735E+02 0.  0.
        -12    1    1    2    0    0  0.86790415687E+00 -0.79883175929E+00 -0.46962859017E-01  0.11805063809E+01  0.00000000000E+00 0.  1.
         11    1    3    3    0    0 -0.99857343571E+01 -0.33724701085E+02 -0.12568118540E+02  0.37350073063E+02  0.51100000000E-03 0. -1.
        -11    1    3    3    0    0  0.54882158431E+01 -0.71002978473E+01 -0.12979179528E+00  0.89750536952E+01  0.51100000000E-03 0.  1.
        -12    1    3    3    0    0  0.36296143572E+01  0.41623830692E+02  0.12744873194E+02  0.43682366861E+02  0.00000000000E+00 0.  1.
</event>
<event>
 7    1  0.3505640E-015  0.9000772E+02  0.7816164E-02  0.1186339E+00
        -11   -1    0    0    0    0  0.00000000000E+00  0.00000000000E+00  0.45593999997E+02  0.45594000000E+02  0.51100000000E-03 0. -1.
         11   -1    0    0    0    0 -0.00000000000E+00 -0.00000000000E+00 -0.45593999997E+02  0.45594000000E+02  0.51100000000E-03 0.  1.
    9900012    2    1    2    0    0 -0.48565638333E+00  0.21753960281E+00 -0.10535049674E+01  0.90007721085E+02  0.89999982203E+02 0.  0.
        -12    1    1    2    0    0  0.48565638333E+00 -0.21753960281E+00  0.10535049674E+01  0.11802789153E+01  0.00000000000E+00 0.  1.
         11    1    3    3    0    0  0.89169257482E+01  0.33204831930E+01  0.35420307337E+02  0.36676086835E+02  0.51100000000E-03 0. -1.
        -11    1    3    3    0    0 -0.24172369605E+01  0.15913723590E+01  0.77715628392E+01  0.82929301054E+01  0.51100000000E-03 0.  1.
        -12    1    3    3    0    0 -0.69853451710E+01 -0.46943159492E+01 -0.44245375144E+02  0.45038704144E+02  0.00000000000E+00 0.  1.
</event>
<event>
 7    1  0.3505640E-015  0.9000771E+02  0.7816164E-02  0.1186339E+00
        -11   -1    0    0    0    0  0.00000000000E+00  0.00000000000E+00  0.45593999997E+02  0.45594000000E+02  0.51100000000E-03 0.  1.
         11   -1    0    0    0    0 -0.00000000000E+00 -0.00000000000E+00 -0.45593999997E+02  0.45594000000E+02  0.51100000000E-03 0. -1.
    9900012    2    1    2    0    0 -0.49392048406E+00  0.27057324338E+00 -0.10372668597E+01  0.90007707721E+02  0.89999968663E+02 0.  0.
        -12    1    1    2    0    0  0.49392048406E+00 -0.27057324338E+00  0.10372668597E+01  0.11802922786E+01  0.00000000000E+00 0.  1.
         11    1    3    3    0    0  0.33962521943E+02  0.21731275494E+01 -0.20485440815E+02  0.39721891518E+02  0.51100000000E-03 0. -1.
        -11    1    3    3    0    0  0.14473328095E+00  0.51071987592E+01 -0.51522757272E+01  0.72560576292E+01  0.51100000000E-03 0.  1.
        -12    1    3    3    0    0 -0.34601175708E+02 -0.70097530652E+01  0.24600449682E+02  0.43029758575E+02  0.00000000000E+00 0.  1.
</event>
<event>
 7    1  0.3505640E-015  0.9000773E+02  0.7816164E-02  0.1186339E+00
        -11   -1    0    0    0    0  0.00000000000E+00  0.00000000000E+00  0.45593999997E+02  0.45594000000E+02  0.51100000000E-03 0.  1.
         11   -1    0    0    0    0 -0.00000000000E+00 -0.00000000000E+00 -0.45593999997E+02  0.45594000000E+02  0.51100000000E-03 0. -1.
    9900012    2    1    2    0    0  0.24117307724E+00 -0.11117406532E+01 -0.31448122147E+00  0.90007733008E+02  0.89999994284E+02 0.  0.
        -12    1    1    2    0    0 -0.24117307724E+00  0.11117406532E+01  0.31448122147E+00  0.11802669918E+01  0.00000000000E+00 0.  1.
         11    1    3    3    0    0  0.82492105659E+01 -0.31139774684E+02  0.16805607290E+02  0.36334053985E+02  0.51100000000E-03 0. -1.
        -11    1    3    3    0    0  0.53856822094E+01 -0.61863032977E+01  0.45673116864E+01  0.93880912678E+01  0.51100000000E-03 0.  1.
        -12    1    3    3    0    0 -0.13393719698E+02  0.36214337328E+02 -0.21687400198E+02  0.44285587755E+02  0.00000000000E+00 0.  1.
</event>
<event>
 7    1  0.4037243E-015  0.9000764E+02  0.7816164E-02  0.1186339E+00
        -11   -1    0    0    0    0  0.00000000000E+00  0.00000000000E+00  0.45593999997E+02  0.45594000000E+02  0.51100000000E-03 0. -1.
         11   -1    0    0    0    0 -0.00000000000E+00 -0.00000000000E+00 -0.45593999997E+02  0.45594000000E+02  0.51100000000E-03 0.  1.
    9900012    2    1    2    0    0 -0.15776854639E+00 -0.68043164471E+00  0.95150577980E+00  0.90007643534E+02  0.89999903629E+02 0.  0.
        -12    1    1    2    0    0  0.15776854639E+00  0.68043164471E+00 -0.95150577980E+00  0.11803564658E+01  0.00000000000E+00 0.  1.
         11    1    3    3    0    0 -0.44498147952E+01  0.82516741286E+01 -0.18266792277E+01  0.95513211075E+01  0.51100000000E-03 0. -1.
        -11    1    3    3    0    0 -0.20228681138E+01 -0.30373427223E+02 -0.28708403930E+02  0.41842675980E+02  0.51100000000E-03 0.  1.
         12    1    3    3    0    0  0.63149143627E+01  0.21441321450E+02  0.31486588938E+02  0.38613646446E+02  0.00000000000E+00 0. -1.
</event>
<event>
 7    1  0.3505640E-015  0.9000772E+02  0.7816164E-02  0.1186339E+00
        -11   -1    0    0    0    0  0.00000000000E+00  0.00000000000E+00  0.45593999997E+02  0.45594000000E+02  0.51100000000E-03 0.  1.
         11   -1    0    0    0    0 -0.00000000000E+00 -0.00000000000E+00 -0.45593999997E+02  0.45594000000E+02  0.51100000000E-03 0. -1.
    9900012    2    1    2    0    0  0.22278819533E+00  0.14143970397E-01 -0.11589796774E+01  0.90007716761E+02  0.89999977822E+02 0.  0.
        -12    1    1    2    0    0 -0.22278819533E+00 -0.14143970397E-01  0.11589796774E+01  0.11802832391E+01  0.00000000000E+00 0.  1.
         11    1    3    3    0    0  0.34317833243E+02  0.35470838169E+01 -0.18742969691E+02  0.39263142962E+02  0.51100000000E-03 0. -1.
        -11    1    3    3    0    0 -0.28533946542E+01  0.42013297380E+01 -0.81049644386E+01  0.95646997565E+01  0.51100000000E-03 0.  1.
        -12    1    3    3    0    0 -0.31241650394E+02 -0.77342695845E+01  0.25688954452E+02  0.41179874043E+02  0.00000000000E+00 0.  1.
</event>
<event>
 7    1  0.3505640E-015  0.9000770E+02  0.7816164E-02  0.1186339E+00
        -11   -1    0    0    0    0  0.00000000000E+00  0.00000000000E+00  0.45593999997E+02  0.45594000000E+02  0.51100000000E-03 0. -1.
         11   -1    0    0    0    0 -0.00000000000E+00 -0.00000000000E+00 -0.45593999997E+02  0.45594000000E+02  0.51100000000E-03 0.  1.
    9900012    2    1    2    0    0 -0.38110482763E+00 -0.82111030860E+00  0.75738615409E+00  0.90007704776E+02  0.89999965679E+02 0.  0.
        -12    1    1    2    0    0  0.38110482763E+00  0.82111030860E+00 -0.75738615409E+00  0.11802952236E+01  0.00000000000E+00 0.  1.
         11    1    3    3    0    0 -0.23283723639E+01 -0.88328459186E+01 -0.18075661884E+01  0.93117012771E+01  0.51100000000E-03 0. -1.
        -11    1    3    3    0    0 -0.41247817460E+01 -0.31389162745E+02 -0.17383436028E+02  0.36117547130E+02  0.51100000000E-03 0.  1.
         12    1    3    3    0    0  0.60720492823E+01  0.39400898355E+02  0.19948388371E+02  0.44578456369E+02  0.00000000000E+00 0. -1.
</event>
<event>
 7    1  0.3505640E-015  0.9000778E+02  0.7816164E-02  0.1186339E+00
        -11   -1    0    0    0    0  0.00000000000E+00  0.00000000000E+00  0.45593999997E+02  0.45594000000E+02  0.51100000000E-03 0.  1.
         11   -1    0    0    0    0 -0.00000000000E+00 -0.00000000000E+00 -0.45593999997E+02  0.45594000000E+02  0.51100000000E-03 0. -1.
    9900012    2    1    2    0    0 -0.11662822879E+01 -0.16878441030E+00  0.65015455239E-01  0.90007775631E+02  0.90000037469E+02 0.  0.
        -12    1    1    2    0    0  0.11662822879E+01  0.16878441030E+00 -0.65015455239E-01  0.11802243692E+01  0.00000000000E+00 0.  1.
         11    1    3    3    0    0 -0.45990398236E+01 -0.90035422390E+01 -0.14205442582E+01  0.10209450837E+02  0.51100000000E-03 0. -1.
        -11    1    3    3    0    0  0.28648775707E+02 -0.22880715228E+02 -0.93865881017E+01  0.37846895715E+02  0.51100000000E-03 0.  1.
         12    1    3    3    0    0 -0.25216018171E+02  0.31715473057E+02  0.10872147815E+02  0.41951429078E+02  0.00000000000E+00 0. -1.
</event>
<event>
 7    1  0.3505640E-015  0.9000756E+02  0.7816164E-02  0.1186339E+00
        -11   -1    0    0    0    0  0.00000000000E+00  0.00000000000E+00  0.45593999997E+02  0.45594000000E+02  0.51100000000E-03 0. -1.
         11   -1    0    0    0    0 -0.00000000000E+00 -0.00000000000E+00 -0.45593999997E+02  0.45594000000E+02  0.51100000000E-03 0.  1.
    9900012    2    1    2    0    0 -0.76114602106E+00  0.78192467456E+00  0.45019836658E+00  0.90007564474E+02  0.89999823525E+02 0.  0.
        -12    1    1    2    0    0  0.76114602106E+00 -0.78192467456E+00 -0.45019836658E+00  0.11804355261E+01  0.00000000000E+00 0.  1.
         11    1    3    3    0    0 -0.13713127607E+02  0.18312625519E+02  0.27382473881E+02  0.35681956200E+02  0.51100000000E-03 0. -1.
        -11    1    3    3    0    0 -0.21137663555E+01  0.51990220609E+01  0.81475863506E+01  0.98934828143E+01  0.51100000000E-03 0.  1.
        -12    1    3    3    0    0  0.15065747942E+02 -0.22729722905E+02 -0.35079861865E+02  0.44432125460E+02  0.00000000000E+00 0.  1.
</event>
<event>
 7    1  0.3505640E-015  0.9000788E+02  0.7816164E-02  0.1186339E+00
        -11   -1    0    0    0    0  0.00000000000E+00  0.00000000000E+00  0.45593999997E+02  0.45594000000E+02  0.51100000000E-03 0.  1.
         11   -1    0    0    0    0 -0.00000000000E+00 -0.00000000000E+00 -0.45593999997E+02  0.45594000000E+02  0.51100000000E-03 0. -1.
    9900012    2    1    2    0    0 -0.57378067025E+00  0.96649103641E+00 -0.35966043125E+00  0.90007879325E+02  0.90000142532E+02 0.  0.
        -12    1    1    2    0    0  0.57378067025E+00 -0.96649103641E+00  0.35966043125E+00  0.11801206747E+01  0.00000000000E+00 0.  1.
         11    1    3    3    0    0 -0.47442281712E+01 -0.49611671263E+01 -0.43680926894E+02  0.44217013182E+02  0.51100000000E-03 0. -1.
        -11    1    3    3    0    0 -0.50169030655E+00  0.58029487719E+01  0.67222870262E+01  0.88946641722E+01  0.51100000000E-03 0.  1.
        -12    1    3    3    0    0  0.46721378075E+01  0.12470939082E+00  0.36598979436E+02  0.36896201971E+02  0.00000000000E+00 0.  1.
</event>
<event>
 7    1  0.3505640E-015  0.9000779E+02  0.7816164E-02  0.1186339E+00
        -11   -1    0    0    0    0  0.00000000000E+00  0.00000000000E+00  0.45593999997E+02  0.45594000000E+02  0.51100000000E-03 0. -1.
         11   -1    0    0    0    0 -0.00000000000E+00 -0.00000000000E+00 -0.45593999997E+02  0.45594000000E+02  0.51100000000E-03 0.  1.
    9900012    2    1    2    0    0 -0.69670241532E+00  0.68898421979E+00  0.65787377552E+00  0.90007791792E+02  0.90000053843E+02 0.  0.
        -12    1    1    2    0    0  0.69670241532E+00 -0.68898421979E+00 -0.65787377552E+00  0.11802082084E+01  0.00000000000E+00 0.  1.
         11    1    3    3    0    0 -0.10552012675E+01 -0.50456922174E+01 -0.20819461103E+02  0.21448133265E+02  0.51100000000E-03 0. -1.
        -11    1    3    3    0    0 -0.36149913258E+01  0.33599487027E+02  0.11006059468E+01  0.33811315036E+02  0.51100000000E-03 0.  1.
         12    1    3    3    0    0  0.39734901779E+01 -0.27864810590E+02  0.20376728932E+02  0.34748343491E+02  0.00000000000E+00 0. -1.
</event>
<event>
 7    1  0.3505640E-015  0.9000742E+02  0.7816164E-02  0.1186340E+00
        -11   -1    0    0    0    0  0.00000000000E+00  0.00000000000E+00  0.45593999997E+02  0.45594000000E+02  0.51100000000E-03 0.  1.
         11   -1    0    0    0    0 -0.00000000000E+00 -0.00000000000E+00 -0.45593999997E+02  0.45594000000E+02  0.51100000000E-03 0. -1.
    9900012    2    1    2    0    0  0.81767033980E+00 -0.46963294284E+00 -0.71037177907E+00  0.90007420502E+02  0.89999677652E+02 0.  0.
        -12    1    1    2    0    0 -0.81767033980E+00  0.46963294284E+00  0.71037177907E+00  0.11805794976E+01  0.00000000000E+00 0.  1.
         11    1    3    3    0    0 -0.19370028591E+01 -0.99328435842E+01  0.37573906809E+01  0.10794968584E+02  0.51100000000E-03 0. -1.
        -11    1    3    3    0    0  0.14950428646E+02 -0.13978411943E+02  0.29668723106E+02  0.36043646432E+02  0.51100000000E-03 0.  1.
         12    1    3    3    0    0 -0.12195755447E+02  0.23441622584E+02 -0.34136485566E+02  0.43168805486E+02  0.00000000000E+00 0. -1.
</event>
<event>
 7    1  0.3505640E-015  0.9000804E+02  0.7816164E-02  0.1186338E+00
        -11   -1    0    0    0    0  0.00000000000E+00  0.00000000000E+00  0.45593999997E+02  0.45594000000E+02  0.51100000000E-03 0.  1.
         11   -1    0    0    0    0 -0.00000000000E+00 -0.00000000000E+00 -0.45593999997E+02  0.45594000000E+02  0.51100000000E-03 0. -1.
    9900012    2    1    2    0    0  0.74297714333E+00  0.75025369011E+00  0.52669704620E+00  0.90008040080E+02  0.90000305408E+02 0.  0.
        -12    1    1    2    0    0 -0.74297714333E+00 -0.75025369011E+00 -0.52669704620E+00  0.11799599203E+01  0.00000000000E+00 0.  1.
         11    1    3    3    0    0  0.24886766370E+02  0.21796655633E+02  0.26333972138E+01  0.33187047447E+02  0.51100000000E-03 0. -1.
        -11    1    3    3    0    0  0.10490835783E+02  0.51446230863E+01  0.51976177320E+01  0.12788276368E+02  0.51100000000E-03 0.  1.
        -12    1    3    3    0    0 -0.34634625009E+02 -0.26191025029E+02 -0.73043178995E+01  0.44032716264E+02  0.00000000000E+00 0.  1.
</event>
<event>
 7    1  0.3505640E-015  0.9000774E+02  0.7816164E-02  0.1186339E+00
        -11   -1    0    0    0    0  0.00000000000E+00  0.00000000000E+00  0.45593999997E+02  0.45594000000E+02  0.51100000000E-03 0.  1.
         11   -1    0    0    0    0 -0.00000000000E+00 -0.00000000000E+00 -0.45593999997E+02  0.45594000000E+02  0.51100000000E-03 0. -1.
    9900012    2    1    2    0    0  0.10834286332E+01 -0.38597653273E+00  0.26500926315E+00  0.90007735031E+02  0.89999996334E+02 0.  0.
        -12    1    1    2    0    0 -0.10834286332E+01  0.38597653273E+00 -0.26500926315E+00  0.11802649689E+01  0.00000000000E+00 0.  1.
         11    1    3    3    0    0  0.65346955868E+01 -0.77894118578E+01  0.30495918610E+01  0.10614951450E+02  0.51100000000E-03 0. -1.
        -11    1    3    3    0    0 -0.20464527213E+02  0.15515040805E+02  0.31771658877E+02  0.40852804962E+02  0.51100000000E-03 0.  1.
         12    1    3    3    0    0  0.15013260259E+02 -0.81116054802E+01 -0.34556241475E+02  0.38539978619E+02  0.00000000000E+00 0. -1.
</event>
<event>
 7    1  0.3505640E-015  0.9000763E+02  0.7816164E-02  0.1186339E+00
        -11   -1    0    0    0    0  0.00000000000E+00  0.00000000000E+00  0.45593999997E+02  0.45594000000E+02  0.51100000000E-03 0.  1.
         11   -1    0    0    0    0 -0.00000000000E+00 -0.00000000000E+00 -0.45593999997E+02  0.45594000000E+02  0.51100000000E-03 0. -1.
    9900012    2    1    2    0    0 -0.82820422426E+00  0.67509494264E+00  0.50158975131E+00  0.90007632389E+02  0.89999892336E+02 0.  0.
        -12    1    1    2    0    0  0.82820422426E+00 -0.67509494264E+00 -0.50158975131E+00  0.11803676111E+01  0.00000000000E+00 0.  1.
         11    1    3    3    0    0  0.23608678917E+02  0.17669026185E+02 -0.21637925729E+02  0.36575456752E+02  0.51100000000E-03 0. -1.
        -11    1    3    3    0    0  0.56729414850E+01 -0.35319320788E+01 -0.68143431912E+01  0.95442172382E+01  0.51100000000E-03 0.  1.
        -12    1    3    3    0    0 -0.30109824626E+02 -0.13461999163E+02  0.28953858671E+02  0.43887958399E+02  0.00000000000E+00 0.  1.
</event>
<event>
 7    1  0.3505640E-015  0.9000765E+02  0.7816164E-02  0.1186339E+00
        -11   -1    0    0    0    0  0.00000000000E+00  0.00000000000E+00  0.45593999997E+02  0.45594000000E+02  0.51100000000E-03 0. -1.
         11   -1    0    0    0    0 -0.00000000000E+00 -0.00000000000E+00 -0.45593999997E+02  0.45594000000E+02  0.51100000000E-03 0.  1.
    9900012    2    1    2    0    0 -0.60364253933E+00 -0.31155830177E+00  0.96529008771E+00  0.90007645035E+02  0.89999905149E+02 0.  0.
        -12    1    1    2    0    0  0.60364253933E+00  0.31155830177E+00 -0.96529008771E+00  0.11803549653E+01  0.00000000000E+00 0.  1.
         11    1    3    3    0    0  0.84232972877E+00  0.79011345653E+01 -0.78136742722E+00  0.79842333451E+01  0.51100000000E-03 0. -1.
        -11    1    3    3    0    0  0.21073594339E+02 -0.85509848232E+01 -0.33323341427E+02  0.40344278453E+02  0.51100000000E-03 0.  1.
         12    1    3    3    0    0 -0.22519566607E+02  0.33829195610E+00  0.35069998941E+02  0.41679133237E+02  0.00000000000E+00 0. -1.
</event>
<event>
 7    1  0.3505640E-015  0.9000773E+02  0.7816164E-02  0.1186339E+00
        -11   -1    0    0    0    0  0.00000000000E+00  0.00000000000E+00  0.45593999997E+02  0.45594000000E+02  0.51100000000E-03 0. -1.
         11   -1    0    0    0    0 -0.00000000000E+00 -0.00000000000E+00 -0.45593999997E+02  0.45594000000E+02  0.51100000000E-03 0.  1.
    9900012    2    1    2    0    0 -0.88158160723E+00 -0.66978330052E+00  0.40895489116E+00  0.90007728886E+02  0.89999990107E+02 0.  0.
        -12    1    1    2    0    0  0.88158160723E+00  0.66978330052E+00 -0.40895489116E+00  0.11802711141E+01  0.00000000000E+00 0.  1.
         11    1    3    3    0    0  0.93712887608E+01  0.16018338389E+01 -0.23540782470E+01  0.97943151542E+01  0.51100000000E-03 0. -1.
        -11    1    3    3    0    0 -0.19835760992E+02  0.81875616768E+01 -0.34338620739E+02  0.40492399965E+02  0.51100000000E-03 0.  1.
         12    1    3    3    0    0  0.95828906243E+01 -0.10459178816E+02  0.37101653878E+02  0.39721013767E+02  0.00000000000E+00 0. -1.
</event>
<event>
 7    1  0.3505640E-015  0.9000771E+02  0.7816164E-02  0.1186339E+00
        -11   -1    0    0    0    0  0.00000000000E+00  0.00000000000E+00  0.45593999997E+02  0.45594000000E+02  0.51100000000E-03 0.  1.
         11   -1    0    0    0    0 -0.00000000000E+00 -0.00000000000E+00 -0.45593999997E+02  0.45594000000E+02  0.51100000000E-03 0. -1.
    9900012    2    1    2    0    0 -0.93102787132E-01 -0.81429729001E+00 -0.84931122352E+00  0.90007712849E+02  0.89999973858E+02 0.  0.
        -12    1    1    2    0    0  0.93102787132E-01  0.81429729001E+00  0.84931122352E+00  0.11802871515E+01  0.00000000000E+00 0.  1.
         11    1    3    3    0    0 -0.69321042571E+01  0.71320127753E+01  0.26483956900E+01  0.10292408642E+02  0.51100000000E-03 0. -1.
        -11    1    3    3    0    0 -0.14451709035E+02  0.10007578991E+02  0.30843120011E+02  0.35500726521E+02  0.51100000000E-03 0.  1.
         12    1    3    3    0    0  0.21290710505E+02 -0.17953889057E+02 -0.34340826924E+02  0.44214577685E+02  0.00000000000E+00 0. -1.
</event>
<event>
 7    1  0.3505640E-015  0.9000772E+02  0.7816164E-02  0.1186339E+00
        -11   -1    0    0    0    0  0.00000000000E+00  0.00000000000E+00  0.45593999997E+02  0.45594000000E+02  0.51100000000E-03 0.  1.
         11   -1    0    0    0    0 -0.00000000000E+00 -0.00000000000E+00 -0.45593999997E+02  0.45594000000E+02  0.51100000000E-03 0. -1.
    9900012    2    1    2    0    0 -0.69662258302E+00  0.86707343687E+00  0.39490772110E+00  0.90007723983E+02  0.89999985140E+02 0.  0.
        -12    1    1    2    0    0  0.69662258302E+00 -0.86707343687E+00 -0.39490772110E+00  0.11802760170E+01  0.00000000000E+00 0.  1.
         11    1    3    3    0    0 -0.96103848903E+01 -0.85270056932E-01 -0.42141002534E+02  0.43223036261E+02  0.51100000000E-03 0. -1.
        -11    1    3    3    0    0 -0.12130039937E+01  0.58749218668E+01  0.57328208191E+01  0.82976695786E+01  0.51100000000E-03 0.  1.
        -12    1    3    3    0    0  0.10126766301E+02 -0.49225783730E+01  0.36803089436E+02  0.38487018144E+02  0.00000000000E+00 0.  1.
</event>
<event>
 7    1  0.4719088E-015  0.9000775E+02  0.7816164E-02  0.1186339E+00
        -11   -1    0    0    0    0  0.00000000000E+00  0.00000000000E+00  0.45593999997E+02  0.45594000000E+02  0.51100000000E-03 0.  1.
         11   -1    0    0    0    0 -0.00000000000E+00 -0.00000000000E+00 -0.45593999997E+02  0.45594000000E+02  0.51100000000E-03 0. -1.
    9900012    2    1    2    0    0 -0.91876562614E+00 -0.28949018794E+00 -0.68195814734E+00  0.90007745045E+02  0.90000006479E+02 0.  0.
        -12    1    1    2    0    0  0.91876562614E+00  0.28949018794E+00  0.68195814734E+00  0.11802549553E+01  0.00000000000E+00 0.  1.
         11    1    3    3    0    0 -0.18468448433E+01 -0.75015989047E+01  0.55016622684E+01  0.94843613374E+01  0.51100000000E-03 0. -1.
        -11    1    3    3    0    0  0.25904417236E+00  0.25916958171E+02  0.30085164435E+02  0.39709859532E+02  0.51100000000E-03 0.  1.
         12    1    3    3    0    0  0.66903504482E+00 -0.18704849455E+02 -0.36268784851E+02  0.40813524175E+02  0.00000000000E+00 0. -1.
</event>
<event>
 7    1  0.3505640E-015  0.9000777E+02  0.7816164E-02  0.1186339E+00
        -11   -1    0    0    0    0  0.00000000000E+00  0.00000000000E+00  0.45593999997E+02  0.45594000000E+02  0.51100000000E-03 0.  1.
         11   -1    0    0    0    0 -0.00000000000E+00 -0.00000000000E+00 -0.45593999997E+02  0.45594000000E+02  0.51100000000E-03 0. -1.
    9900012    2    1    2    0    0 -0.67721933022E+00 -0.30578648027E+00 -0.91696264220E+00  0.90007766176E+02  0.90000027889E+02 0.  0.
        -12    1    1    2    0    0  0.67721933022E+00  0.30578648027E+00  0.91696264220E+00  0.11802338243E+01  0.00000000000E+00 0.  1.
         11    1    3    3    0    0  0.16613105391E+02 -0.15616737469E+02 -0.35019394390E+02  0.41787985637E+02  0.51100000000E-03 0. -1.
        -11    1    3    3    0    0  0.65167214977E+01  0.20158528320E+01  0.66495373972E+01  0.95261571253E+01  0.51100000000E-03 0.  1.
        -12    1    3    3    0    0 -0.23807046218E+02  0.13295098156E+02  0.27452894351E+02  0.38693623413E+02  0.00000000000E+00 0.  1.
</event>
<event>
 7    1  0.3505640E-015  0.9000773E+02  0.7816164E-02  0.1186339E+00
        -11   -1    0    0    0    0  0.00000000000E+00  0.00000000000E+00  0.45593999997E+02  0.45594000000E+02  0.51100000000E-03 0. -1.
         11   -1    0    0    0    0 -0.00000000000E+00 -0.00000000000E+00 -0.45593999997E+02  0.45594000000E+02  0.51100000000E-03 0.  1.
    9900012    2    1    2    0    0 -0.87506236061E+00 -0.63174034252E-01  0.78950801735E+00  0.90007725454E+02  0.89999986630E+02 0.  0.
        -12    1    1    2    0    0  0.87506236061E+00  0.63174034252E-01 -0.78950801735E+00  0.11802745456E+01  0.00000000000E+00 0.  1.
         11    1    3    3    0    0  0.34043519772E+01  0.82920167304E+01  0.26625683590E+01  0.93507445890E+01  0.51100000000E-03 0. -1.
        -11    1    3    3    0    0  0.34520081639E+02  0.60947321483E+01 -0.13640276089E+02  0.37614344716E+02  0.51100000000E-03 0.  1.
         12    1    3    3    0    0 -0.38799495977E+02 -0.14449922913E+02  0.11767215748E+02  0.43042636150E+02  0.00000000000E+00 0. -1.
</event>
<event>
 7    1  0.3505640E-015  0.9000746E+02  0.7816164E-02  0.1186340E+00
        -11   -1    0    0    0    0  0.00000000000E+00  0.00000000000E+00  0.45593999997E+02  0.45594000000E+02  0.51100000000E-03 0.  1.
         11   -1    0    0    0    0 -0.00000000000E+00 -0.00000000000E+00 -0.45593999997E+02  0.45594000000E+02  0.51100000000E-03 0. -1.
    9900012    2    1    2    0    0 -0.75675893951E+00  0.49753097953E+00 -0.75727036501E+00  0.90007457932E+02  0.89999715576E+02 0.  0.
        -12    1    1    2    0    0  0.75675893951E+00 -0.49753097953E+00  0.75727036501E+00  0.11805420678E+01  0.00000000000E+00 0.  1.
         11    1    3    3    0    0 -0.13889435942E+02  0.39996769598E+02 -0.30983657777E+01  0.42453007900E+02  0.51100000000E-03 0. -1.
        -11    1    3    3    0    0  0.87058480604E+01 -0.11256108277E+01  0.15765336644E+01  0.89187582567E+01  0.51100000000E-03 0.  1.
        -12    1    3    3    0    0  0.44268289417E+01 -0.38373627790E+02  0.76456174837E+00  0.38635691775E+02  0.00000000000E+00 0.  1.
</event>
<event>
 7    1  0.3505640E-015  0.9000769E+02  0.7816164E-02  0.1186339E+00
        -11   -1    0    0    0    0  0.00000000000E+00  0.00000000000E+00  0.45593999997E+02  0.45594000000E+02  0.51100000000E-03 0. -1.
         11   -1    0    0    0    0 -0.00000000000E+00 -0.00000000000E+00 -0.45593999997E+02  0.45594000000E+02  0.51100000000E-03 0.  1.
    9900012    2    1    2    0    0  0.61427675182E+00 -0.91509499850E+00 -0.42236698480E+00  0.90007691289E+02  0.89999952014E+02 0.  0.
        -12    1    1    2    0    0 -0.61427675182E+00  0.91509499850E+00  0.42236698480E+00  0.11803087113E+01  0.00000000000E+00 0.  1.
         11    1    3    3    0    0 -0.23338081288E+02 -0.19108181520E+02 -0.20757644165E+02  0.36615139366E+02  0.51100000000E-03 0. -1.
        -11    1    3    3    0    0 -0.18405353169E+01 -0.44732360665E+01 -0.76802749197E+01  0.90765651137E+01  0.51100000000E-03 0.  1.
        -12    1    3    3    0    0  0.25792893357E+02  0.22666322588E+02  0.28015552100E+02  0.44315986809E+02  0.00000000000E+00 0.  1.
</event>
<event>
 7    1  0.3505640E-015  0.9000774E+02  0.7816164E-02  0.1186339E+00
        -11   -1    0    0    0    0  0.00000000000E+00  0.00000000000E+00  0.45593999997E+02  0.45594000000E+02  0.51100000000E-03 0. -1.
         11   -1    0    0    0    0 -0.00000000000E+00 -0.00000000000E+00 -0.45593999997E+02  0.45594000000E+02  0.51100000000E-03 0.  1.
    9900012    2    1    2    0    0  0.59451777328E+00  0.99639238430E+00 -0.21625321114E+00  0.90007739598E+02  0.90000000960E+02 0.  0.
        -12    1    1    2    0    0 -0.59451777328E+00 -0.99639238430E+00  0.21625321114E+00  0.11802604024E+01  0.00000000000E+00 0.  1.
         11    1    3    3    0    0  0.32614798296E+02 -0.93570967886E+01 -0.17618416779E+02  0.38232040728E+02  0.51100000000E-03 0. -1.
        -11    1    3    3    0    0 -0.10062881886E+02  0.12336503301E+02 -0.82667824414E+01  0.17938522730E+02  0.51100000000E-03 0.  1.
        -12    1    3    3    0    0 -0.21957398637E+02 -0.19830141279E+01  0.25668946009E+02  0.33837176140E+02  0.00000000000E+00 0.  1.
</event>
<event>
 7    1  0.3505640E-015  0.9000788E+02  0.7816164E-02  0.1186339E+00
        -11   -1    0    0    0    0  0.00000000000E+00  0.00000000000E+00  0.45593999997E+02  0.45594000000E+02  0.51100000000E-03 0.  1.
         11   -1    0    0    0    0 -0.00000000000E+00 -0.00000000000E+00 -0.45593999997E+02  0.45594000000E+02  0.51100000000E-03 0. -1.
    9900012    2    1    2    0    0 -0.11508245657E+01  0.20974531214E+00  0.15586207393E+00  0.90007879979E+02  0.90000143195E+02 0.  0.
        -12    1    1    2    0    0  0.11508245657E+01 -0.20974531214E+00 -0.15586207393E+00  0.11801200206E+01  0.00000000000E+00 0.  1.
         11    1    3    3    0    0  0.16082601973E+01  0.44321939916E+00 -0.88017440537E+01  0.89584397607E+01  0.51100000000E-03 0. -1.
        -11    1    3    3    0    0 -0.24681679452E+02 -0.32529785858E+02  0.98521646013E+01  0.42005207012E+02  0.51100000000E-03 0.  1.
         12    1    3    3    0    0  0.21922594689E+02  0.32296311771E+02 -0.89455847366E+00  0.39044233207E+02  0.00000000000E+00 0. -1.
</event>
<event>
 7    1  0.3505640E-015  0.9000776E+02  0.7816164E-02  0.1186339E+00
        -11   -1    0    0    0    0  0.00000000000E+00  0.00000000000E+00  0.45593999997E+02  0.45594000000E+02  0.51100000000E-03 0. -1.
         11   -1    0    0    0    0 -0.00000000000E+00 -0.00000000000E+00 -0.45593999997E+02  0.45594000000E+02  0.51100000000E-03 0.  1.
    9900012    2    1    2    0    0 -0.71020533648E+00  0.94235072227E+00 -0.23475440059E-01  0.90007759516E+02  0.90000021142E+02 0.  0.
        -12    1    1    2    0    0  0.71020533648E+00 -0.94235072227E+00  0.23475440059E-01  0.11802404840E+01  0.00000000000E+00 0.  1.
         11    1    3    3    0    0  0.61132049317E+01 -0.36915188806E+01 -0.13142606166E+02  0.14957495889E+02  0.51100000000E-03 0. -1.
        -11    1    3    3    0    0  0.27164380769E+02 -0.10088021322E+02 -0.10839021598E+02  0.30937940239E+02  0.51100000000E-03 0.  1.
         12    1    3    3    0    0 -0.33987791037E+02  0.14721890925E+02  0.23958152324E+02  0.44112323389E+02  0.00000000000E+00 0. -1.
</event>
<event>
 7    1  0.3505640E-015  0.9000776E+02  0.7816164E-02  0.1186339E+00
        -11   -1    0    0    0    0  0.00000000000E+00  0.00000000000E+00  0.45593999997E+02  0.45594000000E+02  0.51100000000E-03 0.  1.
         11   -1    0    0    0    0 -0.00000000000E+00 -0.00000000000E+00 -0.45593999997E+02  0.45594000000E+02  0.51100000000E-03 0. -1.
    9900012    2    1    2    0    0 -0.11067253519E+00 -0.11737965293E+01  0.54042524196E-01  0.90007759645E+02  0.90000021272E+02 0.  0.
        -12    1    1    2    0    0  0.11067253519E+00  0.11737965293E+01 -0.54042524196E-01  0.11802403554E+01  0.00000000000E+00 0.  1.
         11    1    3    3    0    0 -0.50999751851E+01 -0.12346070392E+01  0.72353952987E+01  0.89378379276E+01  0.51100000000E-03 0. -1.
        -11    1    3    3    0    0  0.35891837927E+02 -0.22069746883E+02  0.11830335813E+01  0.42150887606E+02  0.51100000000E-03 0.  1.
         12    1    3    3    0    0 -0.30902535277E+02  0.22130557393E+02 -0.83643863558E+01  0.38919034111E+02  0.00000000000E+00 0. -1.
</event>
<event>
 7    1  0.3505640E-015  0.9000769E+02  0.7816164E-02  0.1186339E+00
        -11   -1    0    0    0    0  0.00000000000E+00  0.00000000000E+00  0.45593999997E+02  0.45594000000E+02  0.51100000000E-03 0.  1.
         11   -1    0    0    0    0 -0.00000000000E+00 -0.00000000000E+00 -0.45593999997E+02  0.45594000000E+02  0.51100000000E-03 0. -1.
    9900012    2    1    2    0    0 -0.10688947855E+01 -0.47602280072E+00  0.15487860973E+00  0.90007694466E+02  0.89999955233E+02 0.  0.
        -12    1    1    2    0    0  0.10688947855E+01  0.47602280072E+00 -0.15487860973E+00  0.11803055337E+01  0.00000000000E+00 0.  1.
         11    1    3    3    0    0 -0.33698689123E+01  0.34641657841E+02 -0.15841056616E+02  0.38240548498E+02  0.51100000000E-03 0. -1.
        -11    1    3    3    0    0  0.11779810295E+01  0.67619549240E+01 -0.15896203553E+00  0.68656349226E+01  0.51100000000E-03 0.  1.
        -12    1    3    3    0    0  0.11229930973E+01 -0.41879635566E+02  0.16154897262E+02  0.44901511045E+02  0.00000000000E+00 0.  1.
</event>
<event>
 7    1  0.3505640E-015  0.9000778E+02  0.7816164E-02  0.1186339E+00
        -11   -1    0    0    0    0  0.00000000000E+00  0.00000000000E+00  0.45593999997E+02  0.45594000000E+02  0.51100000000E-03 0.  1.
         11   -1    0    0    0    0 -0.00000000000E+00 -0.00000000000E+00 -0.45593999997E+02  0.45594000000E+02  0.51100000000E-03 0. -1.
    9900012    2    1    2    0    0  0.17361486791E+00  0.10194558390E+01 -0.56876169345E+00  0.90007778752E+02  0.90000040632E+02 0.  0.
        -12    1    1    2    0    0 -0.17361486791E+00 -0.10194558390E+01  0.56876169345E+00  0.11802212479E+01  0.00000000000E+00 0.  1.
         11    1    3    3    0    0 -0.41254975557E+01 -0.74696922266E+01  0.67591056781E+01  0.10885841349E+02  0.51100000000E-03 0. -1.
        -11    1    3    3    0    0 -0.15401172198E+02  0.39297148763E+02 -0.34275189942E+01  0.42346309080E+02  0.51100000000E-03 0.  1.
         12    1    3    3    0    0  0.19700284622E+02 -0.30808000697E+02 -0.39003483774E+01  0.36775628324E+02  0.00000000000E+00 0. -1.
</event>
<event>
 7    1  0.3505640E-015  0.9000782E+02  0.7816164E-02  0.1186339E+00
        -11   -1    0    0    0    0  0.00000000000E+00  0.00000000000E+00  0.45593999997E+02  0.45594000000E+02  0.51100000000E-03 0.  1.
         11   -1    0    0    0    0 -0.00000000000E+00 -0.00000000000E+00 -0.45593999997E+02  0.45594000000E+02  0.51100000000E-03 0. -1.
    9900012    2    1    2    0    0  0.27076237782E+00 -0.17972352741E+00 -0.11345522751E+01  0.90007821337E+02  0.90000083779E+02 0.  0.
        -12    1    1    2    0    0 -0.27076237782E+00  0.17972352741E+00  0.11345522751E+01  0.11801786629E+01  0.00000000000E+00 0.  1.
         11    1    3    3    0    0 -0.18288042824E+01 -0.16067520030E+02 -0.34288042783E+02  0.37910151717E+02  0.51100000000E-03 0. -1.
        -11    1    3    3    0    0 -0.43564329014E+01  0.85171455344E+01 -0.62940628622E+01  0.11451441099E+02  0.51100000000E-03 0.  1.
        -12    1    3    3    0    0  0.64559995616E+01  0.73706509684E+01  0.39447553371E+02  0.40646228521E+02  0.00000000000E+00 0.  1.
</event>
<event>
 7    1  0.3505640E-015  0.9000772E+02  0.7816164E-02  0.1186339E+00
        -11   -1    0    0    0    0  0.00000000000E+00  0.00000000000E+00  0.45593999997E+02  0.45594000000E+02  0.51100000000E-03 0.  1.
         11   -1    0    0    0    0 -0.00000000000E+00 -0.00000000000E+00 -0.45593999997E+02  0.45594000000E+02  0.51100000000E-03 0. -1.
    9900012    2    1    2    0    0 -0.11007512939E+01  0.68528244977E-01 -0.42036709278E+00  0.90007721209E+02  0.89999982329E+02 0.  0.
        -12    1    1    2    0    0  0.11007512939E+01 -0.68528244977E-01  0.42036709278E+00  0.11802787909E+01  0.00000000000E+00 0.  1.
         11    1    3    3    0    0 -0.39301568158E+02  0.49819277989E+01  0.92009964290E+01  0.40670520034E+02  0.51100000000E-03 0. -1.
        -11    1    3    3    0    0  0.16160823198E+02  0.11024895581E+02  0.21876149568E+01  0.19685176872E+02  0.51100000000E-03 0.  1.
        -12    1    3    3    0    0  0.22039993666E+02 -0.15938295135E+02 -0.11808978479E+02  0.29652024304E+02  0.00000000000E+00 0.  1.
</event>
<event>
 7    1  0.3505640E-015  0.9000778E+02  0.7816164E-02  0.1186339E+00
        -11   -1    0    0    0    0  0.00000000000E+00  0.00000000000E+00  0.45593999997E+02  0.45594000000E+02  0.51100000000E-03 0.  1.
         11   -1    0    0    0    0 -0.00000000000E+00 -0.00000000000E+00 -0.45593999997E+02  0.45594000000E+02  0.51100000000E-03 0. -1.
    9900012    2    1    2    0    0  0.40452559792E-01  0.35327308669E+00 -0.11253770955E+01  0.90007783117E+02  0.90000045054E+02 0.  0.
        -12    1    1    2    0    0 -0.40452559792E-01 -0.35327308669E+00  0.11253770955E+01  0.11802168828E+01  0.00000000000E+00 0.  1.
         11    1    3    3    0    0  0.74405797415E+01  0.15475677346E+01  0.26259217776E+01  0.80406876712E+01  0.51100000000E-03 0. -1.
        -11    1    3    3    0    0 -0.82804539496E+01  0.15874557160E+02  0.35166282363E+02  0.39461815697E+02  0.51100000000E-03 0.  1.
         12    1    3    3    0    0  0.88032676794E+00 -0.17068851808E+02 -0.38917581236E+02  0.42505279749E+02  0.00000000000E+00 0. -1.
</event>
<event>
 7    1  0.3505640E-015  0.9000771E+02  0.7816164E-02  0.1186339E+00
        -11   -1    0    0    0    0  0.00000000000E+00  0.00000000000E+00  0.45593999997E+02  0.45594000000E+02  0.51100000000E-03 0.  1.
         11   -1    0    0    0    0 -0.00000000000E+00 -0.00000000000E+00 -0.45593999997E+02  0.45594000000E+02  0.51100000000E-03 0. -1.
    9900012    2    1    2    0    0  0.72124907642E+00  0.16296586820E+00  0.91995373351E+00  0.90007714875E+02  0.89999975911E+02 0.  0.
        -12    1    1    2    0    0 -0.72124907642E+00 -0.16296586820E+00 -0.91995373351E+00  0.11802851250E+01  0.00000000000E+00 0.  1.
         11    1    3    3    0    0 -0.18208093740E+02  0.86020875830E+01 -0.31457367046E+02  0.37350991020E+02  0.51100000000E-03 0. -1.
        -11    1    3    3    0    0 -0.38896696087E+00 -0.41255806112E+01 -0.72557322951E+01  0.83556784330E+01  0.51100000000E-03 0.  1.
        -12    1    3    3    0    0  0.19318309777E+02 -0.43135411036E+01  0.39633053075E+02  0.44301045422E+02  0.00000000000E+00 0.  1.
</event>
<event>
 7    1  0.3505640E-015  0.9000783E+02  0.7816164E-02  0.1186339E+00
        -11   -1    0    0    0    0  0.00000000000E+00  0.00000000000E+00  0.45593999997E+02  0.45594000000E+02  0.51100000000E-03 0.  1.
         11   -1    0    0    0    0 -0.00000000000E+00 -0.00000000000E+00 -0.45593999997E+02  0.45594000000E+02  0.51100000000E-03 0. -1.
    9900012    2    1    2    0    0 -0.56881909527E+00 -0.79564785887E+00 -0.66045558010E+00  0.90007825330E+02  0.90000087824E+02 0.  0.
        -12    1    1    2    0    0  0.56881909527E+00  0.79564785887E+00  0.66045558010E+00  0.11801746700E+01  0.00000000000E+00 0.  1.
         11    1    3    3    0    0  0.81371411439E+01  0.28802609267E+01  0.16624133597E+01  0.87904827764E+01  0.51100000000E-03 0. -1.
        -11    1    3    3    0    0  0.32232662224E+02  0.12170015351E+02 -0.11591299908E+02  0.36351231361E+02  0.51100000000E-03 0.  1.
         12    1    3    3    0    0 -0.40938622463E+02 -0.15845924136E+02  0.92684309678E+01  0.44866111192E+02  0.00000000000E+00 0. -1.
</event>
<event>
 7    1  0.3505640E-015  0.9000768E+02  0.7816164E-02  0.1186339E+00
        -11   -1    0    0    0    0  0.00000000000E+00  0.00000000000E+00  0.45593999997E+02  0.45594000000E+02  0.51100000000E-03 0.  1.
         11   -1    0    0    0    0 -0.00000000000E+00 -0.00000000000E+00 -0.45593999997E+02  0.45594000000E+02  0.51100000000E-03 0. -1.
    9900012    2    1    2    0    0 -0.15988297878E+00 -0.42934738734E+00 -0.10877733494E+01  0.90007681142E+02  0.89999941733E+02 0.  0.
        -12    1    1    2    0    0  0.15988297878E+00  0.42934738734E+00  0.10877733494E+01  0.11803188576E+01  0.00000000000E+00 0.  1.
         11    1    3    3    0    0  0.46659758998E+01 -0.13203994382E+02  0.18060286490E+01  0.14120146546E+02  0.51100000000E-03 0. -1.
        -11    1    3    3    0    0  0.52518989441E+01 -0.60170527031E+01  0.33100930334E+02  0.34050828991E+02  0.51100000000E-03 0.  1.
         12    1    3    3    0    0 -0.10077757823E+02  0.18791699698E+02 -0.35994732332E+02  0.41836705606E+02  0.00000000000E+00 0. -1.
</event>
<event>
 7    1  0.3505640E-015  0.9000778E+02  0.7816164E-02  0.1186339E+00
        -11   -1    0    0    0    0  0.00000000000E+00  0.00000000000E+00  0.45593999997E+02  0.45594000000E+02  0.51100000000E-03 0. -1.
         11   -1    0    0    0    0 -0.00000000000E+00 -0.00000000000E+00 -0.45593999997E+02  0.45594000000E+02  0.51100000000E-03 0.  1.
    9900012    2    1    2    0    0  0.11328564272E+01 -0.12026873831E+00 -0.30835000338E+00  0.90007784774E+02  0.90000046733E+02 0.  0.
        -12    1    1    2    0    0 -0.11328564272E+01  0.12026873831E+00  0.30835000338E+00  0.11802152255E+01  0.00000000000E+00 0.  1.
         11    1    3    3    0    0  0.32374515569E+02 -0.16954979711E+02  0.18745729906E+02  0.41072898428E+02  0.51100000000E-03 0. -1.
        -11    1    3    3    0    0  0.21561229346E+01 -0.18421833776E+01 -0.89061617739E+01  0.93467761025E+01  0.51100000000E-03 0.  1.
        -12    1    3    3    0    0 -0.33397782077E+02  0.18676894350E+02 -0.10147918135E+02  0.39588110244E+02  0.00000000000E+00 0.  1.
</event>
<event>
 7    1  0.3505640E-015  0.9000772E+02  0.7816164E-02  0.1186339E+00
        -11   -1    0    0    0    0  0.00000000000E+00  0.00000000000E+00  0.45593999997E+02  0.45594000000E+02  0.51100000000E-03 0. -1.
         11   -1    0    0    0    0 -0.00000000000E+00 -0.00000000000E+00 -0.45593999997E+02  0.45594000000E+02  0.51100000000E-03 0.  1.
    9900012    2    1    2    0    0  0.22438169650E-02  0.97858065760E+00 -0.65987879214E+00  0.90007718187E+02  0.89999979267E+02 0.  0.
        -12    1    1    2    0    0 -0.22438169650E-02 -0.97858065760E+00  0.65987879214E+00  0.11802818132E+01  0.00000000000E+00 0.  1.
         11    1    3    3    0    0 -0.15797244906E+02  0.23080119499E+01  0.11540423664E+02  0.19699270149E+02  0.51100000000E-03 0. -1.
        -11    1    3    3    0    0  0.24387814289E+02 -0.29152921346E+02  0.16901729398E+01  0.38046221805E+02  0.51100000000E-03 0.  1.
         12    1    3    3    0    0 -0.85883255664E+01  0.27823490054E+02 -0.13890475396E+02  0.32262226233E+02  0.00000000000E+00 0. -1.
</event>
<event>
 7    1  0.3505640E-015  0.9000762E+02  0.7816164E-02  0.1186339E+00
        -11   -1    0    0    0    0  0.00000000000E+00  0.00000000000E+00  0.45593999997E+02  0.45594000000E+02  0.51100000000E-03 0.  1.
         11   -1    0    0    0    0 -0.00000000000E+00 -0.00000000000E+00 -0.45593999997E+02  0.45594000000E+02  0.51100000000E-03 0. -1.
    9900012    2    1    2    0    0 -0.34504732104E-01 -0.61630020525E+00 -0.10061245183E+01  0.90007617407E+02  0.89999877157E+02 0.  0.
        -12    1    1    2    0    0  0.34504732104E-01  0.61630020525E+00  0.10061245183E+01  0.11803825930E+01  0.00000000000E+00 0.  1.
         11    1    3    3    0    0  0.10497959346E+02 -0.87566561502E+01 -0.36284694549E+02  0.38774543662E+02  0.51100000000E-03 0. -1.
        -11    1    3    3    0    0  0.20174088935E+01 -0.52942022017E+01 -0.46149213317E+01  0.73072576768E+01  0.51100000000E-03 0.  1.
        -12    1    3    3    0    0 -0.12549872971E+02  0.13434558147E+02  0.39893491363E+02  0.43925816069E+02  0.00000000000E+00 0.  1.
</event>
<event>
 7    1  0.3505640E-015  0.9000754E+02  0.7816164E-02  0.1186339E+00
        -11   -1    0    0    0    0  0.00000000000E+00  0.00000000000E+00  0.45593999997E+02  0.45594000000E+02  0.51100000000E-03 0.  1.
         11   -1    0    0    0    0 -0.00000000000E+00 -0.00000000000E+00 -0.45593999997E+02  0.45594000000E+02  0.51100000000E-03 0. -1.
    9900012    2    1    2    0    0 -0.77737685475E+00  0.81073139961E+00  0.36314674234E+00  0.90007544269E+02  0.89999803053E+02 0.  0.
        -12    1    1    2    0    0  0.77737685475E+00 -0.81073139961E+00 -0.36314674234E+00  0.11804557311E+01  0.00000000000E+00 0.  1.
         11    1    3    3    0    0 -0.28187758812E+02 -0.86873354116E+01 -0.27459794929E+02  0.40299626316E+02  0.51100000000E-03 0. -1.
        -11    1    3    3    0    0 -0.50679652942E+01 -0.25295204520E+01  0.80005081763E+01  0.98025954359E+01  0.51100000000E-03 0.  1.
        -12    1    3    3    0    0  0.32478347251E+02  0.12027587263E+02  0.19822433495E+02  0.39905322517E+02  0.00000000000E+00 0.  1.
</event>
<event>
 7    1  0.3505640E-015  0.9000751E+02  0.7816164E-02  0.1186340E+00
        -11   -1    0    0    0    0  0.00000000000E+00  0.00000000000E+00  0.45593999997E+02  0.45594000000E+02  0.51100000000E-03 0.  1.
         11   -1    0    0    0    0 -0.00000000000E+00 -0.00000000000E+00 -0.45593999997E+02  0.45594000000E+02  0.51100000000E-03 0. -1.
    9900012    2    1    2    0    0  0.63330516928E+00  0.62640394479E-01 -0.99426261364E+00  0.90007509678E+02  0.89999768005E+02 0.  0.
        -12    1    1    2    0    0 -0.63330516928E+00 -0.62640394479E-01  0.99426261364E+00  0.11804903224E+01  0.00000000000E+00 0.  1.
         11    1    3    3    0    0 -0.36056187303E+02  0.15881789906E+02 -0.16408293123E+02  0.42679174980E+02  0.51100000000E-03 0. -1.
        -11    1    3    3    0    0  0.59420742009E+00 -0.42814075088E+01  0.74392631998E+01  0.86038462290E+01  0.51100000000E-03 0.  1.
        -12    1    3    3    0    0  0.36095285052E+02 -0.11537742003E+02  0.79747673096E+01  0.38724488469E+02  0.00000000000E+00 0.  1.
</event>
<event>
 7    1  0.3505640E-015  0.9000778E+02  0.7816164E-02  0.1186339E+00
        -11   -1    0    0    0    0  0.00000000000E+00  0.00000000000E+00  0.45593999997E+02  0.45594000000E+02  0.51100000000E-03 0.  1.
         11   -1    0    0    0    0 -0.00000000000E+00 -0.00000000000E+00 -0.45593999997E+02  0.45594000000E+02  0.51100000000E-03 0. -1.
    9900012    2    1    2    0    0  0.11385510912E+01 -0.65779353638E-01  0.30380041397E+00  0.90007779596E+02  0.90000041487E+02 0.  0.
        -12    1    1    2    0    0 -0.11385510912E+01  0.65779353638E-01 -0.30380041397E+00  0.11802204041E+01  0.00000000000E+00 0.  1.
         11    1    3    3    0    0 -0.41329554692E+02 -0.25446542033E+01 -0.27074109609E+01  0.41496233931E+02  0.51100000000E-03 0. -1.
        -11    1    3    3    0    0  0.42272505312E+01  0.45448588132E+01  0.77430315940E+01  0.99237053166E+01  0.51100000000E-03 0.  1.
        -12    1    3    3    0    0  0.38240855252E+02 -0.20659839635E+01 -0.47318202190E+01  0.38587840348E+02  0.00000000000E+00 0.  1.
</event>
<event>
 7    1  0.3505640E-015  0.9000752E+02  0.7816164E-02  0.1186339E+00
        -11   -1    0    0    0    0  0.00000000000E+00  0.00000000000E+00  0.45593999997E+02  0.45594000000E+02  0.51100000000E-03 0. -1.
         11   -1    0    0    0    0 -0.00000000000E+00 -0.00000000000E+00 -0.45593999997E+02  0.45594000000E+02  0.51100000000E-03 0.  1.
    9900012    2    1    2    0    0 -0.92458594496E+00  0.57733145960E+00  0.45316797387E+00  0.90007520438E+02  0.89999778907E+02 0.  0.
        -12    1    1    2    0    0  0.92458594496E+00 -0.57733145960E+00 -0.45316797387E+00  0.11804795620E+01  0.00000000000E+00 0.  1.
         11    1    3    3    0    0  0.21799465325E+02 -0.32662364367E+02 -0.76427773678E+01  0.40005734347E+02  0.51100000000E-03 0. -1.
        -11    1    3    3    0    0  0.24994307276E+01  0.31207852652E+00  0.81427435451E+01  0.85234276950E+01  0.51100000000E-03 0.  1.
        -12    1    3    3    0    0 -0.25223481997E+02  0.32927617300E+02 -0.46798203412E-01  0.41478358396E+02  0.00000000000E+00 0.  1.
</event>
<event>
 7    1  0.3505640E-015  0.9000727E+02  0.7816164E-02  0.1186340E+00
        -11   -1    0    0    0    0  0.00000000000E+00  0.00000000000E+00  0.45593999997E+02  0.45594000000E+02  0.51100000000E-03 0. -1.
         11   -1    0    0    0    0 -0.00000000000E+00 -0.00000000000E+00 -0.45593999997E+02  0.45594000000E+02  0.51100000000E-03 0.  1.
    9900012    2    1    2    0    0  0.39093828443E+00  0.76899561064E+00  0.80618003757E+00  0.90007274272E+02  0.89999529491E+02 0.  0.
        -12    1    1    2    0    0 -0.39093828443E+00 -0.76899561064E+00 -0.80618003757E+00  0.11807257278E+01  0.00000000000E+00 0.  1.
         11    1    3    3    0    0  0.42701317059E+01  0.23567824829E+00 -0.23829633054E+02  0.24210348629E+02  0.51100000000E-03 0. -1.
        -11    1    3    3    0    0  0.34241405586E+01  0.98562136889E+01 -0.18404796660E+02  0.21156706435E+02  0.51100000000E-03 0.  1.
         12    1    3    3    0    0 -0.73033339801E+01 -0.93228963266E+01  0.43040609751E+02  0.44640219207E+02  0.00000000000E+00 0. -1.
</event>
<event>
 7    1  0.3505640E-015  0.9000781E+02  0.7816164E-02  0.1186339E+00
        -11   -1    0    0    0    0  0.00000000000E+00  0.00000000000E+00  0.45593999997E+02  0.45594000000E+02  0.51100000000E-03 0.  1.
         11   -1    0    0    0    0 -0.00000000000E+00 -0.00000000000E+00 -0.45593999997E+02  0.45594000000E+02  0.51100000000E-03 0. -1.
    9900012    2    1    2    0    0 -0.10238880517E+01  0.30354247886E+00 -0.50236235130E+00  0.90007808189E+02  0.90000070457E+02 0.  0.
        -12    1    1    2    0    0  0.10238880517E+01 -0.30354247886E+00  0.50236235130E+00  0.11801918110E+01  0.00000000000E+00 0.  1.
         11    1    3    3    0    0  0.57827144243E+01 -0.66454186766E+01  0.47150136768E+01  0.99916329864E+01  0.51100000000E-03 0. -1.
        -11    1    3    3    0    0  0.13750169478E+02  0.38498954216E+02  0.44965704170E+01  0.41127311876E+02  0.51100000000E-03 0.  1.
         12    1    3    3    0    0 -0.20556771954E+02 -0.31549993060E+02 -0.97139464451E+01  0.38888863326E+02  0.00000000000E+00 0. -1.
</event>
<event>
 7    1  0.3505640E-015  0.9000740E+02  0.7816164E-02  0.1186340E+00
        -11   -1    0    0    0    0  0.00000000000E+00  0.00000000000E+00  0.45593999997E+02  0.45594000000E+02  0.51100000000E-03 0.  1.
         11   -1    0    0    0    0 -0.00000000000E+00 -0.00000000000E+00 -0.45593999997E+02  0.45594000000E+02  0.51100000000E-03 0. -1.
    9900012    2    1    2    0    0 -0.96747878529E+00  0.25818271298E+00 -0.62541307832E+00  0.90007400563E+02  0.89999657449E+02 0.  0.
        -12    1    1    2    0    0  0.96747878529E+00 -0.25818271298E+00  0.62541307832E+00  0.11805994375E+01  0.00000000000E+00 0.  1.
         11    1    3    3    0    0 -0.11637437569E+01 -0.10095913410E+02  0.45700386472E+00  0.10173033957E+02  0.51100000000E-03 0. -1.
        -11    1    3    3    0    0 -0.10253106171E+02  0.35258702732E+01  0.37629144708E+02  0.39160062296E+02  0.51100000000E-03 0.  1.
         12    1    3    3    0    0  0.10449371143E+02  0.68282258493E+01 -0.38711561651E+02  0.40674304309E+02  0.00000000000E+00 0. -1.
</event>
<event>
 7    1  0.3505640E-015  0.9000774E+02  0.7816164E-02  0.1186339E+00
        -11   -1    0    0    0    0  0.00000000000E+00  0.00000000000E+00  0.45593999997E+02  0.45594000000E+02  0.51100000000E-03 0. -1.
         11   -1    0    0    0    0 -0.00000000000E+00 -0.00000000000E+00 -0.45593999997E+02  0.45594000000E+02  0.51100000000E-03 0.  1.
    9900012    2    1    2    0    0  0.20661320156E+00 -0.81311401409E+00  0.83016756594E+00  0.90007736638E+02  0.89999997962E+02 0.  0.
        -12    1    1    2    0    0 -0.20661320156E+00  0.81311401409E+00 -0.83016756594E+00  0.11802633615E+01  0.00000000000E+00 0.  1.
         11    1    3    3    0    0 -0.33755782544E+02 -0.24632736270E+01  0.11454402971E+02  0.35731273694E+02  0.51100000000E-03 0. -1.
        -11    1    3    3    0    0 -0.54654299936E+01 -0.46316069566E+01  0.75513047175E+01  0.10408886166E+02  0.51100000000E-03 0.  1.
        -12    1    3    3    0    0  0.39427825739E+02  0.62817665695E+01 -0.18175540122E+02  0.43867576779E+02  0.00000000000E+00 0.  1.
</event>
<event>
 7    1  0.3505640E-015  0.9000775E+02  0.7816164E-02  0.1186339E+00
        -11   -1    0    0    0    0  0.00000000000E+00  0.00000000000E+00  0.45593999997E+02  0.45594000000E+02  0.51100000000E-03 0. -1.
         11   -1    0    0    0    0 -0.00000000000E+00 -0.00000000000E+00 -0.45593999997E+02  0.45594000000E+02  0.51100000000E-03 0.  1.
    9900012    2    1    2    0    0  0.44726534372E+00 -0.38639282875E+00  0.10215893123E+01  0.90007749845E+02  0.90000011343E+02 0.  0.
        -12    1    1    2    0    0 -0.44726534372E+00  0.38639282875E+00 -0.10215893123E+01  0.11802501552E+01  0.00000000000E+00 0.  1.
         11    1    3    3    0    0  0.13738875676E+02  0.20083546794E+02  0.29501213274E+02  0.38241693759E+02  0.51100000000E-03 0. -1.
        -11    1    3    3    0    0  0.41679678766E+01 -0.57328156672E+01  0.67424720503E+01  0.97825385921E+01  0.51100000000E-03 0.  1.
        -12    1    3    3    0    0 -0.17459578209E+02 -0.14737123956E+02 -0.35222096012E+02  0.41983517494E+02  0.00000000000E+00 0.  1.
</event>
<event>
 7    1  0.3505640E-015  0.9000779E+02  0.7816164E-02  0.1186339E+00
        -11   -1    0    0    0    0  0.00000000000E+00  0.00000000000E+00  0.45593999997E+02  0.45594000000E+02  0.51100000000E-03 0.  1.
         11   -1    0    0    0    0 -0.00000000000E+00 -0.00000000000E+00 -0.45593999997E+02  0.45594000000E+02  0.51100000000E-03 0. -1.
    9900012    2    1    2    0    0 -0.43522850537E+00 -0.80840122913E+00 -0.74159294023E+00  0.90007789642E+02  0.90000051666E+02 0.  0.
        -12    1    1    2    0    0  0.43522850537E+00  0.80840122913E+00  0.74159294023E+00  0.11802103576E+01  0.00000000000E+00 0.  1.
         11    1    3    3    0    0  0.26950532515E+02 -0.19191705151E+02 -0.13034515601E+02  0.35560530742E+02  0.51100000000E-03 0. -1.
        -11    1    3    3    0    0  0.47688754953E+01 -0.52976119350E+01 -0.70938704024E+01  0.10056334484E+02  0.51100000000E-03 0.  1.
        -12    1    3    3    0    0 -0.32154636515E+02  0.23680915857E+02  0.19386793063E+02  0.44390924416E+02  0.00000000000E+00 0.  1.
</event>
<event>
 7    1  0.3505640E-015  0.9000778E+02  0.7816164E-02  0.1186339E+00
        -11   -1    0    0    0    0  0.00000000000E+00  0.00000000000E+00  0.45593999997E+02  0.45594000000E+02  0.51100000000E-03 0.  1.
         11   -1    0    0    0    0 -0.00000000000E+00 -0.00000000000E+00 -0.45593999997E+02  0.45594000000E+02  0.51100000000E-03 0. -1.
    9900012    2    1    2    0    0  0.40172908603E+00  0.10958965788E+01 -0.17477828914E+00  0.90007778402E+02  0.90000040277E+02 0.  0.
        -12    1    1    2    0    0 -0.40172908603E+00 -0.10958965788E+01  0.17477828914E+00  0.11802215980E+01  0.00000000000E+00 0.  1.
         11    1    3    3    0    0 -0.40162499068E+01 -0.65112654679E+01 -0.45672450368E+01  0.89099140733E+01  0.51100000000E-03 0. -1.
        -11    1    3    3    0    0  0.18437042835E+02 -0.31426614916E+02  0.13099367733E+02  0.38718859860E+02  0.51100000000E-03 0.  1.
         12    1    3    3    0    0 -0.14019063842E+02  0.39033776963E+02 -0.87069009856E+01  0.42379004469E+02  0.00000000000E+00 0. -1.
</event>
<event>
 7    1  0.3505640E-015  0.9000751E+02  0.7816164E-02  0.1186339E+00
        -11   -1    0    0    0    0  0.00000000000E+00  0.00000000000E+00  0.45593999997E+02  0.45594000000E+02  0.51100000000E-03 0. -1.
         11   -1    0    0    0    0 -0.00000000000E+00 -0.00000000000E+00 -0.45593999997E+02  0.45594000000E+02  0.51100000000E-03 0.  1.
    9900012    2    1    2    0    0 -0.16651323910E+00 -0.69857671682E+00  0.93691473121E+00  0.90007514802E+02  0.89999773198E+02 0.  0.
        -12    1    1    2    0    0  0.16651323910E+00  0.69857671682E+00 -0.93691473121E+00  0.11804851976E+01  0.00000000000E+00 0.  1.
         11    1    3    3    0    0  0.35776889799E+02  0.19191765567E+02  0.63045247236E+01  0.41085967696E+02  0.51100000000E-03 0. -1.
        -11    1    3    3    0    0  0.16524813533E+00 -0.88828330414E+01  0.44214651047E+01  0.99237787017E+01  0.51100000000E-03 0.  1.
        -12    1    3    3    0    0 -0.36108651173E+02 -0.11007509243E+02 -0.97890750971E+01  0.38997768405E+02  0.00000000000E+00 0.  1.
</event>
<event>
 7    1  0.3505640E-015  0.9000767E+02  0.7816164E-02  0.1186339E+00
        -11   -1    0    0    0    0  0.00000000000E+00  0.00000000000E+00  0.45593999997E+02  0.45594000000E+02  0.51100000000E-03 0.  1.
         11   -1    0    0    0    0 -0.00000000000E+00 -0.00000000000E+00 -0.45593999997E+02  0.45594000000E+02  0.51100000000E-03 0. -1.
    9900012    2    1    2    0    0 -0.91029417148E-01  0.71773160189E-01 -0.11746221635E+01  0.90007671669E+02  0.89999932135E+02 0.  0.
        -12    1    1    2    0    0  0.91029417148E-01 -0.71773160189E-01  0.11746221635E+01  0.11803283307E+01  0.00000000000E+00 0.  1.
         11    1    3    3    0    0  0.53388578444E+01  0.12965460684E+01  0.93418478482E+01  0.10837645329E+02  0.51100000000E-03 0. -1.
        -11    1    3    3    0    0  0.33239730192E+02  0.10405135293E+02 -0.16160789178E+02  0.38396843761E+02  0.51100000000E-03 0.  1.
         12    1    3    3    0    0 -0.38669617454E+02 -0.11629908201E+02  0.56443191667E+01  0.40773182579E+02  0.00000000000E+00 0. -1.
</event>
<event>
 7    1  0.4398967E-015  0.9000839E+02  0.7816164E-02  0.1186338E+00
        -11   -1    0    0    0    0  0.00000000000E+00  0.00000000000E+00  0.45593999997E+02  0.45594000000E+02  0.51100000000E-03 0.  1.
         11   -1    0    0    0    0 -0.00000000000E+00 -0.00000000000E+00 -0.45593999997E+02  0.45594000000E+02  0.51100000000E-03 0. -1.
    9900012    2    1    2    0    0  0.10948513413E+00  0.93301783917E+00 -0.71341418193E+00  0.90008394525E+02  0.90000664530E+02 0.  0.
        -12    1    1    2    0    0 -0.10948513413E+00 -0.93301783917E+00  0.71341418193E+00  0.11796054755E+01  0.00000000000E+00 0.  1.
         11    1    3    3    0    0  0.49597735098E+01 -0.29298729687E+01  0.74644251954E+01  0.94287407770E+01  0.51100000000E-03 0. -1.
        -11    1    3    3    0    0 -0.28308200102E+02  0.44571487247E+01  0.26285367619E+02  0.38886256170E+02  0.51100000000E-03 0.  1.
         12    1    3    3    0    0  0.23457911727E+02 -0.59425791676E+00 -0.34463206997E+02  0.41693397577E+02  0.00000000000E+00 0. -1.
</event>
<event>
 7    1  0.3505640E-015  0.9000781E+02  0.7816164E-02  0.1186339E+00
        -11   -1    0    0    0    0  0.00000000000E+00  0.00000000000E+00  0.45593999997E+02  0.45594000000E+02  0.51100000000E-03 0.  1.
         11   -1    0    0    0    0 -0.00000000000E+00 -0.00000000000E+00 -0.45593999997E+02  0.45594000000E+02  0.51100000000E-03 0. -1.
    9900012    2    1    2    0    0  0.11770105594E+01  0.25713016796E-01 -0.82645713830E-01  0.90007811316E+02  0.90000073625E+02 0.  0.
        -12    1    1    2    0    0 -0.11770105594E+01 -0.25713016796E-01  0.82645713830E-01  0.11801886842E+01  0.00000000000E+00 0.  1.
         11    1    3    3    0    0  0.49094771062E+01 -0.24803393636E+02 -0.24578821678E+02  0.35262299650E+02  0.51100000000E-03 0. -1.
        -11    1    3    3    0    0  0.52371043301E+00 -0.11802923242E+02  0.35630092946E+01  0.12340109610E+02  0.51100000000E-03 0.  1.
        -12    1    3    3    0    0 -0.42561769797E+01  0.36632029895E+02  0.20933166670E+02  0.42405402056E+02  0.00000000000E+00 0.  1.
</event>
<event>
 7    1  0.3505640E-015  0.9000738E+02  0.7816164E-02  0.1186340E+00
        -11   -1    0    0    0    0  0.00000000000E+00  0.00000000000E+00  0.45593999997E+02  0.45594000000E+02  0.51100000000E-03 0. -1.
         11   -1    0    0    0    0 -0.00000000000E+00 -0.00000000000E+00 -0.45593999997E+02  0.45594000000E+02  0.51100000000E-03 0.  1.
    9900012    2    1    2    0    0 -0.10504561203E+01  0.55484253102E-01  0.53602116715E+00  0.90007383528E+02  0.89999640190E+02 0.  0.
        -12    1    1    2    0    0  0.10504561203E+01 -0.55484253102E-01 -0.53602116715E+00  0.11806164723E+01  0.00000000000E+00 0.  1.
         11    1    3    3    0    0 -0.81045174864E+00 -0.14276173339E+01  0.96474003837E+01  0.97860746836E+01  0.51100000000E-03 0. -1.
        -11    1    3    3    0    0  0.25762018687E+02  0.28782698790E+02 -0.16151008105E+02  0.41868608999E+02  0.51100000000E-03 0.  1.
         12    1    3    3    0    0 -0.26002023058E+02 -0.27299597203E+02  0.70396288882E+01  0.38352699845E+02  0.00000000000E+00 0. -1.
</event>
<event>
 7    1  0.3505640E-015  0.9000779E+02  0.7816164E-02  0.1186339E+00
        -11   -1    0    0    0    0  0.00000000000E+00  0.00000000000E+00  0.45593999997E+02  0.45594000000E+02  0.51100000000E-03 0.  1.
         11   -1    0    0    0    0 -0.00000000000E+00 -0.00000000000E+00 -0.45593999997E+02  0.45594000000E+02  0.51100000000E-03 0. -1.
    9900012    2    1    2    0    0 -0.93370219293E+00 -0.45301797039E+00  0.56201939415E+00  0.90007792024E+02  0.90000054079E+02 0.  0.
        -12    1    1    2    0    0  0.93370219293E+00  0.45301797039E+00 -0.56201939415E+00  0.11802079757E+01  0.00000000000E+00 0.  1.
         11    1    3    3    0    0 -0.60746136053E+01  0.53776008075E+01  0.11945603102E+01  0.82003960572E+01  0.51100000000E-03 0. -1.
        -11    1    3    3    0    0  0.26009002075E+02  0.27827803674E+02  0.12492697915E+02  0.40086435957E+02  0.51100000000E-03 0.  1.
         12    1    3    3    0    0 -0.20868090663E+02 -0.33658422451E+02 -0.13125238831E+02  0.41720960011E+02  0.00000000000E+00 0. -1.
</event>
<event>
 7    1  0.3505640E-015  0.9000765E+02  0.7816164E-02  0.1186339E+00
        -11   -1    0    0    0    0  0.00000000000E+00  0.00000000000E+00  0.45593999997E+02  0.45594000000E+02  0.51100000000E-03 0. -1.
         11   -1    0    0    0    0 -0.00000000000E+00 -0.00000000000E+00 -0.45593999997E+02  0.45594000000E+02  0.51100000000E-03 0.  1.
    9900012    2    1    2    0    0  0.10645484293E+01  0.50631760301E+00  0.60009278148E-01  0.90007651752E+02  0.89999911955E+02 0.  0.
        -12    1    1    2    0    0 -0.10645484293E+01 -0.50631760301E+00 -0.60009278148E-01  0.11803482481E+01  0.00000000000E+00 0.  1.
         11    1    3    3    0    0  0.23030831894E+01  0.39441013503E+01  0.71883866901E+01  0.85166326154E+01  0.51100000000E-03 0. -1.
        -11    1    3    3    0    0  0.26931752303E+02  0.26762958799E+02 -0.12202941817E+02  0.39880910660E+02  0.51100000000E-03 0.  1.
         12    1    3    3    0    0 -0.28170287063E+02 -0.30200742546E+02  0.50745644051E+01  0.41610108477E+02  0.00000000000E+00 0. -1.
</event>
<event>
 7    1  0.3505640E-015  0.9000758E+02  0.7816164E-02  0.1186339E+00
        -11   -1    0    0    0    0  0.00000000000E+00  0.00000000000E+00  0.45593999997E+02  0.45594000000E+02  0.51100000000E-03 0.  1.
         11   -1    0    0    0    0 -0.00000000000E+00 -0.00000000000E+00 -0.45593999997E+02  0.45594000000E+02  0.51100000000E-03 0. -1.
    9900012    2    1    2    0    0  0.84110321758E+00 -0.82674891319E+00 -0.49172507821E-01  0.90007582140E+02  0.89999841424E+02 0.  0.
        -12    1    1    2    0    0 -0.84110321758E+00  0.82674891319E+00  0.49172507821E-01  0.11804178597E+01  0.00000000000E+00 0.  1.
         11    1    3    3    0    0 -0.28903173864E+02 -0.22606122003E+02  0.36864683788E+01  0.36878452527E+02  0.51100000000E-03 0. -1.
        -11    1    3    3    0    0  0.10083233697E+01 -0.80975435476E+01  0.64979527234E+01  0.10431218403E+02  0.51100000000E-03 0.  1.
        -12    1    3    3    0    0  0.28735953712E+02  0.29876916638E+02 -0.10233593610E+02  0.42697911210E+02  0.00000000000E+00 0.  1.
</event>
<event>
 7    1  0.3505640E-015  0.9000771E+02  0.7816164E-02  0.1186339E+00
        -11   -1    0    0    0    0  0.00000000000E+00  0.00000000000E+00  0.45593999997E+02  0.45594000000E+02  0.51100000000E-03 0. -1.
         11   -1    0    0    0    0 -0.00000000000E+00 -0.00000000000E+00 -0.45593999997E+02  0.45594000000E+02  0.51100000000E-03 0.  1.
    9900012    2    1    2    0    0  0.77353540969E+00 -0.84413399132E+00 -0.28664462973E+00  0.90007710049E+02  0.89999971021E+02 0.  0.
        -12    1    1    2    0    0 -0.77353540969E+00  0.84413399132E+00  0.28664462973E+00  0.11802899513E+01  0.00000000000E+00 0.  1.
         11    1    3    3    0    0 -0.41614086278E+02  0.79818023549E+01 -0.72697388356E+01  0.42991748611E+02  0.51100000000E-03 0. -1.
        -11    1    3    3    0    0  0.66118766812E+01  0.11327927407E+01 -0.45786364774E+01  0.81218252194E+01  0.51100000000E-03 0.  1.
        -12    1    3    3    0    0  0.35775745007E+02 -0.99587290870E+01  0.11561730683E+02  0.38894136219E+02  0.00000000000E+00 0.  1.
</event>
<event>
 7    1  0.3505640E-015  0.9000904E+02  0.7816164E-02  0.1186336E+00
        -11   -1    0    0    0    0  0.00000000000E+00  0.00000000000E+00  0.45593999997E+02  0.45594000000E+02  0.51100000000E-03 0.  1.
         11   -1    0    0    0    0 -0.00000000000E+00 -0.00000000000E+00 -0.45593999997E+02  0.45594000000E+02  0.51100000000E-03 0. -1.
    9900012    2    1    2    0    0 -0.32202224979E+00 -0.49149980153E+00 -0.10220993089E+01  0.90009035462E+02  0.90001313921E+02 0.  0.
        -12    1    1    2    0    0  0.32202224979E+00  0.49149980153E+00  0.10220993089E+01  0.11789645379E+01  0.00000000000E+00 0.  1.
         11    1    3    3    0    0  0.12113819882E+01 -0.10606885558E+02 -0.32388784765E+01  0.11156334596E+02  0.51100000000E-03 0. -1.
        -11    1    3    3    0    0  0.10981334534E+02  0.59302065211E+01  0.38379425334E+02  0.40357618200E+02  0.51100000000E-03 0.  1.
         12    1    3    3    0    0 -0.12514738772E+02  0.41851792358E+01 -0.36162646166E+02  0.38495082667E+02  0.00000000000E+00 0. -1.
</event>
<event>
 7    1  0.3505640E-015  0.9000787E+02  0.7816164E-02  0.1186339E+00
        -11   -1    0    0    0    0  0.00000000000E+00  0.00000000000E+00  0.45593999997E+02  0.45594000000E+02  0.51100000000E-03 0. -1.
         11   -1    0    0    0    0 -0.00000000000E+00 -0.00000000000E+00 -0.45593999997E+02  0.45594000000E+02  0.51100000000E-03 0.  1.
    9900012    2    1    2    0    0  0.18201128099E+00 -0.35358153126E+00  0.11111088477E+01  0.90007868280E+02  0.90000131341E+02 0.  0.
        -12    1    1    2    0    0 -0.18201128099E+00  0.35358153126E+00 -0.11111088477E+01  0.11801317202E+01  0.00000000000E+00 0.  1.
         11    1    3    3    0    0  0.20899364669E+02  0.41970854710E+00 -0.32745550916E+01  0.21158504440E+02  0.51100000000E-03 0. -1.
        -11    1    3    3    0    0 -0.24524782533E+02 -0.19302469983E+01 -0.27395588161E+02  0.36819954681E+02  0.51100000000E-03 0.  1.
         12    1    3    3    0    0  0.38074291455E+01  0.11569569199E+01  0.31781252100E+02  0.32029409159E+02  0.00000000000E+00 0. -1.
</event>
<event>
 7    1  0.3505640E-015  0.9000775E+02  0.7816164E-02  0.1186339E+00
        -11   -1    0    0    0    0  0.00000000000E+00  0.00000000000E+00  0.45593999997E+02  0.45594000000E+02  0.51100000000E-03 0.  1.
         11   -1    0    0    0    0 -0.00000000000E+00 -0.00000000000E+00 -0.45593999997E+02  0.45594000000E+02  0.51100000000E-03 0. -1.
    9900012    2    1    2    0    0 -0.93626654842E+00  0.56980121305E+00 -0.43787356213E+00  0.90007745058E+02  0.90000006493E+02 0.  0.
        -12    1    1    2    0    0  0.93626654842E+00 -0.56980121305E+00  0.43787356213E+00  0.11802549422E+01  0.00000000000E+00 0.  1.
         11    1    3    3    0    0  0.18332149364E+02 -0.56429911951E+01 -0.38679780401E+02  0.43174488555E+02  0.51100000000E-03 0. -1.
        -11    1    3    3    0    0 -0.65134206849E+01 -0.32118606009E+01  0.24152525234E+01  0.76533745858E+01  0.51100000000E-03 0.  1.
        -12    1    3    3    0    0 -0.12754995227E+02  0.94246530091E+01  0.35826654315E+02  0.39179881917E+02  0.00000000000E+00 0.  1.
</event>
<event>
 7    1  0.3600364E-015  0.9000775E+02  0.7816164E-02  0.1186339E+00
        -11   -1    0    0    0    0  0.00000000000E+00  0.00000000000E+00  0.45593999997E+02  0.45594000000E+02  0.51100000000E-03 0. -1.
         11   -1    0    0    0    0 -0.00000000000E+00 -0.00000000000E+00 -0.45593999997E+02  0.45594000000E+02  0.51100000000E-03 0.  1.
    9900012    2    1    2    0    0  0.10491825258E+01 -0.19667135760E+00  0.50351436798E+00  0.90007749893E+02  0.90000011392E+02 0.  0.
        -12    1    1    2    0    0 -0.10491825258E+01  0.19667135760E+00 -0.50351436798E+00  0.11802501065E+01  0.00000000000E+00 0.  1.
         11    1    3    3    0    0 -0.14123558636E+01 -0.48555309631E+01 -0.77901219383E+01  0.92874609068E+01  0.51100000000E-03 0. -1.
        -11    1    3    3    0    0 -0.99316767380E+01  0.16998590982E+02 -0.31560620663E+02  0.37197621901E+02  0.51100000000E-03 0.  1.
         12    1    3    3    0    0  0.12393215127E+02 -0.12339731377E+02  0.39854256969E+02  0.43522667085E+02  0.00000000000E+00 0. -1.
</event>
<event>
 7    1  0.3505640E-015  0.9000787E+02  0.7816164E-02  0.1186339E+00
        -11   -1    0    0    0    0  0.00000000000E+00  0.00000000000E+00  0.45593999997E+02  0.45594000000E+02  0.51100000000E-03 0.  1.
         11   -1    0    0    0    0 -0.00000000000E+00 -0.00000000000E+00 -0.45593999997E+02  0.45594000000E+02  0.51100000000E-03 0. -1.
    9900012    2    1    2    0    0 -0.45767696310E+00  0.10456464919E+01 -0.29977437710E+00  0.90007868878E+02  0.90000131947E+02 0.  0.
        -12    1    1    2    0    0  0.45767696310E+00 -0.10456464919E+01  0.29977437710E+00  0.11801311223E+01  0.00000000000E+00 0.  1.
         11    1    3    3    0    0 -0.10961381405E+01  0.84482028671E+01  0.51553450627E+01  0.99574712394E+01  0.51100000000E-03 0. -1.
        -11    1    3    3    0    0  0.19798023577E+02 -0.18658264805E+01  0.31965970977E+02  0.37646598077E+02  0.51100000000E-03 0.  1.
         12    1    3    3    0    0 -0.19159562400E+02 -0.55367298947E+01 -0.37421090417E+02  0.42403799561E+02  0.00000000000E+00 0. -1.
</event>
<event>
 7    1  0.3505640E-015  0.9000773E+02  0.7816164E-02  0.1186339E+00
        -11   -1    0    0    0    0  0.00000000000E+00  0.00000000000E+00  0.45593999997E+02  0.45594000000E+02  0.51100000000E-03 0.  1.
         11   -1    0    0    0    0 -0.00000000000E+00 -0.00000000000E+00 -0.45593999997E+02  0.45594000000E+02  0.51100000000E-03 0. -1.
    9900012    2    1    2    0    0 -0.86240791721E+00  0.66035194837E+00  0.46175038944E+00  0.90007734973E+02  0.89999996275E+02 0.  0.
        -12    1    1    2    0    0  0.86240791721E+00 -0.66035194837E+00 -0.46175038944E+00  0.11802650268E+01  0.00000000000E+00 0.  1.
         11    1    3    3    0    0  0.17179755896E+02  0.22981119326E+02  0.12942915709E+02  0.31476895105E+02  0.51100000000E-03 0. -1.
        -11    1    3    3    0    0  0.64876106205E+01  0.12776183605E+02 -0.40356689729E+01  0.14886456374E+02  0.51100000000E-03 0.  1.
        -12    1    3    3    0    0 -0.24529774434E+02 -0.35096950982E+02 -0.84454963469E+01  0.43644383494E+02  0.00000000000E+00 0.  1.
</event>
<event>
 7    1  0.3505640E-015  0.9000739E+02  0.7816164E-02  0.1186340E+00
        -11   -1    0    0    0    0  0.00000000000E+00  0.00000000000E+00  0.45593999997E+02  0.45594000000E+02  0.51100000000E-03 0. -1.
         11   -1    0    0    0    0 -0.00000000000E+00 -0.00000000000E+00 -0.45593999997E+02  0.45594000000E+02  0.51100000000E-03 0.  1.
    9900012    2    1    2    0    0  0.40898974934E+00 -0.63310390958E+00  0.90870308128E+00  0.90007392332E+02  0.89999649110E+02 0.  0.
        -12    1    1    2    0    0 -0.40898974934E+00  0.63310390958E+00 -0.90870308128E+00  0.11806076678E+01  0.00000000000E+00 0.  1.
         11    1    3    3    0    0  0.19259004931E+02  0.25703815820E+02  0.20782259618E+02  0.38255688907E+02  0.51100000000E-03 0. -1.
        -11    1    3    3    0    0  0.70457598783E+00  0.80800718844E+01 -0.45898175961E+01  0.93193569953E+01  0.51100000000E-03 0.  1.
        -12    1    3    3    0    0 -0.19554591170E+02 -0.34416991614E+02 -0.15283738941E+02  0.42432346430E+02  0.00000000000E+00 0.  1.
</event>
<event>
 7    1  0.3505640E-015  0.9000776E+02  0.7816164E-02  0.1186339E+00
        -11   -1    0    0    0    0  0.00000000000E+00  0.00000000000E+00  0.45593999997E+02  0.45594000000E+02  0.51100000000E-03 0.  1.
         11   -1    0    0    0    0 -0.00000000000E+00 -0.00000000000E+00 -0.45593999997E+02  0.45594000000E+02  0.51100000000E-03 0. -1.
    9900012    2    1    2    0    0 -0.86477660873E+00 -0.77079429460E+00  0.22586578523E+00  0.90007755203E+02  0.90000016772E+02 0.  0.
        -12    1    1    2    0    0  0.86477660873E+00  0.77079429460E+00 -0.22586578523E+00  0.11802447969E+01  0.00000000000E+00 0.  1.
         11    1    3    3    0    0  0.50662357053E+01 -0.26736304146E+01 -0.64743188464E+01  0.86447584467E+01  0.51100000000E-03 0. -1.
        -11    1    3    3    0    0 -0.26246883001E+02  0.28641085866E+02  0.21795950542E+02  0.44545191965E+02  0.51100000000E-03 0.  1.
         12    1    3    3    0    0  0.20315870687E+02 -0.26738249746E+02 -0.15095765910E+02  0.36817804792E+02  0.00000000000E+00 0. -1.
</event>
<event>
 7    1  0.3505640E-015  0.9000762E+02  0.7816164E-02  0.1186339E+00
        -11   -1    0    0    0    0  0.00000000000E+00  0.00000000000E+00  0.45593999997E+02  0.45594000000E+02  0.51100000000E-03 0. -1.
         11   -1    0    0    0    0 -0.00000000000E+00 -0.00000000000E+00 -0.45593999997E+02  0.45594000000E+02  0.51100000000E-03 0.  1.
    9900012    2    1    2    0    0  0.63810900503E+00  0.68473453438E+00 -0.71919609826E+00  0.90007623995E+02  0.89999883832E+02 0.  0.
        -12    1    1    2    0    0 -0.63810900503E+00 -0.68473453438E+00  0.71919609826E+00  0.11803760048E+01  0.00000000000E+00 0.  1.
         11    1    3    3    0    0  0.62579898803E+01  0.23056513888E+01 -0.35139622194E+01  0.75383284891E+01  0.51100000000E-03 0. -1.
        -11    1    3    3    0    0 -0.16209262212E+02  0.38048308455E+02  0.88482528313E+00  0.41366615450E+02  0.51100000000E-03 0.  1.
         12    1    3    3    0    0  0.10589381337E+02 -0.39669225310E+02  0.19099408380E+01  0.41102680056E+02  0.00000000000E+00 0. -1.
</event>
<event>
 7    1  0.3505640E-015  0.9000766E+02  0.7816164E-02  0.1186339E+00
        -11   -1    0    0    0    0  0.00000000000E+00  0.00000000000E+00  0.45593999997E+02  0.45594000000E+02  0.51100000000E-03 0.  1.
         11   -1    0    0    0    0 -0.00000000000E+00 -0.00000000000E+00 -0.45593999997E+02  0.45594000000E+02  0.51100000000E-03 0. -1.
    9900012    2    1    2    0    0  0.34078812693E+00  0.35669205311E+00 -0.10723055955E+01  0.90007658923E+02  0.89999919221E+02 0.  0.
        -12    1    1    2    0    0 -0.34078812693E+00 -0.35669205311E+00  0.10723055955E+01  0.11803410771E+01  0.00000000000E+00 0.  1.
         11    1    3    3    0    0 -0.92588276484E+01 -0.27170095171E+02 -0.27190015945E+02  0.39537791142E+02  0.51100000000E-03 0. -1.
        -11    1    3    3    0    0 -0.32776588471E+00 -0.71270029944E+01  0.45792966777E+01  0.84777096247E+01  0.51100000000E-03 0.  1.
        -12    1    3    3    0    0  0.99273816600E+01  0.34653790218E+02  0.21538413672E+02  0.41992158156E+02  0.00000000000E+00 0.  1.
</event>
<event>
 7    1  0.3505640E-015  0.9000775E+02  0.7816164E-02  0.1186339E+00
        -11   -1    0    0    0    0  0.00000000000E+00  0.00000000000E+00  0.45593999997E+02  0.45594000000E+02  0.51100000000E-03 0. -1.
         11   -1    0    0    0    0 -0.00000000000E+00 -0.00000000000E+00 -0.45593999997E+02  0.45594000000E+02  0.51100000000E-03 0.  1.
    9900012    2    1    2    0    0  0.97189547693E+00  0.73998743025E-01  0.66553778365E+00  0.90007746987E+02  0.90000008448E+02 0.  0.
        -12    1    1    2    0    0 -0.97189547693E+00 -0.73998743025E-01 -0.66553778365E+00  0.11802530125E+01  0.00000000000E+00 0.  1.
         11    1    3    3    0    0  0.38077845490E+02 -0.12463735408E+02  0.20830438261E+01  0.40119896427E+02  0.51100000000E-03 0. -1.
        -11    1    3    3    0    0 -0.20852581364E+01 -0.76966988096E+01 -0.47887091481E+01  0.93015702775E+01  0.51100000000E-03 0.  1.
        -12    1    3    3    0    0 -0.35020691877E+02  0.20234432961E+02  0.33712031056E+01  0.40586280282E+02  0.00000000000E+00 0.  1.
</event>
<event>
 7    1  0.4398686E-015  0.9000753E+02  0.7816164E-02  0.1186339E+00
        -11   -1    0    0    0    0  0.00000000000E+00  0.00000000000E+00  0.45593999997E+02  0.45594000000E+02  0.51100000000E-03 0.  1.
         11   -1    0    0    0    0 -0.00000000000E+00 -0.00000000000E+00 -0.45593999997E+02  0.45594000000E+02  0.51100000000E-03 0. -1.
    9900012    2    1    2    0    0 -0.11541240838E+01 -0.20791192498E+00  0.13523554511E+00  0.90007526187E+02  0.89999784733E+02 0.  0.
        -12    1    1    2    0    0  0.11541240838E+01  0.20791192498E+00 -0.13523554511E+00  0.11804738125E+01  0.00000000000E+00 0.  1.
         11    1    3    3    0    0 -0.39663161967E+01  0.71421158703E+01 -0.52921851539E+01  0.97338947621E+01  0.51100000000E-03 0. -1.
        -11    1    3    3    0    0 -0.36811701061E+02 -0.10581059001E+00  0.13468177262E+02  0.39198269476E+02  0.51100000000E-03 0.  1.
         12    1    3    3    0    0  0.39623893174E+02 -0.72442172052E+01 -0.80407565635E+01  0.41075361949E+02  0.00000000000E+00 0. -1.
</event>
<event>
 7    1  0.3505640E-015  0.9000820E+02  0.7816164E-02  0.1186338E+00
        -11   -1    0    0    0    0  0.00000000000E+00  0.00000000000E+00  0.45593999997E+02  0.45594000000E+02  0.51100000000E-03 0.  1.
         11   -1    0    0    0    0 -0.00000000000E+00 -0.00000000000E+00 -0.45593999997E+02  0.45594000000E+02  0.51100000000E-03 0. -1.
    9900012    2    1    2    0    0  0.62227536649E+00 -0.67751950200E+00 -0.73869649080E+00  0.90008198401E+02  0.90000465819E+02 0.  0.
        -12    1    1    2    0    0 -0.62227536649E+00  0.67751950200E+00  0.73869649080E+00  0.11798015989E+01  0.00000000000E+00 0.  1.
         11    1    3    3    0    0 -0.25893576158E+02 -0.34603944938E+02 -0.35844340601E+01  0.43367712176E+02  0.51100000000E-03 0. -1.
        -11    1    3    3    0    0 -0.99401659294E-01  0.72452685080E+01  0.51408600965E+01  0.88843817588E+01  0.51100000000E-03 0.  1.
        -12    1    3    3    0    0  0.26615253184E+02  0.26681156928E+02 -0.22951225272E+01  0.37756104467E+02  0.00000000000E+00 0.  1.
</event>
<event>
 7    1  0.3505640E-015  0.9000766E+02  0.7816164E-02  0.1186339E+00
        -11   -1    0    0    0    0  0.00000000000E+00  0.00000000000E+00  0.45593999997E+02  0.45594000000E+02  0.51100000000E-03 0.  1.
         11   -1    0    0    0    0 -0.00000000000E+00 -0.00000000000E+00 -0.45593999997E+02  0.45594000000E+02  0.51100000000E-03 0. -1.
    9900012    2    1    2    0    0 -0.68809281458E+00  0.60006974250E+00 -0.74809046607E+00  0.90007663284E+02  0.89999923639E+02 0.  0.
        -12    1    1    2    0    0  0.68809281458E+00 -0.60006974250E+00  0.74809046607E+00  0.11803367158E+01  0.00000000000E+00 0.  1.
         11    1    3    3    0    0 -0.32626916404E+02  0.19028247013E+02 -0.87749208162E+01  0.38776140783E+02  0.51100000000E-03 0. -1.
        -11    1    3    3    0    0  0.10416367718E+01  0.83869190755E+01 -0.28163031492E+01  0.89082536130E+01  0.51100000000E-03 0.  1.
        -12    1    3    3    0    0  0.30897186818E+02 -0.26815096346E+02  0.10843133499E+02  0.42323268888E+02  0.00000000000E+00 0.  1.
</event>
<event>
 7    1  0.3505640E-015  0.9000783E+02  0.7816164E-02  0.1186339E+00
        -11   -1    0    0    0    0  0.00000000000E+00  0.00000000000E+00  0.45593999997E+02  0.45594000000E+02  0.51100000000E-03 0.  1.
         11   -1    0    0    0    0 -0.00000000000E+00 -0.00000000000E+00 -0.45593999997E+02  0.45594000000E+02  0.51100000000E-03 0. -1.
    9900012    2    1    2    0    0  0.76903595685E+00 -0.89491200511E+00 -0.22966089255E-01  0.90007825758E+02  0.90000088258E+02 0.  0.
        -12    1    1    2    0    0 -0.76903595685E+00  0.89491200511E+00  0.22966089255E-01  0.11801742418E+01  0.00000000000E+00 0.  1.
         11    1    3    3    0    0  0.30403010079E+02  0.35255979340E+01 -0.26464978080E+02  0.40461931833E+02  0.51100000000E-03 0. -1.
        -11    1    3    3    0    0 -0.37253815042E+01 -0.69167365062E+01 -0.45461499631E+01  0.90767390068E+01  0.51100000000E-03 0.  1.
        -12    1    3    3    0    0 -0.25908592618E+02  0.24962265671E+01  0.30988161953E+02  0.40469154918E+02  0.00000000000E+00 0.  1.
</event>
<event>
 7    1  0.3505640E-015  0.9000780E+02  0.7816164E-02  0.1186339E+00
        -11   -1    0    0    0    0  0.00000000000E+00  0.00000000000E+00  0.45593999997E+02  0.45594000000E+02  0.51100000000E-03 0.  1.
         11   -1    0    0    0    0 -0.00000000000E+00 -0.00000000000E+00 -0.45593999997E+02  0.45594000000E+02  0.51100000000E-03 0. -1.
    9900012    2    1    2    0    0 -0.83382464954E+00  0.15066716690E+00 -0.82152640175E+00  0.90007800962E+02  0.90000063134E+02 0.  0.
        -12    1    1    2    0    0  0.83382464954E+00 -0.15066716690E+00  0.82152640175E+00  0.11801990384E+01  0.00000000000E+00 0.  1.
         11    1    3    3    0    0  0.43398539982E+01 -0.81050060092E+01 -0.28829343801E+01  0.96351837572E+01  0.51100000000E-03 0. -1.
        -11    1    3    3    0    0  0.14389450102E+02 -0.32171955862E+02  0.36534455543E+01  0.35432170169E+02  0.51100000000E-03 0.  1.
         12    1    3    3    0    0 -0.19563128750E+02  0.40427629038E+02 -0.15920375760E+01  0.44940447035E+02  0.00000000000E+00 0. -1.
</event>
<event>
 7    1  0.3505640E-015  0.9000774E+02  0.7816164E-02  0.1186339E+00
        -11   -1    0    0    0    0  0.00000000000E+00  0.00000000000E+00  0.45593999997E+02  0.45594000000E+02  0.51100000000E-03 0.  1.
         11   -1    0    0    0    0 -0.00000000000E+00 -0.00000000000E+00 -0.45593999997E+02  0.45594000000E+02  0.51100000000E-03 0. -1.
    9900012    2    1    2    0    0  0.10025666974E+01  0.55081004256E+00 -0.29064561619E+00  0.90007743011E+02  0.90000004419E+02 0.  0.
        -12    1    1    2    0    0 -0.10025666974E+01 -0.55081004256E+00  0.29064561619E+00  0.11802569889E+01  0.00000000000E+00 0.  1.
         11    1    3    3    0    0 -0.72812233734E+01  0.15157582911E+02  0.28244337242E+02  0.32871128974E+02  0.51100000000E-03 0. -1.
        -11    1    3    3    0    0  0.11547141601E+02  0.70904276144E+01  0.70929325043E+01  0.15294454377E+02  0.51100000000E-03 0.  1.
        -12    1    3    3    0    0 -0.32633515304E+01 -0.21697200482E+02 -0.35627915363E+02  0.41842159661E+02  0.00000000000E+00 0.  1.
</event>
<event>
 7    1  0.3505640E-015  0.9000783E+02  0.7816164E-02  0.1186339E+00
        -11   -1    0    0    0    0  0.00000000000E+00  0.00000000000E+00  0.45593999997E+02  0.45594000000E+02  0.51100000000E-03 0.  1.
         11   -1    0    0    0    0 -0.00000000000E+00 -0.00000000000E+00 -0.45593999997E+02  0.45594000000E+02  0.51100000000E-03 0. -1.
    9900012    2    1    2    0    0 -0.76529215327E+00 -0.69959524845E+00  0.56364371556E+00  0.90007830593E+02  0.90000093157E+02 0.  0.
        -12    1    1    2    0    0  0.76529215327E+00  0.69959524845E+00 -0.56364371556E+00  0.11801694072E+01  0.00000000000E+00 0.  1.
         11    1    3    3    0    0  0.40914310625E+01  0.36771165719E+02  0.23814700261E+01  0.37074652206E+02  0.51100000000E-03 0. -1.
        -11    1    3    3    0    0 -0.62795916329E+01  0.48328183440E+01  0.59367132832E+01  0.99012104860E+01  0.51100000000E-03 0.  1.
        -12    1    3    3    0    0  0.14228684171E+01 -0.42303579311E+02 -0.77545395937E+01  0.43031967901E+02  0.00000000000E+00 0.  1.
</event>
<event>
 7    1  0.3505640E-015  0.9000767E+02  0.7816164E-02  0.1186339E+00
        -11   -1    0    0    0    0  0.00000000000E+00  0.00000000000E+00  0.45593999997E+02  0.45594000000E+02  0.51100000000E-03 0.  1.
         11   -1    0    0    0    0 -0.00000000000E+00 -0.00000000000E+00 -0.45593999997E+02  0.45594000000E+02  0.51100000000E-03 0. -1.
    9900012    2    1    2    0    0  0.11277754020E+01  0.30226099182E+00  0.17304623567E+00  0.90007667816E+02  0.89999928231E+02 0.  0.
        -12    1    1    2    0    0 -0.11277754020E+01 -0.30226099182E+00 -0.17304623567E+00  0.11803321839E+01  0.00000000000E+00 0.  1.
         11    1    3    3    0    0  0.82930005754E+01  0.41980834177E+01 -0.49926496286E+01  0.10551033765E+02  0.51100000000E-03 0. -1.
        -11    1    3    3    0    0 -0.32582124921E+01 -0.34702489753E+02  0.24745354789E+02  0.42745892524E+02  0.51100000000E-03 0.  1.
         12    1    3    3    0    0 -0.39070126812E+01  0.30806667327E+02 -0.19579658925E+02  0.36710741528E+02  0.00000000000E+00 0. -1.
</event>
<event>
 7    1  0.3505640E-015  0.9000808E+02  0.7816164E-02  0.1186338E+00
        -11   -1    0    0    0    0  0.00000000000E+00  0.00000000000E+00  0.45593999997E+02  0.45594000000E+02  0.51100000000E-03 0. -1.
         11   -1    0    0    0    0 -0.00000000000E+00 -0.00000000000E+00 -0.45593999997E+02  0.45594000000E+02  0.51100000000E-03 0.  1.
    9900012    2    1    2    0    0  0.58934924448E+00 -0.87938953302E-01  0.10184076556E+01  0.90008076297E+02  0.90000342104E+02 0.  0.
        -12    1    1    2    0    0 -0.58934924448E+00  0.87938953302E-01 -0.10184076556E+01  0.11799237028E+01  0.00000000000E+00 0.  1.
         11    1    3    3    0    0  0.22198623586E+02 -0.13555219942E+02  0.16310487262E+02  0.30701056525E+02  0.51100000000E-03 0. -1.
        -11    1    3    3    0    0 -0.12689329970E+02 -0.19339185931E+02 -0.84647174763E+01  0.24630766326E+02  0.51100000000E-03 0.  1.
        -12    1    3    3    0    0 -0.89199443710E+01  0.32806466921E+02 -0.68273621304E+01  0.34676253446E+02  0.00000000000E+00 0.  1.
</event>
<event>
 7    1  0.3505640E-015  0.9000780E+02  0.7816164E-02  0.1186339E+00
        -11   -1    0    0    0    0  0.00000000000E+00  0.00000000000E+00  0.45593999997E+02  0.45594000000E+02  0.51100000000E-03 0.  1.
         11   -1    0    0    0    0 -0.00000000000E+00 -0.00000000000E+00 -0.45593999997E+02  0.45594000000E+02  0.51100000000E-03 0. -1.
    9900012    2    1    2    0    0 -0.60398437328E+00  0.47202844993E+00 -0.89737148853E+00  0.90007795116E+02  0.90000057211E+02 0.  0.
        -12    1    1    2    0    0  0.60398437328E+00 -0.47202844993E+00  0.89737148853E+00  0.11802048844E+01  0.00000000000E+00 0.  1.
         11    1    3    3    0    0  0.39605479946E+01  0.74171697373E+01 -0.10007849195E+02  0.13071242983E+02  0.51100000000E-03 0. -1.
        -11    1    3    3    0    0 -0.38169587841E+02  0.86972770698E+01  0.20407743084E+01  0.39201081929E+02  0.51100000000E-03 0.  1.
         12    1    3    3    0    0  0.33605055473E+02 -0.15642418357E+02  0.70697033984E+01  0.37735470204E+02  0.00000000000E+00 0. -1.
</event>
<event>
 7    1  0.3505640E-015  0.9000778E+02  0.7816164E-02  0.1186339E+00
        -11   -1    0    0    0    0  0.00000000000E+00  0.00000000000E+00  0.45593999997E+02  0.45594000000E+02  0.51100000000E-03 0.  1.
         11   -1    0    0    0    0 -0.00000000000E+00 -0.00000000000E+00 -0.45593999997E+02  0.45594000000E+02  0.51100000000E-03 0. -1.
    9900012    2    1    2    0    0  0.28499474608E+00  0.92063247387E+00 -0.68127382306E+00  0.90007779606E+02  0.90000041496E+02 0.  0.
        -12    1    1    2    0    0 -0.28499474608E+00 -0.92063247387E+00  0.68127382306E+00  0.11802203943E+01  0.00000000000E+00 0.  1.
         11    1    3    3    0    0  0.62383414048E+01 -0.67684597080E+01 -0.64334661928E+01  0.11230246561E+02  0.51100000000E-03 0. -1.
        -11    1    3    3    0    0  0.21529216881E+02 -0.25166910408E+02 -0.74649931299E+01  0.33950061586E+02  0.51100000000E-03 0.  1.
         12    1    3    3    0    0 -0.27482563540E+02  0.32856002589E+02  0.13217185500E+02  0.44827471459E+02  0.00000000000E+00 0. -1.
</event>
<event>
 7    1  0.3505640E-015  0.9000767E+02  0.7816164E-02  0.1186339E+00
        -11   -1    0    0    0    0  0.00000000000E+00  0.00000000000E+00  0.45593999997E+02  0.45594000000E+02  0.51100000000E-03 0.  1.
         11   -1    0    0    0    0 -0.00000000000E+00 -0.00000000000E+00 -0.45593999997E+02  0.45594000000E+02  0.51100000000E-03 0. -1.
    9900012    2    1    2    0    0  0.94624745376E+00  0.88699887728E-01 -0.69994356386E+00  0.90007672543E+02  0.89999933020E+02 0.  0.
        -12    1    1    2    0    0 -0.94624745376E+00 -0.88699887728E-01  0.69994356386E+00  0.11803274573E+01  0.00000000000E+00 0.  1.
         11    1    3    3    0    0 -0.30537755456E+02  0.30094642674E+01 -0.28580071541E+02  0.41933660381E+02  0.51100000000E-03 0. -1.
        -11    1    3    3    0    0 -0.50618362631E-01  0.61355931606E+01  0.63566211733E+01  0.88348570251E+01  0.51100000000E-03 0.  1.
        -12    1    3    3    0    0  0.31534621272E+02 -0.90563575403E+01  0.21523506804E+02  0.39239155136E+02  0.00000000000E+00 0.  1.
</event>
<event>
 7    1  0.3505640E-015  0.9000815E+02  0.7816164E-02  0.1186338E+00
        -11   -1    0    0    0    0  0.00000000000E+00  0.00000000000E+00  0.45593999997E+02  0.45594000000E+02  0.51100000000E-03 0.  1.
         11   -1    0    0    0    0 -0.00000000000E+00 -0.00000000000E+00 -0.45593999997E+02  0.45594000000E+02  0.51100000000E-03 0. -1.
    9900012    2    1    2    0    0  0.71256035911E+00 -0.44770872904E+00 -0.82695579100E+00  0.90008152022E+02  0.90000418827E+02 0.  0.
        -12    1    1    2    0    0 -0.71256035911E+00  0.44770872904E+00  0.82695579100E+00  0.11798479782E+01  0.00000000000E+00 0.  1.
         11    1    3    3    0    0  0.73543685617E+01  0.50219854519E+01 -0.16937688993E+01  0.90650939414E+01  0.51100000000E-03 0. -1.
        -11    1    3    3    0    0  0.22430131579E+02 -0.26984522973E+02  0.19620868633E+02  0.40202658730E+02  0.51100000000E-03 0.  1.
         12    1    3    3    0    0 -0.29071939782E+02  0.21514828792E+02 -0.18754055525E+02  0.40740399351E+02  0.00000000000E+00 0. -1.
</event>
<event>
 7    1  0.3505640E-015  0.9000765E+02  0.7816164E-02  0.1186339E+00
        -11   -1    0    0    0    0  0.00000000000E+00  0.00000000000E+00  0.45593999997E+02  0.45594000000E+02  0.51100000000E-03 0.  1.
         11   -1    0    0    0    0 -0.00000000000E+00 -0.00000000000E+00 -0.45593999997E+02  0.45594000000E+02  0.51100000000E-03 0. -1.
    9900012    2    1    2    0    0  0.25849792166E-01 -0.37222784229E+00 -0.11198226411E+01  0.90007650676E+02  0.89999910865E+02 0.  0.
        -12    1    1    2    0    0 -0.25849792166E-01  0.37222784229E+00  0.11198226411E+01  0.11803493236E+01  0.00000000000E+00 0.  1.
         11    1    3    3    0    0  0.20991296904E+01  0.51893791080E+01 -0.49387947221E+01  0.74650984288E+01  0.51100000000E-03 0. -1.
        -11    1    3    3    0    0 -0.69559207183E+01  0.33696192196E+02 -0.16399446772E+02  0.38115089613E+02  0.51100000000E-03 0.  1.
         12    1    3    3    0    0  0.48826408201E+01 -0.39257799146E+02  0.20218418853E+02  0.44427462634E+02  0.00000000000E+00 0. -1.
</event>
<event>
 7    1  0.3505640E-015  0.9000779E+02  0.7816164E-02  0.1186339E+00
        -11   -1    0    0    0    0  0.00000000000E+00  0.00000000000E+00  0.45593999997E+02  0.45594000000E+02  0.51100000000E-03 0. -1.
         11   -1    0    0    0    0 -0.00000000000E+00 -0.00000000000E+00 -0.45593999997E+02  0.45594000000E+02  0.51100000000E-03 0.  1.
    9900012    2    1    2    0    0 -0.32589730223E+00 -0.86507849734E+00  0.73370191554E+00  0.90007793086E+02  0.90000055155E+02 0.  0.
        -12    1    1    2    0    0  0.32589730223E+00  0.86507849734E+00 -0.73370191554E+00  0.11802069136E+01  0.00000000000E+00 0.  1.
         11    1    3    3    0    0  0.75771865743E+00  0.35869951672E+02 -0.47815811987E+00  0.35881139976E+02  0.51100000000E-03 0. -1.
        -11    1    3    3    0    0 -0.26848395227E+01  0.82034675286E+01  0.29616602312E+01  0.91256054233E+01  0.51100000000E-03 0.  1.
        -12    1    3    3    0    0  0.16012235630E+01 -0.44938497698E+02 -0.17498001958E+01  0.45001047687E+02  0.00000000000E+00 0.  1.
</event>
<event>
 7    1  0.3505640E-015  0.9000735E+02  0.7816164E-02  0.1186340E+00
        -11   -1    0    0    0    0  0.00000000000E+00  0.00000000000E+00  0.45593999997E+02  0.45594000000E+02  0.51100000000E-03 0. -1.
         11   -1    0    0    0    0 -0.00000000000E+00 -0.00000000000E+00 -0.45593999997E+02  0.45594000000E+02  0.51100000000E-03 0.  1.
    9900012    2    1    2    0    0  0.73592198217E+00 -0.64163717636E-01  0.92100328106E+00  0.90007345440E+02  0.89999601599E+02 0.  0.
        -12    1    1    2    0    0 -0.73592198217E+00  0.64163717636E-01 -0.92100328106E+00  0.11806545601E+01  0.00000000000E+00 0.  1.
         11    1    3    3    0    0  0.19952242771E+01 -0.73198560623E+01  0.68550538000E+01  0.10225114941E+02  0.51100000000E-03 0. -1.
        -11    1    3    3    0    0  0.30166838199E+02  0.16552386540E+02  0.18346711362E+02  0.38995146431E+02  0.51100000000E-03 0.  1.
         12    1    3    3    0    0 -0.31426140494E+02 -0.92966941951E+01 -0.24280761881E+02  0.40787084069E+02  0.00000000000E+00 0. -1.
</event>
<event>
 7    1  0.3505640E-015  0.9000765E+02  0.7816164E-02  0.1186339E+00
        -11   -1    0    0    0    0  0.00000000000E+00  0.00000000000E+00  0.45593999997E+02  0.45594000000E+02  0.51100000000E-03 0. -1.
         11   -1    0    0    0    0 -0.00000000000E+00 -0.00000000000E+00 -0.45593999997E+02  0.45594000000E+02  0.51100000000E-03 0.  1.
    9900012    2    1    2    0    0  0.39620303277E+00 -0.86612302593E+00  0.69718764670E+00  0.90007654053E+02  0.89999914287E+02 0.  0.
        -12    1    1    2    0    0 -0.39620303277E+00  0.86612302593E+00 -0.69718764670E+00  0.11803459467E+01  0.00000000000E+00 0.  1.
         11    1    3    3    0    0  0.15479107757E+02  0.27612310581E+02  0.22948263206E+02  0.39098149023E+02  0.51100000000E-03 0. -1.
        -11    1    3    3    0    0  0.94817129363E+01 -0.32669629950E+01 -0.17672511312E+01  0.10183275713E+02  0.51100000000E-03 0.  1.
        -12    1    3    3    0    0 -0.24564617661E+02 -0.25211470612E+02 -0.20483824428E+02  0.40726229318E+02  0.00000000000E+00 0.  1.
</event>
<event>
 7    1  0.3505640E-015  0.9000776E+02  0.7816164E-02  0.1186339E+00
        -11   -1    0    0    0    0  0.00000000000E+00  0.00000000000E+00  0.45593999997E+02  0.45594000000E+02  0.51100000000E-03 0. -1.
         11   -1    0    0    0    0 -0.00000000000E+00 -0.00000000000E+00 -0.45593999997E+02  0.45594000000E+02  0.51100000000E-03 0.  1.
    9900012    2    1    2    0    0  0.14822934458E+00 -0.11706128158E+01 -0.25632607818E-01  0.90007761323E+02  0.90000022973E+02 0.  0.
        -12    1    1    2    0    0 -0.14822934458E+00  0.11706128158E+01  0.25632607818E-01  0.11802386766E+01  0.00000000000E+00 0.  1.
         11    1    3    3    0    0  0.21150320693E+00 -0.24586103517E+01 -0.11227261884E+02  0.11495255897E+02  0.51100000000E-03 0. -1.
        -11    1    3    3    0    0  0.19776418889E+01 -0.19885041723E+02 -0.27711492946E+02  0.34165081491E+02  0.51100000000E-03 0.  1.
         12    1    3    3    0    0 -0.20409157512E+01  0.21173039259E+02  0.38913122222E+02  0.44347423935E+02  0.00000000000E+00 0. -1.
</event>
<event>
 7    1  0.3505640E-015  0.9000773E+02  0.7816164E-02  0.1186339E+00
        -11   -1    0    0    0    0  0.00000000000E+00  0.00000000000E+00  0.45593999997E+02  0.45594000000E+02  0.51100000000E-03 0. -1.
         11   -1    0    0    0    0 -0.00000000000E+00 -0.00000000000E+00 -0.45593999997E+02  0.45594000000E+02  0.51100000000E-03 0.  1.
    9900012    2    1    2    0    0 -0.41891481912E+00  0.35060307442E+00 -0.10462389504E+01  0.90007733893E+02  0.89999995181E+02 0.  0.
        -12    1    1    2    0    0  0.41891481912E+00 -0.35060307442E+00  0.10462389504E+01  0.11802661068E+01  0.00000000000E+00 0.  1.
         11    1    3    3    0    0 -0.33684193394E+02  0.11594241526E+02  0.58909551792E+01  0.36107543178E+02  0.51100000000E-03 0. -1.
        -11    1    3    3    0    0 -0.32773619632E+01 -0.36109830747E+00 -0.14635355707E+02  0.15002170855E+02  0.51100000000E-03 0.  1.
        -12    1    3    3    0    0  0.36542640538E+02 -0.10882540144E+02  0.76981615771E+01  0.38898019861E+02  0.00000000000E+00 0.  1.
</event>
<event>
 7    1  0.3505640E-015  0.9000772E+02  0.7816164E-02  0.1186339E+00
        -11   -1    0    0    0    0  0.00000000000E+00  0.00000000000E+00  0.45593999997E+02  0.45594000000E+02  0.51100000000E-03 0. -1.
         11   -1    0    0    0    0 -0.00000000000E+00 -0.00000000000E+00 -0.45593999997E+02  0.45594000000E+02  0.51100000000E-03 0.  1.
    9900012    2    1    2    0    0  0.56180642598E+00  0.73354837804E+00  0.73439071835E+00  0.90007724858E+02  0.89999986026E+02 0.  0.
        -12    1    1    2    0    0 -0.56180642598E+00 -0.73354837804E+00 -0.73439071835E+00  0.11802751418E+01  0.00000000000E+00 0.  1.
         11    1    3    3    0    0  0.28453561166E+01  0.68186135614E+01 -0.57802296492E+01  0.93808633606E+01  0.51100000000E-03 0. -1.
        -11    1    3    3    0    0  0.62647641268E+01  0.24814132146E+02 -0.24924466763E+02  0.35724186028E+02  0.51100000000E-03 0.  1.
         12    1    3    3    0    0 -0.85483138174E+01 -0.30899197329E+02  0.31439087131E+02  0.44902675469E+02  0.00000000000E+00 0. -1.
</event>
<event>
 7    1  0.3505640E-015  0.9000778E+02  0.7816164E-02  0.1186339E+00
        -11   -1    0    0    0    0  0.00000000000E+00  0.00000000000E+00  0.45593999997E+02  0.45594000000E+02  0.51100000000E-03 0. -1.
         11   -1    0    0    0    0 -0.00000000000E+00 -0.00000000000E+00 -0.45593999997E+02  0.45594000000E+02  0.51100000000E-03 0.  1.
    9900012    2    1    2    0    0 -0.65191737607E+00 -0.77700163116E+00 -0.60349124714E+00  0.90007775663E+02  0.90000037502E+02 0.  0.
        -12    1    1    2    0    0  0.65191737607E+00  0.77700163116E+00  0.60349124714E+00  0.11802243369E+01  0.00000000000E+00 0.  1.
         11    1    3    3    0    0  0.92316505682E+01 -0.27893050480E+01 -0.73374518946E+00  0.96717101449E+01  0.51100000000E-03 0. -1.
        -11    1    3    3    0    0 -0.77081729979E+00 -0.47775259183E+01 -0.39148465780E+02  0.39446435662E+02  0.51100000000E-03 0.  1.
         12    1    3    3    0    0 -0.91127506444E+01  0.67898293352E+01  0.39278719723E+02  0.40889629856E+02  0.00000000000E+00 0. -1.
</event>
<event>
 7    1  0.3505640E-015  0.9000774E+02  0.7816164E-02  0.1186339E+00
        -11   -1    0    0    0    0  0.00000000000E+00  0.00000000000E+00  0.45593999997E+02  0.45594000000E+02  0.51100000000E-03 0.  1.
         11   -1    0    0    0    0 -0.00000000000E+00 -0.00000000000E+00 -0.45593999997E+02  0.45594000000E+02  0.51100000000E-03 0. -1.
    9900012    2    1    2    0    0  0.83581323713E+00 -0.22111467311E+00 -0.80345678940E+00  0.90007738047E+02  0.89999999389E+02 0.  0.
        -12    1    1    2    0    0 -0.83581323713E+00  0.22111467311E+00  0.80345678940E+00  0.11802619533E+01  0.00000000000E+00 0.  1.
         11    1    3    3    0    0  0.35474683167E+01 -0.89948832073E+01  0.39923735049E+01  0.10460951287E+02  0.51100000000E-03 0. -1.
        -11    1    3    3    0    0  0.36697309282E+02  0.81249087978E+01 -0.12050248389E+02  0.39470433720E+02  0.51100000000E-03 0.  1.
         12    1    3    3    0    0 -0.39408964362E+02  0.64885973633E+00  0.72544180948E+01  0.40076353039E+02  0.00000000000E+00 0. -1.
</event>
<event>
 7    1  0.3505640E-015  0.9000787E+02  0.7816164E-02  0.1186339E+00
        -11   -1    0    0    0    0  0.00000000000E+00  0.00000000000E+00  0.45593999997E+02  0.45594000000E+02  0.51100000000E-03 0.  1.
         11   -1    0    0    0    0 -0.00000000000E+00 -0.00000000000E+00 -0.45593999997E+02  0.45594000000E+02  0.51100000000E-03 0. -1.
    9900012    2    1    2    0    0 -0.11125375990E+01  0.14974034617E+00 -0.36408024534E+00  0.90007865895E+02  0.90000128925E+02 0.  0.
        -12    1    1    2    0    0  0.11125375990E+01 -0.14974034617E+00  0.36408024534E+00  0.11801341049E+01  0.00000000000E+00 0.  1.
         11    1    3    3    0    0  0.91951975479E+01  0.43621364775E+01 -0.38206231536E+02  0.39538538429E+02  0.51100000000E-03 0. -1.
        -11    1    3    3    0    0 -0.64894881386E+01  0.67660388192E+01 -0.14566620800E+01  0.94876025570E+01  0.51100000000E-03 0.  1.
        -12    1    3    3    0    0 -0.38182470082E+01 -0.10978434950E+02  0.39298813371E+02  0.40981724909E+02  0.00000000000E+00 0.  1.
</event>
<event>
 7    1  0.3505640E-015  0.9000774E+02  0.7816164E-02  0.1186339E+00
        -11   -1    0    0    0    0  0.00000000000E+00  0.00000000000E+00  0.45593999997E+02  0.45594000000E+02  0.51100000000E-03 0.  1.
         11   -1    0    0    0    0 -0.00000000000E+00 -0.00000000000E+00 -0.45593999997E+02  0.45594000000E+02  0.51100000000E-03 0. -1.
    9900012    2    1    2    0    0  0.30502570027E+00 -0.91387655103E+00 -0.68176012215E+00  0.90007742447E+02  0.90000003847E+02 0.  0.
        -12    1    1    2    0    0 -0.30502570027E+00  0.91387655103E+00  0.68176012215E+00  0.11802575535E+01  0.00000000000E+00 0.  1.
         11    1    3    3    0    0 -0.33676954815E+02 -0.92518592344E+01 -0.73588906168E+01  0.35691560015E+02  0.51100000000E-03 0. -1.
        -11    1    3    3    0    0 -0.39871578593E+01 -0.80140150580E+01 -0.63465010329E+01  0.10972690680E+02  0.51100000000E-03 0.  1.
        -12    1    3    3    0    0  0.37969138375E+02  0.16351997741E+02  0.13023631527E+02  0.43343491752E+02  0.00000000000E+00 0.  1.
</event>
<event>
 7    1  0.3505640E-015  0.9000789E+02  0.7816164E-02  0.1186339E+00
        -11   -1    0    0    0    0  0.00000000000E+00  0.00000000000E+00  0.45593999997E+02  0.45594000000E+02  0.51100000000E-03 0. -1.
         11   -1    0    0    0    0 -0.00000000000E+00 -0.00000000000E+00 -0.45593999997E+02  0.45594000000E+02  0.51100000000E-03 0.  1.
    9900012    2    1    2    0    0  0.99278412464E-01  0.73559147767E-01  0.11736189845E+01  0.90007894635E+02  0.90000158044E+02 0.  0.
        -12    1    1    2    0    0 -0.99278412464E-01 -0.73559147767E-01 -0.11736189845E+01  0.11801053648E+01  0.00000000000E+00 0.  1.
         11    1    3    3    0    0 -0.43316082762E+01 -0.48508360442E+01 -0.94780276528E+01  0.11494626964E+02  0.51100000000E-03 0. -1.
        -11    1    3    3    0    0 -0.28629614197E+01 -0.11923003939E+01 -0.33349917402E+02  0.33493807179E+02  0.51100000000E-03 0.  1.
         12    1    3    3    0    0  0.72938481084E+01  0.61166955859E+01  0.44001564040E+02  0.45019460493E+02  0.00000000000E+00 0. -1.
</event>
<event>
 7    1  0.3505640E-015  0.9000758E+02  0.7816164E-02  0.1186339E+00
        -11   -1    0    0    0    0  0.00000000000E+00  0.00000000000E+00  0.45593999997E+02  0.45594000000E+02  0.51100000000E-03 0.  1.
         11   -1    0    0    0    0 -0.00000000000E+00 -0.00000000000E+00 -0.45593999997E+02  0.45594000000E+02  0.51100000000E-03 0. -1.
    9900012    2    1    2    0    0  0.59549977070E+00  0.80845417511E-01 -0.10159885095E+01  0.90007581172E+02  0.89999840443E+02 0.  0.
        -12    1    1    2    0    0 -0.59549977070E+00 -0.80845417511E-01  0.10159885095E+01  0.11804188282E+01  0.00000000000E+00 0.  1.
         11    1    3    3    0    0  0.13978250901E+01 -0.39248750026E+02 -0.11716818374E+02  0.40984169220E+02  0.51100000000E-03 0. -1.
        -11    1    3    3    0    0  0.35669981922E+01  0.42044357808E+01 -0.74314373906E+01  0.92534868180E+01  0.51100000000E-03 0.  1.
        -12    1    3    3    0    0 -0.43693235116E+01  0.35125159663E+02  0.18132267255E+02  0.39769925133E+02  0.00000000000E+00 0.  1.
</event>
<event>
 7    1  0.3505640E-015  0.9000763E+02  0.7816164E-02  0.1186339E+00
        -11   -1    0    0    0    0  0.00000000000E+00  0.00000000000E+00  0.45593999997E+02  0.45594000000E+02  0.51100000000E-03 0.  1.
         11   -1    0    0    0    0 -0.00000000000E+00 -0.00000000000E+00 -0.45593999997E+02  0.45594000000E+02  0.51100000000E-03 0. -1.
    9900012    2    1    2    0    0  0.23430131523E+00 -0.60136716470E+00 -0.98829727464E+00  0.90007630958E+02  0.89999890886E+02 0.  0.
        -12    1    1    2    0    0 -0.23430131523E+00  0.60136716470E+00  0.98829727464E+00  0.11803690424E+01  0.00000000000E+00 0.  1.
         11    1    3    3    0    0 -0.46865699896E+01 -0.35416705550E+02 -0.17978566154E+02  0.39994197223E+02  0.51100000000E-03 0. -1.
        -11    1    3    3    0    0 -0.69278223335E+00 -0.45278550100E+01  0.80755545331E+01  0.92841800657E+01  0.51100000000E-03 0.  1.
        -12    1    3    3    0    0  0.56136535381E+01  0.39343193395E+02  0.89147143467E+01  0.40729253669E+02  0.00000000000E+00 0.  1.
</event>
<event>
 7    1  0.3505640E-015  0.9000771E+02  0.7816164E-02  0.1186339E+00
        -11   -1    0    0    0    0  0.00000000000E+00  0.00000000000E+00  0.45593999997E+02  0.45594000000E+02  0.51100000000E-03 0.  1.
         11   -1    0    0    0    0 -0.00000000000E+00 -0.00000000000E+00 -0.45593999997E+02  0.45594000000E+02  0.51100000000E-03 0. -1.
    9900012    2    1    2    0    0 -0.91367363633E+00  0.68217415578E+00 -0.30481658425E+00  0.90007714339E+02  0.89999975368E+02 0.  0.
        -12    1    1    2    0    0  0.91367363633E+00 -0.68217415578E+00  0.30481658425E+00  0.11802856614E+01  0.00000000000E+00 0.  1.
         11    1    3    3    0    0 -0.83880302403E+01 -0.10583560017E+01  0.75057692316E+01  0.11305562381E+02  0.51100000000E-03 0. -1.
        -11    1    3    3    0    0  0.18600806754E+02  0.36448667272E+02  0.19593998241E+01  0.40967482297E+02  0.51100000000E-03 0.  1.
         12    1    3    3    0    0 -0.11126450151E+02 -0.34708137115E+02 -0.97699856399E+01  0.37734669660E+02  0.00000000000E+00 0. -1.
</event>
<event>
 7    1  0.3505640E-015  0.9000792E+02  0.7816164E-02  0.1186339E+00
        -11   -1    0    0    0    0  0.00000000000E+00  0.00000000000E+00  0.45593999997E+02  0.45594000000E+02  0.51100000000E-03 0. -1.
         11   -1    0    0    0    0 -0.00000000000E+00 -0.00000000000E+00 -0.45593999997E+02  0.45594000000E+02  0.51100000000E-03 0.  1.
    9900012    2    1    2    0    0 -0.45369806856E+00 -0.80091308752E+00  0.73843143080E+00  0.90007921744E+02  0.90000185511E+02 0.  0.
        -12    1    1    2    0    0  0.45369806856E+00  0.80091308752E+00 -0.73843143080E+00  0.11800782555E+01  0.00000000000E+00 0.  1.
         11    1    3    3    0    0 -0.90573574548E+01  0.42767527436E+01  0.32382269217E+01  0.10526749353E+02  0.51100000000E-03 0. -1.
        -11    1    3    3    0    0  0.36350340685E+02  0.63456069964E+01 -0.22686938220E+02  0.43316407540E+02  0.51100000000E-03 0.  1.
         12    1    3    3    0    0 -0.27746681299E+02 -0.11423272828E+02  0.20187142729E+02  0.36164764851E+02  0.00000000000E+00 0. -1.
</event>
<event>
 7    1  0.3505640E-015  0.9000772E+02  0.7816164E-02  0.1186339E+00
        -11   -1    0    0    0    0  0.00000000000E+00  0.00000000000E+00  0.45593999997E+02  0.45594000000E+02  0.51100000000E-03 0. -1.
         11   -1    0    0    0    0 -0.00000000000E+00 -0.00000000000E+00 -0.45593999997E+02  0.45594000000E+02  0.51100000000E-03 0.  1.
    9900012    2    1    2    0    0 -0.42525386320E+00  0.58618507635E+00  0.93198638773E+00  0.90007723584E+02  0.89999984735E+02 0.  0.
        -12    1    1    2    0    0  0.42525386320E+00 -0.58618507635E+00 -0.93198638773E+00  0.11802764163E+01  0.00000000000E+00 0.  1.
         11    1    3    3    0    0 -0.44252514538E+01 -0.12598546554E+02  0.90706030670E+01  0.16142554506E+02  0.51100000000E-03 0. -1.
        -11    1    3    3    0    0  0.25798920334E+02 -0.14106966855E+02  0.13942446839E+02  0.32542013281E+02  0.51100000000E-03 0.  1.
         12    1    3    3    0    0 -0.21798922743E+02  0.27291698485E+02 -0.22081063518E+02  0.41323155798E+02  0.00000000000E+00 0. -1.
</event>
<event>
 7    1  0.3505640E-015  0.9000767E+02  0.7816164E-02  0.1186339E+00
        -11   -1    0    0    0    0  0.00000000000E+00  0.00000000000E+00  0.45593999997E+02  0.45594000000E+02  0.51100000000E-03 0. -1.
         11   -1    0    0    0    0 -0.00000000000E+00 -0.00000000000E+00 -0.45593999997E+02  0.45594000000E+02  0.51100000000E-03 0.  1.
    9900012    2    1    2    0    0 -0.35630402714E+00  0.10784954896E+01 -0.32103561700E+00  0.90007674219E+02  0.89999934719E+02 0.  0.
        -12    1    1    2    0    0  0.35630402714E+00 -0.10784954896E+01  0.32103561700E+00  0.11803257805E+01  0.00000000000E+00 0.  1.
         11    1    3    3    0    0 -0.46835723798E+01  0.22280181069E+02  0.28204226433E+02  0.36246664780E+02  0.51100000000E-03 0. -1.
        -11    1    3    3    0    0 -0.12120673859E+02  0.12947933672E+01  0.20833648690E+01  0.12366391313E+02  0.51100000000E-03 0.  1.
        -12    1    3    3    0    0  0.16447942212E+02 -0.22496478947E+02 -0.30608626919E+02  0.41394618127E+02  0.00000000000E+00 0.  1.
</event>
<event>
 7    1  0.3505640E-015  0.9000774E+02  0.7816164E-02  0.1186339E+00
        -11   -1    0    0    0    0  0.00000000000E+00  0.00000000000E+00  0.45593999997E+02  0.45594000000E+02  0.51100000000E-03 0.  1.
         11   -1    0    0    0    0 -0.00000000000E+00 -0.00000000000E+00 -0.45593999997E+02  0.45594000000E+02  0.51100000000E-03 0. -1.
    9900012    2    1    2    0    0 -0.87511066386E+00  0.76872054378E+00 -0.19045208459E+00  0.90007736493E+02  0.89999997815E+02 0.  0.
        -12    1    1    2    0    0  0.87511066386E+00 -0.76872054378E+00  0.19045208459E+00  0.11802635066E+01  0.00000000000E+00 0.  1.
         11    1    3    3    0    0 -0.51522292016E+01  0.25842990870E+02 -0.32129649307E+02  0.41553820615E+02  0.51100000000E-03 0. -1.
        -11    1    3    3    0    0  0.10106145345E+01 -0.91417747934E+01 -0.31960883628E+01  0.97369589294E+01  0.51100000000E-03 0.  1.
        -12    1    3    3    0    0  0.32665040032E+01 -0.15932495532E+02  0.35135285585E+02  0.38716956949E+02  0.00000000000E+00 0.  1.
</event>
<event>
 7    1  0.3505640E-015  0.9000778E+02  0.7816164E-02  0.1186339E+00
        -11   -1    0    0    0    0  0.00000000000E+00  0.00000000000E+00  0.45593999997E+02  0.45594000000E+02  0.51100000000E-03 0.  1.
         11   -1    0    0    0    0 -0.00000000000E+00 -0.00000000000E+00 -0.45593999997E+02  0.45594000000E+02  0.51100000000E-03 0. -1.
    9900012    2    1    2    0    0 -0.24755387894E-01  0.11717859840E+01 -0.13864149534E+00  0.90007781086E+02  0.90000042996E+02 0.  0.
        -12    1    1    2    0    0  0.24755387894E-01 -0.11717859840E+01  0.13864149534E+00  0.11802189144E+01  0.00000000000E+00 0.  1.
         11    1    3    3    0    0 -0.93429665403E+01  0.61149053605E+01 -0.42578874034E+02  0.44018673374E+02  0.51100000000E-03 0. -1.
        -11    1    3    3    0    0 -0.23181684662E+01  0.28695328366E+01  0.82180307363E+01  0.90080049501E+01  0.51100000000E-03 0.  1.
        -12    1    3    3    0    0  0.11636379619E+02 -0.78126522130E+01  0.34222201803E+02  0.36981102761E+02  0.00000000000E+00 0.  1.
</event>
<event>
 7    1  0.3505640E-015  0.9000772E+02  0.7816164E-02  0.1186339E+00
        -11   -1    0    0    0    0  0.00000000000E+00  0.00000000000E+00  0.45593999997E+02  0.45594000000E+02  0.51100000000E-03 0.  1.
         11   -1    0    0    0    0 -0.00000000000E+00 -0.00000000000E+00 -0.45593999997E+02  0.45594000000E+02  0.51100000000E-03 0. -1.
    9900012    2    1    2    0    0  0.78164241005E+00  0.84897016055E+00  0.24767596445E+00  0.90007720976E+02  0.89999982093E+02 0.  0.
        -12    1    1    2    0    0 -0.78164241005E+00 -0.84897016055E+00 -0.24767596445E+00  0.11802790238E+01  0.00000000000E+00 0.  1.
         11    1    3    3    0    0  0.26938179392E+01 -0.30979664767E+01  0.16108358587E+02  0.16623274888E+02  0.51100000000E-03 0. -1.
        -11    1    3    3    0    0  0.82973044240E+01 -0.29263040913E+02  0.77362390654E+01  0.31385031771E+02  0.51100000000E-03 0.  1.
         12    1    3    3    0    0 -0.10209479953E+02  0.33209977550E+02 -0.23596921688E+02  0.41999414316E+02  0.00000000000E+00 0. -1.
</event>
<event>
 7    1  0.3505640E-015  0.9000772E+02  0.7816164E-02  0.1186339E+00
        -11   -1    0    0    0    0  0.00000000000E+00  0.00000000000E+00  0.45593999997E+02  0.45594000000E+02  0.51100000000E-03 0.  1.
         11   -1    0    0    0    0 -0.00000000000E+00 -0.00000000000E+00 -0.45593999997E+02  0.45594000000E+02  0.51100000000E-03 0. -1.
    9900012    2    1    2    0    0 -0.61583103425E+00  0.30330802501E+00 -0.96011713314E+00  0.90007716759E+02  0.89999977820E+02 0.  0.
        -12    1    1    2    0    0  0.61583103425E+00 -0.30330802501E+00  0.96011713314E+00  0.11802832415E+01  0.00000000000E+00 0.  1.
         11    1    3    3    0    0  0.66925092067E+01  0.16763919862E+01 -0.88973925631E+01  0.11258932643E+02  0.51100000000E-03 0. -1.
        -11    1    3    3    0    0  0.13324241923E+02 -0.33785313078E+02 -0.79396852049E+01  0.37175548470E+02  0.51100000000E-03 0.  1.
         12    1    3    3    0    0 -0.20632582164E+02  0.32412229117E+02  0.15876960635E+02  0.41573235646E+02  0.00000000000E+00 0. -1.
</event>
<event>
 7    1  0.3505640E-015  0.9000762E+02  0.7816164E-02  0.1186339E+00
        -11   -1    0    0    0    0  0.00000000000E+00  0.00000000000E+00  0.45593999997E+02  0.45594000000E+02  0.51100000000E-03 0.  1.
         11   -1    0    0    0    0 -0.00000000000E+00 -0.00000000000E+00 -0.45593999997E+02  0.45594000000E+02  0.51100000000E-03 0. -1.
    9900012    2    1    2    0    0  0.57236625637E+00  0.52581391967E+00 -0.88837642870E+00  0.90007620363E+02  0.89999880151E+02 0.  0.
        -12    1    1    2    0    0 -0.57236625637E+00 -0.52581391967E+00  0.88837642870E+00  0.11803796375E+01  0.00000000000E+00 0.  1.
         11    1    3    3    0    0 -0.77915801610E+01  0.52513886652E+01 -0.35400599852E+02  0.36626333074E+02  0.51100000000E-03 0. -1.
        -11    1    3    3    0    0  0.46894745362E+01 -0.42036774793E+01 -0.82942355564E+01  0.10414241187E+02  0.51100000000E-03 0.  1.
        -12    1    3    3    0    0  0.36744718811E+01 -0.52189726624E+00  0.42806458979E+02  0.42967046102E+02  0.00000000000E+00 0.  1.
</event>
<event>
 7    1  0.3505640E-015  0.9000788E+02  0.7816164E-02  0.1186339E+00
        -11   -1    0    0    0    0  0.00000000000E+00  0.00000000000E+00  0.45593999997E+02  0.45594000000E+02  0.51100000000E-03 0. -1.
         11   -1    0    0    0    0 -0.00000000000E+00 -0.00000000000E+00 -0.45593999997E+02  0.45594000000E+02  0.51100000000E-03 0.  1.
    9900012    2    1    2    0    0  0.43325812238E+00  0.46539026520E+00  0.99417974762E+00  0.90007875401E+02  0.90000138556E+02 0.  0.
        -12    1    1    2    0    0 -0.43325812238E+00 -0.46539026520E+00 -0.99417974762E+00  0.11801245994E+01  0.00000000000E+00 0.  1.
         11    1    3    3    0    0  0.11975879780E+01  0.49900478493E+01  0.23578962639E+01  0.56475188849E+01  0.51100000000E-03 0. -1.
        -11    1    3    3    0    0  0.56807188768E+00  0.32803979858E+02 -0.24030848396E+02  0.40668236685E+02  0.51100000000E-03 0.  1.
         12    1    3    3    0    0 -0.13324017433E+01 -0.37328637442E+02  0.22667131880E+02  0.43692119831E+02  0.00000000000E+00 0. -1.
</event>
<event>
 7    1  0.3505640E-015  0.9000774E+02  0.7816164E-02  0.1186339E+00
        -11   -1    0    0    0    0  0.00000000000E+00  0.00000000000E+00  0.45593999997E+02  0.45594000000E+02  0.51100000000E-03 0. -1.
         11   -1    0    0    0    0 -0.00000000000E+00 -0.00000000000E+00 -0.45593999997E+02  0.45594000000E+02  0.51100000000E-03 0.  1.
    9900012    2    1    2    0    0  0.42360225113E+00  0.41861621030E+00  0.10189890539E+01  0.90007738550E+02  0.89999999899E+02 0.  0.
        -12    1    1    2    0    0 -0.42360225113E+00 -0.41861621030E+00 -0.10189890539E+01  0.11802614501E+01  0.00000000000E+00 0.  1.
         11    1    3    3    0    0  0.20422038528E+02 -0.43407794798E+01  0.25943148002E+02  0.33300885164E+02  0.51100000000E-03 0. -1.
        -11    1    3    3    0    0  0.10153617800E+02 -0.67597481385E+01  0.45284256432E+01  0.13011409931E+02  0.51100000000E-03 0.  1.
        -12    1    3    3    0    0 -0.30152054077E+02  0.11519143829E+02 -0.29452584592E+02  0.43695443455E+02  0.00000000000E+00 0.  1.
</event>
<event>
 7    1  0.3505640E-015  0.9000760E+02  0.7816164E-02  0.1186339E+00
        -11   -1    0    0    0    0  0.00000000000E+00  0.00000000000E+00  0.45593999997E+02  0.45594000000E+02  0.51100000000E-03 0.  1.
         11   -1    0    0    0    0 -0.00000000000E+00 -0.00000000000E+00 -0.45593999997E+02  0.45594000000E+02  0.51100000000E-03 0. -1.
    9900012    2    1    2    0    0 -0.16980972450E+00 -0.11565533856E+01 -0.16396138236E+00  0.90007604129E+02  0.89999863704E+02 0.  0.
        -12    1    1    2    0    0  0.16980972450E+00  0.11565533856E+01  0.16396138236E+00  0.11803958706E+01  0.00000000000E+00 0.  1.
         11    1    3    3    0    0 -0.89079597715E+01 -0.68117693610E+01 -0.42617945329E+01  0.11996451226E+02  0.51100000000E-03 0. -1.
        -11    1    3    3    0    0  0.23193612660E+02  0.36740055017E+02  0.48718616737E+01  0.43720822812E+02  0.51100000000E-03 0.  1.
         12    1    3    3    0    0 -0.14455462613E+02 -0.31084839042E+02 -0.77402852322E+00  0.34290330091E+02  0.00000000000E+00 0. -1.
</event>
<event>
 7    1  0.3505640E-015  0.9000774E+02  0.7816164E-02  0.1186339E+00
        -11   -1    0    0    0    0  0.00000000000E+00  0.00000000000E+00  0.45593999997E+02  0.45594000000E+02  0.51100000000E-03 0. -1.
         11   -1    0    0    0    0 -0.00000000000E+00 -0.00000000000E+00 -0.45593999997E+02  0.45594000000E+02  0.51100000000E-03 0.  1.
    9900012    2    1    2    0    0  0.78144129055E+00  0.82573126362E+00  0.31707618868E+00  0.90007737351E+02  0.89999998684E+02 0.  0.
        -12    1    1    2    0    0 -0.78144129055E+00 -0.82573126362E+00 -0.31707618868E+00  0.11802626486E+01  0.00000000000E+00 0.  1.
         11    1    3    3    0    0 -0.73902967440E+00  0.86720946499E+01 -0.34794978402E+02  0.35867003118E+02  0.51100000000E-03 0. -1.
        -11    1    3    3    0    0 -0.25331422898E+01  0.38847711901E+00 -0.88588485735E+01  0.92220888437E+01  0.51100000000E-03 0.  1.
        -12    1    3    3    0    0  0.40536132548E+01 -0.82348405053E+01  0.43970903164E+02  0.44918645389E+02  0.00000000000E+00 0.  1.
</event>
<event>
 7    1  0.3505640E-015  0.9000775E+02  0.7816164E-02  0.1186339E+00
        -11   -1    0    0    0    0  0.00000000000E+00  0.00000000000E+00  0.45593999997E+02  0.45594000000E+02  0.51100000000E-03 0.  1.
         11   -1    0    0    0    0 -0.00000000000E+00 -0.00000000000E+00 -0.45593999997E+02  0.45594000000E+02  0.51100000000E-03 0. -1.
    9900012    2    1    2    0    0  0.79971692878E+00 -0.32198394725E+00  0.80608307037E+00  0.90007749711E+02  0.90000011207E+02 0.  0.
        -12    1    1    2    0    0 -0.79971692878E+00  0.32198394725E+00 -0.80608307037E+00  0.11802502891E+01  0.00000000000E+00 0.  1.
         11    1    3    3    0    0 -0.35410274600E+01  0.81876579017E+01  0.18558826434E+01  0.91115815331E+01  0.51100000000E-03 0. -1.
        -11    1    3    3    0    0 -0.47754069946E+01 -0.28359745395E+02  0.30887642894E+02  0.42203390322E+02  0.51100000000E-03 0.  1.
         12    1    3    3    0    0  0.91161513834E+01  0.19850103546E+02 -0.31937442467E+02  0.38692777856E+02  0.00000000000E+00 0. -1.
</event>
<event>
 7    1  0.3505640E-015  0.9000786E+02  0.7816164E-02  0.1186339E+00
        -11   -1    0    0    0    0  0.00000000000E+00  0.00000000000E+00  0.45593999997E+02  0.45594000000E+02  0.51100000000E-03 0. -1.
         11   -1    0    0    0    0 -0.00000000000E+00 -0.00000000000E+00 -0.45593999997E+02  0.45594000000E+02  0.51100000000E-03 0.  1.
    9900012    2    1    2    0    0 -0.25100392676E+00 -0.10644928761E+00  0.11482184990E+01  0.90007855880E+02  0.90000118778E+02 0.  0.
        -12    1    1    2    0    0  0.25100392676E+00  0.10644928761E+00 -0.11482184990E+01  0.11801441198E+01  0.00000000000E+00 0.  1.
         11    1    3    3    0    0  0.35548004436E+02  0.84216126952E+01  0.12497094840E+02  0.38610381499E+02  0.51100000000E-03 0. -1.
        -11    1    3    3    0    0  0.87847055666E+00  0.92742946418E+01 -0.29499903865E+01  0.97717293844E+01  0.51100000000E-03 0.  1.
        -12    1    3    3    0    0 -0.36677478920E+02 -0.17802356625E+02 -0.83988859542E+01  0.41625744997E+02  0.00000000000E+00 0.  1.
</event>
<event>
 7    1  0.3505640E-015  0.9000762E+02  0.7816164E-02  0.1186339E+00
        -11   -1    0    0    0    0  0.00000000000E+00  0.00000000000E+00  0.45593999997E+02  0.45594000000E+02  0.51100000000E-03 0. -1.
         11   -1    0    0    0    0 -0.00000000000E+00 -0.00000000000E+00 -0.45593999997E+02  0.45594000000E+02  0.51100000000E-03 0.  1.
    9900012    2    1    2    0    0 -0.72501509345E+00  0.62387442003E+00  0.69169095367E+00  0.90007617624E+02  0.89999877377E+02 0.  0.
        -12    1    1    2    0    0  0.72501509345E+00 -0.62387442003E+00 -0.69169095367E+00  0.11803823758E+01  0.00000000000E+00 0.  1.
         11    1    3    3    0    0 -0.18680225185E+02 -0.32444902217E+02  0.13733395382E+02  0.39877670968E+02  0.51100000000E-03 0. -1.
        -11    1    3    3    0    0  0.40903554358E+01 -0.53968340808E+01 -0.51007021970E+01  0.84778528443E+01  0.51100000000E-03 0.  1.
        -12    1    3    3    0    0  0.13864854656E+02  0.38465610717E+02 -0.79410022314E+01  0.41652093812E+02  0.00000000000E+00 0.  1.
</event>
<event>
 7    1  0.3505640E-015  0.9000767E+02  0.7816164E-02  0.1186339E+00
        -11   -1    0    0    0    0  0.00000000000E+00  0.00000000000E+00  0.45593999997E+02  0.45594000000E+02  0.51100000000E-03 0.  1.
         11   -1    0    0    0    0 -0.00000000000E+00 -0.00000000000E+00 -0.45593999997E+02  0.45594000000E+02  0.51100000000E-03 0. -1.
    9900012    2    1    2    0    0  0.30140052044E+00  0.77555154926E+00 -0.83717085340E+00  0.90007670590E+02  0.89999931041E+02 0.  0.
        -12    1    1    2    0    0 -0.30140052044E+00 -0.77555154926E+00  0.83717085340E+00  0.11803294104E+01  0.00000000000E+00 0.  1.
         11    1    3    3    0    0  0.38802223422E+01 -0.48863650278E+01 -0.63205107413E+01  0.88815282976E+01  0.51100000000E-03 0. -1.
        -11    1    3    3    0    0  0.21669821275E+02  0.27453465572E+02  0.24528712024E+02  0.42719218624E+02  0.51100000000E-03 0.  1.
         12    1    3    3    0    0 -0.25248643097E+02 -0.21791548995E+02 -0.19045372136E+02  0.38406923668E+02  0.00000000000E+00 0. -1.
</event>
<event>
 7    1  0.3505640E-015  0.9000757E+02  0.7816164E-02  0.1186339E+00
        -11   -1    0    0    0    0  0.00000000000E+00  0.00000000000E+00  0.45593999997E+02  0.45594000000E+02  0.51100000000E-03 0. -1.
         11   -1    0    0    0    0 -0.00000000000E+00 -0.00000000000E+00 -0.45593999997E+02  0.45594000000E+02  0.51100000000E-03 0.  1.
    9900012    2    1    2    0    0 -0.41699723982E-01 -0.11317939086E+00  0.11742472061E+01  0.90007574254E+02  0.89999833434E+02 0.  0.
        -12    1    1    2    0    0  0.41699723982E-01  0.11317939086E+00 -0.11742472061E+01  0.11804257463E+01  0.00000000000E+00 0.  1.
         11    1    3    3    0    0  0.93086412723E+01  0.28198200727E+02 -0.66027836401E+01  0.30420159083E+02  0.51100000000E-03 0. -1.
        -11    1    3    3    0    0 -0.23645206411E-01  0.12109064364E+02 -0.87439361100E+01  0.14936077726E+02  0.51100000000E-03 0.  1.
        -12    1    3    3    0    0 -0.93266957899E+01 -0.40420444482E+02  0.16520966956E+02  0.44651337445E+02  0.00000000000E+00 0.  1.
</event>
<event>
 7    1  0.3505640E-015  0.9000769E+02  0.7816164E-02  0.1186339E+00
        -11   -1    0    0    0    0  0.00000000000E+00  0.00000000000E+00  0.45593999997E+02  0.45594000000E+02  0.51100000000E-03 0.  1.
         11   -1    0    0    0    0 -0.00000000000E+00 -0.00000000000E+00 -0.45593999997E+02  0.45594000000E+02  0.51100000000E-03 0. -1.
    9900012    2    1    2    0    0 -0.33666026065E+00  0.62411460150E-01 -0.11295557064E+01  0.90007690119E+02  0.89999950829E+02 0.  0.
        -12    1    1    2    0    0  0.33666026065E+00 -0.62411460150E-01  0.11295557064E+01  0.11803098810E+01  0.00000000000E+00 0.  1.
         11    1    3    3    0    0 -0.17044053751E+01  0.13479915129E+01  0.86824081382E+01  0.89502117372E+01  0.51100000000E-03 0. -1.
        -11    1    3    3    0    0  0.33261855706E+02 -0.19141779189E+02  0.97555180134E+01  0.39597081805E+02  0.51100000000E-03 0.  1.
         12    1    3    3    0    0 -0.31894110591E+02  0.17856199136E+02 -0.19567481858E+02  0.41460396576E+02  0.00000000000E+00 0. -1.
</event>
<event>
 7    1  0.3505640E-015  0.9000772E+02  0.7816164E-02  0.1186339E+00
        -11   -1    0    0    0    0  0.00000000000E+00  0.00000000000E+00  0.45593999997E+02  0.45594000000E+02  0.51100000000E-03 0. -1.
         11   -1    0    0    0    0 -0.00000000000E+00 -0.00000000000E+00 -0.45593999997E+02  0.45594000000E+02  0.51100000000E-03 0.  1.
    9900012    2    1    2    0    0  0.35079491536E+00  0.29580910176E+00  0.10874268212E+01  0.90007721563E+02  0.89999982688E+02 0.  0.
        -12    1    1    2    0    0 -0.35079491536E+00 -0.29580910176E+00 -0.10874268212E+01  0.11802784370E+01  0.00000000000E+00 0.  1.
         11    1    3    3    0    0 -0.92099606036E+01  0.97986248840E+01 -0.13478467622E+02  0.19039577559E+02  0.51100000000E-03 0. -1.
        -11    1    3    3    0    0 -0.42077655306E+01  0.21049923836E+02 -0.15073158498E+02  0.26229843530E+02  0.51100000000E-03 0.  1.
         12    1    3    3    0    0  0.13768521050E+02 -0.30552739618E+02  0.29639052941E+02  0.44738300474E+02  0.00000000000E+00 0. -1.
</event>
<event>
 7    1  0.3505640E-015  0.9000769E+02  0.7816164E-02  0.1186339E+00
        -11   -1    0    0    0    0  0.00000000000E+00  0.00000000000E+00  0.45593999997E+02  0.45594000000E+02  0.51100000000E-03 0. -1.
         11   -1    0    0    0    0 -0.00000000000E+00 -0.00000000000E+00 -0.45593999997E+02  0.45594000000E+02  0.51100000000E-03 0.  1.
    9900012    2    1    2    0    0  0.11315853016E+01 -0.30650044635E+00 -0.13679282608E+00  0.90007686442E+02  0.89999947103E+02 0.  0.
        -12    1    1    2    0    0 -0.11315853016E+01  0.30650044635E+00  0.13679282608E+00  0.11803135582E+01  0.00000000000E+00 0.  1.
         11    1    3    3    0    0 -0.68944305420E+01  0.10013571668E+02  0.39108414513E+02  0.40954522046E+02  0.51100000000E-03 0. -1.
        -11    1    3    3    0    0  0.10554051761E+02 -0.30081325150E+01 -0.21795791929E+01  0.11188719118E+02  0.51100000000E-03 0.  1.
        -12    1    3    3    0    0 -0.25280359169E+01 -0.73119395992E+01 -0.37065628146E+02  0.37864445277E+02  0.00000000000E+00 0.  1.
</event>
<event>
 7    1  0.3505640E-015  0.9000777E+02  0.7816164E-02  0.1186339E+00
        -11   -1    0    0    0    0  0.00000000000E+00  0.00000000000E+00  0.45593999997E+02  0.45594000000E+02  0.51100000000E-03 0. -1.
         11   -1    0    0    0    0 -0.00000000000E+00 -0.00000000000E+00 -0.45593999997E+02  0.45594000000E+02  0.51100000000E-03 0.  1.
    9900012    2    1    2    0    0 -0.73496595156E+00  0.35790445328E+00  0.85127874903E+00  0.90007768643E+02  0.90000030389E+02 0.  0.
        -12    1    1    2    0    0  0.73496595156E+00 -0.35790445328E+00 -0.85127874903E+00  0.11802313571E+01  0.00000000000E+00 0.  1.
         11    1    3    3    0    0  0.10521833060E+02  0.22931473373E+02  0.34601542996E+02  0.42823220569E+02  0.51100000000E-03 0. -1.
        -11    1    3    3    0    0  0.17161155374E+01  0.26205464129E+01 -0.91053198571E+01  0.96290791876E+01  0.51100000000E-03 0.  1.
        -12    1    3    3    0    0 -0.12972914549E+02 -0.25194115332E+02 -0.24644944390E+02  0.37555468886E+02  0.00000000000E+00 0.  1.
</event>
<event>
 7    1  0.3505640E-015  0.9000762E+02  0.7816164E-02  0.1186339E+00
        -11   -1    0    0    0    0  0.00000000000E+00  0.00000000000E+00  0.45593999997E+02  0.45594000000E+02  0.51100000000E-03 0.  1.
         11   -1    0    0    0    0 -0.00000000000E+00 -0.00000000000E+00 -0.45593999997E+02  0.45594000000E+02  0.51100000000E-03 0. -1.
    9900012    2    1    2    0    0 -0.25408729985E+00 -0.10866833686E+01 -0.38451090330E+00  0.90007623054E+02  0.89999882878E+02 0.  0.
        -12    1    1    2    0    0  0.25408729985E+00  0.10866833686E+01  0.38451090330E+00  0.11803769459E+01  0.00000000000E+00 0.  1.
         11    1    3    3    0    0  0.69693435617E+01 -0.59889094686E+01  0.13558250752E+01  0.92885439225E+01  0.51100000000E-03 0. -1.
        -11    1    3    3    0    0  0.25772776846E+02 -0.24165698611E+02  0.66539770963E+01  0.35951250704E+02  0.51100000000E-03 0.  1.
         12    1    3    3    0    0 -0.32996207708E+02  0.29067924711E+02 -0.83943130748E+01  0.44767828427E+02  0.00000000000E+00 0. -1.
</event>
<event>
 7    1  0.3505640E-015  0.9000769E+02  0.7816164E-02  0.1186339E+00
        -11   -1    0    0    0    0  0.00000000000E+00  0.00000000000E+00  0.45593999997E+02  0.45594000000E+02  0.51100000000E-03 0.  1.
         11   -1    0    0    0    0 -0.00000000000E+00 -0.00000000000E+00 -0.45593999997E+02  0.45594000000E+02  0.51100000000E-03 0. -1.
    9900012    2    1    2    0    0 -0.92409634141E+00 -0.73056851308E+00 -0.73797738203E-01  0.90007690504E+02  0.89999951218E+02 0.  0.
        -12    1    1    2    0    0  0.92409634141E+00  0.73056851308E+00  0.73797738203E-01  0.11803094961E+01  0.00000000000E+00 0.  1.
         11    1    3    3    0    0  0.60353683656E+01  0.26808249208E+02 -0.32444409519E+02  0.42517615247E+02  0.51100000000E-03 0. -1.
        -11    1    3    3    0    0 -0.76214677210E+01 -0.56093756895E+01  0.14453548959E+01  0.95729262445E+01  0.51100000000E-03 0.  1.
        -12    1    3    3    0    0  0.66200301394E+00 -0.21929442032E+02  0.30925256885E+02  0.37917149013E+02  0.00000000000E+00 0.  1.
</event>
<event>
 7    1  0.3505640E-015  0.9000773E+02  0.7816164E-02  0.1186339E+00
        -11   -1    0    0    0    0  0.00000000000E+00  0.00000000000E+00  0.45593999997E+02  0.45594000000E+02  0.51100000000E-03 0.  1.
         11   -1    0    0    0    0 -0.00000000000E+00 -0.00000000000E+00 -0.45593999997E+02  0.45594000000E+02  0.51100000000E-03 0. -1.
    9900012    2    1    2    0    0  0.10521130369E+01  0.43399916824E+00 -0.31262626291E+00  0.90007732106E+02  0.89999993370E+02 0.  0.
        -12    1    1    2    0    0 -0.10521130369E+01 -0.43399916824E+00  0.31262626291E+00  0.11802678936E+01  0.00000000000E+00 0.  1.
         11    1    3    3    0    0 -0.93434346157E+01 -0.10507479049E+01 -0.35745456372E+01  0.10058887530E+02  0.51100000000E-03 0. -1.
        -11    1    3    3    0    0  0.23208387317E+02  0.36079489831E+02 -0.15498645204E+00  0.42899683558E+02  0.51100000000E-03 0.  1.
         12    1    3    3    0    0 -0.12812839664E+02 -0.34594742758E+02  0.34169058264E+01  0.37049161018E+02  0.00000000000E+00 0. -1.
</event>
<event>
 7    1  0.3505640E-015  0.9000773E+02  0.7816164E-02  0.1186339E+00
        -11   -1    0    0    0    0  0.00000000000E+00  0.00000000000E+00  0.45593999997E+02  0.45594000000E+02  0.51100000000E-03 0.  1.
         11   -1    0    0    0    0 -0.00000000000E+00 -0.00000000000E+00 -0.45593999997E+02  0.45594000000E+02  0.51100000000E-03 0. -1.
    9900012    2    1    2    0    0 -0.10756604747E+01  0.27416925574E+00 -0.40103310539E+00  0.90007728087E+02  0.89999989297E+02 0.  0.
        -12    1    1    2    0    0  0.10756604747E+01 -0.27416925574E+00  0.40103310539E+00  0.11802719133E+01  0.00000000000E+00 0.  1.
         11    1    3    3    0    0  0.15284860300E+01  0.82269408403E+01 -0.12736388517E+01  0.84640995575E+01  0.51100000000E-03 0. -1.
        -11    1    3    3    0    0  0.43857547415E+01  0.36317507095E+02 -0.19742565786E+01  0.36634599159E+02  0.51100000000E-03 0.  1.
         12    1    3    3    0    0 -0.69899012462E+01 -0.44270278680E+02  0.28468623249E+01  0.44909029370E+02  0.00000000000E+00 0. -1.
</event>
<event>
 7    1  0.3505640E-015  0.9000752E+02  0.7816164E-02  0.1186339E+00
        -11   -1    0    0    0    0  0.00000000000E+00  0.00000000000E+00  0.45593999997E+02  0.45594000000E+02  0.51100000000E-03 0.  1.
         11   -1    0    0    0    0 -0.00000000000E+00 -0.00000000000E+00 -0.45593999997E+02  0.45594000000E+02  0.51100000000E-03 0. -1.
    9900012    2    1    2    0    0 -0.98591232593E+00  0.51208448104E+00 -0.39909179688E+00  0.90007522176E+02  0.89999780669E+02 0.  0.
        -12    1    1    2    0    0  0.98591232593E+00 -0.51208448104E+00  0.39909179688E+00  0.11804778238E+01  0.00000000000E+00 0.  1.
         11    1    3    3    0    0 -0.80455935295E+01  0.46315479733E+01 -0.61489541229E+01  0.11135189668E+02  0.51100000000E-03 0. -1.
        -11    1    3    3    0    0  0.21552342135E+02  0.26666730862E+02  0.22434868644E+02  0.40974886427E+02  0.51100000000E-03 0.  1.
         12    1    3    3    0    0 -0.14492660932E+02 -0.30786194354E+02 -0.16685006318E+02  0.37897446082E+02  0.00000000000E+00 0. -1.
</event>
<event>
 7    1  0.3505640E-015  0.9000779E+02  0.7816164E-02  0.1186339E+00
        -11   -1    0    0    0    0  0.00000000000E+00  0.00000000000E+00  0.45593999997E+02  0.45594000000E+02  0.51100000000E-03 0.  1.
         11   -1    0    0    0    0 -0.00000000000E+00 -0.00000000000E+00 -0.45593999997E+02  0.45594000000E+02  0.51100000000E-03 0. -1.
    9900012    2    1    2    0    0 -0.55900230858E-01  0.47948356255E+00 -0.10769757193E+01  0.90007785603E+02  0.90000047573E+02 0.  0.
        -12    1    1    2    0    0  0.55900230858E-01 -0.47948356255E+00  0.10769757193E+01  0.11802143968E+01  0.00000000000E+00 0.  1.
         11    1    3    3    0    0 -0.75760466504E+01  0.64046895512E+01 -0.46814108604E+01  0.10969600677E+02  0.51100000000E-03 0. -1.
        -11    1    3    3    0    0 -0.29226235097E+02  0.15388267250E+02 -0.98687349509E+01  0.34472648821E+02  0.51100000000E-03 0.  1.
         12    1    3    3    0    0  0.36746381517E+02 -0.21313473239E+02  0.13473170092E+02  0.44565536106E+02  0.00000000000E+00 0. -1.
</event>
<event>
 7    1  0.3505640E-015  0.9000821E+02  0.7816164E-02  0.1186338E+00
        -11   -1    0    0    0    0  0.00000000000E+00  0.00000000000E+00  0.45593999997E+02  0.45594000000E+02  0.51100000000E-03 0.  1.
         11   -1    0    0    0    0 -0.00000000000E+00 -0.00000000000E+00 -0.45593999997E+02  0.45594000000E+02  0.51100000000E-03 0. -1.
    9900012    2    1    2    0    0 -0.74207574259E+00  0.57122749336E+00 -0.71758893751E+00  0.90008207162E+02  0.90000474695E+02 0.  0.
        -12    1    1    2    0    0  0.74207574259E+00 -0.57122749336E+00  0.71758893751E+00  0.11797928378E+01  0.00000000000E+00 0.  1.
         11    1    3    3    0    0  0.16125022936E+02  0.45410950522E+01  0.32150011727E+02  0.36252740079E+02  0.51100000000E-03 0. -1.
        -11    1    3    3    0    0 -0.44679661586E+01 -0.70793569395E+01  0.76062973903E+01  0.11310869839E+02  0.51100000000E-03 0.  1.
        -12    1    3    3    0    0 -0.12399132520E+02  0.31094893806E+01 -0.40473898054E+02  0.42444597244E+02  0.00000000000E+00 0.  1.
</event>
<event>
 7    1  0.3505640E-015  0.9000776E+02  0.7816164E-02  0.1186339E+00
        -11   -1    0    0    0    0  0.00000000000E+00  0.00000000000E+00  0.45593999997E+02  0.45594000000E+02  0.51100000000E-03 0.  1.
         11   -1    0    0    0    0 -0.00000000000E+00 -0.00000000000E+00 -0.45593999997E+02  0.45594000000E+02  0.51100000000E-03 0. -1.
    9900012    2    1    2    0    0 -0.82333410498E+00  0.84387359792E+00 -0.54509432509E-01  0.90007757239E+02  0.90000018834E+02 0.  0.
        -12    1    1    2    0    0  0.82333410498E+00 -0.84387359792E+00  0.54509432509E-01  0.11802427614E+01  0.00000000000E+00 0.  1.
         11    1    3    3    0    0 -0.34783995344E+02  0.85363986431E+01  0.10289888613E+02  0.37264973391E+02  0.51100000000E-03 0. -1.
        -11    1    3    3    0    0  0.67743570757E+00  0.45023151002E+01  0.10623859983E+02  0.11558380578E+02  0.51100000000E-03 0.  1.
        -12    1    3    3    0    0  0.33283225531E+02 -0.12194840145E+02 -0.20968258028E+02  0.41184403270E+02  0.00000000000E+00 0.  1.
</event>
<event>
 7    1  0.3505640E-015  0.9000762E+02  0.7816164E-02  0.1186339E+00
        -11   -1    0    0    0    0  0.00000000000E+00  0.00000000000E+00  0.45593999997E+02  0.45594000000E+02  0.51100000000E-03 0. -1.
         11   -1    0    0    0    0 -0.00000000000E+00 -0.00000000000E+00 -0.45593999997E+02  0.45594000000E+02  0.51100000000E-03 0.  1.
    9900012    2    1    2    0    0 -0.20956218149E+00 -0.10491054308E+01  0.49876124448E+00  0.90007618158E+02  0.89999877918E+02 0.  0.
        -12    1    1    2    0    0  0.20956218149E+00  0.10491054308E+01 -0.49876124448E+00  0.11803818415E+01  0.00000000000E+00 0.  1.
         11    1    3    3    0    0 -0.11267897927E+02  0.24310640351E+02 -0.19437452484E+02  0.33102678401E+02  0.51100000000E-03 0. -1.
        -11    1    3    3    0    0 -0.46343990930E+01  0.42166089899E+01 -0.10125942853E+02  0.11907651543E+02  0.51100000000E-03 0.  1.
        -12    1    3    3    0    0  0.15692734839E+02 -0.29576354772E+02  0.30062156582E+02  0.44997288215E+02  0.00000000000E+00 0.  1.
</event>
<event>
 7    1  0.3505640E-015  0.9000814E+02  0.7816164E-02  0.1186338E+00
        -11   -1    0    0    0    0  0.00000000000E+00  0.00000000000E+00  0.45593999997E+02  0.45594000000E+02  0.51100000000E-03 0.  1.
         11   -1    0    0    0    0 -0.00000000000E+00 -0.00000000000E+00 -0.45593999997E+02  0.45594000000E+02  0.51100000000E-03 0. -1.
    9900012    2    1    2    0    0  0.10011109366E+01  0.28205855832E+00  0.55702923629E+00  0.90008143353E+02  0.90000410044E+02 0.  0.
        -12    1    1    2    0    0 -0.10011109366E+01 -0.28205855832E+00 -0.55702923629E+00  0.11798566471E+01  0.00000000000E+00 0.  1.
         11    1    3    3    0    0  0.14833167965E+02 -0.16068867915E+02  0.30888745876E+02  0.37846347380E+02  0.51100000000E-03 0. -1.
        -11    1    3    3    0    0 -0.41122219001E+01  0.55704923485E+01  0.83494463009E+01  0.10846843216E+02  0.51100000000E-03 0.  1.
        -12    1    3    3    0    0 -0.97198351285E+01  0.10780434124E+02 -0.38681162941E+02  0.41314952757E+02  0.00000000000E+00 0.  1.
</event>
<event>
 7    1  0.3505640E-015  0.9000778E+02  0.7816164E-02  0.1186339E+00
        -11   -1    0    0    0    0  0.00000000000E+00  0.00000000000E+00  0.45593999997E+02  0.45594000000E+02  0.51100000000E-03 0.  1.
         11   -1    0    0    0    0 -0.00000000000E+00 -0.00000000000E+00 -0.45593999997E+02  0.45594000000E+02  0.51100000000E-03 0. -1.
    9900012    2    1    2    0    0  0.95686521281E+00  0.57805794293E-01 -0.68847497909E+00  0.90007775300E+02  0.90000037134E+02 0.  0.
        -12    1    1    2    0    0 -0.95686521281E+00 -0.57805794293E-01  0.68847497909E+00  0.11802246999E+01  0.00000000000E+00 0.  1.
         11    1    3    3    0    0  0.11756071149E+02  0.15450811892E+02 -0.45634560152E+01  0.19943869435E+02  0.51100000000E-03 0. -1.
        -11    1    3    3    0    0  0.10141055322E+01 -0.28229283188E+02  0.28341838419E+02  0.40014755335E+02  0.51100000000E-03 0.  1.
         12    1    3    3    0    0 -0.11813311468E+02  0.12836277090E+02 -0.24466857383E+02  0.30049150530E+02  0.00000000000E+00 0. -1.
</event>
<event>
 7    1  0.3505640E-015  0.9000784E+02  0.7816164E-02  0.1186339E+00
        -11   -1    0    0    0    0  0.00000000000E+00  0.00000000000E+00  0.45593999997E+02  0.45594000000E+02  0.51100000000E-03 0. -1.
         11   -1    0    0    0    0 -0.00000000000E+00 -0.00000000000E+00 -0.45593999997E+02  0.45594000000E+02  0.51100000000E-03 0.  1.
    9900012    2    1    2    0    0  0.96344023352E+00 -0.67469810661E+00  0.96651046146E-01  0.90007840670E+02  0.90000103367E+02 0.  0.
        -12    1    1    2    0    0 -0.96344023352E+00  0.67469810661E+00 -0.96651046146E-01  0.11801593296E+01  0.00000000000E+00 0.  1.
         11    1    3    3    0    0  0.56868098093E+01 -0.27469065259E+02  0.22822369446E+02  0.36162824826E+02  0.51100000000E-03 0. -1.
        -11    1    3    3    0    0 -0.45613096812E-01 -0.47621708728E+01  0.81561362825E+01  0.94447292865E+01  0.51100000000E-03 0.  1.
        -12    1    3    3    0    0 -0.46777564790E+01  0.31556538025E+02 -0.30881854683E+02  0.44400286558E+02  0.00000000000E+00 0.  1.
</event>
<event>
 7    1  0.3505640E-015  0.9000771E+02  0.7816164E-02  0.1186339E+00
        -11   -1    0    0    0    0  0.00000000000E+00  0.00000000000E+00  0.45593999997E+02  0.45594000000E+02  0.51100000000E-03 0.  1.
         11   -1    0    0    0    0 -0.00000000000E+00 -0.00000000000E+00 -0.45593999997E+02  0.45594000000E+02  0.51100000000E-03 0. -1.
    9900012    2    1    2    0    0 -0.10066137881E+01 -0.43379834310E+00 -0.43775304714E+00  0.90007711878E+02  0.89999972875E+02 0.  0.
        -12    1    1    2    0    0  0.10066137881E+01  0.43379834310E+00  0.43775304714E+00  0.11802881221E+01  0.00000000000E+00 0.  1.
         11    1    3    3    0    0 -0.70082499918E+01 -0.10208359825E+01 -0.98315949918E+01  0.12116845068E+02  0.51100000000E-03 0. -1.
        -11    1    3    3    0    0 -0.34045502626E+02 -0.71195078762E+01  0.12574397561E+02  0.36985120194E+02  0.51100000000E-03 0.  1.
         12    1    3    3    0    0  0.40047138830E+02  0.77065455156E+01 -0.31805556167E+01  0.40905746617E+02  0.00000000000E+00 0. -1.
</event>
<event>
 7    1  0.3505640E-015  0.9000780E+02  0.7816164E-02  0.1186339E+00
        -11   -1    0    0    0    0  0.00000000000E+00  0.00000000000E+00  0.45593999997E+02  0.45594000000E+02  0.51100000000E-03 0.  1.
         11   -1    0    0    0    0 -0.00000000000E+00 -0.00000000000E+00 -0.45593999997E+02  0.45594000000E+02  0.51100000000E-03 0. -1.
    9900012    2    1    2    0    0  0.68856884094E+00  0.50941285926E+00  0.81193213898E+00  0.90007804123E+02  0.90000066337E+02 0.  0.
        -12    1    1    2    0    0 -0.68856884094E+00 -0.50941285926E+00 -0.81193213898E+00  0.11801958771E+01  0.00000000000E+00 0.  1.
         11    1    3    3    0    0  0.55898979348E+01 -0.37739126858E+01  0.71209635438E+01  0.98080323171E+01  0.51100000000E-03 0. -1.
        -11    1    3    3    0    0 -0.35832240160E+01  0.41899927466E+02 -0.10988308398E+00  0.42053008103E+02  0.51100000000E-03 0.  1.
         12    1    3    3    0    0 -0.13181050778E+01 -0.37616601921E+02 -0.61991483208E+01  0.38146763702E+02  0.00000000000E+00 0. -1.
</event>
<event>
 7    1  0.3505640E-015  0.9000765E+02  0.7816164E-02  0.1186339E+00
        -11   -1    0    0    0    0  0.00000000000E+00  0.00000000000E+00  0.45593999997E+02  0.45594000000E+02  0.51100000000E-03 0.  1.
         11   -1    0    0    0    0 -0.00000000000E+00 -0.00000000000E+00 -0.45593999997E+02  0.45594000000E+02  0.51100000000E-03 0. -1.
    9900012    2    1    2    0    0 -0.60234160669E+00 -0.27225934587E+00 -0.97789928332E+00  0.90007649386E+02  0.89999909558E+02 0.  0.
        -12    1    1    2    0    0  0.60234160669E+00  0.27225934587E+00  0.97789928332E+00  0.11803506135E+01  0.00000000000E+00 0.  1.
         11    1    3    3    0    0 -0.40489195868E+01 -0.32471397831E+00 -0.97352186046E+01  0.10548633586E+02  0.51100000000E-03 0. -1.
        -11    1    3    3    0    0  0.13226704755E+02 -0.37018157117E+02  0.11680176608E+02  0.41008733227E+02  0.51100000000E-03 0.  1.
         12    1    3    3    0    0 -0.97801267753E+01  0.37070611750E+02 -0.29228572871E+01  0.38450282573E+02  0.00000000000E+00 0. -1.
</event>
<event>
 7    1  0.3505640E-015  0.9000776E+02  0.7816164E-02  0.1186339E+00
        -11   -1    0    0    0    0  0.00000000000E+00  0.00000000000E+00  0.45593999997E+02  0.45594000000E+02  0.51100000000E-03 0. -1.
         11   -1    0    0    0    0 -0.00000000000E+00 -0.00000000000E+00 -0.45593999997E+02  0.45594000000E+02  0.51100000000E-03 0.  1.
    9900012    2    1    2    0    0 -0.78326618236E+00 -0.28256852340E+00  0.83643663200E+00  0.90007755482E+02  0.90000017054E+02 0.  0.
        -12    1    1    2    0    0  0.78326618236E+00  0.28256852340E+00 -0.83643663200E+00  0.11802445180E+01  0.00000000000E+00 0.  1.
         11    1    3    3    0    0 -0.59107941939E+01  0.58569576617E+00 -0.88147843769E+01  0.10629249804E+02  0.51100000000E-03 0. -1.
        -11    1    3    3    0    0  0.20914951916E+02  0.28897624135E+02 -0.13884272976E+02  0.38278988109E+02  0.51100000000E-03 0.  1.
         12    1    3    3    0    0 -0.15787423904E+02 -0.29765888425E+02  0.23535493985E+02  0.41099517569E+02  0.00000000000E+00 0. -1.
</event>
<event>
 7    1  0.3505640E-015  0.9000775E+02  0.7816164E-02  0.1186339E+00
        -11   -1    0    0    0    0  0.00000000000E+00  0.00000000000E+00  0.45593999997E+02  0.45594000000E+02  0.51100000000E-03 0.  1.
         11   -1    0    0    0    0 -0.00000000000E+00 -0.00000000000E+00 -0.45593999997E+02  0.45594000000E+02  0.51100000000E-03 0. -1.
    9900012    2    1    2    0    0 -0.10242258988E+01 -0.58017986199E+00 -0.85738376566E-01  0.90007746454E+02  0.90000007907E+02 0.  0.
        -12    1    1    2    0    0  0.10242258988E+01  0.58017986199E+00  0.85738376566E-01  0.11802535461E+01  0.00000000000E+00 0.  1.
         11    1    3    3    0    0 -0.24794254930E+02 -0.16893031130E+02 -0.22717917638E+02  0.37632876058E+02  0.51100000000E-03 0. -1.
        -11    1    3    3    0    0 -0.77749365730E+01  0.11215530271E+02  0.79156615689E+00  0.13669833035E+02  0.51100000000E-03 0.  1.
        -12    1    3    3    0    0  0.31544965605E+02  0.50973209972E+01  0.21840613105E+02  0.38705037361E+02  0.00000000000E+00 0.  1.
</event>
<event>
 7    1  0.3505640E-015  0.9000772E+02  0.7816164E-02  0.1186339E+00
        -11   -1    0    0    0    0  0.00000000000E+00  0.00000000000E+00  0.45593999997E+02  0.45594000000E+02  0.51100000000E-03 0.  1.
         11   -1    0    0    0    0 -0.00000000000E+00 -0.00000000000E+00 -0.45593999997E+02  0.45594000000E+02  0.51100000000E-03 0. -1.
    9900012    2    1    2    0    0 -0.73467102124E-01  0.34921065418E+00 -0.11250445494E+01  0.90007715825E+02  0.89999976874E+02 0.  0.
        -12    1    1    2    0    0  0.73467102124E-01 -0.34921065418E+00  0.11250445494E+01  0.11802841752E+01  0.00000000000E+00 0.  1.
         11    1    3    3    0    0 -0.13255996744E+02 -0.22546848045E+02 -0.96675493511E+01  0.27884463723E+02  0.51100000000E-03 0. -1.
        -11    1    3    3    0    0 -0.10237594987E+02 -0.13046842175E+02  0.96912834337E+01  0.19208056037E+02  0.51100000000E-03 0.  1.
         12    1    3    3    0    0  0.23420124629E+02  0.35942900874E+02 -0.11487786321E+01  0.42915196064E+02  0.00000000000E+00 0. -1.
</event>
<event>
 7    1  0.3505640E-015  0.9000764E+02  0.7816164E-02  0.1186339E+00
        -11   -1    0    0    0    0  0.00000000000E+00  0.00000000000E+00  0.45593999997E+02  0.45594000000E+02  0.51100000000E-03 0. -1.
         11   -1    0    0    0    0 -0.00000000000E+00 -0.00000000000E+00 -0.45593999997E+02  0.45594000000E+02  0.51100000000E-03 0.  1.
    9900012    2    1    2    0    0  0.58211197758E+00 -0.10248749609E+01  0.63457330216E-01  0.90007639939E+02  0.89999899987E+02 0.  0.
        -12    1    1    2    0    0 -0.58211197758E+00  0.10248749609E+01 -0.63457330216E-01  0.11803600606E+01  0.00000000000E+00 0.  1.
         11    1    3    3    0    0  0.18669319427E+01  0.28016839070E+01 -0.81422154605E+01  0.88108195112E+01  0.51100000000E-03 0. -1.
        -11    1    3    3    0    0 -0.24004540504E+02 -0.22359398592E+02 -0.21686930045E+02  0.39325355755E+02  0.51100000000E-03 0.  1.
         12    1    3    3    0    0  0.22719720539E+02  0.18532839724E+02  0.29892602835E+02  0.41871464673E+02  0.00000000000E+00 0. -1.
</event>
<event>
 7    1  0.3505640E-015  0.9000768E+02  0.7816164E-02  0.1186339E+00
        -11   -1    0    0    0    0  0.00000000000E+00  0.00000000000E+00  0.45593999997E+02  0.45594000000E+02  0.51100000000E-03 0.  1.
         11   -1    0    0    0    0 -0.00000000000E+00 -0.00000000000E+00 -0.45593999997E+02  0.45594000000E+02  0.51100000000E-03 0. -1.
    9900012    2    1    2    0    0  0.13666907929E+00 -0.11723526687E+01  0.86457599666E-02  0.90007676330E+02  0.89999936857E+02 0.  0.
        -12    1    1    2    0    0 -0.13666907929E+00  0.11723526687E+01 -0.86457599666E-02  0.11803236701E+01  0.00000000000E+00 0.  1.
         11    1    3    3    0    0  0.81891533701E+01 -0.16060054804E+00  0.34677725660E+01  0.88945754416E+01  0.51100000000E-03 0. -1.
        -11    1    3    3    0    0 -0.30093446090E+02 -0.30596821281E+02  0.51650703378E+01  0.43225674338E+02  0.51100000000E-03 0.  1.
         12    1    3    3    0    0  0.22040961799E+02  0.29585069160E+02 -0.86241971439E+01  0.37887426551E+02  0.00000000000E+00 0. -1.
</event>
<event>
 7    1  0.3505640E-015  0.9000767E+02  0.7816164E-02  0.1186339E+00
        -11   -1    0    0    0    0  0.00000000000E+00  0.00000000000E+00  0.45593999997E+02  0.45594000000E+02  0.51100000000E-03 0.  1.
         11   -1    0    0    0    0 -0.00000000000E+00 -0.00000000000E+00 -0.45593999997E+02  0.45594000000E+02  0.51100000000E-03 0. -1.
    9900012    2    1    2    0    0 -0.90136761224E+00 -0.23506319941E+00  0.72488439925E+00  0.90007671371E+02  0.89999931833E+02 0.  0.
        -12    1    1    2    0    0  0.90136761224E+00  0.23506319941E+00 -0.72488439925E+00  0.11803286290E+01  0.00000000000E+00 0.  1.
         11    1    3    3    0    0 -0.18362061388E+02 -0.27346308266E+02 -0.11775950240E+02  0.34980835875E+02  0.51100000000E-03 0. -1.
        -11    1    3    3    0    0 -0.64272962157E+01 -0.44514432807E+01 -0.73624716829E+01  0.10739249204E+02  0.51100000000E-03 0.  1.
        -12    1    3    3    0    0  0.23887989991E+02  0.31562688347E+02  0.19863306323E+02  0.44287586292E+02  0.00000000000E+00 0.  1.
</event>
<event>
 7    1  0.3505640E-015  0.9000773E+02  0.7816164E-02  0.1186339E+00
        -11   -1    0    0    0    0  0.00000000000E+00  0.00000000000E+00  0.45593999997E+02  0.45594000000E+02  0.51100000000E-03 0.  1.
         11   -1    0    0    0    0 -0.00000000000E+00 -0.00000000000E+00 -0.45593999997E+02  0.45594000000E+02  0.51100000000E-03 0. -1.
    9900012    2    1    2    0    0  0.76720482993E+00 -0.86133793463E+00 -0.25006298760E+00  0.90007729782E+02  0.89999991016E+02 0.  0.
        -12    1    1    2    0    0 -0.76720482993E+00  0.86133793463E+00  0.25006298760E+00  0.11802702176E+01  0.00000000000E+00 0.  1.
         11    1    3    3    0    0 -0.39118834197E+01 -0.67997880334E+01 -0.12557451438E+02  0.14806401861E+02  0.51100000000E-03 0. -1.
        -11    1    3    3    0    0 -0.21592504033E+02 -0.24932011190E+02  0.52162488073E+00  0.32986565526E+02  0.51100000000E-03 0.  1.
         12    1    3    3    0    0  0.26271592283E+02  0.30870461288E+02  0.11785763569E+02  0.42214762396E+02  0.00000000000E+00 0. -1.
</event>
<event>
 7    1  0.3564902E-015  0.9000771E+02  0.7816164E-02  0.1186339E+00
        -11   -1    0    0    0    0  0.00000000000E+00  0.00000000000E+00  0.45593999997E+02  0.45594000000E+02  0.51100000000E-03 0.  1.
         11   -1    0    0    0    0 -0.00000000000E+00 -0.00000000000E+00 -0.45593999997E+02  0.45594000000E+02  0.51100000000E-03 0. -1.
    9900012    2    1    2    0    0  0.15542776319E+00  0.11698684574E+01 -0.18169631770E-01  0.90007711843E+02  0.89999972840E+02 0.  0.
        -12    1    1    2    0    0 -0.15542776319E+00 -0.11698684574E+01  0.18169631770E-01  0.11802881566E+01  0.00000000000E+00 0.  1.
         11    1    3    3    0    0 -0.87457178501E+01 -0.29281388151E+01 -0.28198609505E+01  0.96443347969E+01  0.51100000000E-03 0. -1.
        -11    1    3    3    0    0 -0.17081406670E+02 -0.17311080967E+02  0.28896046966E+02  0.37768101733E+02  0.51100000000E-03 0.  1.
         12    1    3    3    0    0  0.25982552283E+02  0.21409088239E+02 -0.26094355647E+02  0.42595275313E+02  0.00000000000E+00 0. -1.
</event>
<event>
 7    1  0.3505640E-015  0.9000765E+02  0.7816164E-02  0.1186339E+00
        -11   -1    0    0    0    0  0.00000000000E+00  0.00000000000E+00  0.45593999997E+02  0.45594000000E+02  0.51100000000E-03 0.  1.
         11   -1    0    0    0    0 -0.00000000000E+00 -0.00000000000E+00 -0.45593999997E+02  0.45594000000E+02  0.51100000000E-03 0. -1.
    9900012    2    1    2    0    0 -0.22904895715E+00  0.33118000217E+00 -0.11095437173E+01  0.90007647985E+02  0.89999908138E+02 0.  0.
        -12    1    1    2    0    0  0.22904895715E+00 -0.33118000217E+00  0.11095437173E+01  0.11803520149E+01  0.00000000000E+00 0.  1.
         11    1    3    3    0    0 -0.15733705197E+02 -0.13136887051E+02 -0.30615430605E+02  0.36843342302E+02  0.51100000000E-03 0. -1.
        -11    1    3    3    0    0  0.71258121057E+01 -0.16505065236E+01 -0.86187990066E+01  0.11304205701E+02  0.51100000000E-03 0.  1.
        -12    1    3    3    0    0  0.83788441343E+01  0.15118573577E+02  0.38124685894E+02  0.41860099982E+02  0.00000000000E+00 0.  1.
</event>
<event>
 7    1  0.3505640E-015  0.9000753E+02  0.7816164E-02  0.1186339E+00
        -11   -1    0    0    0    0  0.00000000000E+00  0.00000000000E+00  0.45593999997E+02  0.45594000000E+02  0.51100000000E-03 0. -1.
         11   -1    0    0    0    0 -0.00000000000E+00 -0.00000000000E+00 -0.45593999997E+02  0.45594000000E+02  0.51100000000E-03 0.  1.
    9900012    2    1    2    0    0 -0.43137603650E+00  0.46741633581E+00  0.99446276892E+00  0.90007525725E+02  0.89999784264E+02 0.  0.
        -12    1    1    2    0    0  0.43137603650E+00 -0.46741633581E+00 -0.99446276892E+00  0.11804742753E+01  0.00000000000E+00 0.  1.
         11    1    3    3    0    0 -0.32768025951E+02  0.20179746789E+02  0.35562575353E+01  0.38647285456E+02  0.51100000000E-03 0. -1.
        -11    1    3    3    0    0 -0.21842782108E+01  0.42861648864E+01 -0.76225718862E+01  0.90136498244E+01  0.51100000000E-03 0.  1.
        -12    1    3    3    0    0  0.34520928126E+02 -0.23998495339E+02  0.50607771198E+01  0.42346590444E+02  0.00000000000E+00 0.  1.
</event>
<event>
 7    1  0.3505640E-015  0.9000779E+02  0.7816164E-02  0.1186339E+00
        -11   -1    0    0    0    0  0.00000000000E+00  0.00000000000E+00  0.45593999997E+02  0.45594000000E+02  0.51100000000E-03 0. -1.
         11   -1    0    0    0    0 -0.00000000000E+00 -0.00000000000E+00 -0.45593999997E+02  0.45594000000E+02  0.51100000000E-03 0.  1.
    9900012    2    1    2    0    0 -0.10285454676E+01 -0.22759975487E+00  0.53216442787E+00  0.90007785441E+02  0.90000047409E+02 0.  0.
        -12    1    1    2    0    0  0.10285454676E+01  0.22759975487E+00 -0.53216442787E+00  0.11802145591E+01  0.00000000000E+00 0.  1.
         11    1    3    3    0    0  0.31981952349E+02 -0.87801292735E+01  0.90704031902E+01  0.34383254069E+02  0.51100000000E-03 0. -1.
        -11    1    3    3    0    0  0.97630504823E+01 -0.37485714709E+01 -0.16728303532E+01  0.10590906687E+02  0.51100000000E-03 0.  1.
        -12    1    3    3    0    0 -0.42773548299E+02  0.12301100990E+02 -0.68654084091E+01  0.45033624685E+02  0.00000000000E+00 0.  1.
</event>
<event>
 7    1  0.3505640E-015  0.9000773E+02  0.7816164E-02  0.1186339E+00
        -11   -1    0    0    0    0  0.00000000000E+00  0.00000000000E+00  0.45593999997E+02  0.45594000000E+02  0.51100000000E-03 0.  1.
         11   -1    0    0    0    0 -0.00000000000E+00 -0.00000000000E+00 -0.45593999997E+02  0.45594000000E+02  0.51100000000E-03 0. -1.
    9900012    2    1    2    0    0  0.50873346084E+00 -0.10340671050E+01 -0.25482393951E+00  0.90007728950E+02  0.89999990172E+02 0.  0.
        -12    1    1    2    0    0 -0.50873346084E+00  0.10340671050E+01  0.25482393951E+00  0.11802710502E+01  0.00000000000E+00 0.  1.
         11    1    3    3    0    0 -0.39988797431E+02  0.16094627028E+01  0.36098639128E+01  0.40183646026E+02  0.51100000000E-03 0. -1.
        -11    1    3    3    0    0  0.16300189133E+01  0.37635067679E+01 -0.91996005626E+01  0.10072417566E+02  0.51100000000E-03 0.  1.
        -12    1    3    3    0    0  0.38867511979E+02 -0.64070365757E+01  0.53349127103E+01  0.39751665358E+02  0.00000000000E+00 0.  1.
</event>
<event>
 7    1  0.3505640E-015  0.9000770E+02  0.7816164E-02  0.1186339E+00
        -11   -1    0    0    0    0  0.00000000000E+00  0.00000000000E+00  0.45593999997E+02  0.45594000000E+02  0.51100000000E-03 0.  1.
         11   -1    0    0    0    0 -0.00000000000E+00 -0.00000000000E+00 -0.45593999997E+02  0.45594000000E+02  0.51100000000E-03 0. -1.
    9900012    2    1    2    0    0 -0.69518838371E+00 -0.26807623299E+00  0.91539741383E+00  0.90007701656E+02  0.89999962518E+02 0.  0.
        -12    1    1    2    0    0  0.69518838371E+00  0.26807623299E+00 -0.91539741383E+00  0.11802983440E+01  0.00000000000E+00 0.  1.
         11    1    3    3    0    0 -0.14740274396E+02 -0.77674439195E+00  0.73351758296E+01  0.16482834278E+02  0.51100000000E-03 0. -1.
        -11    1    3    3    0    0  0.11762510859E+02 -0.26731439529E+02  0.20088688675E+02  0.35446888917E+02  0.51100000000E-03 0.  1.
         12    1    3    3    0    0  0.22825751529E+01  0.27240107688E+02 -0.26508467091E+02  0.38077978461E+02  0.00000000000E+00 0. -1.
</event>
<event>
 7    1  0.3505640E-015  0.9000774E+02  0.7816164E-02  0.1186339E+00
        -11   -1    0    0    0    0  0.00000000000E+00  0.00000000000E+00  0.45593999997E+02  0.45594000000E+02  0.51100000000E-03 0.  1.
         11   -1    0    0    0    0 -0.00000000000E+00 -0.00000000000E+00 -0.45593999997E+02  0.45594000000E+02  0.51100000000E-03 0. -1.
    9900012    2    1    2    0    0 -0.78946054282E+00  0.87735579225E+00  0.19746444864E-02  0.90007743657E+02  0.90000005074E+02 0.  0.
        -12    1    1    2    0    0  0.78946054282E+00 -0.87735579225E+00 -0.19746444864E-02  0.11802563425E+01  0.00000000000E+00 0.  1.
         11    1    3    3    0    0  0.74410532921E+01 -0.36792929109E+02 -0.20677377877E+01  0.37594739609E+02  0.51100000000E-03 0. -1.
        -11    1    3    3    0    0  0.99483684568E+01 -0.10883897271E+00  0.32638776801E+01  0.10470662761E+02  0.51100000000E-03 0.  1.
        -12    1    3    3    0    0 -0.18178882292E+02  0.37779123874E+02 -0.11941652479E+01  0.41942341287E+02  0.00000000000E+00 0.  1.
</event>
<event>
 7    1  0.3505640E-015  0.9000767E+02  0.7816164E-02  0.1186339E+00
        -11   -1    0    0    0    0  0.00000000000E+00  0.00000000000E+00  0.45593999997E+02  0.45594000000E+02  0.51100000000E-03 0. -1.
         11   -1    0    0    0    0 -0.00000000000E+00 -0.00000000000E+00 -0.45593999997E+02  0.45594000000E+02  0.51100000000E-03 0.  1.
    9900012    2    1    2    0    0 -0.68354946659E-02 -0.62789332630E+00  0.99943789063E+00  0.90007672566E+02  0.89999933044E+02 0.  0.
        -12    1    1    2    0    0  0.68354946659E-02  0.62789332630E+00 -0.99943789063E+00  0.11803274336E+01  0.00000000000E+00 0.  1.
         11    1    3    3    0    0 -0.86920538010E+00  0.24136486137E+02  0.24981403153E+02  0.34747604015E+02  0.51100000000E-03 0. -1.
        -11    1    3    3    0    0 -0.11149660131E+01  0.97925804113E+01  0.41129433936E+01  0.10679610664E+02  0.51100000000E-03 0.  1.
        -12    1    3    3    0    0  0.19773358985E+01 -0.34556959875E+02 -0.28094908656E+02  0.44580457887E+02  0.00000000000E+00 0.  1.
</event>
<event>
 7    1  0.3505640E-015  0.9000772E+02  0.7816164E-02  0.1186339E+00
        -11   -1    0    0    0    0  0.00000000000E+00  0.00000000000E+00  0.45593999997E+02  0.45594000000E+02  0.51100000000E-03 0. -1.
         11   -1    0    0    0    0 -0.00000000000E+00 -0.00000000000E+00 -0.45593999997E+02  0.45594000000E+02  0.51100000000E-03 0.  1.
    9900012    2    1    2    0    0  0.46702713290E+00  0.37371322564E+00  0.10174864904E+01  0.90007722627E+02  0.89999983766E+02 0.  0.
        -12    1    1    2    0    0 -0.46702713290E+00 -0.37371322564E+00 -0.10174864904E+01  0.11802773725E+01  0.00000000000E+00 0.  1.
         11    1    3    3    0    0  0.11323338279E+02  0.16693506304E+02 -0.20089784640E+01  0.20271337826E+02  0.51100000000E-03 0. -1.
        -11    1    3    3    0    0  0.11624971249E+02 -0.95278428950E+01 -0.27429209190E+02  0.31277488132E+02  0.51100000000E-03 0.  1.
         12    1    3    3    0    0 -0.22481282396E+02 -0.67919501834E+01  0.30455674145E+02  0.38458896670E+02  0.00000000000E+00 0. -1.
</event>
<event>
 7    1  0.3505640E-015  0.9000738E+02  0.7816164E-02  0.1186340E+00
        -11   -1    0    0    0    0  0.00000000000E+00  0.00000000000E+00  0.45593999997E+02  0.45594000000E+02  0.51100000000E-03 0.  1.
         11   -1    0    0    0    0 -0.00000000000E+00 -0.00000000000E+00 -0.45593999997E+02  0.45594000000E+02  0.51100000000E-03 0. -1.
    9900012    2    1    2    0    0  0.71726757997E+00 -0.49761319558E+00 -0.79483423924E+00  0.90007384423E+02  0.89999641096E+02 0.  0.
        -12    1    1    2    0    0 -0.71726757997E+00  0.49761319558E+00  0.79483423924E+00  0.11806155774E+01  0.00000000000E+00 0.  1.
         11    1    3    3    0    0 -0.13307512437E+01  0.66860772546E+00  0.31995457593E+01  0.35291682434E+01  0.51100000000E-03 0. -1.
        -11    1    3    3    0    0  0.16541111267E+02  0.11291381435E+02  0.36537625498E+02  0.41666554141E+02  0.51100000000E-03 0.  1.
         12    1    3    3    0    0 -0.14493092443E+02 -0.12457602356E+02 -0.40532005497E+02  0.44811662038E+02  0.00000000000E+00 0. -1.
</event>
<event>
 7    1  0.3505640E-015  0.9000761E+02  0.7816164E-02  0.1186339E+00
        -11   -1    0    0    0    0  0.00000000000E+00  0.00000000000E+00  0.45593999997E+02  0.45594000000E+02  0.51100000000E-03 0.  1.
         11   -1    0    0    0    0 -0.00000000000E+00 -0.00000000000E+00 -0.45593999997E+02  0.45594000000E+02  0.51100000000E-03 0. -1.
    9900012    2    1    2    0    0  0.63846678607E+00 -0.80157500038E+00 -0.58579203860E+00  0.90007612508E+02  0.89999872193E+02 0.  0.
        -12    1    1    2    0    0 -0.63846678607E+00  0.80157500038E+00  0.58579203860E+00  0.11803874917E+01  0.00000000000E+00 0.  1.
         11    1    3    3    0    0  0.18368731012E+02 -0.35033821603E+02 -0.10333640054E+02  0.40884753297E+02  0.51100000000E-03 0. -1.
        -11    1    3    3    0    0 -0.77830012646E+01 -0.37064671156E+01 -0.33312294982E+00  0.86269333094E+01  0.51100000000E-03 0.  1.
        -12    1    3    3    0    0 -0.99472629616E+01  0.37938713718E+02  0.10080970966E+02  0.40495925902E+02  0.00000000000E+00 0.  1.
</event>
<event>
 7    1  0.3505640E-015  0.9000776E+02  0.7816164E-02  0.1186339E+00
        -11   -1    0    0    0    0  0.00000000000E+00  0.00000000000E+00  0.45593999997E+02  0.45594000000E+02  0.51100000000E-03 0.  1.
         11   -1    0    0    0    0 -0.00000000000E+00 -0.00000000000E+00 -0.45593999997E+02  0.45594000000E+02  0.51100000000E-03 0. -1.
    9900012    2    1    2    0    0 -0.33131671864E+00  0.10987373836E+01 -0.27564461734E+00  0.90007756567E+02  0.90000018154E+02 0.  0.
        -12    1    1    2    0    0  0.33131671864E+00 -0.10987373836E+01  0.27564461734E+00  0.11802434330E+01  0.00000000000E+00 0.  1.
         11    1    3    3    0    0 -0.96734142037E+00 -0.36595830296E+01 -0.85650760232E+01  0.93642311440E+01  0.51100000000E-03 0. -1.
        -11    1    3    3    0    0  0.21718975701E+02 -0.30894809453E+02  0.10395566857E+02  0.39169771089E+02  0.51100000000E-03 0.  1.
         12    1    3    3    0    0 -0.21082950999E+02  0.35653129866E+02 -0.21061354508E+01  0.41473754334E+02  0.00000000000E+00 0. -1.
</event>
<event>
 7    1  0.3505640E-015  0.9000774E+02  0.7816164E-02  0.1186339E+00
        -11   -1    0    0    0    0  0.00000000000E+00  0.00000000000E+00  0.45593999997E+02  0.45594000000E+02  0.51100000000E-03 0.  1.
         11   -1    0    0    0    0 -0.00000000000E+00 -0.00000000000E+00 -0.45593999997E+02  0.45594000000E+02  0.51100000000E-03 0. -1.
    9900012    2    1    2    0    0 -0.85454771660E+00  0.59219253054E+00 -0.55863511934E+00  0.90007738593E+02  0.89999999942E+02 0.  0.
        -12    1    1    2    0    0  0.85454771660E+00 -0.59219253054E+00  0.55863511934E+00  0.11802614074E+01  0.00000000000E+00 0.  1.
         11    1    3    3    0    0  0.63292053597E+01  0.25105186295E+01  0.28364752258E+01  0.73761193214E+01  0.51100000000E-03 0. -1.
        -11    1    3    3    0    0  0.33373505122E+02 -0.49128820848E+01  0.16278111163E+02  0.37455362204E+02  0.51100000000E-03 0.  1.
         12    1    3    3    0    0 -0.40557258198E+02  0.29945559857E+01 -0.19673221508E+02  0.45176257068E+02  0.00000000000E+00 0. -1.
</event>
<event>
 7    1  0.3505640E-015  0.9000776E+02  0.7816164E-02  0.1186339E+00
        -11   -1    0    0    0    0  0.00000000000E+00  0.00000000000E+00  0.45593999997E+02  0.45594000000E+02  0.51100000000E-03 0. -1.
         11   -1    0    0    0    0 -0.00000000000E+00 -0.00000000000E+00 -0.45593999997E+02  0.45594000000E+02  0.51100000000E-03 0.  1.
    9900012    2    1    2    0    0  0.80141509900E+00 -0.98479505239E-01  0.86081815940E+00  0.90007757534E+02  0.90000019134E+02 0.  0.
        -12    1    1    2    0    0 -0.80141509900E+00  0.98479505239E-01 -0.86081815940E+00  0.11802424655E+01  0.00000000000E+00 0.  1.
         11    1    3    3    0    0 -0.27074678194E+01  0.54558905961E+01 -0.46366111690E+01  0.76547558801E+01  0.51100000000E-03 0. -1.
        -11    1    3    3    0    0 -0.23825999501E+02 -0.22643493833E+02 -0.22354304824E+02  0.39750735963E+02  0.51100000000E-03 0.  1.
         12    1    3    3    0    0  0.27334882419E+02  0.17089123731E+02  0.27851734152E+02  0.42602265692E+02  0.00000000000E+00 0. -1.
</event>
<event>
 7    1  0.3666977E-015  0.9000779E+02  0.7816164E-02  0.1186339E+00
        -11   -1    0    0    0    0  0.00000000000E+00  0.00000000000E+00  0.45593999997E+02  0.45594000000E+02  0.51100000000E-03 0.  1.
         11   -1    0    0    0    0 -0.00000000000E+00 -0.00000000000E+00 -0.45593999997E+02  0.45594000000E+02  0.51100000000E-03 0. -1.
    9900012    2    1    2    0    0 -0.10453970604E+01 -0.49321994416E+00 -0.23827172445E+00  0.90007790552E+02  0.90000052587E+02 0.  0.
        -12    1    1    2    0    0  0.10453970604E+01  0.49321994416E+00  0.23827172445E+00  0.11802094483E+01  0.00000000000E+00 0.  1.
         11    1    3    3    0    0  0.60381063817E+01 -0.15838766330E+01 -0.69530911489E+01  0.93441356289E+01  0.51100000000E-03 0. -1.
        -11    1    3    3    0    0 -0.19036836729E+02 -0.28598121523E+02 -0.19313095083E+02  0.39411284542E+02  0.51100000000E-03 0.  1.
         12    1    3    3    0    0  0.11953333287E+02  0.29688778212E+02  0.26027914508E+02  0.41252370381E+02  0.00000000000E+00 0. -1.
</event>
<event>
 7    1  0.3505640E-015  0.9000792E+02  0.7816164E-02  0.1186339E+00
        -11   -1    0    0    0    0  0.00000000000E+00  0.00000000000E+00  0.45593999997E+02  0.45594000000E+02  0.51100000000E-03 0. -1.
         11   -1    0    0    0    0 -0.00000000000E+00 -0.00000000000E+00 -0.45593999997E+02  0.45594000000E+02  0.51100000000E-03 0.  1.
    9900012    2    1    2    0    0  0.27797437638E-01 -0.93252683244E+00 -0.72264852499E+00  0.90007915308E+02  0.90000178989E+02 0.  0.
        -12    1    1    2    0    0 -0.27797437638E-01  0.93252683244E+00  0.72264852499E+00  0.11800846925E+01  0.00000000000E+00 0.  1.
         11    1    3    3    0    0  0.63766720225E+00 -0.54168938473E+01 -0.50438877128E+01  0.74290081393E+01  0.51100000000E-03 0. -1.
        -11    1    3    3    0    0 -0.34345477689E+02  0.25446340312E+02  0.18792682450E+01  0.42786209488E+02  0.51100000000E-03 0.  1.
         12    1    3    3    0    0  0.33735607925E+02 -0.20961973297E+02  0.24419709429E+01  0.39792697680E+02  0.00000000000E+00 0. -1.
</event>
<event>
 7    1  0.3505640E-015  0.9000777E+02  0.7816164E-02  0.1186339E+00
        -11   -1    0    0    0    0  0.00000000000E+00  0.00000000000E+00  0.45593999997E+02  0.45594000000E+02  0.51100000000E-03 0.  1.
         11   -1    0    0    0    0 -0.00000000000E+00 -0.00000000000E+00 -0.45593999997E+02  0.45594000000E+02  0.51100000000E-03 0. -1.
    9900012    2    1    2    0    0  0.11929112188E+00 -0.22271084672E+00 -0.11528748724E+01  0.90007766564E+02  0.90000028282E+02 0.  0.
        -12    1    1    2    0    0 -0.11929112188E+00  0.22271084672E+00  0.11528748724E+01  0.11802334364E+01  0.00000000000E+00 0.  1.
         11    1    3    3    0    0 -0.15709205231E+01 -0.71913496885E+01 -0.37672242040E+02  0.38384646960E+02  0.51100000000E-03 0. -1.
        -11    1    3    3    0    0 -0.59129559952E+01 -0.57091084489E+00 -0.56000776795E+01  0.81639364323E+01  0.51100000000E-03 0.  1.
        -12    1    3    3    0    0  0.76031676402E+01  0.75395496866E+01  0.42119444848E+02  0.43459183171E+02  0.00000000000E+00 0.  1.
</event>
<event>
 7    1  0.3505640E-015  0.9000769E+02  0.7816164E-02  0.1186339E+00
        -11   -1    0    0    0    0  0.00000000000E+00  0.00000000000E+00  0.45593999997E+02  0.45594000000E+02  0.51100000000E-03 0.  1.
         11   -1    0    0    0    0 -0.00000000000E+00 -0.00000000000E+00 -0.45593999997E+02  0.45594000000E+02  0.51100000000E-03 0. -1.
    9900012    2    1    2    0    0 -0.18143576009E+00  0.28033374655E+00 -0.11320904990E+01  0.90007688667E+02  0.89999949358E+02 0.  0.
        -12    1    1    2    0    0  0.18143576009E+00 -0.28033374655E+00  0.11320904990E+01  0.11803113329E+01  0.00000000000E+00 0.  1.
         11    1    3    3    0    0 -0.31003529218E+02 -0.62890792159E+01  0.25610411018E+02  0.40702143606E+02  0.51100000000E-03 0. -1.
        -11    1    3    3    0    0 -0.45065449991E+01  0.38125041965E+01 -0.27558537056E+01  0.65145119530E+01  0.51100000000E-03 0.  1.
        -12    1    3    3    0    0  0.35328638457E+02  0.27569087659E+01 -0.23986647812E+02  0.42791033108E+02  0.00000000000E+00 0.  1.
</event>
<event>
 7    1  0.3505640E-015  0.9000758E+02  0.7816164E-02  0.1186339E+00
        -11   -1    0    0    0    0  0.00000000000E+00  0.00000000000E+00  0.45593999997E+02  0.45594000000E+02  0.51100000000E-03 0.  1.
         11   -1    0    0    0    0 -0.00000000000E+00 -0.00000000000E+00 -0.45593999997E+02  0.45594000000E+02  0.51100000000E-03 0. -1.
    9900012    2    1    2    0    0 -0.42773720864E+00 -0.10139589235E+01 -0.42698364020E+00  0.90007581919E+02  0.89999841200E+02 0.  0.
        -12    1    1    2    0    0  0.42773720864E+00  0.10139589235E+01  0.42698364020E+00  0.11804180815E+01  0.00000000000E+00 0.  1.
         11    1    3    3    0    0 -0.62607547186E+01 -0.22833119423E+01  0.48074517140E+01  0.82171865815E+01  0.51100000000E-03 0. -1.
        -11    1    3    3    0    0 -0.33122175555E+02 -0.69614342909E+01  0.15125109997E+02  0.37071674275E+02  0.51100000000E-03 0.  1.
         12    1    3    3    0    0  0.38955193065E+02  0.82307873098E+01 -0.20359545352E+02  0.44718721062E+02  0.00000000000E+00 0. -1.
</event>
<event>
 7    1  0.3505640E-015  0.9000772E+02  0.7816164E-02  0.1186339E+00
        -11   -1    0    0    0    0  0.00000000000E+00  0.00000000000E+00  0.45593999997E+02  0.45594000000E+02  0.51100000000E-03 0.  1.
         11   -1    0    0    0    0 -0.00000000000E+00 -0.00000000000E+00 -0.45593999997E+02  0.45594000000E+02  0.51100000000E-03 0. -1.
    9900012    2    1    2    0    0  0.11552021454E+01 -0.24083002448E+00 -0.23701246764E-01  0.90007723403E+02  0.89999984551E+02 0.  0.
        -12    1    1    2    0    0 -0.11552021454E+01  0.24083002448E+00  0.23701246764E-01  0.11802765974E+01  0.00000000000E+00 0.  1.
         11    1    3    3    0    0 -0.39396880368E+01  0.92028858831E+01 -0.17991509589E+01  0.10171096049E+02  0.51100000000E-03 0. -1.
        -11    1    3    3    0    0  0.98964486893E-01  0.32716708867E+02 -0.12532518026E+02  0.35035080154E+02  0.51100000000E-03 0.  1.
         12    1    3    3    0    0  0.49959256953E+01 -0.42160424774E+02  0.14307967739E+02  0.44801547200E+02  0.00000000000E+00 0. -1.
</event>
<event>
 7    1  0.3505640E-015  0.9000774E+02  0.7816164E-02  0.1186339E+00
        -11   -1    0    0    0    0  0.00000000000E+00  0.00000000000E+00  0.45593999997E+02  0.45594000000E+02  0.51100000000E-03 0.  1.
         11   -1    0    0    0    0 -0.00000000000E+00 -0.00000000000E+00 -0.45593999997E+02  0.45594000000E+02  0.51100000000E-03 0. -1.
    9900012    2    1    2    0    0  0.19542947946E+00 -0.11106250848E+01  0.34834226658E+00  0.90007736006E+02  0.89999997321E+02 0.  0.
        -12    1    1    2    0    0 -0.19542947946E+00  0.11106250848E+01 -0.34834226658E+00  0.11802639939E+01  0.00000000000E+00 0.  1.
         11    1    3    3    0    0 -0.36607374674E+02  0.45273142189E+01 -0.37428412751E+01  0.37075670131E+02  0.51100000000E-03 0. -1.
        -11    1    3    3    0    0 -0.71531202642E+01 -0.12471745885E+01 -0.35810582815E+01  0.80960825493E+01  0.51100000000E-03 0.  1.
        -12    1    3    3    0    0  0.43955924418E+02 -0.43907647152E+01  0.76722418232E+01  0.44835983326E+02  0.00000000000E+00 0.  1.
</event>
<event>
 7    1  0.3505640E-015  0.9000824E+02  0.7816164E-02  0.1186338E+00
        -11   -1    0    0    0    0  0.00000000000E+00  0.00000000000E+00  0.45593999997E+02  0.45594000000E+02  0.51100000000E-03 0.  1.
         11   -1    0    0    0    0 -0.00000000000E+00 -0.00000000000E+00 -0.45593999997E+02  0.45594000000E+02  0.51100000000E-03 0. -1.
    9900012    2    1    2    0    0  0.31683516534E+00  0.11312680631E+01  0.10811787479E+00  0.90008236707E+02  0.90000504630E+02 0.  0.
        -12    1    1    2    0    0 -0.31683516534E+00 -0.11312680631E+01 -0.10811787479E+00  0.11797632929E+01  0.00000000000E+00 0.  1.
         11    1    3    3    0    0 -0.28473783860E+02  0.17622838742E+02 -0.22013989001E+02  0.40074137852E+02  0.51100000000E-03 0. -1.
        -11    1    3    3    0    0  0.50719864269E+01 -0.68569177689E+01 -0.70903554287E+01  0.11091235638E+02  0.51100000000E-03 0.  1.
        -12    1    3    3    0    0  0.23718632598E+02 -0.96346529100E+01  0.29212462304E+02  0.38842863217E+02  0.00000000000E+00 0.  1.
</event>
<event>
 7    1  0.3505640E-015  0.9000775E+02  0.7816164E-02  0.1186339E+00
        -11   -1    0    0    0    0  0.00000000000E+00  0.00000000000E+00  0.45593999997E+02  0.45594000000E+02  0.51100000000E-03 0.  1.
         11   -1    0    0    0    0 -0.00000000000E+00 -0.00000000000E+00 -0.45593999997E+02  0.45594000000E+02  0.51100000000E-03 0. -1.
    9900012    2    1    2    0    0 -0.10733879276E+01 -0.31975774557E+00  0.37228070094E+00  0.90007745968E+02  0.90000007415E+02 0.  0.
        -12    1    1    2    0    0  0.10733879276E+01  0.31975774557E+00 -0.37228070094E+00  0.11802540317E+01  0.00000000000E+00 0.  1.
         11    1    3    3    0    0 -0.30288883745E+02  0.49703126214E+01  0.15750941709E+02  0.34499458707E+02  0.51100000000E-03 0. -1.
        -11    1    3    3    0    0 -0.99636851482E+01  0.17134909978E+01  0.44455379677E+01  0.11044178612E+02  0.51100000000E-03 0.  1.
        -12    1    3    3    0    0  0.39179180966E+02 -0.70035613648E+01 -0.19824198975E+02  0.44464108649E+02  0.00000000000E+00 0.  1.
</event>
<event>
 7    1  0.3505640E-015  0.9000767E+02  0.7816164E-02  0.1186339E+00
        -11   -1    0    0    0    0  0.00000000000E+00  0.00000000000E+00  0.45593999997E+02  0.45594000000E+02  0.51100000000E-03 0. -1.
         11   -1    0    0    0    0 -0.00000000000E+00 -0.00000000000E+00 -0.45593999997E+02  0.45594000000E+02  0.51100000000E-03 0.  1.
    9900012    2    1    2    0    0  0.10237361070E+01  0.92938174006E-01  0.58008601576E+00  0.90007672543E+02  0.89999933020E+02 0.  0.
        -12    1    1    2    0    0 -0.10237361070E+01 -0.92938174006E-01 -0.58008601576E+00  0.11803274574E+01  0.00000000000E+00 0.  1.
         11    1    3    3    0    0  0.11937265879E+01 -0.14088119134E+02  0.34417625291E+02  0.37208507291E+02  0.51100000000E-03 0. -1.
        -11    1    3    3    0    0 -0.10044313406E+02 -0.26546702462E+01  0.32531324459E+01  0.10886614574E+02  0.51100000000E-03 0.  1.
        -12    1    3    3    0    0  0.98743229253E+01  0.16835727554E+02 -0.37090671721E+02  0.41912550677E+02  0.00000000000E+00 0.  1.
</event>
<event>
 7    1  0.3505640E-015  0.9000770E+02  0.7816164E-02  0.1186339E+00
        -11   -1    0    0    0    0  0.00000000000E+00  0.00000000000E+00  0.45593999997E+02  0.45594000000E+02  0.51100000000E-03 0. -1.
         11   -1    0    0    0    0 -0.00000000000E+00 -0.00000000000E+00 -0.45593999997E+02  0.45594000000E+02  0.51100000000E-03 0.  1.
    9900012    2    1    2    0    0 -0.32825659914E+00  0.76926456801E+00 -0.83282496314E+00  0.90007695891E+02  0.89999956677E+02 0.  0.
        -12    1    1    2    0    0  0.32825659914E+00 -0.76926456801E+00  0.83282496314E+00  0.11803041090E+01  0.00000000000E+00 0.  1.
         11    1    3    3    0    0 -0.12976253169E+01 -0.12387520043E+02 -0.50116350805E+01  0.13425757734E+02  0.51100000000E-03 0. -1.
        -11    1    3    3    0    0 -0.32764159591E+02  0.24460641281E+02  0.25704558556E+01  0.40968529009E+02  0.51100000000E-03 0.  1.
         12    1    3    3    0    0  0.33733528309E+02 -0.11303856670E+02  0.16083542617E+01  0.35613409149E+02  0.00000000000E+00 0. -1.
</event>
<event>
 7    1  0.3505640E-015  0.9000845E+02  0.7816164E-02  0.1186338E+00
        -11   -1    0    0    0    0  0.00000000000E+00  0.00000000000E+00  0.45593999997E+02  0.45594000000E+02  0.51100000000E-03 0. -1.
         11   -1    0    0    0    0 -0.00000000000E+00 -0.00000000000E+00 -0.45593999997E+02  0.45594000000E+02  0.51100000000E-03 0.  1.
    9900012    2    1    2    0    0 -0.96051635795E+00  0.12634431032E+00 -0.67289445467E+00  0.90008448600E+02  0.90000719318E+02 0.  0.
        -12    1    1    2    0    0  0.96051635795E+00 -0.12634431032E+00  0.67289445467E+00  0.11795514002E+01  0.00000000000E+00 0.  1.
         11    1    3    3    0    0 -0.17197453696E+01  0.60174031019E+01 -0.44337330271E+01  0.76697231400E+01  0.51100000000E-03 0. -1.
        -11    1    3    3    0    0 -0.22454060935E+02  0.79464201063E+01 -0.30502360941E+02  0.38700445323E+02  0.51100000000E-03 0.  1.
         12    1    3    3    0    0  0.23213289947E+02 -0.13837478898E+02  0.34263199513E+02  0.43638280137E+02  0.00000000000E+00 0. -1.
</event>
<event>
 7    1  0.3505640E-015  0.9000777E+02  0.7816164E-02  0.1186339E+00
        -11   -1    0    0    0    0  0.00000000000E+00  0.00000000000E+00  0.45593999997E+02  0.45594000000E+02  0.51100000000E-03 0. -1.
         11   -1    0    0    0    0 -0.00000000000E+00 -0.00000000000E+00 -0.45593999997E+02  0.45594000000E+02  0.51100000000E-03 0.  1.
    9900012    2    1    2    0    0  0.13706174126E+00 -0.11605327778E+01 -0.16527794173E+00  0.90007771612E+02  0.90000033398E+02 0.  0.
        -12    1    1    2    0    0 -0.13706174126E+00  0.11605327778E+01  0.16527794173E+00  0.11802283877E+01  0.00000000000E+00 0.  1.
         11    1    3    3    0    0 -0.99245672171E+01  0.41504139388E+02 -0.35103329907E+01  0.42818372911E+02  0.51100000000E-03 0. -1.
        -11    1    3    3    0    0 -0.25270505060E+01 -0.67964523745E+01 -0.42785715496E+01  0.84192591066E+01  0.51100000000E-03 0.  1.
        -12    1    3    3    0    0  0.12588679464E+02 -0.35868219791E+02  0.76236265986E+01  0.38770139594E+02  0.00000000000E+00 0.  1.
</event>
<event>
 7    1  0.3505640E-015  0.9000788E+02  0.7816164E-02  0.1186339E+00
        -11   -1    0    0    0    0  0.00000000000E+00  0.00000000000E+00  0.45593999997E+02  0.45594000000E+02  0.51100000000E-03 0.  1.
         11   -1    0    0    0    0 -0.00000000000E+00 -0.00000000000E+00 -0.45593999997E+02  0.45594000000E+02  0.51100000000E-03 0. -1.
    9900012    2    1    2    0    0  0.26371660614E+00 -0.10108971080E+01 -0.54883227300E+00  0.90007882940E+02  0.90000146195E+02 0.  0.
        -12    1    1    2    0    0 -0.26371660614E+00  0.10108971080E+01  0.54883227300E+00  0.11801170600E+01  0.00000000000E+00 0.  1.
         11    1    3    3    0    0  0.18707732269E+02  0.13953602162E+02 -0.30134977173E+02  0.38115601916E+02  0.51100000000E-03 0. -1.
        -11    1    3    3    0    0  0.77646890540E+01  0.48869024548E+01  0.31373104651E+01  0.96961295847E+01  0.51100000000E-03 0.  1.
        -12    1    3    3    0    0 -0.26208704717E+02 -0.19851401725E+02  0.26448834435E+02  0.42196151440E+02  0.00000000000E+00 0.  1.
</event>
<event>
 7    1  0.3505640E-015  0.9000777E+02  0.7816164E-02  0.1186339E+00
        -11   -1    0    0    0    0  0.00000000000E+00  0.00000000000E+00  0.45593999997E+02  0.45594000000E+02  0.51100000000E-03 0. -1.
         11   -1    0    0    0    0 -0.00000000000E+00 -0.00000000000E+00 -0.45593999997E+02  0.45594000000E+02  0.51100000000E-03 0.  1.
    9900012    2    1    2    0    0 -0.12133582079E+00  0.53906612159E+00 -0.10428886211E+01  0.90007774877E+02  0.90000036705E+02 0.  0.
        -12    1    1    2    0    0  0.12133582079E+00 -0.53906612159E+00  0.10428886211E+01  0.11802251230E+01  0.00000000000E+00 0.  1.
         11    1    3    3    0    0  0.87232987448E+00 -0.12246709569E+01  0.78659039767E+01  0.80083221710E+01  0.51100000000E-03 0. -1.
        -11    1    3    3    0    0  0.30302921455E+02 -0.69196995338E+01 -0.30059933469E+02  0.43240593090E+02  0.51100000000E-03 0.  1.
         12    1    3    3    0    0 -0.31296587150E+02  0.86834366123E+01  0.21151140871E+02  0.38758859617E+02  0.00000000000E+00 0. -1.
</event>
<event>
 7    1  0.3505640E-015  0.9000791E+02  0.7816164E-02  0.1186339E+00
        -11   -1    0    0    0    0  0.00000000000E+00  0.00000000000E+00  0.45593999997E+02  0.45594000000E+02  0.51100000000E-03 0.  1.
         11   -1    0    0    0    0 -0.00000000000E+00 -0.00000000000E+00 -0.45593999997E+02  0.45594000000E+02  0.51100000000E-03 0. -1.
    9900012    2    1    2    0    0 -0.20827880440E+00 -0.28682967130E+00 -0.11255910548E+01  0.90007912485E+02  0.90000176129E+02 0.  0.
        -12    1    1    2    0    0  0.20827880440E+00  0.28682967130E+00  0.11255910548E+01  0.11800875151E+01  0.00000000000E+00 0.  1.
         11    1    3    3    0    0  0.65417486318E+00 -0.52584333906E+00  0.38200342501E+01  0.39111530144E+01  0.51100000000E-03 0. -1.
        -11    1    3    3    0    0 -0.34779424600E+01 -0.13387096393E+02  0.38278253982E+02  0.40700554809E+02  0.51100000000E-03 0.  1.
         12    1    3    3    0    0  0.26154887924E+01  0.13626110061E+02 -0.43223879287E+02  0.45396204661E+02  0.00000000000E+00 0. -1.
</event>
<event>
 7    1  0.3505640E-015  0.9000772E+02  0.7816164E-02  0.1186339E+00
        -11   -1    0    0    0    0  0.00000000000E+00  0.00000000000E+00  0.45593999997E+02  0.45594000000E+02  0.51100000000E-03 0.  1.
         11   -1    0    0    0    0 -0.00000000000E+00 -0.00000000000E+00 -0.45593999997E+02  0.45594000000E+02  0.51100000000E-03 0. -1.
    9900012    2    1    2    0    0  0.13399842520E+00  0.39260687047E+00 -0.11049694049E+01  0.90007723287E+02  0.89999984435E+02 0.  0.
        -12    1    1    2    0    0 -0.13399842520E+00 -0.39260687047E+00  0.11049694049E+01  0.11802767126E+01  0.00000000000E+00 0.  1.
         11    1    3    3    0    0 -0.26442063769E+02  0.27249397772E+02 -0.47777992993E+01  0.38269306000E+02  0.51100000000E-03 0. -1.
        -11    1    3    3    0    0 -0.76322063725E+01 -0.12019571334E+01  0.45564836423E+01  0.89697724891E+01  0.51100000000E-03 0.  1.
        -12    1    3    3    0    0  0.34208268567E+02 -0.25654833768E+02 -0.88365374781E+00  0.42768644799E+02  0.00000000000E+00 0.  1.
</event>
<event>
 7    1  0.3505640E-015  0.9000774E+02  0.7816164E-02  0.1186339E+00
        -11   -1    0    0    0    0  0.00000000000E+00  0.00000000000E+00  0.45593999997E+02  0.45594000000E+02  0.51100000000E-03 0.  1.
         11   -1    0    0    0    0 -0.00000000000E+00 -0.00000000000E+00 -0.45593999997E+02  0.45594000000E+02  0.51100000000E-03 0. -1.
    9900012    2    1    2    0    0 -0.38051358754E+00 -0.10619858187E+01  0.34701455849E+00  0.90007735804E+02  0.89999997116E+02 0.  0.
        -12    1    1    2    0    0  0.38051358754E+00  0.10619858187E+01 -0.34701455849E+00  0.11802641964E+01  0.00000000000E+00 0.  1.
         11    1    3    3    0    0 -0.66513259592E+01  0.35702060525E+02  0.78438663997E+01  0.37153781815E+02  0.51100000000E-03 0. -1.
        -11    1    3    3    0    0  0.54188955714E+01  0.68291826516E+01 -0.12873131125E+01  0.88124536999E+01  0.51100000000E-03 0.  1.
        -12    1    3    3    0    0  0.85191680023E+00 -0.43593228996E+02 -0.62095387287E+01  0.44041500289E+02  0.00000000000E+00 0.  1.
</event>
<event>
 7    1  0.3505640E-015  0.9000769E+02  0.7816164E-02  0.1186339E+00
        -11   -1    0    0    0    0  0.00000000000E+00  0.00000000000E+00  0.45593999997E+02  0.45594000000E+02  0.51100000000E-03 0. -1.
         11   -1    0    0    0    0 -0.00000000000E+00 -0.00000000000E+00 -0.45593999997E+02  0.45594000000E+02  0.51100000000E-03 0.  1.
    9900012    2    1    2    0    0  0.65267395275E+00  0.97343548501E+00  0.13993803214E+00  0.90007685387E+02  0.89999946034E+02 0.  0.
        -12    1    1    2    0    0 -0.65267395275E+00 -0.97343548501E+00 -0.13993803214E+00  0.11803146127E+01  0.00000000000E+00 0.  1.
         11    1    3    3    0    0  0.53676628021E+01  0.48219450497E+01  0.64065299619E+01  0.96491753240E+01  0.51100000000E-03 0. -1.
        -11    1    3    3    0    0  0.35676002226E+02 -0.10026615640E+02 -0.12318612995E+02  0.39051995883E+02  0.51100000000E-03 0.  1.
         12    1    3    3    0    0 -0.40390991076E+02  0.61781060754E+01  0.60520210654E+01  0.41306514180E+02  0.00000000000E+00 0. -1.
</event>
<event>
 7    1  0.3505640E-015  0.9000777E+02  0.7816164E-02  0.1186339E+00
        -11   -1    0    0    0    0  0.00000000000E+00  0.00000000000E+00  0.45593999997E+02  0.45594000000E+02  0.51100000000E-03 0.  1.
         11   -1    0    0    0    0 -0.00000000000E+00 -0.00000000000E+00 -0.45593999997E+02  0.45594000000E+02  0.51100000000E-03 0. -1.
    9900012    2    1    2    0    0  0.62525515297E+00  0.51896446282E+00  0.85596491075E+00  0.90007769494E+02  0.90000031251E+02 0.  0.
        -12    1    1    2    0    0 -0.62525515297E+00 -0.51896446282E+00 -0.85596491075E+00  0.11802305065E+01  0.00000000000E+00 0.  1.
         11    1    3    3    0    0  0.34421876351E+01  0.89047008802E+01 -0.31991887294E+02  0.33385973198E+02  0.51100000000E-03 0. -1.
        -11    1    3    3    0    0  0.60363957689E+01 -0.23717749522E+00 -0.10237954125E+02  0.11887389619E+02  0.51100000000E-03 0.  1.
        -12    1    3    3    0    0 -0.88533282510E+01 -0.81485589222E+01  0.43085806329E+02  0.44734406676E+02  0.00000000000E+00 0.  1.
</event>
<event>
 7    1  0.3505640E-015  0.9000763E+02  0.7816164E-02  0.1186339E+00
        -11   -1    0    0    0    0  0.00000000000E+00  0.00000000000E+00  0.45593999997E+02  0.45594000000E+02  0.51100000000E-03 0. -1.
         11   -1    0    0    0    0 -0.00000000000E+00 -0.00000000000E+00 -0.45593999997E+02  0.45594000000E+02  0.51100000000E-03 0.  1.
    9900012    2    1    2    0    0 -0.10050206434E+01  0.16001971934E+00  0.59800129020E+00  0.90007627878E+02  0.89999887766E+02 0.  0.
        -12    1    1    2    0    0  0.10050206434E+01 -0.16001971934E+00 -0.59800129020E+00  0.11803721224E+01  0.00000000000E+00 0.  1.
         11    1    3    3    0    0 -0.10256029214E+02 -0.34854581920E+02  0.94323320665E+01  0.37536607525E+02  0.51100000000E-03 0. -1.
        -11    1    3    3    0    0 -0.14533198265E+00 -0.50554603628E+01 -0.10098932849E+02  0.11294567093E+02  0.51100000000E-03 0.  1.
        -12    1    3    3    0    0  0.93963405528E+01  0.40070062002E+02  0.12646020731E+01  0.41176453259E+02  0.00000000000E+00 0.  1.
</event>
<event>
 7    1  0.3505640E-015  0.9000837E+02  0.7816164E-02  0.1186338E+00
        -11   -1    0    0    0    0  0.00000000000E+00  0.00000000000E+00  0.45593999997E+02  0.45594000000E+02  0.51100000000E-03 0. -1.
         11   -1    0    0    0    0 -0.00000000000E+00 -0.00000000000E+00 -0.45593999997E+02  0.45594000000E+02  0.51100000000E-03 0.  1.
    9900012    2    1    2    0    0  0.11706924292E+01 -0.34704598355E-01 -0.14070421286E+00  0.90008371733E+02  0.90000641437E+02 0.  0.
        -12    1    1    2    0    0 -0.11706924292E+01  0.34704598355E-01  0.14070421286E+00  0.11796282671E+01  0.00000000000E+00 0.  1.
         11    1    3    3    0    0  0.20560577136E+02  0.15387826617E+02 -0.29589124941E+02  0.39179571912E+02  0.51100000000E-03 0. -1.
        -11    1    3    3    0    0 -0.16271767942E+01  0.92478429455E+01  0.14518956578E+01  0.95014896057E+01  0.51100000000E-03 0.  1.
        -12    1    3    3    0    0 -0.17762707912E+02 -0.24670374161E+02  0.27996525070E+02  0.41327310215E+02  0.00000000000E+00 0.  1.
</event>
<event>
 7    1  0.3505640E-015  0.9000793E+02  0.7816164E-02  0.1186339E+00
        -11   -1    0    0    0    0  0.00000000000E+00  0.00000000000E+00  0.45593999997E+02  0.45594000000E+02  0.51100000000E-03 0.  1.
         11   -1    0    0    0    0 -0.00000000000E+00 -0.00000000000E+00 -0.45593999997E+02  0.45594000000E+02  0.51100000000E-03 0. -1.
    9900012    2    1    2    0    0  0.11578774536E+01  0.21488156812E+00 -0.75549268290E-01  0.90007931367E+02  0.90000195261E+02 0.  0.
        -12    1    1    2    0    0 -0.11578774536E+01 -0.21488156812E+00  0.75549268290E-01  0.11800686326E+01  0.00000000000E+00 0.  1.
         11    1    3    3    0    0 -0.17051300938E+02 -0.35606380691E+02 -0.16957764881E+02  0.42966580032E+02  0.51100000000E-03 0. -1.
        -11    1    3    3    0    0  0.82115131150E+01  0.46188866477E+01  0.96524390176E+01  0.13488240832E+02  0.51100000000E-03 0.  1.
        -12    1    3    3    0    0  0.99976652768E+01  0.31202375612E+02  0.72297765953E+01  0.33553110503E+02  0.00000000000E+00 0.  1.
</event>
<event>
 7    1  0.3505640E-015  0.9000769E+02  0.7816164E-02  0.1186339E+00
        -11   -1    0    0    0    0  0.00000000000E+00  0.00000000000E+00  0.45593999997E+02  0.45594000000E+02  0.51100000000E-03 0. -1.
         11   -1    0    0    0    0 -0.00000000000E+00 -0.00000000000E+00 -0.45593999997E+02  0.45594000000E+02  0.51100000000E-03 0.  1.
    9900012    2    1    2    0    0  0.49458607887E+00 -0.76148142058E-01  0.10689753112E+01  0.90007694046E+02  0.89999954807E+02 0.  0.
        -12    1    1    2    0    0 -0.49458607887E+00  0.76148142058E-01 -0.10689753112E+01  0.11803059539E+01  0.00000000000E+00 0.  1.
         11    1    3    3    0    0  0.83160130323E+01 -0.54755858966E+01 -0.58658380659E+01  0.11556217813E+02  0.51100000000E-03 0. -1.
        -11    1    3    3    0    0 -0.36431558343E+02  0.22185577780E+01 -0.17698773224E+02  0.40563863424E+02  0.51100000000E-03 0.  1.
         12    1    3    3    0    0  0.28610131390E+02  0.31808799765E+01  0.24633586601E+02  0.37887612810E+02  0.00000000000E+00 0. -1.
</event>
<event>
 7    1  0.3505640E-015  0.9000761E+02  0.7816164E-02  0.1186339E+00
        -11   -1    0    0    0    0  0.00000000000E+00  0.00000000000E+00  0.45593999997E+02  0.45594000000E+02  0.51100000000E-03 0.  1.
         11   -1    0    0    0    0 -0.00000000000E+00 -0.00000000000E+00 -0.45593999997E+02  0.45594000000E+02  0.51100000000E-03 0. -1.
    9900012    2    1    2    0    0 -0.10660855931E+01  0.45565803355E+00  0.22170434244E+00  0.90007612118E+02  0.89999871798E+02 0.  0.
        -12    1    1    2    0    0  0.10660855931E+01 -0.45565803355E+00 -0.22170434244E+00  0.11803878815E+01  0.00000000000E+00 0.  1.
         11    1    3    3    0    0 -0.21367761689E+02  0.19112721687E+02 -0.10737768845E+02  0.30613347578E+02  0.51100000000E-03 0. -1.
        -11    1    3    3    0    0 -0.17126214663E+02 -0.18502850484E+01  0.15100764125E+01  0.17291937846E+02  0.51100000000E-03 0.  1.
        -12    1    3    3    0    0  0.37427890758E+02 -0.16806778605E+02  0.94493967749E+01  0.42102326695E+02  0.00000000000E+00 0.  1.
</event>
<event>
 7    1  0.3505640E-015  0.9000797E+02  0.7816164E-02  0.1186339E+00
        -11   -1    0    0    0    0  0.00000000000E+00  0.00000000000E+00  0.45593999997E+02  0.45594000000E+02  0.51100000000E-03 0.  1.
         11   -1    0    0    0    0 -0.00000000000E+00 -0.00000000000E+00 -0.45593999997E+02  0.45594000000E+02  0.51100000000E-03 0. -1.
    9900012    2    1    2    0    0 -0.11462712110E+01  0.35832810608E-01  0.27791679387E+00  0.90007974821E+02  0.90000239288E+02 0.  0.
        -12    1    1    2    0    0  0.11462712110E+01 -0.35832810608E-01 -0.27791679387E+00  0.11800251793E+01  0.00000000000E+00 0.  1.
         11    1    3    3    0    0  0.21240238818E+02  0.47257998261E+01 -0.30698100223E+02  0.37627839250E+02  0.51100000000E-03 0. -1.
        -11    1    3    3    0    0 -0.54997330116E+01 -0.59635391798E+01 -0.70537902029E+01  0.10750200893E+02  0.51100000000E-03 0.  1.
        -12    1    3    3    0    0 -0.16886777018E+02  0.12735721644E+01  0.38029807220E+02  0.41629934678E+02  0.00000000000E+00 0.  1.
</event>
<event>
 7    1  0.3505640E-015  0.9000809E+02  0.7816164E-02  0.1186338E+00
        -11   -1    0    0    0    0  0.00000000000E+00  0.00000000000E+00  0.45593999997E+02  0.45594000000E+02  0.51100000000E-03 0. -1.
         11   -1    0    0    0    0 -0.00000000000E+00 -0.00000000000E+00 -0.45593999997E+02  0.45594000000E+02  0.51100000000E-03 0.  1.
    9900012    2    1    2    0    0  0.44646405454E-01 -0.21115406555E+00  0.11600059193E+01  0.90008087684E+02  0.90000353641E+02 0.  0.
        -12    1    1    2    0    0 -0.44646405454E-01  0.21115406555E+00 -0.11600059193E+01  0.11799123161E+01  0.00000000000E+00 0.  1.
         11    1    3    3    0    0 -0.34142298202E+02  0.10028800945E+02 -0.47535603948E+01  0.35900831628E+02  0.51100000000E-03 0. -1.
        -11    1    3    3    0    0 -0.78944689045E+01  0.40662158831E+01 -0.16197065836E+01  0.90266383871E+01  0.51100000000E-03 0.  1.
        -12    1    3    3    0    0  0.42081413512E+02 -0.14306170893E+02  0.75332728977E+01  0.45080617668E+02  0.00000000000E+00 0.  1.
</event>
<event>
 7    1  0.3505640E-015  0.9000774E+02  0.7816164E-02  0.1186339E+00
        -11   -1    0    0    0    0  0.00000000000E+00  0.00000000000E+00  0.45593999997E+02  0.45594000000E+02  0.51100000000E-03 0.  1.
         11   -1    0    0    0    0 -0.00000000000E+00 -0.00000000000E+00 -0.45593999997E+02  0.45594000000E+02  0.51100000000E-03 0. -1.
    9900012    2    1    2    0    0 -0.57177741813E+00 -0.98176703762E+00 -0.31970527719E+00  0.90007742657E+02  0.90000004060E+02 0.  0.
        -12    1    1    2    0    0  0.57177741813E+00  0.98176703762E+00  0.31970527719E+00  0.11802573433E+01  0.00000000000E+00 0.  1.
         11    1    3    3    0    0  0.28482738608E+02 -0.21106746939E+02 -0.19545511671E+02  0.40481948961E+02  0.51100000000E-03 0. -1.
        -11    1    3    3    0    0 -0.92140451473E+01 -0.52203743015E+01 -0.22566470602E+01  0.10827898782E+02  0.51100000000E-03 0.  1.
        -12    1    3    3    0    0 -0.19840470878E+02  0.25345354203E+02  0.21482453454E+02  0.38697894914E+02  0.00000000000E+00 0.  1.
</event>
<event>
 7    1  0.3505640E-015  0.9000799E+02  0.7816164E-02  0.1186339E+00
        -11   -1    0    0    0    0  0.00000000000E+00  0.00000000000E+00  0.45593999997E+02  0.45594000000E+02  0.51100000000E-03 0.  1.
         11   -1    0    0    0    0 -0.00000000000E+00 -0.00000000000E+00 -0.45593999997E+02  0.45594000000E+02  0.51100000000E-03 0. -1.
    9900012    2    1    2    0    0  0.10395718779E+01  0.15266848206E+00 -0.53702928508E+00  0.90007992454E+02  0.90000257154E+02 0.  0.
        -12    1    1    2    0    0 -0.10395718779E+01 -0.15266848206E+00  0.53702928508E+00  0.11800075456E+01  0.00000000000E+00 0.  1.
         11    1    3    3    0    0 -0.22240382634E+02  0.24928109815E+02 -0.85371901018E+01  0.34480848217E+02  0.51100000000E-03 0. -1.
        -11    1    3    3    0    0 -0.10266076476E+02  0.33173338208E+01 -0.10693722645E+01  0.10841613680E+02  0.51100000000E-03 0.  1.
        -12    1    3    3    0    0  0.33546030988E+02 -0.28092775154E+02  0.90695330812E+01  0.44685530557E+02  0.00000000000E+00 0.  1.
</event>
<event>
 7    1  0.3505640E-015  0.9000769E+02  0.7816164E-02  0.1186339E+00
        -11   -1    0    0    0    0  0.00000000000E+00  0.00000000000E+00  0.45593999997E+02  0.45594000000E+02  0.51100000000E-03 0.  1.
         11   -1    0    0    0    0 -0.00000000000E+00 -0.00000000000E+00 -0.45593999997E+02  0.45594000000E+02  0.51100000000E-03 0. -1.
    9900012    2    1    2    0    0  0.74001352832E+00 -0.12040450226E+00  0.91159589154E+00  0.90007693118E+02  0.89999953867E+02 0.  0.
        -12    1    1    2    0    0 -0.74001352832E+00  0.12040450226E+00 -0.91159589154E+00  0.11803068820E+01  0.00000000000E+00 0.  1.
         11    1    3    3    0    0  0.15609468886E+02  0.31304081868E+01 -0.35061914942E+02  0.38507049407E+02  0.51100000000E-03 0. -1.
        -11    1    3    3    0    0  0.50673988958E+01 -0.10382276064E+02  0.23871193618E+01  0.11796971092E+02  0.51100000000E-03 0.  1.
        -12    1    3    3    0    0 -0.19936854254E+02  0.71314633745E+01  0.33586391472E+02  0.39703672620E+02  0.00000000000E+00 0.  1.
</event>
<event>
 7    1  0.3505640E-015  0.9000753E+02  0.7816164E-02  0.1186339E+00
        -11   -1    0    0    0    0  0.00000000000E+00  0.00000000000E+00  0.45593999997E+02  0.45594000000E+02  0.51100000000E-03 0.  1.
         11   -1    0    0    0    0 -0.00000000000E+00 -0.00000000000E+00 -0.45593999997E+02  0.45594000000E+02  0.51100000000E-03 0. -1.
    9900012    2    1    2    0    0 -0.53655592578E+00  0.54838127948E+00 -0.89715591779E+00  0.90007532707E+02  0.89999791338E+02 0.  0.
        -12    1    1    2    0    0  0.53655592578E+00 -0.54838127948E+00  0.89715591779E+00  0.11804672931E+01  0.00000000000E+00 0.  1.
         11    1    3    3    0    0  0.23994790081E+02  0.72609470584E+01 -0.26727571267E+02  0.36644704519E+02  0.51100000000E-03 0. -1.
        -11    1    3    3    0    0  0.28307736702E+01 -0.79940384650E+00 -0.85413890213E+01  0.90336954097E+01  0.51100000000E-03 0.  1.
        -12    1    3    3    0    0 -0.27362119677E+02 -0.59131619324E+01  0.34371804370E+02  0.44329132778E+02  0.00000000000E+00 0.  1.
</event>
<event>
 7    1  0.3505640E-015  0.9000774E+02  0.7816164E-02  0.1186339E+00
        -11   -1    0    0    0    0  0.00000000000E+00  0.00000000000E+00  0.45593999997E+02  0.45594000000E+02  0.51100000000E-03 0. -1.
         11   -1    0    0    0    0 -0.00000000000E+00 -0.00000000000E+00 -0.45593999997E+02  0.45594000000E+02  0.51100000000E-03 0.  1.
    9900012    2    1    2    0    0  0.21247069645E+00 -0.11308016520E+01 -0.26296117876E+00  0.90007743776E+02  0.90000005194E+02 0.  0.
        -12    1    1    2    0    0 -0.21247069645E+00  0.11308016520E+01  0.26296117876E+00  0.11802562241E+01  0.00000000000E+00 0.  1.
         11    1    3    3    0    0 -0.64228506231E+01  0.44997101460E+01 -0.55907332108E+01  0.96310279628E+01  0.51100000000E-03 0. -1.
        -11    1    3    3    0    0 -0.19454663103E+02  0.16208919397E+02 -0.24422223288E+02  0.35180363487E+02  0.51100000000E-03 0.  1.
         12    1    3    3    0    0  0.26089984423E+02 -0.21839431195E+02  0.29749995320E+02  0.45196352326E+02  0.00000000000E+00 0. -1.
</event>
<event>
 7    1  0.3505640E-015  0.9000815E+02  0.7816164E-02  0.1186338E+00
        -11   -1    0    0    0    0  0.00000000000E+00  0.00000000000E+00  0.45593999997E+02  0.45594000000E+02  0.51100000000E-03 0. -1.
         11   -1    0    0    0    0 -0.00000000000E+00 -0.00000000000E+00 -0.45593999997E+02  0.45594000000E+02  0.51100000000E-03 0.  1.
    9900012    2    1    2    0    0 -0.19191172697E+00 -0.21348162594E+00  0.11443935291E+01  0.90008152101E+02  0.90000418908E+02 0.  0.
        -12    1    1    2    0    0  0.19191172697E+00  0.21348162594E+00 -0.11443935291E+01  0.11798478991E+01  0.00000000000E+00 0.  1.
         11    1    3    3    0    0 -0.10355287234E+01  0.29448536025E+01 -0.10026940940E+02  0.10501620225E+02  0.51100000000E-03 0. -1.
        -11    1    3    3    0    0 -0.34547520831E+02  0.15092268892E+02 -0.14682950639E+01  0.37728817455E+02  0.51100000000E-03 0.  1.
         12    1    3    3    0    0  0.35391137828E+02 -0.18250604120E+02  0.12639629533E+02  0.41777714421E+02  0.00000000000E+00 0. -1.
</event>
<event>
 7    1  0.3505640E-015  0.9000772E+02  0.7816164E-02  0.1186339E+00
        -11   -1    0    0    0    0  0.00000000000E+00  0.00000000000E+00  0.45593999997E+02  0.45594000000E+02  0.51100000000E-03 0.  1.
         11   -1    0    0    0    0 -0.00000000000E+00 -0.00000000000E+00 -0.45593999997E+02  0.45594000000E+02  0.51100000000E-03 0. -1.
    9900012    2    1    2    0    0 -0.59039968731E+00 -0.19748033771E+00 -0.10027424216E+01  0.90007719254E+02  0.89999980348E+02 0.  0.
        -12    1    1    2    0    0  0.59039968731E+00  0.19748033771E+00  0.10027424216E+01  0.11802807457E+01  0.00000000000E+00 0.  1.
         11    1    3    3    0    0 -0.21833724846E+02 -0.26353821446E+02  0.21524877414E+01  0.34290941212E+02  0.51100000000E-03 0. -1.
        -11    1    3    3    0    0 -0.90217050999E+01 -0.64857166826E+01 -0.84288253347E+00  0.11142985911E+02  0.51100000000E-03 0.  1.
        -12    1    3    3    0    0  0.30265030258E+02  0.32642057791E+02 -0.23123476296E+01  0.44573792131E+02  0.00000000000E+00 0.  1.
</event>
<event>
 7    1  0.3505640E-015  0.9000780E+02  0.7816164E-02  0.1186339E+00
        -11   -1    0    0    0    0  0.00000000000E+00  0.00000000000E+00  0.45593999997E+02  0.45594000000E+02  0.51100000000E-03 0.  1.
         11   -1    0    0    0    0 -0.00000000000E+00 -0.00000000000E+00 -0.45593999997E+02  0.45594000000E+02  0.51100000000E-03 0. -1.
    9900012    2    1    2    0    0  0.50023976724E+00 -0.95063367727E+00  0.48879643136E+00  0.90007802489E+02  0.90000064682E+02 0.  0.
        -12    1    1    2    0    0 -0.50023976724E+00  0.95063367727E+00 -0.48879643136E+00  0.11801975108E+01  0.00000000000E+00 0.  1.
         11    1    3    3    0    0 -0.24745815598E+02  0.11358278068E+02  0.29854648014E+02  0.40406260388E+02  0.51100000000E-03 0. -1.
        -11    1    3    3    0    0 -0.56798642852E+01  0.17195285467E+01 -0.55362074125E+01  0.81158628313E+01  0.51100000000E-03 0.  1.
        -12    1    3    3    0    0  0.30925919650E+02 -0.14028440292E+02 -0.23829644170E+02  0.41485679270E+02  0.00000000000E+00 0.  1.
</event>
<event>
 7    1  0.3505640E-015  0.9000842E+02  0.7816164E-02  0.1186338E+00
        -11   -1    0    0    0    0  0.00000000000E+00  0.00000000000E+00  0.45593999997E+02  0.45594000000E+02  0.51100000000E-03 0. -1.
         11   -1    0    0    0    0 -0.00000000000E+00 -0.00000000000E+00 -0.45593999997E+02  0.45594000000E+02  0.51100000000E-03 0.  1.
    9900012    2    1    2    0    0  0.83247700014E+00 -0.27834392871E+00 -0.78798220664E+00  0.90008419881E+02  0.90000690221E+02 0.  0.
        -12    1    1    2    0    0 -0.83247700014E+00  0.27834392871E+00  0.78798220664E+00  0.11795801187E+01  0.00000000000E+00 0.  1.
         11    1    3    3    0    0 -0.24479517738E+02 -0.69300642395E+01  0.22786222818E+02  0.34153836235E+02  0.51100000000E-03 0. -1.
        -11    1    3    3    0    0  0.62568776298E+01 -0.76788341650E+01  0.10391473217E+02  0.14356034539E+02  0.51100000000E-03 0.  1.
        -12    1    3    3    0    0  0.19055117108E+02  0.14330554476E+02 -0.33965678241E+02  0.41498549107E+02  0.00000000000E+00 0.  1.
</event>
<event>
 7    1  0.3505640E-015  0.9000772E+02  0.7816164E-02  0.1186339E+00
        -11   -1    0    0    0    0  0.00000000000E+00  0.00000000000E+00  0.45593999997E+02  0.45594000000E+02  0.51100000000E-03 0.  1.
         11   -1    0    0    0    0 -0.00000000000E+00 -0.00000000000E+00 -0.45593999997E+02  0.45594000000E+02  0.51100000000E-03 0. -1.
    9900012    2    1    2    0    0  0.36487960764E+00  0.24244108454E+00 -0.10959662797E+01  0.90007721688E+02  0.89999982814E+02 0.  0.
        -12    1    1    2    0    0 -0.36487960764E+00 -0.24244108454E+00  0.10959662797E+01  0.11802783120E+01  0.00000000000E+00 0.  1.
         11    1    3    3    0    0  0.11079959509E+02 -0.62539070134E+01 -0.35784949918E+02  0.37979461509E+02  0.51100000000E-03 0. -1.
        -11    1    3    3    0    0 -0.29924839301E+01  0.59376518873E+01 -0.69834775665E+01  0.96425945258E+01  0.51100000000E-03 0.  1.
        -12    1    3    3    0    0 -0.77225959711E+01  0.55869621067E+00  0.41672461205E+02  0.42385665653E+02  0.00000000000E+00 0.  1.
</event>
<event>
 7    1  0.3505640E-015  0.9000774E+02  0.7816164E-02  0.1186339E+00
        -11   -1    0    0    0    0  0.00000000000E+00  0.00000000000E+00  0.45593999997E+02  0.45594000000E+02  0.51100000000E-03 0.  1.
         11   -1    0    0    0    0 -0.00000000000E+00 -0.00000000000E+00 -0.45593999997E+02  0.45594000000E+02  0.51100000000E-03 0. -1.
    9900012    2    1    2    0    0 -0.42595714782E+00  0.92010866486E+00  0.60412776978E+00  0.90007741635E+02  0.90000003024E+02 0.  0.
        -12    1    1    2    0    0  0.42595714782E+00 -0.92010866486E+00 -0.60412776978E+00  0.11802583654E+01  0.00000000000E+00 0.  1.
         11    1    3    3    0    0  0.34323388950E+02 -0.20438942372E+02  0.88644904744E+01  0.40919733454E+02  0.51100000000E-03 0. -1.
        -11    1    3    3    0    0  0.61510370611E+00  0.31950649187E+01 -0.87428089662E+01  0.93286387691E+01  0.51100000000E-03 0.  1.
        -12    1    3    3    0    0 -0.35364449804E+02  0.18163986118E+02  0.48244626166E+00  0.39759369412E+02  0.00000000000E+00 0.  1.
</event>
<event>
 7    1  0.3505640E-015  0.9000771E+02  0.7816164E-02  0.1186339E+00
        -11   -1    0    0    0    0  0.00000000000E+00  0.00000000000E+00  0.45593999997E+02  0.45594000000E+02  0.51100000000E-03 0.  1.
         11   -1    0    0    0    0 -0.00000000000E+00 -0.00000000000E+00 -0.45593999997E+02  0.45594000000E+02  0.51100000000E-03 0. -1.
    9900012    2    1    2    0    0 -0.90347580152E+00  0.34593818807E+00 -0.67611517526E+00  0.90007714660E+02  0.89999975693E+02 0.  0.
        -12    1    1    2    0    0  0.90347580152E+00 -0.34593818807E+00  0.67611517526E+00  0.11802853401E+01  0.00000000000E+00 0.  1.
         11    1    3    3    0    0  0.47618819427E+01  0.13357413356E+02 -0.34051636159E+02  0.36886446516E+02  0.51100000000E-03 0. -1.
        -11    1    3    3    0    0  0.58604963128E+00  0.68717730069E+01 -0.56255929915E+01  0.89001132125E+01  0.51100000000E-03 0.  1.
        -12    1    3    3    0    0 -0.62514073755E+01 -0.19883248175E+02  0.39001113975E+02  0.44221154931E+02  0.00000000000E+00 0.  1.
</event>
<event>
 7    1  0.3505640E-015  0.9000777E+02  0.7816164E-02  0.1186339E+00
        -11   -1    0    0    0    0  0.00000000000E+00  0.00000000000E+00  0.45593999997E+02  0.45594000000E+02  0.51100000000E-03 0.  1.
         11   -1    0    0    0    0 -0.00000000000E+00 -0.00000000000E+00 -0.45593999997E+02  0.45594000000E+02  0.51100000000E-03 0. -1.
    9900012    2    1    2    0    0  0.42827081703E+00  0.27830701649E-02 -0.10997862990E+01  0.90007765472E+02  0.90000027176E+02 0.  0.
        -12    1    1    2    0    0 -0.42827081703E+00 -0.27830701649E-02  0.10997862990E+01  0.11802345283E+01  0.00000000000E+00 0.  1.
         11    1    3    3    0    0  0.35354371499E+02  0.10390273068E+02  0.77386991873E+01  0.37653377324E+02  0.51100000000E-03 0. -1.
        -11    1    3    3    0    0  0.20912921534E+01  0.32433360399E+01  0.84464941008E+01  0.92863337435E+01  0.51100000000E-03 0.  1.
        -12    1    3    3    0    0 -0.37017392836E+02 -0.13630826037E+02 -0.17284979587E+02  0.43068054404E+02  0.00000000000E+00 0.  1.
</event>
<event>
 7    1  0.3505640E-015  0.9000772E+02  0.7816164E-02  0.1186339E+00
        -11   -1    0    0    0    0  0.00000000000E+00  0.00000000000E+00  0.45593999997E+02  0.45594000000E+02  0.51100000000E-03 0. -1.
         11   -1    0    0    0    0 -0.00000000000E+00 -0.00000000000E+00 -0.45593999997E+02  0.45594000000E+02  0.51100000000E-03 0.  1.
    9900012    2    1    2    0    0 -0.71725079800E+00  0.90913462313E+00  0.22824491246E+00  0.90007716047E+02  0.89999977099E+02 0.  0.
        -12    1    1    2    0    0  0.71725079800E+00 -0.90913462313E+00 -0.22824491246E+00  0.11802839532E+01  0.00000000000E+00 0.  1.
         11    1    3    3    0    0  0.10170693392E+02  0.36538596503E+01  0.70061157811E+01  0.12879415865E+02  0.51100000000E-03 0. -1.
        -11    1    3    3    0    0 -0.61414303933E+01 -0.13275202915E+01 -0.41541260510E+02  0.42013757299E+02  0.51100000000E-03 0.  1.
         12    1    3    3    0    0 -0.47465137969E+01 -0.14172047356E+01  0.34763389641E+02  0.35114542882E+02  0.00000000000E+00 0. -1.
</event>
<event>
 7    1  0.3505640E-015  0.9000784E+02  0.7816164E-02  0.1186339E+00
        -11   -1    0    0    0    0  0.00000000000E+00  0.00000000000E+00  0.45593999997E+02  0.45594000000E+02  0.51100000000E-03 0.  1.
         11   -1    0    0    0    0 -0.00000000000E+00 -0.00000000000E+00 -0.45593999997E+02  0.45594000000E+02  0.51100000000E-03 0. -1.
    9900012    2    1    2    0    0  0.14541777801E+00  0.74979680194E-01 -0.11687598974E+01  0.90007844086E+02  0.90000106828E+02 0.  0.
        -12    1    1    2    0    0 -0.14541777801E+00 -0.74979680194E-01  0.11687598974E+01  0.11801559136E+01  0.00000000000E+00 0.  1.
         11    1    3    3    0    0  0.10115569242E+02 -0.13368929587E+00  0.41076144392E+01  0.10918567240E+02  0.51100000000E-03 0. -1.
        -11    1    3    3    0    0  0.87203429636E+01  0.17916249858E+02  0.29634894335E+02  0.35710829630E+02  0.51100000000E-03 0.  1.
         12    1    3    3    0    0 -0.18690494428E+02 -0.17707580882E+02 -0.34911268672E+02  0.43378447216E+02  0.00000000000E+00 0. -1.
</event>
<event>
 7    1  0.3505640E-015  0.9000774E+02  0.7816164E-02  0.1186339E+00
        -11   -1    0    0    0    0  0.00000000000E+00  0.00000000000E+00  0.45593999997E+02  0.45594000000E+02  0.51100000000E-03 0. -1.
         11   -1    0    0    0    0 -0.00000000000E+00 -0.00000000000E+00 -0.45593999997E+02  0.45594000000E+02  0.51100000000E-03 0.  1.
    9900012    2    1    2    0    0 -0.54779142536E+00  0.71833669482E+00  0.75955835091E+00  0.90007740731E+02  0.90000002109E+02 0.  0.
        -12    1    1    2    0    0  0.54779142536E+00 -0.71833669482E+00 -0.75955835091E+00  0.11802592687E+01  0.00000000000E+00 0.  1.
         11    1    3    3    0    0 -0.42188396690E+02 -0.20156268130E+01  0.14841556913E+02  0.44768240736E+02  0.51100000000E-03 0. -1.
        -11    1    3    3    0    0  0.74818116644E+01  0.21594651660E+01  0.10813884339E+01  0.78619461198E+01  0.51100000000E-03 0.  1.
        -12    1    3    3    0    0  0.34158793600E+02  0.57449834189E+00 -0.15163386996E+02  0.37377553876E+02  0.00000000000E+00 0.  1.
</event>
<event>
 7    1  0.3505640E-015  0.9000771E+02  0.7816164E-02  0.1186339E+00
        -11   -1    0    0    0    0  0.00000000000E+00  0.00000000000E+00  0.45593999997E+02  0.45594000000E+02  0.51100000000E-03 0.  1.
         11   -1    0    0    0    0 -0.00000000000E+00 -0.00000000000E+00 -0.45593999997E+02  0.45594000000E+02  0.51100000000E-03 0. -1.
    9900012    2    1    2    0    0  0.63137415001E+00  0.48291550637E+00 -0.87249649274E+00  0.90007707310E+02  0.89999968247E+02 0.  0.
        -12    1    1    2    0    0 -0.63137415001E+00 -0.48291550637E+00  0.87249649274E+00  0.11802926897E+01  0.00000000000E+00 0.  1.
         11    1    3    3    0    0  0.75824911871E+01  0.20072528862E+01  0.22982297187E+01  0.81734384963E+01  0.51100000000E-03 0. -1.
        -11    1    3    3    0    0 -0.20703380385E+01  0.15525823162E+02  0.35767840440E+02  0.39047098412E+02  0.51100000000E-03 0.  1.
         12    1    3    3    0    0 -0.48807789986E+01 -0.17050160542E+02 -0.38938566651E+02  0.42787170402E+02  0.00000000000E+00 0. -1.
</event>
<event>
 7    1  0.3505640E-015  0.9000768E+02  0.7816164E-02  0.1186339E+00
        -11   -1    0    0    0    0  0.00000000000E+00  0.00000000000E+00  0.45593999997E+02  0.45594000000E+02  0.51100000000E-03 0. -1.
         11   -1    0    0    0    0 -0.00000000000E+00 -0.00000000000E+00 -0.45593999997E+02  0.45594000000E+02  0.51100000000E-03 0.  1.
    9900012    2    1    2    0    0  0.10034245569E+01  0.43280641794E+00  0.44606571553E+00  0.90007679340E+02  0.89999939908E+02 0.  0.
        -12    1    1    2    0    0 -0.10034245569E+01 -0.43280641794E+00 -0.44606571553E+00  0.11803206596E+01  0.00000000000E+00 0.  1.
         11    1    3    3    0    0 -0.18405829990E+02  0.38326940370E+02  0.84806085835E+01  0.43354926571E+02  0.51100000000E-03 0. -1.
        -11    1    3    3    0    0 -0.15834388646E+00 -0.88050095037E+01  0.38829214686E+01  0.96244659353E+01  0.51100000000E-03 0.  1.
        -12    1    3    3    0    0  0.19567598434E+02 -0.29089124448E+02 -0.11917464337E+02  0.37028286834E+02  0.00000000000E+00 0.  1.
</event>
<event>
 7    1  0.3505640E-015  0.9000779E+02  0.7816164E-02  0.1186339E+00
        -11   -1    0    0    0    0  0.00000000000E+00  0.00000000000E+00  0.45593999997E+02  0.45594000000E+02  0.51100000000E-03 0. -1.
         11   -1    0    0    0    0 -0.00000000000E+00 -0.00000000000E+00 -0.45593999997E+02  0.45594000000E+02  0.51100000000E-03 0.  1.
    9900012    2    1    2    0    0 -0.69131041638E+00 -0.72897844593E+00 -0.61934041537E+00  0.90007787216E+02  0.90000049207E+02 0.  0.
        -12    1    1    2    0    0  0.69131041638E+00  0.72897844593E+00  0.61934041537E+00  0.11802127844E+01  0.00000000000E+00 0.  1.
         11    1    3    3    0    0  0.17097141873E+02 -0.35231446479E+02 -0.83963911987E+01  0.40050798576E+02  0.51100000000E-03 0. -1.
        -11    1    3    3    0    0  0.83457306991E+01  0.47040223433E+01  0.29783577318E+01  0.10032430520E+02  0.51100000000E-03 0.  1.
        -12    1    3    3    0    0 -0.26134182988E+02  0.29798445689E+02  0.47986930515E+01  0.39924558119E+02  0.00000000000E+00 0.  1.
</event>
<event>
 7    1  0.3505640E-015  0.9000778E+02  0.7816164E-02  0.1186339E+00
        -11   -1    0    0    0    0  0.00000000000E+00  0.00000000000E+00  0.45593999997E+02  0.45594000000E+02  0.51100000000E-03 0. -1.
         11   -1    0    0    0    0 -0.00000000000E+00 -0.00000000000E+00 -0.45593999997E+02  0.45594000000E+02  0.51100000000E-03 0.  1.
    9900012    2    1    2    0    0 -0.24284035022E+00  0.11291530799E+01 -0.24281388248E+00  0.90007781082E+02  0.90000042992E+02 0.  0.
        -12    1    1    2    0    0  0.24284035022E+00 -0.11291530799E+01  0.24281388248E+00  0.11802189183E+01  0.00000000000E+00 0.  1.
         11    1    3    3    0    0 -0.80962236432E+01 -0.16255209104E+02  0.33243966492E+02  0.37880627881E+02  0.51100000000E-03 0. -1.
        -11    1    3    3    0    0 -0.68227705159E+01 -0.64534329488E+01 -0.13173771351E+01  0.94832735443E+01  0.51100000000E-03 0.  1.
        -12    1    3    3    0    0  0.14676153809E+02  0.23837795132E+02 -0.32169403239E+02  0.42643879657E+02  0.00000000000E+00 0.  1.
</event>
<event>
 7    1  0.3505640E-015  0.9000776E+02  0.7816164E-02  0.1186339E+00
        -11   -1    0    0    0    0  0.00000000000E+00  0.00000000000E+00  0.45593999997E+02  0.45594000000E+02  0.51100000000E-03 0.  1.
         11   -1    0    0    0    0 -0.00000000000E+00 -0.00000000000E+00 -0.45593999997E+02  0.45594000000E+02  0.51100000000E-03 0. -1.
    9900012    2    1    2    0    0  0.91312524825E+00  0.71482311513E+00  0.21952190344E+00  0.90007762875E+02  0.90000024545E+02 0.  0.
        -12    1    1    2    0    0 -0.91312524825E+00 -0.71482311513E+00 -0.21952190344E+00  0.11802371249E+01  0.00000000000E+00 0.  1.
         11    1    3    3    0    0  0.13482207407E+02 -0.76549852529E+01 -0.36153626460E+02  0.39337684505E+02  0.51100000000E-03 0. -1.
        -11    1    3    3    0    0  0.91691625328E+01  0.74245014297E+01  0.58057580492E+01  0.13149280962E+02  0.51100000000E-03 0.  1.
        -12    1    3    3    0    0 -0.21738244692E+02  0.94530693834E+00  0.30567390314E+02  0.37520797408E+02  0.00000000000E+00 0.  1.
</event>
<event>
 7    1  0.3505640E-015  0.9000770E+02  0.7816164E-02  0.1186339E+00
        -11   -1    0    0    0    0  0.00000000000E+00  0.00000000000E+00  0.45593999997E+02  0.45594000000E+02  0.51100000000E-03 0.  1.
         11   -1    0    0    0    0 -0.00000000000E+00 -0.00000000000E+00 -0.45593999997E+02  0.45594000000E+02  0.51100000000E-03 0. -1.
    9900012    2    1    2    0    0  0.10824051529E+01 -0.10716331694E+00 -0.45829467993E+00  0.90007695418E+02  0.89999956198E+02 0.  0.
        -12    1    1    2    0    0 -0.10824051529E+01  0.10716331694E+00  0.45829467993E+00  0.11803045815E+01  0.00000000000E+00 0.  1.
         11    1    3    3    0    0  0.26259411937E+02  0.97300374667E+01 -0.36812082162E+01  0.28245028564E+02  0.51100000000E-03 0. -1.
        -11    1    3    3    0    0  0.11008962925E+02  0.10951572050E+02  0.11365321142E+02  0.19243303250E+02  0.51100000000E-03 0.  1.
        -12    1    3    3    0    0 -0.36185969710E+02 -0.20788772833E+02 -0.81424076053E+01  0.42519363605E+02  0.00000000000E+00 0.  1.
</event>
<event>
 7    1  0.3505640E-015  0.9000776E+02  0.7816164E-02  0.1186339E+00
        -11   -1    0    0    0    0  0.00000000000E+00  0.00000000000E+00  0.45593999997E+02  0.45594000000E+02  0.51100000000E-03 0. -1.
         11   -1    0    0    0    0 -0.00000000000E+00 -0.00000000000E+00 -0.45593999997E+02  0.45594000000E+02  0.51100000000E-03 0.  1.
    9900012    2    1    2    0    0  0.91944856781E+00 -0.53601784222E+00 -0.51016689632E+00  0.90007758051E+02  0.90000019657E+02 0.  0.
        -12    1    1    2    0    0 -0.91944856781E+00  0.53601784222E+00  0.51016689632E+00  0.11802419490E+01  0.00000000000E+00 0.  1.
         11    1    3    3    0    0  0.13878004887E+01 -0.70339952239E+01  0.49046436870E+01  0.86866914855E+01  0.51100000000E-03 0. -1.
        -11    1    3    3    0    0 -0.34557097380E+02 -0.15507845338E+02 -0.12995065780E+02  0.40044450069E+02  0.51100000000E-03 0.  1.
         12    1    3    3    0    0  0.34088745459E+02  0.22005822720E+02  0.75802551971E+01  0.41276616497E+02  0.00000000000E+00 0. -1.
</event>
<event>
 7    1  0.3505640E-015  0.9000766E+02  0.7816164E-02  0.1186339E+00
        -11   -1    0    0    0    0  0.00000000000E+00  0.00000000000E+00  0.45593999997E+02  0.45594000000E+02  0.51100000000E-03 0. -1.
         11   -1    0    0    0    0 -0.00000000000E+00 -0.00000000000E+00 -0.45593999997E+02  0.45594000000E+02  0.51100000000E-03 0.  1.
    9900012    2    1    2    0    0  0.10288897956E+01 -0.55473519217E+00  0.16386318865E+00  0.90007662553E+02  0.89999922898E+02 0.  0.
        -12    1    1    2    0    0 -0.10288897956E+01  0.55473519217E+00 -0.16386318865E+00  0.11803374473E+01  0.00000000000E+00 0.  1.
         11    1    3    3    0    0  0.55642166586E+01 -0.50377279786E+01 -0.46611550139E+01  0.88354726266E+01  0.51100000000E-03 0. -1.
        -11    1    3    3    0    0  0.10633939854E+02 -0.31434888571E+02 -0.16141822418E+02  0.36902456930E+02  0.51100000000E-03 0.  1.
         12    1    3    3    0    0 -0.15169266717E+02  0.35917881357E+02  0.20966840621E+02  0.44269732996E+02  0.00000000000E+00 0. -1.
</event>
<event>
 7    1  0.3505640E-015  0.9000776E+02  0.7816164E-02  0.1186339E+00
        -11   -1    0    0    0    0  0.00000000000E+00  0.00000000000E+00  0.45593999997E+02  0.45594000000E+02  0.51100000000E-03 0.  1.
         11   -1    0    0    0    0 -0.00000000000E+00 -0.00000000000E+00 -0.45593999997E+02  0.45594000000E+02  0.51100000000E-03 0. -1.
    9900012    2    1    2    0    0  0.13765944272E-01 -0.29607460579E+00 -0.11424180200E+01  0.90007759090E+02  0.90000020710E+02 0.  0.
        -12    1    1    2    0    0 -0.13765944272E-01  0.29607460579E+00  0.11424180200E+01  0.11802409101E+01  0.00000000000E+00 0.  1.
         11    1    3    3    0    0 -0.21252806597E+01  0.67850549275E+01  0.23263526592E+01  0.74810230054E+01  0.51100000000E-03 0. -1.
        -11    1    3    3    0    0 -0.23478334041E+02  0.27688183811E+02  0.93309333974E+01  0.37482449366E+02  0.51100000000E-03 0.  1.
         12    1    3    3    0    0  0.25617380645E+02 -0.34769313344E+02 -0.12799704077E+02  0.45044286719E+02  0.00000000000E+00 0. -1.
</event>
<event>
 7    1  0.3505640E-015  0.9000752E+02  0.7816164E-02  0.1186339E+00
        -11   -1    0    0    0    0  0.00000000000E+00  0.00000000000E+00  0.45593999997E+02  0.45594000000E+02  0.51100000000E-03 0. -1.
         11   -1    0    0    0    0 -0.00000000000E+00 -0.00000000000E+00 -0.45593999997E+02  0.45594000000E+02  0.51100000000E-03 0.  1.
    9900012    2    1    2    0    0 -0.48117745582E+00  0.20739478303E-01  0.10777633119E+01  0.90007518900E+02  0.89999777350E+02 0.  0.
        -12    1    1    2    0    0  0.48117745582E+00 -0.20739478303E-01 -0.10777633119E+01  0.11804810996E+01  0.00000000000E+00 0.  1.
         11    1    3    3    0    0  0.26057482553E+02  0.14956102983E+02  0.24310589849E+02  0.38648184854E+02  0.51100000000E-03 0. -1.
        -11    1    3    3    0    0  0.36029455874E+01 -0.48610058027E+01  0.57503757024E+01  0.83472998807E+01  0.51100000000E-03 0.  1.
        -12    1    3    3    0    0 -0.30141605596E+02 -0.10074357702E+02 -0.28983202239E+02  0.43012034166E+02  0.00000000000E+00 0.  1.
</event>
<event>
 7    1  0.3505640E-015  0.9000765E+02  0.7816164E-02  0.1186339E+00
        -11   -1    0    0    0    0  0.00000000000E+00  0.00000000000E+00  0.45593999997E+02  0.45594000000E+02  0.51100000000E-03 0. -1.
         11   -1    0    0    0    0 -0.00000000000E+00 -0.00000000000E+00 -0.45593999997E+02  0.45594000000E+02  0.51100000000E-03 0.  1.
    9900012    2    1    2    0    0 -0.18436190838E+00  0.26640832506E+00  0.11350136213E+01  0.90007653174E+02  0.89999913396E+02 0.  0.
        -12    1    1    2    0    0  0.18436190838E+00 -0.26640832506E+00 -0.11350136213E+01  0.11803468259E+01  0.00000000000E+00 0.  1.
         11    1    3    3    0    0  0.15734526296E+01  0.41107102380E+02 -0.24923191637E+01  0.41212634887E+02  0.51100000000E-03 0. -1.
        -11    1    3    3    0    0 -0.49020250387E+01 -0.21120404537E+01  0.80808428102E+01  0.96845539465E+01  0.51100000000E-03 0.  1.
        -12    1    3    3    0    0  0.31442105008E+01 -0.38728653601E+02 -0.44535100252E+01  0.39110464341E+02  0.00000000000E+00 0.  1.
</event>
<event>
 7    1  0.3505640E-015  0.9000767E+02  0.7816164E-02  0.1186339E+00
        -11   -1    0    0    0    0  0.00000000000E+00  0.00000000000E+00  0.45593999997E+02  0.45594000000E+02  0.51100000000E-03 0.  1.
         11   -1    0    0    0    0 -0.00000000000E+00 -0.00000000000E+00 -0.45593999997E+02  0.45594000000E+02  0.51100000000E-03 0. -1.
    9900012    2    1    2    0    0 -0.22941247653E+00 -0.10597751981E+01 -0.46628487963E+00  0.90007671595E+02  0.89999932060E+02 0.  0.
        -12    1    1    2    0    0  0.22941247653E+00  0.10597751981E+01  0.46628487963E+00  0.11803284051E+01  0.00000000000E+00 0.  1.
         11    1    3    3    0    0  0.30818302773E+02  0.32258199594E+00 -0.14697333714E+02  0.34145035708E+02  0.51100000000E-03 0. -1.
        -11    1    3    3    0    0 -0.61627396339E+01 -0.21164651574E+02  0.81137429585E+01  0.23489458510E+02  0.51100000000E-03 0.  1.
        -12    1    3    3    0    0 -0.24884975616E+02  0.19782294380E+02  0.61173058756E+01  0.32373177377E+02  0.00000000000E+00 0.  1.
</event>
<event>
 7    1  0.3505640E-015  0.9000777E+02  0.7816164E-02  0.1186339E+00
        -11   -1    0    0    0    0  0.00000000000E+00  0.00000000000E+00  0.45593999997E+02  0.45594000000E+02  0.51100000000E-03 0. -1.
         11   -1    0    0    0    0 -0.00000000000E+00 -0.00000000000E+00 -0.45593999997E+02  0.45594000000E+02  0.51100000000E-03 0.  1.
    9900012    2    1    2    0    0 -0.61453845056E+00  0.74776892535E+00  0.67537066198E+00  0.90007770614E+02  0.90000032386E+02 0.  0.
        -12    1    1    2    0    0  0.61453845056E+00 -0.74776892535E+00 -0.67537066198E+00  0.11802293862E+01  0.00000000000E+00 0.  1.
         11    1    3    3    0    0  0.18004238409E+02 -0.26090738221E+02  0.18910413477E+02  0.36911826827E+02  0.51100000000E-03 0. -1.
        -11    1    3    3    0    0  0.20890790724E+01 -0.76395274096E+01  0.18613383152E+01  0.81357981168E+01  0.51100000000E-03 0.  1.
        -12    1    3    3    0    0 -0.20707855932E+02  0.34478034556E+02 -0.20096381130E+02  0.44960145670E+02  0.00000000000E+00 0.  1.
</event>
<event>
 7    1  0.3505640E-015  0.9000778E+02  0.7816164E-02  0.1186339E+00
        -11   -1    0    0    0    0  0.00000000000E+00  0.00000000000E+00  0.45593999997E+02  0.45594000000E+02  0.51100000000E-03 0.  1.
         11   -1    0    0    0    0 -0.00000000000E+00 -0.00000000000E+00 -0.45593999997E+02  0.45594000000E+02  0.51100000000E-03 0. -1.
    9900012    2    1    2    0    0  0.85303625487E-01 -0.11458558712E+01 -0.26956158633E+00  0.90007777210E+02  0.90000039069E+02 0.  0.
        -12    1    1    2    0    0 -0.85303625487E-01  0.11458558712E+01  0.26956158633E+00  0.11802227904E+01  0.00000000000E+00 0.  1.
         11    1    3    3    0    0  0.12595097341E+02 -0.30923761008E+02 -0.22018733529E+02  0.39996751098E+02  0.51100000000E-03 0. -1.
        -11    1    3    3    0    0  0.80231680536E+01  0.75126244773E+01 -0.24286491113E+01  0.11256513178E+02  0.51100000000E-03 0.  1.
        -12    1    3    3    0    0 -0.20532961769E+02  0.22265280659E+02  0.24177821054E+02  0.38754512934E+02  0.00000000000E+00 0.  1.
</event>
<event>
 7    1  0.3505640E-015  0.9000771E+02  0.7816164E-02  0.1186339E+00
        -11   -1    0    0    0    0  0.00000000000E+00  0.00000000000E+00  0.45593999997E+02  0.45594000000E+02  0.51100000000E-03 0.  1.
         11   -1    0    0    0    0 -0.00000000000E+00 -0.00000000000E+00 -0.45593999997E+02  0.45594000000E+02  0.51100000000E-03 0. -1.
    9900012    2    1    2    0    0  0.49182633620E+00 -0.55390799705E+00 -0.91890616987E+00  0.90007705222E+02  0.89999966131E+02 0.  0.
        -12    1    1    2    0    0 -0.49182633620E+00  0.55390799705E+00  0.91890616987E+00  0.11802947781E+01  0.00000000000E+00 0.  1.
         11    1    3    3    0    0  0.77056069949E+01 -0.35240693250E+02  0.84013865613E+01  0.37038711321E+02  0.51100000000E-03 0. -1.
        -11    1    3    3    0    0  0.59323488252E+01 -0.26321329320E+01  0.75498204164E+01  0.99559366680E+01  0.51100000000E-03 0.  1.
        -12    1    3    3    0    0 -0.13146129484E+02  0.37318918185E+02 -0.16870113147E+02  0.43013057233E+02  0.00000000000E+00 0.  1.
</event>
<event>
 7    1  0.3553130E-015  0.9000764E+02  0.7816164E-02  0.1186339E+00
        -11   -1    0    0    0    0  0.00000000000E+00  0.00000000000E+00  0.45593999997E+02  0.45594000000E+02  0.51100000000E-03 0.  1.
         11   -1    0    0    0    0 -0.00000000000E+00 -0.00000000000E+00 -0.45593999997E+02  0.45594000000E+02  0.51100000000E-03 0. -1.
    9900012    2    1    2    0    0 -0.74901804050E+00  0.55493318193E+00 -0.72407346973E+00  0.90007635120E+02  0.89999895103E+02 0.  0.
        -12    1    1    2    0    0  0.74901804050E+00 -0.55493318193E+00  0.72407346973E+00  0.11803648804E+01  0.00000000000E+00 0.  1.
         11    1    3    3    0    0 -0.87377322414E+01  0.23764013167E+01 -0.22961471937E+01  0.93417097009E+01  0.51100000000E-03 0. -1.
        -11    1    3    3    0    0 -0.16631164642E+02 -0.35264871553E+02  0.30709880840E+01  0.39110583876E+02  0.51100000000E-03 0.  1.
         12    1    3    3    0    0  0.24619878843E+02  0.33443403419E+02 -0.14989143600E+01  0.41555341543E+02  0.00000000000E+00 0. -1.
</event>
<event>
 7    1  0.3505640E-015  0.9000761E+02  0.7816164E-02  0.1186339E+00
        -11   -1    0    0    0    0  0.00000000000E+00  0.00000000000E+00  0.45593999997E+02  0.45594000000E+02  0.51100000000E-03 0.  1.
         11   -1    0    0    0    0 -0.00000000000E+00 -0.00000000000E+00 -0.45593999997E+02  0.45594000000E+02  0.51100000000E-03 0. -1.
    9900012    2    1    2    0    0  0.64595287986E+00  0.76232028032E+00 -0.62844455741E+00  0.90007606043E+02  0.89999865642E+02 0.  0.
        -12    1    1    2    0    0 -0.64595287986E+00 -0.76232028032E+00  0.62844455741E+00  0.11803939573E+01  0.00000000000E+00 0.  1.
         11    1    3    3    0    0  0.12271606968E+02 -0.42420501765E+00 -0.35234669672E+02  0.37312923158E+02  0.51100000000E-03 0. -1.
        -11    1    3    3    0    0 -0.34917716443E+01 -0.52801183059E+01 -0.72170306191E+01  0.95998775909E+01  0.51100000000E-03 0.  1.
        -12    1    3    3    0    0 -0.81338824442E+01  0.64666436039E+01  0.41823255734E+02  0.43094805293E+02  0.00000000000E+00 0.  1.
</event>
<event>
 7    1  0.3505640E-015  0.9000775E+02  0.7816164E-02  0.1186339E+00
        -11   -1    0    0    0    0  0.00000000000E+00  0.00000000000E+00  0.45593999997E+02  0.45594000000E+02  0.51100000000E-03 0. -1.
         11   -1    0    0    0    0 -0.00000000000E+00 -0.00000000000E+00 -0.45593999997E+02  0.45594000000E+02  0.51100000000E-03 0.  1.
    9900012    2    1    2    0    0  0.30712466534E+00  0.10822094361E+01  0.35703890867E+00  0.90007754430E+02  0.90000015988E+02 0.  0.
        -12    1    1    2    0    0 -0.30712466534E+00 -0.10822094361E+01 -0.35703890867E+00  0.11802455701E+01  0.00000000000E+00 0.  1.
         11    1    3    3    0    0 -0.41012584630E+02 -0.13119364003E+02  0.98177542535E+00  0.43071030788E+02  0.51100000000E-03 0. -1.
        -11    1    3    3    0    0  0.58940974063E+01  0.64864730136E+01 -0.55108393002E+01  0.10352973797E+02  0.51100000000E-03 0.  1.
        -12    1    3    3    0    0  0.35425611889E+02  0.77151004255E+01  0.48861027835E+01  0.36583749845E+02  0.00000000000E+00 0.  1.
</event>
<event>
 7    1  0.3505640E-015  0.9000774E+02  0.7816164E-02  0.1186339E+00
        -11   -1    0    0    0    0  0.00000000000E+00  0.00000000000E+00  0.45593999997E+02  0.45594000000E+02  0.51100000000E-03 0.  1.
         11   -1    0    0    0    0 -0.00000000000E+00 -0.00000000000E+00 -0.45593999997E+02  0.45594000000E+02  0.51100000000E-03 0. -1.
    9900012    2    1    2    0    0 -0.74090882822E+00 -0.44217830928E+00 -0.80531706844E+00  0.90007744464E+02  0.90000005891E+02 0.  0.
        -12    1    1    2    0    0  0.74090882822E+00  0.44217830928E+00  0.80531706844E+00  0.11802555357E+01  0.00000000000E+00 0.  1.
         11    1    3    3    0    0 -0.91292784898E+01  0.46678426657E+01  0.17266917027E+01  0.10397785600E+02  0.51100000000E-03 0. -1.
        -11    1    3    3    0    0 -0.15864044597E+02 -0.16844764325E+02  0.29668406012E+02  0.37624836367E+02  0.51100000000E-03 0.  1.
         12    1    3    3    0    0  0.24252414259E+02  0.11734743350E+02 -0.32200414783E+02  0.41985122496E+02  0.00000000000E+00 0. -1.
</event>
<event>
 7    1  0.3505640E-015  0.9000776E+02  0.7816164E-02  0.1186339E+00
        -11   -1    0    0    0    0  0.00000000000E+00  0.00000000000E+00  0.45593999997E+02  0.45594000000E+02  0.51100000000E-03 0. -1.
         11   -1    0    0    0    0 -0.00000000000E+00 -0.00000000000E+00 -0.45593999997E+02  0.45594000000E+02  0.51100000000E-03 0.  1.
    9900012    2    1    2    0    0 -0.86410836674E+00 -0.55950609563E+00  0.57725659446E+00  0.90007764635E+02  0.90000026328E+02 0.  0.
        -12    1    1    2    0    0  0.86410836674E+00  0.55950609563E+00 -0.57725659446E+00  0.11802353648E+01  0.00000000000E+00 0.  1.
         11    1    3    3    0    0  0.13480509868E+01  0.99085107271E+01 -0.50631427830E+01  0.11208534311E+02  0.51100000000E-03 0. -1.
        -11    1    3    3    0    0 -0.34846532911E+02 -0.24752843735E+02  0.75202296193E-01  0.42743301049E+02  0.51100000000E-03 0.  1.
         12    1    3    3    0    0  0.32634373557E+02  0.14284826913E+02  0.55651970812E+01  0.36055929276E+02  0.00000000000E+00 0. -1.
</event>
<event>
 7    1  0.3505640E-015  0.9000794E+02  0.7816164E-02  0.1186339E+00
        -11   -1    0    0    0    0  0.00000000000E+00  0.00000000000E+00  0.45593999997E+02  0.45594000000E+02  0.51100000000E-03 0. -1.
         11   -1    0    0    0    0 -0.00000000000E+00 -0.00000000000E+00 -0.45593999997E+02  0.45594000000E+02  0.51100000000E-03 0.  1.
    9900012    2    1    2    0    0 -0.30849351450E+00 -0.75732308135E+00  0.85078812063E+00  0.90007937746E+02  0.90000201724E+02 0.  0.
        -12    1    1    2    0    0  0.30849351450E+00  0.75732308135E+00 -0.85078812063E+00  0.11800622544E+01  0.00000000000E+00 0.  1.
         11    1    3    3    0    0  0.36450973070E+02 -0.14559540209E-01  0.14528563311E+02  0.39239684018E+02  0.51100000000E-03 0. -1.
        -11    1    3    3    0    0 -0.15367908352E+01  0.94556707396E+01  0.35979768859E+01  0.10233126264E+02  0.51100000000E-03 0.  1.
        -12    1    3    3    0    0 -0.35222675749E+02 -0.10198434281E+02 -0.17275752076E+02  0.40535127463E+02  0.00000000000E+00 0.  1.
</event>
<event>
 7    1  0.3505640E-015  0.9000772E+02  0.7816164E-02  0.1186339E+00
        -11   -1    0    0    0    0  0.00000000000E+00  0.00000000000E+00  0.45593999997E+02  0.45594000000E+02  0.51100000000E-03 0. -1.
         11   -1    0    0    0    0 -0.00000000000E+00 -0.00000000000E+00 -0.45593999997E+02  0.45594000000E+02  0.51100000000E-03 0.  1.
    9900012    2    1    2    0    0 -0.11594644383E+01  0.68790170731E-01  0.20971450652E+00  0.90007716117E+02  0.89999977169E+02 0.  0.
        -12    1    1    2    0    0  0.11594644383E+01 -0.68790170731E-01 -0.20971450652E+00  0.11802838834E+01  0.00000000000E+00 0.  1.
         11    1    3    3    0    0 -0.16149179340E+02  0.24100899872E+02 -0.45695013377E+01  0.29368856136E+02  0.51100000000E-03 0. -1.
        -11    1    3    3    0    0 -0.11180253462E+02 -0.86458535289E+01 -0.17855102195E+02  0.22771770361E+02  0.51100000000E-03 0.  1.
        -12    1    3    3    0    0  0.26169968364E+02 -0.15386256172E+02  0.22634318039E+02  0.37867089620E+02  0.00000000000E+00 0.  1.
</event>
<event>
 7    1  0.3505640E-015  0.9000807E+02  0.7816164E-02  0.1186338E+00
        -11   -1    0    0    0    0  0.00000000000E+00  0.00000000000E+00  0.45593999997E+02  0.45594000000E+02  0.51100000000E-03 0. -1.
         11   -1    0    0    0    0 -0.00000000000E+00 -0.00000000000E+00 -0.45593999997E+02  0.45594000000E+02  0.51100000000E-03 0.  1.
    9900012    2    1    2    0    0  0.84944715149E+00  0.19233231318E+00  0.79604285583E+00  0.90008069320E+02  0.90000335034E+02 0.  0.
        -12    1    1    2    0    0 -0.84944715149E+00 -0.19233231318E+00 -0.79604285583E+00  0.11799306802E+01  0.00000000000E+00 0.  1.
         11    1    3    3    0    0  0.31324260905E+02 -0.88818402810E+01  0.19563963774E+02  0.37984800734E+02  0.51100000000E-03 0. -1.
        -11    1    3    3    0    0  0.59716299473E+01  0.26189218657E+01  0.48409418797E+01  0.81211966181E+01  0.51100000000E-03 0.  1.
        -12    1    3    3    0    0 -0.36446443701E+02  0.64552507285E+01 -0.23608862798E+02  0.43902071967E+02  0.00000000000E+00 0.  1.
</event>
<event>
 7    1  0.7953276E-015  0.9000779E+02  0.7816164E-02  0.1186339E+00
        -11   -1    0    0    0    0  0.00000000000E+00  0.00000000000E+00  0.45593999997E+02  0.45594000000E+02  0.51100000000E-03 0. -1.
         11   -1    0    0    0    0 -0.00000000000E+00 -0.00000000000E+00 -0.45593999997E+02  0.45594000000E+02  0.51100000000E-03 0.  1.
    9900012    2    1    2    0    0 -0.16756477937E+00 -0.47429484217E+00  0.10676411717E+01  0.90007791873E+02  0.90000053925E+02 0.  0.
        -12    1    1    2    0    0  0.16756477937E+00  0.47429484217E+00 -0.10676411717E+01  0.11802081274E+01  0.00000000000E+00 0.  1.
         11    1    3    3    0    0 -0.80652151629E+01 -0.22068371335E+01 -0.49546161722E+01  0.97193645591E+01  0.51100000000E-03 0. -1.
        -11    1    3    3    0    0 -0.33672731590E+02  0.87691036259E+01 -0.82790968748E+01  0.35767212311E+02  0.51100000000E-03 0.  1.
         12    1    3    3    0    0  0.41570381974E+02 -0.70365613346E+01  0.14301354219E+02  0.44521215003E+02  0.00000000000E+00 0. -1.
</event>
<event>
 8    1  0.3505640E-015  0.9000755E+02  0.7816164E-02  0.1186339E+00
        -11   -1    0    0    0    0  0.00000000000E+00  0.00000000000E+00  0.45593999997E+02  0.45594000000E+02  0.51100000000E-03 0.  1.
         11   -1    0    0    0    0 -0.00000000000E+00 -0.00000000000E+00 -0.45593999997E+02  0.45594000000E+02  0.51100000000E-03 0. -1.
    9900012    2    1    2    0    0  0.32831990559E+00 -0.10573672058E+01 -0.40942869961E+00  0.90007554648E+02  0.89999813569E+02 0.  0.
         23    2    3    3    0    0 -0.14137655332E+02  0.19672773140E+02 -0.83880488379E+01  0.63499790924E+02  0.58094515944E+02 0.  0.
        -12    1    1    2    0    0 -0.32831990559E+00  0.10573672058E+01  0.40942869961E+00  0.11804453517E+01  0.00000000000E+00 0.  1.
         11    1    4    4    0    0 -0.26045782109E+01  0.38464509360E+02  0.30274578402E+01  0.38671278866E+02  0.51100000000E-03 0. -1.
        -11    1    4    4    0    0 -0.11533077121E+02 -0.18791736219E+02 -0.11415506678E+02  0.24828512058E+02  0.51100000000E-03 0.  1.
        -12    1    3    3    0    0  0.14465975238E+02 -0.20730140346E+02  0.79786201383E+01  0.26507763724E+02  0.00000000000E+00 0.  1.
</event>
<event>
 7    1  0.3505640E-015  0.9000780E+02  0.7816164E-02  0.1186339E+00
        -11   -1    0    0    0    0  0.00000000000E+00  0.00000000000E+00  0.45593999997E+02  0.45594000000E+02  0.51100000000E-03 0.  1.
         11   -1    0    0    0    0 -0.00000000000E+00 -0.00000000000E+00 -0.45593999997E+02  0.45594000000E+02  0.51100000000E-03 0. -1.
    9900012    2    1    2    0    0  0.70167914688E+00 -0.87656233849E+00  0.36354057879E+00  0.90007797936E+02  0.90000060069E+02 0.  0.
        -12    1    1    2    0    0 -0.70167914688E+00  0.87656233849E+00 -0.36354057879E+00  0.11802020636E+01  0.00000000000E+00 0.  1.
         11    1    3    3    0    0  0.19394530963E+01 -0.23500119170E+02 -0.21167255329E+02  0.31687060100E+02  0.51100000000E-03 0. -1.
        -11    1    3    3    0    0 -0.38710172641E+00 -0.87266109057E+01 -0.10388257436E+02  0.13572747639E+02  0.51100000000E-03 0.  1.
        -12    1    3    3    0    0 -0.85067222297E+00  0.31350167737E+02  0.31919053344E+02  0.44747990198E+02  0.00000000000E+00 0.  1.
</event>
<event>
 7    1  0.3505640E-015  0.9000767E+02  0.7816164E-02  0.1186339E+00
        -11   -1    0    0    0    0  0.00000000000E+00  0.00000000000E+00  0.45593999997E+02  0.45594000000E+02  0.51100000000E-03 0. -1.
         11   -1    0    0    0    0 -0.00000000000E+00 -0.00000000000E+00 -0.45593999997E+02  0.45594000000E+02  0.51100000000E-03 0.  1.
    9900012    2    1    2    0    0 -0.81287055041E+00  0.13720098941E+00  0.84474409545E+00  0.90007671558E+02  0.89999932023E+02 0.  0.
        -12    1    1    2    0    0  0.81287055041E+00 -0.13720098941E+00 -0.84474409545E+00  0.11803284416E+01  0.00000000000E+00 0.  1.
         11    1    3    3    0    0  0.21371373924E+01  0.78350856026E+01 -0.54129929061E+01  0.97599392978E+01  0.51100000000E-03 0. -1.
        -11    1    3    3    0    0  0.26352838335E+02  0.79970140515E+01  0.28983265362E+02  0.39980670246E+02  0.51100000000E-03 0.  1.
         12    1    3    3    0    0 -0.29302846277E+02 -0.15694898665E+02 -0.22725528360E+02  0.40267062015E+02  0.00000000000E+00 0. -1.
</event>
<event>
 7    1  0.3505640E-015  0.9000767E+02  0.7816164E-02  0.1186339E+00
        -11   -1    0    0    0    0  0.00000000000E+00  0.00000000000E+00  0.45593999997E+02  0.45594000000E+02  0.51100000000E-03 0. -1.
         11   -1    0    0    0    0 -0.00000000000E+00 -0.00000000000E+00 -0.45593999997E+02  0.45594000000E+02  0.51100000000E-03 0.  1.
    9900012    2    1    2    0    0 -0.14661955586E+00 -0.11631777515E+01  0.13670631581E+00  0.90007674455E+02  0.89999934958E+02 0.  0.
        -12    1    1    2    0    0  0.14661955586E+00  0.11631777515E+01 -0.13670631581E+00  0.11803255451E+01  0.00000000000E+00 0.  1.
         11    1    3    3    0    0 -0.60365261410E+01 -0.41658953190E+01 -0.60801709477E+01  0.95269518039E+01  0.51100000000E-03 0. -1.
        -11    1    3    3    0    0  0.80917005526E+01 -0.14402745713E+02 -0.33339637364E+02  0.37208145906E+02  0.51100000000E-03 0.  1.
         12    1    3    3    0    0 -0.22017939675E+01  0.17405463280E+02  0.39556514628E+02  0.43272576745E+02  0.00000000000E+00 0. -1.
</event>
<event>
 7    1  0.3505640E-015  0.9000771E+02  0.7816164E-02  0.1186339E+00
        -11   -1    0    0    0    0  0.00000000000E+00  0.00000000000E+00  0.45593999997E+02  0.45594000000E+02  0.51100000000E-03 0. -1.
         11   -1    0    0    0    0 -0.00000000000E+00 -0.00000000000E+00 -0.45593999997E+02  0.45594000000E+02  0.51100000000E-03 0.  1.
    9900012    2    1    2    0    0 -0.94879283595E+00  0.70203433604E+00  0.47421571474E-02  0.90007710822E+02  0.89999971805E+02 0.  0.
        -12    1    1    2    0    0  0.94879283595E+00 -0.70203433604E+00 -0.47421571473E-02  0.11802891775E+01  0.00000000000E+00 0.  1.
         11    1    3    3    0    0 -0.76675400032E+01  0.46918947908E+01  0.99537017005E+00  0.90441035192E+01  0.51100000000E-03 0. -1.
        -11    1    3    3    0    0 -0.29583444299E+01  0.23370911973E+02 -0.31185427182E+02  0.39083016733E+02  0.51100000000E-03 0.  1.
         12    1    3    3    0    0  0.96770915972E+01 -0.27360772428E+02  0.30194799169E+02  0.41880590570E+02  0.00000000000E+00 0. -1.
</event>
<event>
 7    1  0.3505640E-015  0.9000769E+02  0.7816164E-02  0.1186339E+00
        -11   -1    0    0    0    0  0.00000000000E+00  0.00000000000E+00  0.45593999997E+02  0.45594000000E+02  0.51100000000E-03 0. -1.
         11   -1    0    0    0    0 -0.00000000000E+00 -0.00000000000E+00 -0.45593999997E+02  0.45594000000E+02  0.51100000000E-03 0.  1.
    9900012    2    1    2    0    0  0.38820189881E+00 -0.68287219355E+00  0.88097922956E+00  0.90007686673E+02  0.89999947337E+02 0.  0.
        -12    1    1    2    0    0 -0.38820189881E+00  0.68287219355E+00 -0.88097922956E+00  0.11803133270E+01  0.00000000000E+00 0.  1.
         11    1    3    3    0    0  0.42337891403E+01 -0.35950829580E+00  0.14629672754E+02  0.15234222719E+02  0.51100000000E-03 0. -1.
        -11    1    3    3    0    0  0.33416429293E+02  0.21318619967E+01  0.34477143416E+01  0.33661392079E+02  0.51100000000E-03 0.  1.
         12    1    3    3    0    0 -0.37262016534E+02 -0.24552258945E+01 -0.17196407866E+02  0.41112071875E+02  0.00000000000E+00 0. -1.
</event>
<event>
 7    1  0.3505640E-015  0.9000776E+02  0.7816164E-02  0.1186339E+00
        -11   -1    0    0    0    0  0.00000000000E+00  0.00000000000E+00  0.45593999997E+02  0.45594000000E+02  0.51100000000E-03 0.  1.
         11   -1    0    0    0    0 -0.00000000000E+00 -0.00000000000E+00 -0.45593999997E+02  0.45594000000E+02  0.51100000000E-03 0. -1.
    9900012    2    1    2    0    0 -0.97380208947E+00  0.56190647923E+00  0.35906735646E+00  0.90007763258E+02  0.90000024933E+02 0.  0.
        -12    1    1    2    0    0  0.97380208947E+00 -0.56190647923E+00 -0.35906735646E+00  0.11802367421E+01  0.00000000000E+00 0.  1.
         11    1    3    3    0    0 -0.36765975906E+01 -0.44898487099E+01  0.72586692199E+01  0.92932443412E+01  0.51100000000E-03 0. -1.
        -11    1    3    3    0    0 -0.26149034709E+02 -0.20875718613E+02  0.14439230269E+02  0.36442544023E+02  0.51100000000E-03 0.  1.
         12    1    3    3    0    0  0.28851830210E+02  0.25927473802E+02 -0.21338832132E+02  0.44271974894E+02  0.00000000000E+00 0. -1.
</event>
<event>
 7    1  0.3505640E-015  0.9000808E+02  0.7816164E-02  0.1186338E+00
        -11   -1    0    0    0    0  0.00000000000E+00  0.00000000000E+00  0.45593999997E+02  0.45594000000E+02  0.51100000000E-03 0.  1.
         11   -1    0    0    0    0 -0.00000000000E+00 -0.00000000000E+00 -0.45593999997E+02  0.45594000000E+02  0.51100000000E-03 0. -1.
    9900012    2    1    2    0    0  0.10801320158E+01 -0.21448239155E+00 -0.42370493541E+00  0.90008078926E+02  0.90000344767E+02 0.  0.
        -12    1    1    2    0    0 -0.10801320158E+01  0.21448239155E+00  0.42370493541E+00  0.11799210737E+01  0.00000000000E+00 0.  1.
         11    1    3    3    0    0  0.18587648283E+01  0.89592607176E+01 -0.27498850296E+01  0.95543302869E+01  0.51100000000E-03 0. -1.
        -11    1    3    3    0    0 -0.39287696160E+02 -0.91854077688E+01  0.90816475750E+01  0.41356633185E+02  0.51100000000E-03 0.  1.
         12    1    3    3    0    0  0.38509063348E+02  0.11664659611E-01 -0.67554674808E+01  0.39097115455E+02  0.00000000000E+00 0. -1.
</event>
<event>
 7    1  0.3505640E-015  0.9000772E+02  0.7816164E-02  0.1186339E+00
        -11   -1    0    0    0    0  0.00000000000E+00  0.00000000000E+00  0.45593999997E+02  0.45594000000E+02  0.51100000000E-03 0.  1.
         11   -1    0    0    0    0 -0.00000000000E+00 -0.00000000000E+00 -0.45593999997E+02  0.45594000000E+02  0.51100000000E-03 0. -1.
    9900012    2    1    2    0    0 -0.11643266158E+01  0.12170282338E+00  0.15030552659E+00  0.90007720458E+02  0.89999981568E+02 0.  0.
        -12    1    1    2    0    0  0.11643266158E+01 -0.12170282338E+00 -0.15030552659E+00  0.11802795418E+01  0.00000000000E+00 0.  1.
         11    1    3    3    0    0 -0.20312155927E+01  0.84142965147E+00 -0.95108194732E+01  0.97616355164E+01  0.51100000000E-03 0. -1.
        -11    1    3    3    0    0 -0.14527379560E+02  0.34154819650E+02  0.17958696791E+02  0.41232405374E+02  0.51100000000E-03 0.  1.
         12    1    3    3    0    0  0.15394268537E+02 -0.34874546478E+02 -0.82975717915E+01  0.39013679568E+02  0.00000000000E+00 0. -1.
</event>
<event>
 7    1  0.3505640E-015  0.9000775E+02  0.7816164E-02  0.1186339E+00
        -11   -1    0    0    0    0  0.00000000000E+00  0.00000000000E+00  0.45593999997E+02  0.45594000000E+02  0.51100000000E-03 0.  1.
         11   -1    0    0    0    0 -0.00000000000E+00 -0.00000000000E+00 -0.45593999997E+02  0.45594000000E+02  0.51100000000E-03 0. -1.
    9900012    2    1    2    0    0 -0.82099421728E+00  0.49526077397E+00 -0.68823735711E+00  0.90007751976E+02  0.90000013502E+02 0.  0.
        -12    1    1    2    0    0  0.82099421728E+00 -0.49526077397E+00  0.68823735711E+00  0.11802480243E+01  0.00000000000E+00 0.  1.
         11    1    3    3    0    0 -0.24206619772E+02 -0.27492716385E+02 -0.39773198707E+01  0.36846016998E+02  0.51100000000E-03 0. -1.
        -11    1    3    3    0    0  0.10875057786E+01 -0.66423834519E+01 -0.79996186038E+01  0.10454560001E+02  0.51100000000E-03 0.  1.
        -12    1    3    3    0    0  0.22298119776E+02  0.34630360611E+02  0.11288701117E+02  0.42707174977E+02  0.00000000000E+00 0.  1.
</event>
<event>
 7    1  0.3505640E-015  0.9000773E+02  0.7816164E-02  0.1186339E+00
        -11   -1    0    0    0    0  0.00000000000E+00  0.00000000000E+00  0.45593999997E+02  0.45594000000E+02  0.51100000000E-03 0.  1.
         11   -1    0    0    0    0 -0.00000000000E+00 -0.00000000000E+00 -0.45593999997E+02  0.45594000000E+02  0.51100000000E-03 0. -1.
    9900012    2    1    2    0    0 -0.74240257528E+00 -0.29020358772E+00 -0.87043225976E+00  0.90007732223E+02  0.89999993489E+02 0.  0.
        -12    1    1    2    0    0  0.74240257528E+00  0.29020358772E+00  0.87043225976E+00  0.11802677768E+01  0.00000000000E+00 0.  1.
         11    1    3    3    0    0 -0.11928699482E+02 -0.12820193010E+02 -0.47961970979E+01  0.18156396311E+02  0.51100000000E-03 0. -1.
        -11    1    3    3    0    0 -0.14644845538E+02  0.10114694340E+01  0.29990023270E+02  0.33390059408E+02  0.51100000000E-03 0.  1.
         12    1    3    3    0    0  0.25831142444E+02  0.11518519989E+02 -0.26064258432E+02  0.38461276504E+02  0.00000000000E+00 0. -1.
</event>
<event>
 7    1  0.3505640E-015  0.9000776E+02  0.7816164E-02  0.1186339E+00
        -11   -1    0    0    0    0  0.00000000000E+00  0.00000000000E+00  0.45593999997E+02  0.45594000000E+02  0.51100000000E-03 0.  1.
         11   -1    0    0    0    0 -0.00000000000E+00 -0.00000000000E+00 -0.45593999997E+02  0.45594000000E+02  0.51100000000E-03 0. -1.
    9900012    2    1    2    0    0 -0.26555923845E+00  0.11025442814E+01 -0.32686841371E+00  0.90007759109E+02  0.90000020729E+02 0.  0.
        -12    1    1    2    0    0  0.26555923845E+00 -0.11025442814E+01  0.32686841371E+00  0.11802408912E+01  0.00000000000E+00 0.  1.
         11    1    3    3    0    0  0.19866453530E+01 -0.79976520648E+01 -0.28825563895E+01  0.87303109857E+01  0.51100000000E-03 0. -1.
        -11    1    3    3    0    0  0.20331971752E+00 -0.35935091136E+02  0.39615084372E+01  0.36153363097E+02  0.51100000000E-03 0.  1.
         12    1    3    3    0    0 -0.24555243089E+01  0.45035287482E+02 -0.14058204614E+01  0.45124085026E+02  0.00000000000E+00 0. -1.
</event>
<event>
 7    1  0.3505640E-015  0.9000785E+02  0.7816164E-02  0.1186339E+00
        -11   -1    0    0    0    0  0.00000000000E+00  0.00000000000E+00  0.45593999997E+02  0.45594000000E+02  0.51100000000E-03 0.  1.
         11   -1    0    0    0    0 -0.00000000000E+00 -0.00000000000E+00 -0.45593999997E+02  0.45594000000E+02  0.51100000000E-03 0. -1.
    9900012    2    1    2    0    0  0.27166885981E+00 -0.90935600315E+00 -0.70143673860E+00  0.90007853480E+02  0.90000116346E+02 0.  0.
        -12    1    1    2    0    0 -0.27166885981E+00  0.90935600315E+00  0.70143673860E+00  0.11801465198E+01  0.00000000000E+00 0.  1.
         11    1    3    3    0    0  0.31192492510E+02 -0.23317847480E+02 -0.86690995031E+01  0.39897955920E+02  0.51100000000E-03 0. -1.
        -11    1    3    3    0    0  0.25981569240E+01  0.18508593100E+01  0.10237977234E+02  0.10723445234E+02  0.51100000000E-03 0.  1.
        -12    1    3    3    0    0 -0.33518980575E+02  0.20557632167E+02 -0.22703144691E+01  0.39386452326E+02  0.00000000000E+00 0.  1.
</event>
<event>
 7    1  0.3505640E-015  0.9000738E+02  0.7816164E-02  0.1186340E+00
        -11   -1    0    0    0    0  0.00000000000E+00  0.00000000000E+00  0.45593999997E+02  0.45594000000E+02  0.51100000000E-03 0. -1.
         11   -1    0    0    0    0 -0.00000000000E+00 -0.00000000000E+00 -0.45593999997E+02  0.45594000000E+02  0.51100000000E-03 0.  1.
    9900012    2    1    2    0    0 -0.60128594355E+00 -0.95052750827E-01  0.10115800590E+01  0.90007375577E+02  0.89999632134E+02 0.  0.
        -12    1    1    2    0    0  0.60128594355E+00  0.95052750827E-01 -0.10115800590E+01  0.11806244225E+01  0.00000000000E+00 0.  1.
         11    1    3    3    0    0  0.35650694572E+02  0.21689115456E+02  0.94668560236E+00  0.41740699163E+02  0.51100000000E-03 0. -1.
        -11    1    3    3    0    0 -0.29890648368E+01 -0.38171097627E+01  0.82652928946E+01  0.95822702129E+01  0.51100000000E-03 0.  1.
        -12    1    3    3    0    0 -0.33262915679E+02 -0.17967058444E+02 -0.82003984379E+01  0.38684406201E+02  0.00000000000E+00 0.  1.
</event>
<event>
 7    1  0.3505640E-015  0.9000775E+02  0.7816164E-02  0.1186339E+00
        -11   -1    0    0    0    0  0.00000000000E+00  0.00000000000E+00  0.45593999997E+02  0.45594000000E+02  0.51100000000E-03 0. -1.
         11   -1    0    0    0    0 -0.00000000000E+00 -0.00000000000E+00 -0.45593999997E+02  0.45594000000E+02  0.51100000000E-03 0.  1.
    9900012    2    1    2    0    0  0.10084316041E+01 -0.23020759169E+00  0.56838556967E+00  0.90007749183E+02  0.90000010672E+02 0.  0.
        -12    1    1    2    0    0 -0.10084316041E+01  0.23020759169E+00 -0.56838556967E+00  0.11802508171E+01  0.00000000000E+00 0.  1.
         11    1    3    3    0    0 -0.15915207124E+01  0.89358493879E+01 -0.22904042192E+01  0.93609985691E+01  0.51100000000E-03 0. -1.
        -11    1    3    3    0    0  0.30535204744E+02 -0.16152996055E+02 -0.23361238225E+02  0.41702103807E+02  0.51100000000E-03 0.  1.
         12    1    3    3    0    0 -0.27935252428E+02  0.69869390752E+01  0.26220028014E+02  0.38944646806E+02  0.00000000000E+00 0. -1.
</event>
<event>
 7    1  0.3505640E-015  0.9000780E+02  0.7816164E-02  0.1186339E+00
        -11   -1    0    0    0    0  0.00000000000E+00  0.00000000000E+00  0.45593999997E+02  0.45594000000E+02  0.51100000000E-03 0.  1.
         11   -1    0    0    0    0 -0.00000000000E+00 -0.00000000000E+00 -0.45593999997E+02  0.45594000000E+02  0.51100000000E-03 0. -1.
    9900012    2    1    2    0    0 -0.56181822487E-01  0.70393671566E+00 -0.94561105325E+00  0.90007803592E+02  0.90000065800E+02 0.  0.
        -12    1    1    2    0    0  0.56181822487E-01 -0.70393671566E+00  0.94561105325E+00  0.11801964078E+01  0.00000000000E+00 0.  1.
         11    1    3    3    0    0 -0.14708838362E+02  0.17863633173E+02 -0.33957810501E+02  0.41092483623E+02  0.51100000000E-03 0. -1.
        -11    1    3    3    0    0  0.13395367435E+01 -0.70994739459E+01 -0.40409880031E+01  0.82780718346E+01  0.51100000000E-03 0.  1.
        -12    1    3    3    0    0  0.13313119796E+02 -0.10060222511E+02  0.37053187451E+02  0.40637248134E+02  0.00000000000E+00 0.  1.
</event>
<event>
 7    1  0.3505640E-015  0.9000787E+02  0.7816164E-02  0.1186339E+00
        -11   -1    0    0    0    0  0.00000000000E+00  0.00000000000E+00  0.45593999997E+02  0.45594000000E+02  0.51100000000E-03 0. -1.
         11   -1    0    0    0    0 -0.00000000000E+00 -0.00000000000E+00 -0.45593999997E+02  0.45594000000E+02  0.51100000000E-03 0.  1.
    9900012    2    1    2    0    0 -0.10381890270E+01  0.31413156831E-01  0.56025354836E+00  0.90007869804E+02  0.90000132885E+02 0.  0.
        -12    1    1    2    0    0  0.10381890270E+01 -0.31413156831E-01 -0.56025354836E+00  0.11801301965E+01  0.00000000000E+00 0.  1.
         11    1    3    3    0    0  0.89391237146E+01  0.11123605476E+01 -0.51633791366E+01  0.10382955415E+02  0.51100000000E-03 0. -1.
        -11    1    3    3    0    0  0.10766261996E+02  0.35485656275E+02  0.61077242240E+01  0.37582555715E+02  0.51100000000E-03 0.  1.
         12    1    3    3    0    0 -0.20743574738E+02 -0.36566603666E+02 -0.38409153905E+00  0.42042358674E+02  0.00000000000E+00 0. -1.
</event>
<event>
 7    1  0.3505640E-015  0.9000772E+02  0.7816164E-02  0.1186339E+00
        -11   -1    0    0    0    0  0.00000000000E+00  0.00000000000E+00  0.45593999997E+02  0.45594000000E+02  0.51100000000E-03 0.  1.
         11   -1    0    0    0    0 -0.00000000000E+00 -0.00000000000E+00 -0.45593999997E+02  0.45594000000E+02  0.51100000000E-03 0. -1.
    9900012    2    1    2    0    0  0.43452112153E+00  0.10921151325E+01  0.10741955106E+00  0.90007719090E+02  0.89999980182E+02 0.  0.
        -12    1    1    2    0    0 -0.43452112153E+00 -0.10921151325E+01 -0.10741955106E+00  0.11802809105E+01  0.00000000000E+00 0.  1.
         11    1    3    3    0    0  0.27602591314E+01 -0.18642109280E+02 -0.37617213183E+02  0.42073768511E+02  0.51100000000E-03 0. -1.
        -11    1    3    3    0    0 -0.80425075806E+01  0.84445009371E+00  0.44068006556E+01  0.92095014211E+01  0.51100000000E-03 0.  1.
        -12    1    3    3    0    0  0.57167695708E+01  0.18889774319E+02  0.33317832078E+02  0.38724449157E+02  0.00000000000E+00 0.  1.
</event>
<event>
 7    1  0.3505640E-015  0.9000784E+02  0.7816164E-02  0.1186339E+00
        -11   -1    0    0    0    0  0.00000000000E+00  0.00000000000E+00  0.45593999997E+02  0.45594000000E+02  0.51100000000E-03 0. -1.
         11   -1    0    0    0    0 -0.00000000000E+00 -0.00000000000E+00 -0.45593999997E+02  0.45594000000E+02  0.51100000000E-03 0.  1.
    9900012    2    1    2    0    0 -0.69192165552E+00  0.94700410927E+00  0.13113991464E+00  0.90007843215E+02  0.90000105945E+02 0.  0.
        -12    1    1    2    0    0  0.69192165552E+00 -0.94700410927E+00 -0.13113991464E+00  0.11801567852E+01  0.00000000000E+00 0.  1.
         11    1    3    3    0    0 -0.41240754045E+01  0.17858652623E+01  0.98838957855E+01  0.10857656692E+02  0.51100000000E-03 0. -1.
        -11    1    3    3    0    0 -0.27348177859E+02  0.24673919834E+02  0.35779381844E+01  0.37007118154E+02  0.51100000000E-03 0.  1.
         12    1    3    3    0    0  0.30780331608E+02 -0.25512780987E+02 -0.13330694055E+02  0.42143068369E+02  0.00000000000E+00 0. -1.
</event>
<event>
 7    1  0.3505640E-015  0.9000778E+02  0.7816164E-02  0.1186339E+00
        -11   -1    0    0    0    0  0.00000000000E+00  0.00000000000E+00  0.45593999997E+02  0.45594000000E+02  0.51100000000E-03 0.  1.
         11   -1    0    0    0    0 -0.00000000000E+00 -0.00000000000E+00 -0.45593999997E+02  0.45594000000E+02  0.51100000000E-03 0. -1.
    9900012    2    1    2    0    0 -0.91127160332E+00 -0.46476693040E+00  0.58864516927E+00  0.90007776559E+02  0.90000038410E+02 0.  0.
        -12    1    1    2    0    0  0.91127160332E+00  0.46476693040E+00 -0.58864516927E+00  0.11802234407E+01  0.00000000000E+00 0.  1.
         11    1    3    3    0    0  0.30277119650E+01 -0.63885896722E+01  0.38432482970E+01  0.80468425781E+01  0.51100000000E-03 0. -1.
        -11    1    3    3    0    0  0.36813061651E+02  0.53507853137E+01  0.10986613076E+02  0.38788375562E+02  0.51100000000E-03 0.  1.
         12    1    3    3    0    0 -0.40752045220E+02  0.57303742806E+00 -0.14241216204E+02  0.43172558419E+02  0.00000000000E+00 0. -1.
</event>
<event>
 7    1  0.3505640E-015  0.9000771E+02  0.7816164E-02  0.1186339E+00
        -11   -1    0    0    0    0  0.00000000000E+00  0.00000000000E+00  0.45593999997E+02  0.45594000000E+02  0.51100000000E-03 0.  1.
         11   -1    0    0    0    0 -0.00000000000E+00 -0.00000000000E+00 -0.45593999997E+02  0.45594000000E+02  0.51100000000E-03 0. -1.
    9900012    2    1    2    0    0 -0.40777161414E+00 -0.21699453359E+00 -0.10861507133E+01  0.90007708642E+02  0.89999969596E+02 0.  0.
        -12    1    1    2    0    0  0.40777161414E+00  0.21699453359E+00  0.10861507133E+01  0.11802913576E+01  0.00000000000E+00 0.  1.
         11    1    3    3    0    0 -0.31738615288E+01 -0.94643379744E+01  0.21810860830E+01  0.10217838669E+02  0.51100000000E-03 0. -1.
        -11    1    3    3    0    0 -0.28632942658E+02 -0.19465713551E+02  0.84868421709E+01  0.35648084094E+02  0.51100000000E-03 0.  1.
         12    1    3    3    0    0  0.31399032572E+02  0.28713056991E+02 -0.11754078967E+02  0.44141785880E+02  0.00000000000E+00 0. -1.
</event>
<event>
 7    1  0.3505640E-015  0.9000773E+02  0.7816164E-02  0.1186339E+00
        -11   -1    0    0    0    0  0.00000000000E+00  0.00000000000E+00  0.45593999997E+02  0.45594000000E+02  0.51100000000E-03 0. -1.
         11   -1    0    0    0    0 -0.00000000000E+00 -0.00000000000E+00 -0.45593999997E+02  0.45594000000E+02  0.51100000000E-03 0.  1.
    9900012    2    1    2    0    0 -0.34103005428E+00  0.22018406180E+00 -0.11082681168E+01  0.90007728532E+02  0.89999989749E+02 0.  0.
        -12    1    1    2    0    0  0.34103005428E+00 -0.22018406180E+00  0.11082681168E+01  0.11802714678E+01  0.00000000000E+00 0.  1.
         11    1    3    3    0    0 -0.34245561744E+02 -0.16475342189E+02 -0.69874014726E+01  0.38639606352E+02  0.51100000000E-03 0. -1.
        -11    1    3    3    0    0 -0.24937299411E+01  0.28163575275E+01 -0.89327566939E+01  0.96925074751E+01  0.51100000000E-03 0.  1.
        -12    1    3    3    0    0  0.36398261631E+02  0.13879168723E+02  0.14811890050E+02  0.41675614705E+02  0.00000000000E+00 0.  1.
</event>
<event>
 7    1  0.3505640E-015  0.9000777E+02  0.7816164E-02  0.1186339E+00
        -11   -1    0    0    0    0  0.00000000000E+00  0.00000000000E+00  0.45593999997E+02  0.45594000000E+02  0.51100000000E-03 0. -1.
         11   -1    0    0    0    0 -0.00000000000E+00 -0.00000000000E+00 -0.45593999997E+02  0.45594000000E+02  0.51100000000E-03 0.  1.
    9900012    2    1    2    0    0  0.84548612006E-01 -0.11309779838E+01 -0.32662956234E+00  0.90007768439E+02  0.90000030182E+02 0.  0.
        -12    1    1    2    0    0 -0.84548612006E-01  0.11309779838E+01  0.32662956234E+00  0.11802315614E+01  0.00000000000E+00 0.  1.
         11    1    3    3    0    0 -0.55218605799E+01  0.17465528234E+01  0.37489785083E+02  0.37934487961E+02  0.51100000000E-03 0. -1.
        -11    1    3    3    0    0  0.67932421885E+01  0.53595774182E+01  0.39313259074E+01  0.95041324267E+01  0.51100000000E-03 0.  1.
        -12    1    3    3    0    0 -0.11868329966E+01 -0.82371082253E+01 -0.41747740553E+02  0.42569148051E+02  0.00000000000E+00 0.  1.
</event>
<event>
 7    1  0.3505640E-015  0.9000775E+02  0.7816164E-02  0.1186339E+00
        -11   -1    0    0    0    0  0.00000000000E+00  0.00000000000E+00  0.45593999997E+02  0.45594000000E+02  0.51100000000E-03 0. -1.
         11   -1    0    0    0    0 -0.00000000000E+00 -0.00000000000E+00 -0.45593999997E+02  0.45594000000E+02  0.51100000000E-03 0.  1.
    9900012    2    1    2    0    0  0.67496045035E+00 -0.93955970897E-01  0.96362889816E+00  0.90007754268E+02  0.90000015825E+02 0.  0.
        -12    1    1    2    0    0 -0.67496045035E+00  0.93955970897E-01 -0.96362889816E+00  0.11802457318E+01  0.00000000000E+00 0.  1.
         11    1    3    3    0    0 -0.12718814619E+02 -0.17743828762E+02  0.34922906120E+02  0.41185204583E+02  0.51100000000E-03 0. -1.
        -11    1    3    3    0    0 -0.55988829796E+01  0.67748718912E+01 -0.45149825177E+00  0.88005812702E+01  0.51100000000E-03 0.  1.
        -12    1    3    3    0    0  0.18992658049E+02  0.10875000899E+02 -0.33507778970E+02  0.40021968415E+02  0.00000000000E+00 0.  1.
</event>
<event>
 7    1  0.3505640E-015  0.9000779E+02  0.7816164E-02  0.1186339E+00
        -11   -1    0    0    0    0  0.00000000000E+00  0.00000000000E+00  0.45593999997E+02  0.45594000000E+02  0.51100000000E-03 0. -1.
         11   -1    0    0    0    0 -0.00000000000E+00 -0.00000000000E+00 -0.45593999997E+02  0.45594000000E+02  0.51100000000E-03 0.  1.
    9900012    2    1    2    0    0  0.87288792944E-01  0.62060667488E+00  0.10000627220E+01  0.90007789245E+02  0.90000051263E+02 0.  0.
        -12    1    1    2    0    0 -0.87288792944E-01 -0.62060667488E+00 -0.10000627220E+01  0.11802107550E+01  0.00000000000E+00 0.  1.
         11    1    3    3    0    0 -0.31967223108E+02 -0.93381066031E+01  0.11840746047E+02  0.35345535155E+02  0.51100000000E-03 0. -1.
        -11    1    3    3    0    0 -0.67161270651E+01 -0.15952152346E+01  0.75436426917E+01  0.10225342034E+02  0.51100000000E-03 0.  1.
        -12    1    3    3    0    0  0.38770638966E+02  0.11553928513E+02 -0.18384326017E+02  0.44436912055E+02  0.00000000000E+00 0.  1.
</event>
<event>
 7    1  0.3505640E-015  0.9000755E+02  0.7816164E-02  0.1186339E+00
        -11   -1    0    0    0    0  0.00000000000E+00  0.00000000000E+00  0.45593999997E+02  0.45594000000E+02  0.51100000000E-03 0.  1.
         11   -1    0    0    0    0 -0.00000000000E+00 -0.00000000000E+00 -0.45593999997E+02  0.45594000000E+02  0.51100000000E-03 0. -1.
    9900012    2    1    2    0    0 -0.99099709517E+00  0.53414562775E+00 -0.35506116410E+00  0.90007552956E+02  0.89999811854E+02 0.  0.
        -12    1    1    2    0    0  0.99099709517E+00 -0.53414562775E+00  0.35506116410E+00  0.11804470444E+01  0.00000000000E+00 0.  1.
         11    1    3    3    0    0  0.44115641675E+01 -0.48723152970E+01 -0.93759917109E+01  0.11450352640E+02  0.51100000000E-03 0. -1.
        -11    1    3    3    0    0  0.10664038189E+02 -0.13719321764E+02 -0.28560912364E+02  0.33431530260E+02  0.51100000000E-03 0.  1.
        -12    1    3    3    0    0 -0.16066599451E+02  0.19125782689E+02  0.37581842911E+02  0.45125670056E+02  0.00000000000E+00 0.  1.
</event>
<event>
 7    1  0.4045649E-015  0.9000775E+02  0.7816164E-02  0.1186339E+00
        -11   -1    0    0    0    0  0.00000000000E+00  0.00000000000E+00  0.45593999997E+02  0.45594000000E+02  0.51100000000E-03 0.  1.
         11   -1    0    0    0    0 -0.00000000000E+00 -0.00000000000E+00 -0.45593999997E+02  0.45594000000E+02  0.51100000000E-03 0. -1.
    9900012    2    1    2    0    0 -0.48844704306E+00 -0.59722442646E+00 -0.89315899496E+00  0.90007749806E+02  0.90000011304E+02 0.  0.
        -12    1    1    2    0    0  0.48844704306E+00  0.59722442646E+00  0.89315899496E+00  0.11802501937E+01  0.00000000000E+00 0.  1.
         11    1    3    3    0    0  0.16938421547E+01 -0.34808290505E+01  0.78875164687E+01  0.87862499639E+01  0.51100000000E-03 0. -1.
        -11    1    3    3    0    0 -0.35347048567E+02  0.16125513655E+01  0.16942648164E+02  0.39230950681E+02  0.51100000000E-03 0.  1.
         12    1    3    3    0    0  0.33164759369E+02  0.12710532586E+01 -0.25723323627E+02  0.41990549161E+02  0.00000000000E+00 0. -1.
</event>
<event>
 7    1  0.3505640E-015  0.9000767E+02  0.7816164E-02  0.1186339E+00
        -11   -1    0    0    0    0  0.00000000000E+00  0.00000000000E+00  0.45593999997E+02  0.45594000000E+02  0.51100000000E-03 0.  1.
         11   -1    0    0    0    0 -0.00000000000E+00 -0.00000000000E+00 -0.45593999997E+02  0.45594000000E+02  0.51100000000E-03 0. -1.
    9900012    2    1    2    0    0 -0.67733264299E+00 -0.95074491092E+00 -0.17456558804E+00  0.90007674393E+02  0.89999934895E+02 0.  0.
        -12    1    1    2    0    0  0.67733264299E+00  0.95074491092E+00  0.17456558804E+00  0.11803256074E+01  0.00000000000E+00 0.  1.
         11    1    3    3    0    0  0.35811230229E+02  0.10002943377E+02 -0.13366885006E+02  0.39511728661E+02  0.51100000000E-03 0. -1.
        -11    1    3    3    0    0 -0.72649930441E+01  0.88244697405E+01 -0.27779153992E+01  0.11763001503E+02  0.51100000000E-03 0.  1.
        -12    1    3    3    0    0 -0.29223569828E+02 -0.19778158028E+02  0.15970234817E+02  0.38732944229E+02  0.00000000000E+00 0.  1.
</event>
<event>
 7    1  0.3505640E-015  0.9000773E+02  0.7816164E-02  0.1186339E+00
        -11   -1    0    0    0    0  0.00000000000E+00  0.00000000000E+00  0.45593999997E+02  0.45594000000E+02  0.51100000000E-03 0.  1.
         11   -1    0    0    0    0 -0.00000000000E+00 -0.00000000000E+00 -0.45593999997E+02  0.45594000000E+02  0.51100000000E-03 0. -1.
    9900012    2    1    2    0    0  0.55567129957E+00 -0.95609819547E+00  0.41248273709E+00  0.90007730386E+02  0.89999991627E+02 0.  0.
        -12    1    1    2    0    0 -0.55567129957E+00  0.95609819547E+00 -0.41248273709E+00  0.11802696137E+01  0.00000000000E+00 0.  1.
         11    1    3    3    0    0  0.58878015511E+01 -0.44278305617E+01 -0.12599991519E+02  0.14595604720E+02  0.51100000000E-03 0. -1.
        -11    1    3    3    0    0 -0.31166259069E+02  0.98925669644E+01 -0.15687740878E+02  0.36267117333E+02  0.51100000000E-03 0.  1.
         12    1    3    3    0    0  0.25834128818E+02 -0.64208345982E+01  0.28700215134E+02  0.39145008334E+02  0.00000000000E+00 0. -1.
</event>
<event>
 7    1  0.3505640E-015  0.9000782E+02  0.7816164E-02  0.1186339E+00
        -11   -1    0    0    0    0  0.00000000000E+00  0.00000000000E+00  0.45593999997E+02  0.45594000000E+02  0.51100000000E-03 0. -1.
         11   -1    0    0    0    0 -0.00000000000E+00 -0.00000000000E+00 -0.45593999997E+02  0.45594000000E+02  0.51100000000E-03 0.  1.
    9900012    2    1    2    0    0 -0.12759517748E+00 -0.39913436082E+00  0.11032893096E+01  0.90007815240E+02  0.90000077601E+02 0.  0.
        -12    1    1    2    0    0  0.12759517748E+00  0.39913436082E+00 -0.11032893096E+01  0.11801847601E+01  0.00000000000E+00 0.  1.
         11    1    3    3    0    0  0.15182712152E+01  0.48519492814E+00 -0.72813631935E+01  0.74537783585E+01  0.51100000000E-03 0. -1.
        -11    1    3    3    0    0  0.16835373517E+02  0.32594057946E+02  0.21019159329E+02  0.42280107309E+02  0.51100000000E-03 0.  1.
         12    1    3    3    0    0 -0.18481239910E+02 -0.33478387235E+02 -0.12634506826E+02  0.40273929573E+02  0.00000000000E+00 0. -1.
</event>
<event>
 7    1  0.3505640E-015  0.9000778E+02  0.7816164E-02  0.1186339E+00
        -11   -1    0    0    0    0  0.00000000000E+00  0.00000000000E+00  0.45593999997E+02  0.45594000000E+02  0.51100000000E-03 0. -1.
         11   -1    0    0    0    0 -0.00000000000E+00 -0.00000000000E+00 -0.45593999997E+02  0.45594000000E+02  0.51100000000E-03 0.  1.
    9900012    2    1    2    0    0  0.44582253056E+00 -0.94958440378E+00  0.54078860871E+00  0.90007779432E+02  0.90000041321E+02 0.  0.
        -12    1    1    2    0    0 -0.44582253056E+00  0.94958440378E+00 -0.54078860871E+00  0.11802205675E+01  0.00000000000E+00 0.  1.
         11    1    3    3    0    0 -0.81697659885E+01  0.29579641701E+01  0.44401674558E+01  0.97575465991E+01  0.51100000000E-03 0. -1.
        -11    1    3    3    0    0  0.19600763979E+02  0.34634418472E+02 -0.53081312989E+01  0.40148588389E+02  0.51100000000E-03 0.  1.
         12    1    3    3    0    0 -0.10985175460E+02 -0.38541967046E+02  0.14087524519E+01  0.40101644444E+02  0.00000000000E+00 0. -1.
</event>
<event>
 7    1  0.3505640E-015  0.9000774E+02  0.7816164E-02  0.1186339E+00
        -11   -1    0    0    0    0  0.00000000000E+00  0.00000000000E+00  0.45593999997E+02  0.45594000000E+02  0.51100000000E-03 0.  1.
         11   -1    0    0    0    0 -0.00000000000E+00 -0.00000000000E+00 -0.45593999997E+02  0.45594000000E+02  0.51100000000E-03 0. -1.
    9900012    2    1    2    0    0 -0.73786133439E+00  0.52312275265E+00 -0.75822563175E+00  0.90007744574E+02  0.90000006002E+02 0.  0.
        -12    1    1    2    0    0  0.73786133439E+00 -0.52312275265E+00  0.75822563175E+00  0.11802554265E+01  0.00000000000E+00 0.  1.
         11    1    3    3    0    0  0.11060120200E+02  0.36407365739E+02 -0.95365246073E+01  0.39227131436E+02  0.51100000000E-03 0. -1.
        -11    1    3    3    0    0  0.84570132587E+01  0.18952920420E+00 -0.13434470604E+00  0.84602035045E+01  0.51100000000E-03 0.  1.
        -12    1    3    3    0    0 -0.20254994793E+02 -0.36073772190E+02  0.89126436816E+01  0.42320409633E+02  0.00000000000E+00 0.  1.
</event>
<event>
 7    1  0.3505640E-015  0.9000784E+02  0.7816164E-02  0.1186339E+00
        -11   -1    0    0    0    0  0.00000000000E+00  0.00000000000E+00  0.45593999997E+02  0.45594000000E+02  0.51100000000E-03 0. -1.
         11   -1    0    0    0    0 -0.00000000000E+00 -0.00000000000E+00 -0.45593999997E+02  0.45594000000E+02  0.51100000000E-03 0.  1.
    9900012    2    1    2    0    0 -0.10667254987E+01  0.90041966514E-01 -0.49675268534E+00  0.90007841504E+02  0.90000104212E+02 0.  0.
        -12    1    1    2    0    0  0.10667254987E+01 -0.90041966514E-01  0.49675268534E+00  0.11801584961E+01  0.00000000000E+00 0.  1.
         11    1    3    3    0    0 -0.10338988335E+02  0.76865281327E+01  0.39982530178E+02  0.42006905554E+02  0.51100000000E-03 0. -1.
        -11    1    3    3    0    0 -0.56009100449E+01  0.38898762002E+01 -0.83642641867E+01  0.10791767503E+02  0.51100000000E-03 0.  1.
        -12    1    3    3    0    0  0.14873172881E+02 -0.11486362366E+02 -0.32115018677E+02  0.37209168448E+02  0.00000000000E+00 0.  1.
</event>
<event>
 7    1  0.3505640E-015  0.9000775E+02  0.7816164E-02  0.1186339E+00
        -11   -1    0    0    0    0  0.00000000000E+00  0.00000000000E+00  0.45593999997E+02  0.45594000000E+02  0.51100000000E-03 0. -1.
         11   -1    0    0    0    0 -0.00000000000E+00 -0.00000000000E+00 -0.45593999997E+02  0.45594000000E+02  0.51100000000E-03 0.  1.
    9900012    2    1    2    0    0 -0.68782781624E+00 -0.48465367232E-01  0.95788420286E+00  0.90007746577E+02  0.90000008032E+02 0.  0.
        -12    1    1    2    0    0  0.68782781624E+00  0.48465367232E-01 -0.95788420286E+00  0.11802534231E+01  0.00000000000E+00 0.  1.
         11    1    3    3    0    0 -0.24226794222E+01  0.29330128579E+00 -0.79599426283E+01  0.83256283927E+01  0.51100000000E-03 0. -1.
        -11    1    3    3    0    0  0.27807231776E+02 -0.37538902913E+01 -0.25808585587E+02  0.38123705508E+02  0.51100000000E-03 0.  1.
         12    1    3    3    0    0 -0.26072380170E+02  0.34121236383E+01  0.34726412418E+02  0.43558412677E+02  0.00000000000E+00 0. -1.
</event>
<event>
 7    1  0.3505640E-015  0.9000774E+02  0.7816164E-02  0.1186339E+00
        -11   -1    0    0    0    0  0.00000000000E+00  0.00000000000E+00  0.45593999997E+02  0.45594000000E+02  0.51100000000E-03 0.  1.
         11   -1    0    0    0    0 -0.00000000000E+00 -0.00000000000E+00 -0.45593999997E+02  0.45594000000E+02  0.51100000000E-03 0. -1.
    9900012    2    1    2    0    0 -0.41335442557E+00  0.51191039459E+00 -0.97984270703E+00  0.90007743306E+02  0.90000004718E+02 0.  0.
        -12    1    1    2    0    0  0.41335442557E+00 -0.51191039459E+00  0.97984270703E+00  0.11802566940E+01  0.00000000000E+00 0.  1.
         11    1    3    3    0    0  0.35224891039E+01  0.37967089520E+01  0.61703633653E+01  0.80558247668E+01  0.51100000000E-03 0. -1.
        -11    1    3    3    0    0 -0.19933735851E+02 -0.38117981080E+02 -0.31876500610E+00  0.43016693480E+02  0.51100000000E-03 0.  1.
         12    1    3    3    0    0  0.15997892322E+02  0.34833182522E+02 -0.68314410663E+01  0.38935225059E+02  0.00000000000E+00 0. -1.
</event>
<event>
 7    1  0.3505640E-015  0.9000716E+02  0.7816164E-02  0.1186340E+00
        -11   -1    0    0    0    0  0.00000000000E+00  0.00000000000E+00  0.45593999997E+02  0.45594000000E+02  0.51100000000E-03 0.  1.
         11   -1    0    0    0    0 -0.00000000000E+00 -0.00000000000E+00 -0.45593999997E+02  0.45594000000E+02  0.51100000000E-03 0. -1.
    9900012    2    1    2    0    0  0.58048318462E+00 -0.36895867267E+00 -0.95984501258E+00  0.90007155523E+02  0.89999409174E+02 0.  0.
        -12    1    1    2    0    0 -0.58048318462E+00  0.36895867267E+00  0.95984501258E+00  0.11808444766E+01  0.00000000000E+00 0.  1.
         11    1    3    3    0    0  0.18902008818E+02 -0.94827952764E+01  0.33861811176E+02  0.39922820542E+02  0.51100000000E-03 0. -1.
        -11    1    3    3    0    0 -0.14355054637E+01 -0.93629993046E+01 -0.37572173568E+01  0.10190344177E+02  0.51100000000E-03 0.  1.
        -12    1    3    3    0    0 -0.16886020170E+02  0.18476835908E+02 -0.31064438832E+02  0.39893990805E+02  0.00000000000E+00 0.  1.
</event>
<event>
 7    1  0.3505640E-015  0.9000779E+02  0.7816164E-02  0.1186339E+00
        -11   -1    0    0    0    0  0.00000000000E+00  0.00000000000E+00  0.45593999997E+02  0.45594000000E+02  0.51100000000E-03 0.  1.
         11   -1    0    0    0    0 -0.00000000000E+00 -0.00000000000E+00 -0.45593999997E+02  0.45594000000E+02  0.51100000000E-03 0. -1.
    9900012    2    1    2    0    0  0.80376573365E+00 -0.55550917027E+00 -0.66201404194E+00  0.90007791381E+02  0.90000053427E+02 0.  0.
        -12    1    1    2    0    0 -0.80376573365E+00  0.55550917027E+00  0.66201404194E+00  0.11802086191E+01  0.00000000000E+00 0.  1.
         11    1    3    3    0    0  0.50151712162E+01  0.24852548331E+02 -0.22364061155E+02  0.33807578033E+02  0.51100000000E-03 0. -1.
        -11    1    3    3    0    0  0.18328096912E+02 -0.27414851064E+01  0.19737139708E+01  0.18636802947E+02  0.51100000000E-03 0.  1.
        -12    1    3    3    0    0 -0.22539502394E+02 -0.22666572395E+02  0.19728333142E+02  0.37563410400E+02  0.00000000000E+00 0.  1.
</event>
<event>
 7    1  0.3505640E-015  0.9000775E+02  0.7816164E-02  0.1186339E+00
        -11   -1    0    0    0    0  0.00000000000E+00  0.00000000000E+00  0.45593999997E+02  0.45594000000E+02  0.51100000000E-03 0.  1.
         11   -1    0    0    0    0 -0.00000000000E+00 -0.00000000000E+00 -0.45593999997E+02  0.45594000000E+02  0.51100000000E-03 0. -1.
    9900012    2    1    2    0    0 -0.36287874013E+00 -0.10181686936E+01 -0.47395637455E+00  0.90007752944E+02  0.90000014483E+02 0.  0.
        -12    1    1    2    0    0  0.36287874013E+00  0.10181686936E+01  0.47395637455E+00  0.11802470562E+01  0.00000000000E+00 0.  1.
         11    1    3    3    0    0  0.32207305985E+02  0.11831948416E+02 -0.21352008635E+02  0.40413040409E+02  0.51100000000E-03 0. -1.
        -11    1    3    3    0    0  0.40432726550E+01 -0.42836229816E+01  0.78186342968E+01  0.97892043670E+01  0.51100000000E-03 0.  1.
        -12    1    3    3    0    0 -0.36613457380E+02 -0.85664941282E+01  0.13059417963E+02  0.39805508168E+02  0.00000000000E+00 0.  1.
</event>
<event>
 7    1  0.3505640E-015  0.9000781E+02  0.7816164E-02  0.1186339E+00
        -11   -1    0    0    0    0  0.00000000000E+00  0.00000000000E+00  0.45593999997E+02  0.45594000000E+02  0.51100000000E-03 0.  1.
         11   -1    0    0    0    0 -0.00000000000E+00 -0.00000000000E+00 -0.45593999997E+02  0.45594000000E+02  0.51100000000E-03 0. -1.
    9900012    2    1    2    0    0  0.56615343511E+00 -0.89148991417E+00 -0.52684295503E+00  0.90007810406E+02  0.90000072703E+02 0.  0.
        -12    1    1    2    0    0 -0.56615343511E+00  0.89148991417E+00  0.52684295503E+00  0.11801895943E+01  0.00000000000E+00 0.  1.
         11    1    3    3    0    0 -0.13055539791E+02 -0.29050894105E+02  0.13715897064E+02  0.34677476841E+02  0.51100000000E-03 0. -1.
        -11    1    3    3    0    0 -0.15823617349E+01 -0.10542384810E+02  0.17047428068E+01  0.10795920269E+02  0.51100000000E-03 0.  1.
        -12    1    3    3    0    0  0.15204054961E+02  0.38701789001E+02 -0.15947482826E+02  0.44534413296E+02  0.00000000000E+00 0.  1.
</event>
<event>
 7    1  0.3505640E-015  0.9000776E+02  0.7816164E-02  0.1186339E+00
        -11   -1    0    0    0    0  0.00000000000E+00  0.00000000000E+00  0.45593999997E+02  0.45594000000E+02  0.51100000000E-03 0.  1.
         11   -1    0    0    0    0 -0.00000000000E+00 -0.00000000000E+00 -0.45593999997E+02  0.45594000000E+02  0.51100000000E-03 0. -1.
    9900012    2    1    2    0    0  0.85854329491E+00 -0.80829053353E+00 -0.50277978983E-01  0.90007763561E+02  0.90000025240E+02 0.  0.
        -12    1    1    2    0    0 -0.85854329491E+00  0.80829053353E+00  0.50277978983E-01  0.11802364386E+01  0.00000000000E+00 0.  1.
         11    1    3    3    0    0 -0.15477530805E+01 -0.31245825096E+01 -0.61103300736E+01  0.70352462165E+01  0.51100000000E-03 0. -1.
        -11    1    3    3    0    0 -0.35373938388E+02  0.90656104750E+00  0.22299392568E+02  0.41825832678E+02  0.51100000000E-03 0.  1.
         12    1    3    3    0    0  0.37780234764E+02  0.14097309286E+01 -0.16239340473E+02  0.41146684667E+02  0.00000000000E+00 0. -1.
</event>
<event>
 7    1  0.3505640E-015  0.9000715E+02  0.7816164E-02  0.1186340E+00
        -11   -1    0    0    0    0  0.00000000000E+00  0.00000000000E+00  0.45593999997E+02  0.45594000000E+02  0.51100000000E-03 0. -1.
         11   -1    0    0    0    0 -0.00000000000E+00 -0.00000000000E+00 -0.45593999997E+02  0.45594000000E+02  0.51100000000E-03 0.  1.
    9900012    2    1    2    0    0  0.10987424635E+01  0.43241182594E+00 -0.14157181429E-01  0.90007146320E+02  0.89999399849E+02 0.  0.
        -12    1    1    2    0    0 -0.10987424635E+01 -0.43241182594E+00  0.14157181429E-01  0.11808536803E+01  0.00000000000E+00 0.  1.
         11    1    3    3    0    0  0.25813206829E+02  0.12716690082E+02  0.19057102428E+02  0.34513895849E+02  0.51100000000E-03 0. -1.
        -11    1    3    3    0    0  0.85966208091E+01 -0.10092696043E+02  0.51774476754E+01  0.14232721716E+02  0.51100000000E-03 0.  1.
        -12    1    3    3    0    0 -0.33311085175E+02 -0.21915822138E+01 -0.24248707285E+02  0.41260528755E+02  0.00000000000E+00 0.  1.
</event>
<event>
 7    1  0.3505640E-015  0.9000771E+02  0.7816164E-02  0.1186339E+00
        -11   -1    0    0    0    0  0.00000000000E+00  0.00000000000E+00  0.45593999997E+02  0.45594000000E+02  0.51100000000E-03 0. -1.
         11   -1    0    0    0    0 -0.00000000000E+00 -0.00000000000E+00 -0.45593999997E+02  0.45594000000E+02  0.51100000000E-03 0.  1.
    9900012    2    1    2    0    0  0.35350681462E+00 -0.25617732211E+00  0.10965863586E+01  0.90007705321E+02  0.89999966231E+02 0.  0.
        -12    1    1    2    0    0 -0.35350681462E+00  0.25617732211E+00 -0.10965863586E+01  0.11802946794E+01  0.00000000000E+00 0.  1.
         11    1    3    3    0    0  0.32561043928E+02  0.47685106246E+01  0.16165935871E+02  0.36664666344E+02  0.51100000000E-03 0. -1.
        -11    1    3    3    0    0  0.88782662544E+01 -0.42059970807E-01  0.10242540847E+01  0.89372522296E+01  0.51100000000E-03 0.  1.
        -12    1    3    3    0    0 -0.41085803367E+02 -0.49826279759E+01 -0.16093603597E+02  0.44405786747E+02  0.00000000000E+00 0.  1.
</event>
<event>
 7    1  0.3505640E-015  0.9000774E+02  0.7816164E-02  0.1186339E+00
        -11   -1    0    0    0    0  0.00000000000E+00  0.00000000000E+00  0.45593999997E+02  0.45594000000E+02  0.51100000000E-03 0. -1.
         11   -1    0    0    0    0 -0.00000000000E+00 -0.00000000000E+00 -0.45593999997E+02  0.45594000000E+02  0.51100000000E-03 0.  1.
    9900012    2    1    2    0    0 -0.38794148200E+00 -0.62696730758E+00  0.92164396375E+00  0.90007739777E+02  0.90000001142E+02 0.  0.
        -12    1    1    2    0    0  0.38794148200E+00  0.62696730758E+00 -0.92164396375E+00  0.11802602231E+01  0.00000000000E+00 0.  1.
         11    1    3    3    0    0  0.32174098179E+02 -0.76328121397E+01  0.19677276327E+02  0.38478924345E+02  0.51100000000E-03 0. -1.
        -11    1    3    3    0    0  0.99858714570E+00 -0.98580844348E+01 -0.92412628552E+00  0.99515332820E+01  0.51100000000E-03 0.  1.
        -12    1    3    3    0    0 -0.33560626807E+02  0.16863929267E+02 -0.17831506078E+02  0.41577282150E+02  0.00000000000E+00 0.  1.
</event>
<event>
 7    1  0.3505640E-015  0.9000771E+02  0.7816164E-02  0.1186339E+00
        -11   -1    0    0    0    0  0.00000000000E+00  0.00000000000E+00  0.45593999997E+02  0.45594000000E+02  0.51100000000E-03 0.  1.
         11   -1    0    0    0    0 -0.00000000000E+00 -0.00000000000E+00 -0.45593999997E+02  0.45594000000E+02  0.51100000000E-03 0. -1.
    9900012    2    1    2    0    0 -0.96888023781E+00 -0.62874810722E+00 -0.24294741769E+00  0.90007713363E+02  0.89999974379E+02 0.  0.
        -12    1    1    2    0    0  0.96888023781E+00  0.62874810722E+00  0.24294741769E+00  0.11802866369E+01  0.00000000000E+00 0.  1.
         11    1    3    3    0    0 -0.23347899550E+02 -0.15694486067E+01 -0.27956931695E+02  0.36457888205E+02  0.51100000000E-03 0. -1.
        -11    1    3    3    0    0  0.21659899178E+02 -0.79644896582E+01 -0.13760348383E+01  0.23118775921E+02  0.51100000000E-03 0.  1.
        -12    1    3    3    0    0  0.71912013377E+00  0.89051901576E+01  0.29090019116E+02  0.30431049237E+02  0.00000000000E+00 0.  1.
</event>
<event>
 7    1  0.3505640E-015  0.9000788E+02  0.7816164E-02  0.1186339E+00
        -11   -1    0    0    0    0  0.00000000000E+00  0.00000000000E+00  0.45593999997E+02  0.45594000000E+02  0.51100000000E-03 0. -1.
         11   -1    0    0    0    0 -0.00000000000E+00 -0.00000000000E+00 -0.45593999997E+02  0.45594000000E+02  0.51100000000E-03 0.  1.
    9900012    2    1    2    0    0 -0.10109297570E+01  0.56702255944E+00  0.22177864094E+00  0.90007881649E+02  0.90000144887E+02 0.  0.
        -12    1    1    2    0    0  0.10109297570E+01 -0.56702255944E+00 -0.22177864094E+00  0.11801183508E+01  0.00000000000E+00 0.  1.
         11    1    3    3    0    0 -0.80913206411E+01 -0.21993246792E+01 -0.34476935767E+01  0.90660404821E+01  0.51100000000E-03 0. -1.
        -11    1    3    3    0    0 -0.11030071046E+02  0.37059101728E+02  0.13464063223E+02  0.40942892996E+02  0.51100000000E-03 0.  1.
         12    1    3    3    0    0  0.18110461931E+02 -0.34292754489E+02 -0.97945910055E+01  0.39998948171E+02  0.00000000000E+00 0. -1.
</event>
<event>
 7    1  0.3505640E-015  0.9000777E+02  0.7816164E-02  0.1186339E+00
        -11   -1    0    0    0    0  0.00000000000E+00  0.00000000000E+00  0.45593999997E+02  0.45594000000E+02  0.51100000000E-03 0. -1.
         11   -1    0    0    0    0 -0.00000000000E+00 -0.00000000000E+00 -0.45593999997E+02  0.45594000000E+02  0.51100000000E-03 0.  1.
    9900012    2    1    2    0    0  0.35452720195E+00 -0.10964734795E+01  0.25493939836E+00  0.90007772172E+02  0.90000033965E+02 0.  0.
        -12    1    1    2    0    0 -0.35452720195E+00  0.10964734795E+01 -0.25493939836E+00  0.11802278276E+01  0.00000000000E+00 0.  1.
         11    1    3    3    0    0 -0.55011003396E+01  0.44725405455E+01  0.43954897456E+01  0.83418255940E+01  0.51100000000E-03 0. -1.
        -11    1    3    3    0    0 -0.10455222335E+02  0.21854074721E+02 -0.31428071422E+02  0.39681682544E+02  0.51100000000E-03 0.  1.
         12    1    3    3    0    0  0.16310849876E+02 -0.27423088746E+02  0.27287521075E+02  0.41984264034E+02  0.00000000000E+00 0. -1.
</event>
<event>
 7    1  0.3505640E-015  0.9000781E+02  0.7816164E-02  0.1186339E+00
        -11   -1    0    0    0    0  0.00000000000E+00  0.00000000000E+00  0.45593999997E+02  0.45594000000E+02  0.51100000000E-03 0. -1.
         11   -1    0    0    0    0 -0.00000000000E+00 -0.00000000000E+00 -0.45593999997E+02  0.45594000000E+02  0.51100000000E-03 0.  1.
    9900012    2    1    2    0    0 -0.53895161867E+00 -0.10355950824E+01  0.17295648307E+00  0.90007813588E+02  0.90000075927E+02 0.  0.
        -12    1    1    2    0    0  0.53895161867E+00  0.10355950824E+01 -0.17295648307E+00  0.11801864119E+01  0.00000000000E+00 0.  1.
         11    1    3    3    0    0 -0.34760834003E+01  0.14415385829E+01  0.76562452852E+01  0.85310773892E+01  0.51100000000E-03 0. -1.
        -11    1    3    3    0    0  0.32620501154E+02 -0.26151633474E+02  0.34901739990E+01  0.41954574765E+02  0.51100000000E-03 0.  1.
         12    1    3    3    0    0 -0.29683369373E+02  0.23674499809E+02 -0.10973462801E+02  0.39522161433E+02  0.00000000000E+00 0. -1.
</event>
<event>
 7    1  0.3505640E-015  0.9000779E+02  0.7816164E-02  0.1186339E+00
        -11   -1    0    0    0    0  0.00000000000E+00  0.00000000000E+00  0.45593999997E+02  0.45594000000E+02  0.51100000000E-03 0. -1.
         11   -1    0    0    0    0 -0.00000000000E+00 -0.00000000000E+00 -0.45593999997E+02  0.45594000000E+02  0.51100000000E-03 0.  1.
    9900012    2    1    2    0    0  0.75927713616E+00  0.27869432030E+00  0.85948658961E+00  0.90007792607E+02  0.90000054669E+02 0.  0.
        -12    1    1    2    0    0 -0.75927713616E+00 -0.27869432030E+00 -0.85948658961E+00  0.11802073934E+01  0.00000000000E+00 0.  1.
         11    1    3    3    0    0  0.12308703870E+02 -0.25151252655E+02  0.29792942246E+02  0.40886539460E+02  0.51100000000E-03 0. -1.
        -11    1    3    3    0    0 -0.30388961207E+01  0.30623685292E+01  0.56226995126E+01  0.70871532163E+01  0.51100000000E-03 0.  1.
        -12    1    3    3    0    0 -0.85105306133E+01  0.22367578446E+02 -0.34556155169E+02  0.42034099930E+02  0.00000000000E+00 0.  1.
</event>
<event>
 7    1  0.3505640E-015  0.9000704E+02  0.7816164E-02  0.1186340E+00
        -11   -1    0    0    0    0  0.00000000000E+00  0.00000000000E+00  0.45593999997E+02  0.45594000000E+02  0.51100000000E-03 0. -1.
         11   -1    0    0    0    0 -0.00000000000E+00 -0.00000000000E+00 -0.45593999997E+02  0.45594000000E+02  0.51100000000E-03 0.  1.
    9900012    2    1    2    0    0 -0.79432119494E+00  0.34872214707E+00  0.80132599390E+00  0.90007035714E+02  0.89999287782E+02 0.  0.
        -12    1    1    2    0    0  0.79432119494E+00 -0.34872214707E+00 -0.80132599390E+00  0.11809642861E+01  0.00000000000E+00 0.  1.
         11    1    3    3    0    0  0.12844539994E+02 -0.15715381939E+02 -0.35103683126E+01  0.20598012601E+02  0.51100000000E-03 0. -1.
        -11    1    3    3    0    0  0.89890365748E+01 -0.21622698091E+02 -0.61752301090E+01  0.24217293789E+02  0.51100000000E-03 0.  1.
        -12    1    3    3    0    0 -0.22627897764E+02  0.37686802178E+02  0.10486924415E+02  0.45191729324E+02  0.00000000000E+00 0.  1.
</event>
<event>
 7    1  0.3505640E-015  0.9000773E+02  0.7816164E-02  0.1186339E+00
        -11   -1    0    0    0    0  0.00000000000E+00  0.00000000000E+00  0.45593999997E+02  0.45594000000E+02  0.51100000000E-03 0.  1.
         11   -1    0    0    0    0 -0.00000000000E+00 -0.00000000000E+00 -0.45593999997E+02  0.45594000000E+02  0.51100000000E-03 0. -1.
    9900012    2    1    2    0    0 -0.53673195691E+00 -0.10110582199E+01 -0.28759984080E+00  0.90007731562E+02  0.89999992819E+02 0.  0.
        -12    1    1    2    0    0  0.53673195691E+00  0.10110582199E+01  0.28759984080E+00  0.11802684381E+01  0.00000000000E+00 0.  1.
         11    1    3    3    0    0 -0.10929813076E+02 -0.76880546215E+01 -0.38102910606E+02  0.40378197021E+02  0.51100000000E-03 0. -1.
        -11    1    3    3    0    0  0.92367874089E+01 -0.36878689784E+01 -0.46236165299E+00  0.99565253878E+01  0.51100000000E-03 0.  1.
        -12    1    3    3    0    0  0.11562937101E+01  0.10364865380E+02  0.38277672418E+02  0.39673009153E+02  0.00000000000E+00 0.  1.
</event>
<event>
 7    1  0.3505640E-015  0.9000763E+02  0.7816164E-02  0.1186339E+00
        -11   -1    0    0    0    0  0.00000000000E+00  0.00000000000E+00  0.45593999997E+02  0.45594000000E+02  0.51100000000E-03 0. -1.
         11   -1    0    0    0    0 -0.00000000000E+00 -0.00000000000E+00 -0.45593999997E+02  0.45594000000E+02  0.51100000000E-03 0.  1.
    9900012    2    1    2    0    0  0.66543105223E+00  0.68966247042E+00  0.68907968370E+00  0.90007634117E+02  0.89999894087E+02 0.  0.
        -12    1    1    2    0    0 -0.66543105223E+00 -0.68966247042E+00 -0.68907968370E+00  0.11803658835E+01  0.00000000000E+00 0.  1.
         11    1    3    3    0    0 -0.57379231374E+00  0.31198823028E+01 -0.86393430173E+01  0.92033228365E+01  0.51100000000E-03 0. -1.
        -11    1    3    3    0    0  0.34007736515E+02 -0.21862639647E+02 -0.35616728446E+01  0.40585547537E+02  0.51100000000E-03 0.  1.
         12    1    3    3    0    0 -0.32768513149E+02  0.19432419815E+02  0.12890095546E+02  0.40218763743E+02  0.00000000000E+00 0. -1.
</event>
<event>
 8    1  0.3505640E-015  0.9000781E+02  0.7816164E-02  0.1186339E+00
        -11   -1    0    0    0    0  0.00000000000E+00  0.00000000000E+00  0.45593999997E+02  0.45594000000E+02  0.51100000000E-03 0.  1.
         11   -1    0    0    0    0 -0.00000000000E+00 -0.00000000000E+00 -0.45593999997E+02  0.45594000000E+02  0.51100000000E-03 0. -1.
    9900012    2    1    2    0    0  0.82868286602E+00  0.59742595561E+00 -0.59094005161E+00  0.90007812214E+02  0.90000074536E+02 0.  0.
         23    2    3    3    0    0 -0.23906266269E+02 -0.63964999241E+01 -0.86246640229E+01  0.63076911212E+02  0.57374969458E+02 0.  0.
        -12    1    1    2    0    0 -0.82868286602E+00 -0.59742595561E+00  0.59094005161E+00  0.11801877857E+01  0.00000000000E+00 0.  1.
         11    1    4    4    0    0 -0.43339293009E+01  0.23016787197E+02  0.70015117688E+01  0.24445380000E+02  0.51100000000E-03 0. -1.
        -11    1    4    4    0    0 -0.19572336968E+02 -0.29413287121E+02 -0.15626175792E+02  0.38631531212E+02  0.51100000000E-03 0.  1.
         12    1    3    3    0    0  0.24734949135E+02  0.69939258797E+01  0.80337239713E+01  0.26930901002E+02  0.00000000000E+00 0. -1.
</event>
<event>
 7    1  0.3505640E-015  0.9000720E+02  0.7816164E-02  0.1186340E+00
        -11   -1    0    0    0    0  0.00000000000E+00  0.00000000000E+00  0.45593999997E+02  0.45594000000E+02  0.51100000000E-03 0.  1.
         11   -1    0    0    0    0 -0.00000000000E+00 -0.00000000000E+00 -0.45593999997E+02  0.45594000000E+02  0.51100000000E-03 0. -1.
    9900012    2    1    2    0    0  0.21651582864E+00  0.10642625914E+01 -0.46342527359E+00  0.90007196481E+02  0.89999450672E+02 0.  0.
        -12    1    1    2    0    0 -0.21651582864E+00 -0.10642625914E+01  0.46342527359E+00  0.11808035195E+01  0.00000000000E+00 0.  1.
         11    1    3    3    0    0  0.72900311524E+01  0.24968251895E+02 -0.25749440941E+02  0.36600435324E+02  0.51100000000E-03 0. -1.
        -11    1    3    3    0    0  0.29636101634E+01  0.71667494119E+01 -0.47056377650E+01  0.90712903917E+01  0.51100000000E-03 0.  1.
        -12    1    3    3    0    0 -0.10037125487E+02 -0.31070738715E+02  0.29991653432E+02  0.44335470765E+02  0.00000000000E+00 0.  1.
</event>
<event>
 7    1  0.3505640E-015  0.9000793E+02  0.7816164E-02  0.1186339E+00
        -11   -1    0    0    0    0  0.00000000000E+00  0.00000000000E+00  0.45593999997E+02  0.45594000000E+02  0.51100000000E-03 0.  1.
         11   -1    0    0    0    0 -0.00000000000E+00 -0.00000000000E+00 -0.45593999997E+02  0.45594000000E+02  0.51100000000E-03 0. -1.
    9900012    2    1    2    0    0  0.14748267661E+00 -0.46405322837E+00 -0.10749286457E+01  0.90007928760E+02  0.90000192619E+02 0.  0.
        -12    1    1    2    0    0 -0.14748267661E+00  0.46405322837E+00  0.10749286457E+01  0.11800712402E+01  0.00000000000E+00 0.  1.
         11    1    3    3    0    0 -0.37292149697E+01 -0.46943545507E+01  0.82312779657E+01  0.10183218850E+02  0.51100000000E-03 0. -1.
        -11    1    3    3    0    0 -0.34397937896E+02 -0.11598225295E+02  0.35067707884E+01  0.36469636728E+02  0.51100000000E-03 0.  1.
         12    1    3    3    0    0  0.38274635542E+02  0.15828526617E+02 -0.12812977400E+02  0.43355073182E+02  0.00000000000E+00 0. -1.
</event>
<event>
 7    1  0.3505640E-015  0.9000772E+02  0.7816164E-02  0.1186339E+00
        -11   -1    0    0    0    0  0.00000000000E+00  0.00000000000E+00  0.45593999997E+02  0.45594000000E+02  0.51100000000E-03 0. -1.
         11   -1    0    0    0    0 -0.00000000000E+00 -0.00000000000E+00 -0.45593999997E+02  0.45594000000E+02  0.51100000000E-03 0.  1.
    9900012    2    1    2    0    0 -0.10548439585E+01 -0.43482766399E+00 -0.30213349769E+00  0.90007722268E+02  0.89999983402E+02 0.  0.
        -12    1    1    2    0    0  0.10548439585E+01  0.43482766399E+00  0.30213349769E+00  0.11802777320E+01  0.00000000000E+00 0.  1.
         11    1    3    3    0    0  0.12714242710E+02  0.29764845759E+02 -0.20445197382E+01  0.32431128133E+02  0.51100000000E-03 0. -1.
        -11    1    3    3    0    0  0.42517997973E+01  0.72976279514E+01 -0.11181244601E+02  0.14012615970E+02  0.51100000000E-03 0.  1.
        -12    1    3    3    0    0 -0.18020886466E+02 -0.37497301375E+02  0.12923630841E+02  0.43563978165E+02  0.00000000000E+00 0.  1.
</event>
<event>
 7    1  0.3505640E-015  0.9000762E+02  0.7816164E-02  0.1186339E+00
        -11   -1    0    0    0    0  0.00000000000E+00  0.00000000000E+00  0.45593999997E+02  0.45594000000E+02  0.51100000000E-03 0.  1.
         11   -1    0    0    0    0 -0.00000000000E+00 -0.00000000000E+00 -0.45593999997E+02  0.45594000000E+02  0.51100000000E-03 0. -1.
    9900012    2    1    2    0    0 -0.52202304253E+00 -0.98864552465E+00  0.37863714713E+00  0.90007621197E+02  0.89999880996E+02 0.  0.
        -12    1    1    2    0    0  0.52202304253E+00  0.98864552465E+00 -0.37863714713E+00  0.11803788034E+01  0.00000000000E+00 0.  1.
         11    1    3    3    0    0 -0.17973089833E+02  0.17091772705E+02  0.28777467940E+02  0.37990831968E+02  0.51100000000E-03 0. -1.
        -11    1    3    3    0    0 -0.79316199932E+01 -0.20773011106E+01  0.28629415665E+01  0.86845961504E+01  0.51100000000E-03 0.  1.
        -12    1    3    3    0    0  0.25382686784E+02 -0.16003117119E+02 -0.31261772360E+02  0.43332193078E+02  0.00000000000E+00 0.  1.
</event>
<event>
 7    1  0.3505640E-015  0.9000720E+02  0.7816164E-02  0.1186340E+00
        -11   -1    0    0    0    0  0.00000000000E+00  0.00000000000E+00  0.45593999997E+02  0.45594000000E+02  0.51100000000E-03 0. -1.
         11   -1    0    0    0    0 -0.00000000000E+00 -0.00000000000E+00 -0.45593999997E+02  0.45594000000E+02  0.51100000000E-03 0.  1.
    9900012    2    1    2    0    0 -0.60667248958E+00  0.92292355800E+00  0.41767783338E+00  0.90007197656E+02  0.89999451863E+02 0.  0.
        -12    1    1    2    0    0  0.60667248958E+00 -0.92292355800E+00 -0.41767783338E+00  0.11808023442E+01  0.00000000000E+00 0.  1.
         11    1    3    3    0    0  0.23489962196E+01 -0.94304651870E+01 -0.31590795797E+01  0.10219160481E+02  0.51100000000E-03 0. -1.
        -11    1    3    3    0    0  0.27788624504E+02 -0.19430626802E+02 -0.91680733156E+01  0.35125638475E+02  0.51100000000E-03 0.  1.
         12    1    3    3    0    0 -0.30744293213E+02  0.29784015547E+02  0.12744830729E+02  0.44662398699E+02  0.00000000000E+00 0. -1.
</event>
<event>
 7    1  0.3505640E-015  0.9000769E+02  0.7816164E-02  0.1186339E+00
        -11   -1    0    0    0    0  0.00000000000E+00  0.00000000000E+00  0.45593999997E+02  0.45594000000E+02  0.51100000000E-03 0.  1.
         11   -1    0    0    0    0 -0.00000000000E+00 -0.00000000000E+00 -0.45593999997E+02  0.45594000000E+02  0.51100000000E-03 0. -1.
    9900012    2    1    2    0    0  0.35979269653E-01 -0.95083063255E+00  0.69839532174E+00  0.90007690962E+02  0.89999951683E+02 0.  0.
        -12    1    1    2    0    0 -0.35979269653E-01  0.95083063255E+00 -0.69839532174E+00  0.11803090380E+01  0.00000000000E+00 0.  1.
         11    1    3    3    0    0  0.21297273180E+01 -0.10231008484E+02  0.25421523546E+01  0.10755083073E+02  0.51100000000E-03 0. -1.
        -11    1    3    3    0    0 -0.29810089213E+02 -0.21898861515E+02  0.36775758808E+01  0.37171576764E+02  0.51100000000E-03 0.  1.
         12    1    3    3    0    0  0.27716341164E+02  0.31179039367E+02 -0.55213329137E+01  0.42081031125E+02  0.00000000000E+00 0. -1.
</event>
<event>
 7    1  0.3505640E-015  0.9000783E+02  0.7816164E-02  0.1186339E+00
        -11   -1    0    0    0    0  0.00000000000E+00  0.00000000000E+00  0.45593999997E+02  0.45594000000E+02  0.51100000000E-03 0. -1.
         11   -1    0    0    0    0 -0.00000000000E+00 -0.00000000000E+00 -0.45593999997E+02  0.45594000000E+02  0.51100000000E-03 0.  1.
    9900012    2    1    2    0    0 -0.84182308515E-01  0.11235326540E+01 -0.35126864078E+00  0.90007829697E+02  0.90000092249E+02 0.  0.
        -12    1    1    2    0    0  0.84182308515E-01 -0.11235326540E+01  0.35126864078E+00  0.11801703028E+01  0.00000000000E+00 0.  1.
         11    1    3    3    0    0 -0.40748669996E+02 -0.12752454776E+01  0.12304300790E+02  0.42584928973E+02  0.51100000000E-03 0. -1.
        -11    1    3    3    0    0  0.62259796729E+01  0.43965043027E+01  0.45470448288E+01  0.88751163320E+01  0.51100000000E-03 0.  1.
        -12    1    3    3    0    0  0.34438508015E+02 -0.19977261711E+01 -0.17202614260E+02  0.38547784392E+02  0.00000000000E+00 0.  1.
</event>
<event>
 7    1  0.3505640E-015  0.9000778E+02  0.7816164E-02  0.1186339E+00
        -11   -1    0    0    0    0  0.00000000000E+00  0.00000000000E+00  0.45593999997E+02  0.45594000000E+02  0.51100000000E-03 0.  1.
         11   -1    0    0    0    0 -0.00000000000E+00 -0.00000000000E+00 -0.45593999997E+02  0.45594000000E+02  0.51100000000E-03 0. -1.
    9900012    2    1    2    0    0 -0.29749659716E-01 -0.35017910101E+00 -0.11266816393E+01  0.90007778851E+02  0.90000040731E+02 0.  0.
        -12    1    1    2    0    0  0.29749659716E-01  0.35017910101E+00  0.11266816393E+01  0.11802211493E+01  0.00000000000E+00 0.  1.
         11    1    3    3    0    0 -0.30367653264E+02 -0.77620318459E+01 -0.17194983222E+02  0.35750677635E+02  0.51100000000E-03 0. -1.
        -11    1    3    3    0    0 -0.10355789560E+02 -0.28092872528E+00  0.41699556768E+01  0.11167355505E+02  0.51100000000E-03 0.  1.
        -12    1    3    3    0    0  0.40693693164E+02  0.76927814702E+01  0.11898345906E+02  0.43089745710E+02  0.00000000000E+00 0.  1.
</event>
<event>
 7    1  0.3505640E-015  0.9000775E+02  0.7816164E-02  0.1186339E+00
        -11   -1    0    0    0    0  0.00000000000E+00  0.00000000000E+00  0.45593999997E+02  0.45594000000E+02  0.51100000000E-03 0.  1.
         11   -1    0    0    0    0 -0.00000000000E+00 -0.00000000000E+00 -0.45593999997E+02  0.45594000000E+02  0.51100000000E-03 0. -1.
    9900012    2    1    2    0    0  0.79085448170E-01 -0.79929467228E+00 -0.86478542901E+00  0.90007754128E+02  0.90000015682E+02 0.  0.
        -12    1    1    2    0    0 -0.79085448170E-01  0.79929467228E+00  0.86478542901E+00  0.11802458725E+01  0.00000000000E+00 0.  1.
         11    1    3    3    0    0  0.29902455459E+02 -0.22016233421E+02 -0.29661959954E+01  0.37251438837E+02  0.51100000000E-03 0. -1.
        -11    1    3    3    0    0  0.90729264282E+01  0.30163674908E+01  0.22053606427E+01  0.98122414685E+01  0.51100000000E-03 0.  1.
        -12    1    3    3    0    0 -0.38896296439E+02  0.18200571258E+02 -0.10395007624E+00  0.42944073822E+02  0.00000000000E+00 0.  1.
</event>
<event>
 7    1  0.4738288E-015  0.9000763E+02  0.7816164E-02  0.1186339E+00
        -11   -1    0    0    0    0  0.00000000000E+00  0.00000000000E+00  0.45593999997E+02  0.45594000000E+02  0.51100000000E-03 0. -1.
         11   -1    0    0    0    0 -0.00000000000E+00 -0.00000000000E+00 -0.45593999997E+02  0.45594000000E+02  0.51100000000E-03 0.  1.
    9900012    2    1    2    0    0  0.90846478797E+00 -0.43543801215E+00  0.61511066256E+00  0.90007629016E+02  0.89999888919E+02 0.  0.
        -12    1    1    2    0    0 -0.90846478797E+00  0.43543801215E+00 -0.61511066256E+00  0.11803709843E+01  0.00000000000E+00 0.  1.
         11    1    3    3    0    0  0.54596638751E+01  0.64083223542E+01 -0.43507245885E+01  0.94764618782E+01  0.51100000000E-03 0. -1.
        -11    1    3    3    0    0  0.47668382557E+01  0.27798769289E+02 -0.21903297416E+02  0.35710625294E+02  0.51100000000E-03 0.  1.
         12    1    3    3    0    0 -0.93180373428E+01 -0.34642529656E+02  0.26869132667E+02  0.44820541843E+02  0.00000000000E+00 0. -1.
</event>
<event>
 7    1  0.3505640E-015  0.9000770E+02  0.7816164E-02  0.1186339E+00
        -11   -1    0    0    0    0  0.00000000000E+00  0.00000000000E+00  0.45593999997E+02  0.45594000000E+02  0.51100000000E-03 0.  1.
         11   -1    0    0    0    0 -0.00000000000E+00 -0.00000000000E+00 -0.45593999997E+02  0.45594000000E+02  0.51100000000E-03 0. -1.
    9900012    2    1    2    0    0  0.55277939846E+00 -0.75130909480E+00 -0.72323570278E+00  0.90007703300E+02  0.89999964183E+02 0.  0.
        -12    1    1    2    0    0 -0.55277939846E+00  0.75130909480E+00  0.72323570278E+00  0.11802967004E+01  0.00000000000E+00 0.  1.
         11    1    3    3    0    0 -0.30378932203E+01  0.87271002061E+01  0.52696568506E+01  0.10637685689E+02  0.51100000000E-03 0. -1.
        -11    1    3    3    0    0 -0.25655302966E+02 -0.23418319757E+02  0.17935373153E+02  0.39093348295E+02  0.51100000000E-03 0.  1.
         12    1    3    3    0    0  0.29245975585E+02  0.13939910457E+02 -0.23928265706E+02  0.40276669316E+02  0.00000000000E+00 0. -1.
</event>
<event>
 7    1  0.3505640E-015  0.9000887E+02  0.7816164E-02  0.1186337E+00
        -11   -1    0    0    0    0  0.00000000000E+00  0.00000000000E+00  0.45593999997E+02  0.45594000000E+02  0.51100000000E-03 0.  1.
         11   -1    0    0    0    0 -0.00000000000E+00 -0.00000000000E+00 -0.45593999997E+02  0.45594000000E+02  0.51100000000E-03 0. -1.
    9900012    2    1    2    0    0  0.18113126351E+00  0.28561030215E+00 -0.11295849041E+01  0.90008871578E+02  0.90001147876E+02 0.  0.
        -12    1    1    2    0    0 -0.18113126351E+00 -0.28561030215E+00  0.11295849041E+01  0.11791284217E+01  0.00000000000E+00 0.  1.
         11    1    3    3    0    0  0.16736269824E+01 -0.11807412906E+02 -0.37008987489E+02  0.38882916326E+02  0.51100000000E-03 0. -1.
        -11    1    3    3    0    0 -0.45628531451E-01 -0.98515140864E+01  0.10135976675E+01  0.99036252075E+01  0.51100000000E-03 0.  1.
        -12    1    3    3    0    0 -0.14468671874E+01  0.21944537295E+02  0.34865804917E+02  0.41222330044E+02  0.00000000000E+00 0.  1.
</event>
<event>
 7    1  0.3505640E-015  0.9000778E+02  0.7816164E-02  0.1186339E+00
        -11   -1    0    0    0    0  0.00000000000E+00  0.00000000000E+00  0.45593999997E+02  0.45594000000E+02  0.51100000000E-03 0.  1.
         11   -1    0    0    0    0 -0.00000000000E+00 -0.00000000000E+00 -0.45593999997E+02  0.45594000000E+02  0.51100000000E-03 0. -1.
    9900012    2    1    2    0    0  0.58759058701E+00  0.45101723584E-01 -0.10225586065E+01  0.90007778425E+02  0.90000040300E+02 0.  0.
        -12    1    1    2    0    0 -0.58759058701E+00 -0.45101723584E-01  0.10225586065E+01  0.11802215754E+01  0.00000000000E+00 0.  1.
         11    1    3    3    0    0  0.27601382556E+02 -0.79405767848E+00  0.21184621288E+02  0.34803089316E+02  0.51100000000E-03 0. -1.
        -11    1    3    3    0    0  0.55316236062E+01  0.31448062599E+01  0.83531251199E+01  0.10500636441E+02  0.51100000000E-03 0.  1.
        -12    1    3    3    0    0 -0.32545415575E+02 -0.23056468578E+01 -0.30560305014E+02  0.44704052668E+02  0.00000000000E+00 0.  1.
</event>
<event>
 7    1  0.3505640E-015  0.9000862E+02  0.7816164E-02  0.1186337E+00
        -11   -1    0    0    0    0  0.00000000000E+00  0.00000000000E+00  0.45593999997E+02  0.45594000000E+02  0.51100000000E-03 0.  1.
         11   -1    0    0    0    0 -0.00000000000E+00 -0.00000000000E+00 -0.45593999997E+02  0.45594000000E+02  0.51100000000E-03 0. -1.
    9900012    2    1    2    0    0 -0.97518501276E+00 -0.65798392169E+00  0.83654475452E-01  0.90008624436E+02  0.90000897474E+02 0.  0.
        -12    1    1    2    0    0  0.97518501276E+00  0.65798392169E+00 -0.83654475452E-01  0.11793755643E+01  0.00000000000E+00 0.  1.
         11    1    3    3    0    0  0.19045674847E+02  0.20658846262E+02 -0.21184107116E+02  0.35189374161E+02  0.51100000000E-03 0. -1.
        -11    1    3    3    0    0  0.33148449433E+01  0.79562514074E+01 -0.41533889753E+01  0.95676942728E+01  0.51100000000E-03 0.  1.
        -12    1    3    3    0    0 -0.23335704804E+02 -0.29273081591E+02  0.25421150567E+02  0.45251556002E+02  0.00000000000E+00 0.  1.
</event>
<event>
 7    1  0.3505640E-015  0.9000754E+02  0.7816164E-02  0.1186339E+00
        -11   -1    0    0    0    0  0.00000000000E+00  0.00000000000E+00  0.45593999997E+02  0.45594000000E+02  0.51100000000E-03 0. -1.
         11   -1    0    0    0    0 -0.00000000000E+00 -0.00000000000E+00 -0.45593999997E+02  0.45594000000E+02  0.51100000000E-03 0.  1.
    9900012    2    1    2    0    0  0.69592753558E+00 -0.86196132944E+00  0.40766358995E+00  0.90007541584E+02  0.89999800333E+02 0.  0.
        -12    1    1    2    0    0 -0.69592753558E+00  0.86196132944E+00 -0.40766358995E+00  0.11804584155E+01  0.00000000000E+00 0.  1.
         11    1    3    3    0    0 -0.28765124098E+02  0.20337303729E+02  0.22480845614E+02  0.41790270484E+02  0.51100000000E-03 0. -1.
        -11    1    3    3    0    0 -0.30591396507E+01 -0.50352677225E+01 -0.62948091483E+01  0.86218837220E+01  0.51100000000E-03 0.  1.
        -12    1    3    3    0    0  0.32520191284E+02 -0.16163997336E+02 -0.15778372876E+02  0.39595387378E+02  0.00000000000E+00 0.  1.
</event>
<event>
 7    1  0.3505640E-015  0.9000773E+02  0.7816164E-02  0.1186339E+00
        -11   -1    0    0    0    0  0.00000000000E+00  0.00000000000E+00  0.45593999997E+02  0.45594000000E+02  0.51100000000E-03 0. -1.
         11   -1    0    0    0    0 -0.00000000000E+00 -0.00000000000E+00 -0.45593999997E+02  0.45594000000E+02  0.51100000000E-03 0.  1.
    9900012    2    1    2    0    0  0.88415774624E+00  0.31359098025E+00  0.71621993682E+00  0.90007726633E+02  0.89999987824E+02 0.  0.
        -12    1    1    2    0    0 -0.88415774624E+00 -0.31359098025E+00 -0.71621993682E+00  0.11802733671E+01  0.00000000000E+00 0.  1.
         11    1    3    3    0    0  0.14402300236E+02 -0.16972160428E+02 -0.14436934935E+02  0.26531218823E+02  0.51100000000E-03 0. -1.
        -11    1    3    3    0    0  0.17730091256E+02  0.26076435939E+01 -0.10221199859E+02  0.20630774776E+02  0.51100000000E-03 0.  1.
        -12    1    3    3    0    0 -0.31248233745E+02  0.14678107814E+02  0.25374354731E+02  0.42845733034E+02  0.00000000000E+00 0.  1.
</event>
<event>
 7    1  0.3505640E-015  0.9000770E+02  0.7816164E-02  0.1186339E+00
        -11   -1    0    0    0    0  0.00000000000E+00  0.00000000000E+00  0.45593999997E+02  0.45594000000E+02  0.51100000000E-03 0.  1.
         11   -1    0    0    0    0 -0.00000000000E+00 -0.00000000000E+00 -0.45593999997E+02  0.45594000000E+02  0.51100000000E-03 0. -1.
    9900012    2    1    2    0    0 -0.48342298359E+00 -0.73455286319E+00 -0.78729444723E+00  0.90007704174E+02  0.89999965069E+02 0.  0.
        -12    1    1    2    0    0  0.48342298359E+00  0.73455286319E+00  0.78729444723E+00  0.11802958259E+01  0.00000000000E+00 0.  1.
         11    1    3    3    0    0 -0.94613051111E+01 -0.17193590340E+01  0.13038317179E+01  0.97042499609E+01  0.51100000000E-03 0. -1.
        -11    1    3    3    0    0 -0.11123341401E+02 -0.21167575851E+02  0.28712437016E+02  0.37365746761E+02  0.51100000000E-03 0.  1.
         12    1    3    3    0    0  0.20101223529E+02  0.22152382022E+02 -0.30803563181E+02  0.42937707452E+02  0.00000000000E+00 0. -1.
</event>
<event>
 7    1  0.3505640E-015  0.9000767E+02  0.7816164E-02  0.1186339E+00
        -11   -1    0    0    0    0  0.00000000000E+00  0.00000000000E+00  0.45593999997E+02  0.45594000000E+02  0.51100000000E-03 0.  1.
         11   -1    0    0    0    0 -0.00000000000E+00 -0.00000000000E+00 -0.45593999997E+02  0.45594000000E+02  0.51100000000E-03 0. -1.
    9900012    2    1    2    0    0 -0.77857377316E+00  0.70947624868E+00 -0.53258950828E+00  0.90007667313E+02  0.89999927721E+02 0.  0.
        -12    1    1    2    0    0  0.77857377316E+00 -0.70947624868E+00  0.53258950828E+00  0.11803326870E+01  0.00000000000E+00 0.  1.
         11    1    3    3    0    0  0.33087746792E+02  0.11021445093E+02 -0.23300459483E+02  0.41942611412E+02  0.51100000000E-03 0. -1.
        -11    1    3    3    0    0  0.25054614482E+00 -0.25300449379E+01  0.10779595657E+02  0.11075359296E+02  0.51100000000E-03 0.  1.
        -12    1    3    3    0    0 -0.34116866709E+02 -0.77819239068E+01  0.11988274319E+02  0.36989696605E+02  0.00000000000E+00 0.  1.
</event>
<event>
 7    1  0.3505640E-015  0.9000777E+02  0.7816164E-02  0.1186339E+00
        -11   -1    0    0    0    0  0.00000000000E+00  0.00000000000E+00  0.45593999997E+02  0.45594000000E+02  0.51100000000E-03 0.  1.
         11   -1    0    0    0    0 -0.00000000000E+00 -0.00000000000E+00 -0.45593999997E+02  0.45594000000E+02  0.51100000000E-03 0. -1.
    9900012    2    1    2    0    0 -0.12905633021E+00 -0.11335705312E+01  0.30218567257E+00  0.90007765334E+02  0.90000027037E+02 0.  0.
        -12    1    1    2    0    0  0.12905633021E+00  0.11335705312E+01 -0.30218567257E+00  0.11802346657E+01  0.00000000000E+00 0.  1.
         11    1    3    3    0    0 -0.76681659082E+01  0.27603973080E+01 -0.26569547607E+01  0.85720458791E+01  0.51100000000E-03 0. -1.
        -11    1    3    3    0    0 -0.11071960217E+02 -0.38405730395E+02  0.10900312385E+02  0.41429521365E+02  0.51100000000E-03 0.  1.
         12    1    3    3    0    0  0.18611069795E+02  0.34511762556E+02 -0.79411719518E+01  0.40006198090E+02  0.00000000000E+00 0. -1.
</event>
<event>
 7    1  0.3505640E-015  0.9000790E+02  0.7816164E-02  0.1186339E+00
        -11   -1    0    0    0    0  0.00000000000E+00  0.00000000000E+00  0.45593999997E+02  0.45594000000E+02  0.51100000000E-03 0. -1.
         11   -1    0    0    0    0 -0.00000000000E+00 -0.00000000000E+00 -0.45593999997E+02  0.45594000000E+02  0.51100000000E-03 0.  1.
    9900012    2    1    2    0    0 -0.10522507718E+01 -0.22935465596E+00  0.48250264249E+00  0.90007896596E+02  0.90000160031E+02 0.  0.
        -12    1    1    2    0    0  0.10522507718E+01  0.22935465596E+00 -0.48250264249E+00  0.11801034044E+01  0.00000000000E+00 0.  1.
         11    1    3    3    0    0 -0.57921382975E+01 -0.59106736606E+01 -0.76913011345E+01  0.11297833535E+02  0.51100000000E-03 0. -1.
        -11    1    3    3    0    0  0.76447430224E+01 -0.19322168013E+02 -0.27859486762E+02  0.34755420808E+02  0.51100000000E-03 0.  1.
         12    1    3    3    0    0 -0.29048554967E+01  0.25003487018E+02  0.36033290539E+02  0.43954642253E+02  0.00000000000E+00 0. -1.
</event>
<event>
 7    1  0.3505640E-015  0.9000777E+02  0.7816164E-02  0.1186339E+00
        -11   -1    0    0    0    0  0.00000000000E+00  0.00000000000E+00  0.45593999997E+02  0.45594000000E+02  0.51100000000E-03 0.  1.
         11   -1    0    0    0    0 -0.00000000000E+00 -0.00000000000E+00 -0.45593999997E+02  0.45594000000E+02  0.51100000000E-03 0. -1.
    9900012    2    1    2    0    0  0.98931946556E+00  0.61747389906E+00  0.18145309476E+00  0.90007766020E+02  0.90000027732E+02 0.  0.
        -12    1    1    2    0    0 -0.98931946556E+00 -0.61747389906E+00 -0.18145309476E+00  0.11802339796E+01  0.00000000000E+00 0.  1.
         11    1    3    3    0    0  0.55000033881E+01  0.35325562059E+01  0.56639840826E+01  0.86492604635E+01  0.51100000000E-03 0. -1.
        -11    1    3    3    0    0  0.34115222128E+02 -0.18844457277E+02  0.14738743777E+01  0.39001721204E+02  0.51100000000E-03 0.  1.
         12    1    3    3    0    0 -0.38625906050E+02  0.15929374971E+02 -0.69564053655E+01  0.42356784353E+02  0.00000000000E+00 0. -1.
</event>
<event>
 7    1  0.3505640E-015  0.9000774E+02  0.7816164E-02  0.1186339E+00
        -11   -1    0    0    0    0  0.00000000000E+00  0.00000000000E+00  0.45593999997E+02  0.45594000000E+02  0.51100000000E-03 0.  1.
         11   -1    0    0    0    0 -0.00000000000E+00 -0.00000000000E+00 -0.45593999997E+02  0.45594000000E+02  0.51100000000E-03 0. -1.
    9900012    2    1    2    0    0 -0.79535812001E+00  0.82602408223E+00  0.27946926493E+00  0.90007740116E+02  0.90000001486E+02 0.  0.
        -12    1    1    2    0    0  0.79535812001E+00 -0.82602408223E+00 -0.27946926493E+00  0.11802598839E+01  0.00000000000E+00 0.  1.
         11    1    3    3    0    0  0.30301025941E+00  0.90483902360E+01  0.91633282390E+01  0.12881450452E+02  0.51100000000E-03 0. -1.
        -11    1    3    3    0    0 -0.14277724312E+01  0.29749293631E+02  0.13873304351E+02  0.32856165015E+02  0.51100000000E-03 0.  1.
         12    1    3    3    0    0  0.32940405181E+00 -0.37971659784E+02 -0.22757163325E+02  0.44270124649E+02  0.00000000000E+00 0. -1.
</event>
<event>
 7    1  0.3505640E-015  0.9000770E+02  0.7816164E-02  0.1186339E+00
        -11   -1    0    0    0    0  0.00000000000E+00  0.00000000000E+00  0.45593999997E+02  0.45594000000E+02  0.51100000000E-03 0.  1.
         11   -1    0    0    0    0 -0.00000000000E+00 -0.00000000000E+00 -0.45593999997E+02  0.45594000000E+02  0.51100000000E-03 0. -1.
    9900012    2    1    2    0    0 -0.57075844322E+00 -0.54476995356E+00 -0.87781685733E+00  0.90007702606E+02  0.89999963481E+02 0.  0.
        -12    1    1    2    0    0  0.57075844322E+00  0.54476995356E+00  0.87781685733E+00  0.11802973938E+01  0.00000000000E+00 0.  1.
         11    1    3    3    0    0  0.80999772191E+01  0.23265291135E+01 -0.46849890667E+01  0.96421725500E+01  0.51100000000E-03 0. -1.
        -11    1    3    3    0    0  0.30173518094E+02  0.18280464121E+02 -0.38113672262E+01  0.35484406196E+02  0.51100000000E-03 0.  1.
         12    1    3    3    0    0 -0.38844253756E+02 -0.21151763188E+02  0.76185394356E+01  0.44881123861E+02  0.00000000000E+00 0. -1.
</event>
<event>
 7    1  0.3505640E-015  0.9000757E+02  0.7816164E-02  0.1186339E+00
        -11   -1    0    0    0    0  0.00000000000E+00  0.00000000000E+00  0.45593999997E+02  0.45594000000E+02  0.51100000000E-03 0. -1.
         11   -1    0    0    0    0 -0.00000000000E+00 -0.00000000000E+00 -0.45593999997E+02  0.45594000000E+02  0.51100000000E-03 0.  1.
    9900012    2    1    2    0    0 -0.84233008397E+00  0.39850333590E+00  0.72462603574E+00  0.90007573056E+02  0.89999832220E+02 0.  0.
        -12    1    1    2    0    0  0.84233008397E+00 -0.39850333590E+00 -0.72462603574E+00  0.11804269443E+01  0.00000000000E+00 0.  1.
         11    1    3    3    0    0  0.65373721042E+01  0.25641094784E+01  0.58029809412E+00  0.70461789351E+01  0.51100000000E-03 0. -1.
        -11    1    3    3    0    0  0.31265600506E+02  0.13339535752E+02 -0.16908010454E+02  0.37965271063E+02  0.51100000000E-03 0.  1.
         12    1    3    3    0    0 -0.38645302694E+02 -0.15505141894E+02  0.17052338396E+02  0.44996123058E+02  0.00000000000E+00 0. -1.
</event>
<event>
 7    1  0.3505640E-015  0.9000771E+02  0.7816164E-02  0.1186339E+00
        -11   -1    0    0    0    0  0.00000000000E+00  0.00000000000E+00  0.45593999997E+02  0.45594000000E+02  0.51100000000E-03 0. -1.
         11   -1    0    0    0    0 -0.00000000000E+00 -0.00000000000E+00 -0.45593999997E+02  0.45594000000E+02  0.51100000000E-03 0.  1.
    9900012    2    1    2    0    0  0.56530302382E+00  0.11839318950E-01  0.10360379219E+01  0.90007710945E+02  0.89999971929E+02 0.  0.
        -12    1    1    2    0    0 -0.56530302382E+00 -0.11839318950E-01 -0.10360379219E+01  0.11802890552E+01  0.00000000000E+00 0.  1.
         11    1    3    3    0    0 -0.21960869810E+02  0.26448298375E+02 -0.52437797458E+01  0.34774840273E+02  0.51100000000E-03 0. -1.
        -11    1    3    3    0    0  0.64238277639E+01  0.11597219303E+02 -0.99665878149E+00  0.13294900815E+02  0.51100000000E-03 0.  1.
        -12    1    3    3    0    0  0.16102345069E+02 -0.38033678358E+02  0.72764764492E+01  0.41937969857E+02  0.00000000000E+00 0.  1.
</event>
<event>
 7    1  0.3505640E-015  0.9000773E+02  0.7816164E-02  0.1186339E+00
        -11   -1    0    0    0    0  0.00000000000E+00  0.00000000000E+00  0.45593999997E+02  0.45594000000E+02  0.51100000000E-03 0.  1.
         11   -1    0    0    0    0 -0.00000000000E+00 -0.00000000000E+00 -0.45593999997E+02  0.45594000000E+02  0.51100000000E-03 0. -1.
    9900012    2    1    2    0    0  0.71366220552E+00 -0.23847067348E+00 -0.90931952558E+00  0.90007727148E+02  0.89999988346E+02 0.  0.
        -12    1    1    2    0    0 -0.71366220552E+00  0.23847067348E+00  0.90931952558E+00  0.11802728521E+01  0.00000000000E+00 0.  1.
         11    1    3    3    0    0 -0.82310754112E+01 -0.35536704878E+01  0.19331489064E+00  0.89675273777E+01  0.51100000000E-03 0. -1.
        -11    1    3    3    0    0  0.21085702523E+01 -0.13841390174E+02  0.36529365976E+02  0.39120643263E+02  0.51100000000E-03 0.  1.
         12    1    3    3    0    0  0.68361673645E+01  0.17156589989E+02 -0.37632000392E+02  0.41919556507E+02  0.00000000000E+00 0. -1.
</event>
<event>
 7    1  0.3505640E-015  0.9000769E+02  0.7816164E-02  0.1186339E+00
        -11   -1    0    0    0    0  0.00000000000E+00  0.00000000000E+00  0.45593999997E+02  0.45594000000E+02  0.51100000000E-03 0.  1.
         11   -1    0    0    0    0 -0.00000000000E+00 -0.00000000000E+00 -0.45593999997E+02  0.45594000000E+02  0.51100000000E-03 0. -1.
    9900012    2    1    2    0    0 -0.25330164997E+00  0.83362570360E-01 -0.11497898748E+01  0.90007691650E+02  0.89999952380E+02 0.  0.
        -12    1    1    2    0    0  0.25330164997E+00 -0.83362570360E-01  0.11497898748E+01  0.11803083496E+01  0.00000000000E+00 0.  1.
         11    1    3    3    0    0 -0.22460416598E+02  0.31603283341E+02 -0.77405922040E+01  0.39536749988E+02  0.51100000000E-03 0. -1.
        -11    1    3    3    0    0  0.68555068717E+01  0.62124136379E+01  0.21130075068E+01  0.94898292219E+01  0.51100000000E-03 0.  1.
        -12    1    3    3    0    0  0.15351608076E+02 -0.37732334408E+02  0.44777948224E+01  0.40981112441E+02  0.00000000000E+00 0.  1.
</event>
<event>
 7    1  0.3505640E-015  0.9000782E+02  0.7816164E-02  0.1186339E+00
        -11   -1    0    0    0    0  0.00000000000E+00  0.00000000000E+00  0.45593999997E+02  0.45594000000E+02  0.51100000000E-03 0. -1.
         11   -1    0    0    0    0 -0.00000000000E+00 -0.00000000000E+00 -0.45593999997E+02  0.45594000000E+02  0.51100000000E-03 0.  1.
    9900012    2    1    2    0    0 -0.72627597132E-01  0.42789811678E+00  0.10974739178E+01  0.90007821807E+02  0.90000084255E+02 0.  0.
        -12    1    1    2    0    0  0.72627597132E-01 -0.42789811678E+00 -0.10974739178E+01  0.11801781927E+01  0.00000000000E+00 0.  1.
         11    1    3    3    0    0  0.11266015405E+02  0.70023597081E+01  0.27982987519E+02  0.30967785444E+02  0.51100000000E-03 0. -1.
        -11    1    3    3    0    0  0.42873190089E+01  0.14242938592E+02  0.68947481541E+01  0.16394509946E+02  0.51100000000E-03 0.  1.
        -12    1    3    3    0    0 -0.15625962011E+02 -0.20817400183E+02 -0.33780261755E+02  0.42645526417E+02  0.00000000000E+00 0.  1.
</event>
<event>
 7    1  0.3505640E-015  0.9000776E+02  0.7816164E-02  0.1186339E+00
        -11   -1    0    0    0    0  0.00000000000E+00  0.00000000000E+00  0.45593999997E+02  0.45594000000E+02  0.51100000000E-03 0.  1.
         11   -1    0    0    0    0 -0.00000000000E+00 -0.00000000000E+00 -0.45593999997E+02  0.45594000000E+02  0.51100000000E-03 0. -1.
    9900012    2    1    2    0    0  0.98493625788E+00  0.48007231830E+00 -0.43864173820E+00  0.90007756196E+02  0.90000017778E+02 0.  0.
        -12    1    1    2    0    0 -0.98493625788E+00 -0.48007231830E+00  0.43864173820E+00  0.11802438042E+01  0.00000000000E+00 0.  1.
         11    1    3    3    0    0 -0.20523005101E+02  0.35746199598E+02 -0.72922235906E+01  0.41858822837E+02  0.51100000000E-03 0. -1.
        -11    1    3    3    0    0  0.35060355457E+01  0.32467494725E+01  0.25578252729E+01  0.54199758093E+01  0.51100000000E-03 0.  1.
        -12    1    3    3    0    0  0.18001905814E+02 -0.38512876753E+02  0.42957565795E+01  0.42728957550E+02  0.00000000000E+00 0.  1.
</event>
<event>
 7    1  0.3505640E-015  0.9000768E+02  0.7816164E-02  0.1186339E+00
        -11   -1    0    0    0    0  0.00000000000E+00  0.00000000000E+00  0.45593999997E+02  0.45594000000E+02  0.51100000000E-03 0.  1.
         11   -1    0    0    0    0 -0.00000000000E+00 -0.00000000000E+00 -0.45593999997E+02  0.45594000000E+02  0.51100000000E-03 0. -1.
    9900012    2    1    2    0    0 -0.38799130421E+00  0.65675803985E+00 -0.90071263167E+00  0.90007681560E+02  0.89999942157E+02 0.  0.
        -12    1    1    2    0    0  0.38799130421E+00 -0.65675803985E+00  0.90071263167E+00  0.11803184400E+01  0.00000000000E+00 0.  1.
         11    1    3    3    0    0  0.39410451699E+01  0.29037743885E+01  0.10682175293E+02  0.11750430289E+02  0.51100000000E-03 0. -1.
        -11    1    3    3    0    0  0.29657382603E+01  0.18028247119E+02  0.27857563334E+02  0.33314518348E+02  0.51100000000E-03 0.  1.
         12    1    3    3    0    0 -0.72947747344E+01 -0.20275263468E+02 -0.39440451258E+02  0.44942732923E+02  0.00000000000E+00 0. -1.
</event>
<event>
 7    1  0.3505640E-015  0.9000766E+02  0.7816164E-02  0.1186339E+00
        -11   -1    0    0    0    0  0.00000000000E+00  0.00000000000E+00  0.45593999997E+02  0.45594000000E+02  0.51100000000E-03 0. -1.
         11   -1    0    0    0    0 -0.00000000000E+00 -0.00000000000E+00 -0.45593999997E+02  0.45594000000E+02  0.51100000000E-03 0.  1.
    9900012    2    1    2    0    0 -0.16228998652E+00  0.34678908248E+00  0.11165108938E+01  0.90007662216E+02  0.89999922558E+02 0.  0.
        -12    1    1    2    0    0  0.16228998652E+00 -0.34678908248E+00 -0.11165108938E+01  0.11803377836E+01  0.00000000000E+00 0.  1.
         11    1    3    3    0    0 -0.41141361486E+02  0.14434532457E+02  0.60519987254E+01  0.44018110375E+02  0.51100000000E-03 0. -1.
        -11    1    3    3    0    0  0.10287224865E+02 -0.26007563704E+01  0.50217387321E+01  0.11739198834E+02  0.51100000000E-03 0.  1.
        -12    1    3    3    0    0  0.30691846634E+02 -0.11486987004E+02 -0.99572265637E+01  0.34250353007E+02  0.00000000000E+00 0.  1.
</event>
<event>
 7    1  0.3505640E-015  0.9000775E+02  0.7816164E-02  0.1186339E+00
        -11   -1    0    0    0    0  0.00000000000E+00  0.00000000000E+00  0.45593999997E+02  0.45594000000E+02  0.51100000000E-03 0.  1.
         11   -1    0    0    0    0 -0.00000000000E+00 -0.00000000000E+00 -0.45593999997E+02  0.45594000000E+02  0.51100000000E-03 0. -1.
    9900012    2    1    2    0    0 -0.92451438616E+00  0.43415978507E+00 -0.59141601299E+00  0.90007748133E+02  0.90000009608E+02 0.  0.
        -12    1    1    2    0    0  0.92451438616E+00 -0.43415978507E+00  0.59141601299E+00  0.11802518670E+01  0.00000000000E+00 0.  1.
         11    1    3    3    0    0  0.33825562459E+00  0.95996229009E+01  0.27395152805E+00  0.96094862718E+01  0.51100000000E-03 0. -1.
        -11    1    3    3    0    0 -0.29591331505E+02  0.21812969805E+02 -0.84986379689E+01  0.37731676341E+02  0.51100000000E-03 0.  1.
         12    1    3    3    0    0  0.28328561494E+02 -0.30978432921E+02  0.76332704279E+01  0.42666585520E+02  0.00000000000E+00 0. -1.
</event>
<event>
 7    1  0.3505640E-015  0.9000778E+02  0.7816164E-02  0.1186339E+00
        -11   -1    0    0    0    0  0.00000000000E+00  0.00000000000E+00  0.45593999997E+02  0.45594000000E+02  0.51100000000E-03 0. -1.
         11   -1    0    0    0    0 -0.00000000000E+00 -0.00000000000E+00 -0.45593999997E+02  0.45594000000E+02  0.51100000000E-03 0.  1.
    9900012    2    1    2    0    0  0.94820319968E+00  0.32926524113E+00  0.62082662030E+00  0.90007775191E+02  0.90000037024E+02 0.  0.
        -12    1    1    2    0    0 -0.94820319968E+00 -0.32926524113E+00 -0.62082662030E+00  0.11802248088E+01  0.00000000000E+00 0.  1.
         11    1    3    3    0    0 -0.22099145319E+02  0.15343151183E+02  0.23341499248E+02  0.35617553249E+02  0.51100000000E-03 0. -1.
        -11    1    3    3    0    0 -0.78348160766E+01  0.56236002005E+01  0.18979807368E+01  0.98291176261E+01  0.51100000000E-03 0.  1.
        -12    1    3    3    0    0  0.30882164596E+02 -0.20637486142E+02 -0.24618653364E+02  0.44561104316E+02  0.00000000000E+00 0.  1.
</event>
<event>
 7    1  0.3505640E-015  0.9000776E+02  0.7816164E-02  0.1186339E+00
        -11   -1    0    0    0    0  0.00000000000E+00  0.00000000000E+00  0.45593999997E+02  0.45594000000E+02  0.51100000000E-03 0.  1.
         11   -1    0    0    0    0 -0.00000000000E+00 -0.00000000000E+00 -0.45593999997E+02  0.45594000000E+02  0.51100000000E-03 0. -1.
    9900012    2    1    2    0    0 -0.56647620633E+00 -0.84710302346E+00 -0.59539672264E+00  0.90007755923E+02  0.90000017501E+02 0.  0.
        -12    1    1    2    0    0  0.56647620633E+00  0.84710302346E+00  0.59539672264E+00  0.11802440773E+01  0.00000000000E+00 0.  1.
         11    1    3    3    0    0 -0.12440582042E+02  0.21422294939E+01  0.91025359448E+00  0.12656452529E+02  0.51100000000E-03 0. -1.
        -11    1    3    3    0    0  0.14041461833E+02  0.15827985391E+02  0.32292683830E+02  0.38607061545E+02  0.51100000000E-03 0.  1.
         12    1    3    3    0    0 -0.21673559976E+01 -0.18817317909E+02 -0.33798334147E+02  0.38744241849E+02  0.00000000000E+00 0. -1.
</event>
<event>
 7    1  0.3505640E-015  0.9000811E+02  0.7816164E-02  0.1186338E+00
        -11   -1    0    0    0    0  0.00000000000E+00  0.00000000000E+00  0.45593999997E+02  0.45594000000E+02  0.51100000000E-03 0. -1.
         11   -1    0    0    0    0 -0.00000000000E+00 -0.00000000000E+00 -0.45593999997E+02  0.45594000000E+02  0.51100000000E-03 0.  1.
    9900012    2    1    2    0    0  0.50561593770E+00 -0.83657957321E+00 -0.66077075379E+00  0.90008114053E+02  0.90000380358E+02 0.  0.
        -12    1    1    2    0    0 -0.50561593770E+00  0.83657957321E+00  0.66077075379E+00  0.11798859470E+01  0.00000000000E+00 0.  1.
         11    1    3    3    0    0 -0.16295467885E+02  0.36051775956E+01  0.36212082103E+02  0.39872979191E+02  0.51100000000E-03 0. -1.
        -11    1    3    3    0    0 -0.45553049959E+01  0.75521946152E+01 -0.57444900133E+01  0.10525474473E+02  0.51100000000E-03 0.  1.
        -12    1    3    3    0    0  0.21356388819E+02 -0.11993951784E+02 -0.31128362843E+02  0.39609660389E+02  0.00000000000E+00 0.  1.
</event>
<event>
 7    1  0.3505640E-015  0.9000779E+02  0.7816164E-02  0.1186339E+00
        -11   -1    0    0    0    0  0.00000000000E+00  0.00000000000E+00  0.45593999997E+02  0.45594000000E+02  0.51100000000E-03 0.  1.
         11   -1    0    0    0    0 -0.00000000000E+00 -0.00000000000E+00 -0.45593999997E+02  0.45594000000E+02  0.51100000000E-03 0. -1.
    9900012    2    1    2    0    0  0.17648923862E-01  0.19674907337E+00 -0.11635588779E+01  0.90007791991E+02  0.90000054045E+02 0.  0.
        -12    1    1    2    0    0 -0.17648923862E-01 -0.19674907337E+00  0.11635588779E+01  0.11802080091E+01  0.00000000000E+00 0.  1.
         11    1    3    3    0    0  0.64411752857E+01 -0.25117632968E+01 -0.43639371841E+02  0.44183622179E+02  0.51100000000E-03 0. -1.
        -11    1    3    3    0    0 -0.77028450453E+01 -0.18485753103E+01  0.88933081544E+01  0.11909743182E+02  0.51100000000E-03 0.  1.
        -12    1    3    3    0    0  0.12793186835E+01  0.45570876805E+01  0.33582504809E+02  0.33914426630E+02  0.00000000000E+00 0.  1.
</event>
<event>
 7    1  0.3505640E-015  0.9000778E+02  0.7816164E-02  0.1186339E+00
        -11   -1    0    0    0    0  0.00000000000E+00  0.00000000000E+00  0.45593999997E+02  0.45594000000E+02  0.51100000000E-03 0.  1.
         11   -1    0    0    0    0 -0.00000000000E+00 -0.00000000000E+00 -0.45593999997E+02  0.45594000000E+02  0.51100000000E-03 0. -1.
    9900012    2    1    2    0    0 -0.78643172029E+00  0.11327029696E+00  0.87270255061E+00  0.90007781905E+02  0.90000043826E+02 0.  0.
        -12    1    1    2    0    0  0.78643172029E+00 -0.11327029696E+00 -0.87270255061E+00  0.11802180954E+01  0.00000000000E+00 0.  1.
         11    1    3    3    0    0  0.21832893240E+01 -0.62747104824E+01  0.79608555259E+01  0.10368894101E+02  0.51100000000E-03 0. -1.
        -11    1    3    3    0    0  0.12368927967E+02 -0.57963616781E+01  0.32618421584E+02  0.35363110930E+02  0.51100000000E-03 0.  1.
         12    1    3    3    0    0 -0.15338649011E+02  0.12184342457E+02 -0.39706574559E+02  0.44275776874E+02  0.00000000000E+00 0. -1.
</event>
<event>
 7    1  0.3505640E-015  0.9000770E+02  0.7816164E-02  0.1186339E+00
        -11   -1    0    0    0    0  0.00000000000E+00  0.00000000000E+00  0.45593999997E+02  0.45594000000E+02  0.51100000000E-03 0.  1.
         11   -1    0    0    0    0 -0.00000000000E+00 -0.00000000000E+00 -0.45593999997E+02  0.45594000000E+02  0.51100000000E-03 0. -1.
    9900012    2    1    2    0    0 -0.29618769523E+00 -0.44692269246E+00 -0.10514950758E+01  0.90007699641E+02  0.89999960476E+02 0.  0.
        -12    1    1    2    0    0  0.29618769523E+00  0.44692269246E+00  0.10514950758E+01  0.11803003594E+01  0.00000000000E+00 0.  1.
         11    1    3    3    0    0  0.38616083951E+02  0.51573637168E+01  0.40404087079E+01  0.39167910884E+02  0.51100000000E-03 0. -1.
        -11    1    3    3    0    0  0.31137367684E+01 -0.77903922723E+01 -0.21132869624E+01  0.86516790547E+01  0.51100000000E-03 0.  1.
        -12    1    3    3    0    0 -0.42026008414E+02  0.21861058630E+01 -0.29786168214E+01  0.42188109702E+02  0.00000000000E+00 0.  1.
</event>
<event>
 7    1  0.3505640E-015  0.9000768E+02  0.7816164E-02  0.1186339E+00
        -11   -1    0    0    0    0  0.00000000000E+00  0.00000000000E+00  0.45593999997E+02  0.45594000000E+02  0.51100000000E-03 0.  1.
         11   -1    0    0    0    0 -0.00000000000E+00 -0.00000000000E+00 -0.45593999997E+02  0.45594000000E+02  0.51100000000E-03 0. -1.
    9900012    2    1    2    0    0  0.65477909981E+00 -0.65602777106E+00 -0.73078516678E+00  0.90007680100E+02  0.89999940677E+02 0.  0.
        -12    1    1    2    0    0 -0.65477909981E+00  0.65602777106E+00  0.73078516678E+00  0.11803198998E+01  0.00000000000E+00 0.  1.
         11    1    3    3    0    0 -0.30124405557E+02 -0.22075213085E+02 -0.11239523683E+02  0.39001560684E+02  0.51100000000E-03 0. -1.
        -11    1    3    3    0    0 -0.25649570753E+01 -0.46671117662E+01  0.66139210316E+01  0.84914597514E+01  0.51100000000E-03 0.  1.
        -12    1    3    3    0    0  0.33344141732E+02  0.26086297080E+02  0.38948174846E+01  0.42514659665E+02  0.00000000000E+00 0.  1.
</event>
<event>
 7    1  0.3505640E-015  0.9000770E+02  0.7816164E-02  0.1186339E+00
        -11   -1    0    0    0    0  0.00000000000E+00  0.00000000000E+00  0.45593999997E+02  0.45594000000E+02  0.51100000000E-03 0. -1.
         11   -1    0    0    0    0 -0.00000000000E+00 -0.00000000000E+00 -0.45593999997E+02  0.45594000000E+02  0.51100000000E-03 0.  1.
    9900012    2    1    2    0    0 -0.57684184412E+00 -0.75950227595E+00  0.69535789524E+00  0.90007697995E+02  0.89999958809E+02 0.  0.
        -12    1    1    2    0    0  0.57684184412E+00  0.75950227595E+00 -0.69535789524E+00  0.11803020049E+01  0.00000000000E+00 0.  1.
         11    1    3    3    0    0  0.98940943489E+01 -0.33257592350E+02  0.72429094928E+01  0.35446019383E+02  0.51100000000E-03 0. -1.
        -11    1    3    3    0    0 -0.41746355567E+00 -0.98829108811E+01  0.22035033752E+01  0.10134181303E+02  0.51100000000E-03 0.  1.
        -12    1    3    3    0    0 -0.10053472637E+02  0.42381000955E+02 -0.87510549728E+01  0.44427497309E+02  0.00000000000E+00 0.  1.
</event>
<event>
 7    1  0.3505640E-015  0.9000770E+02  0.7816164E-02  0.1186339E+00
        -11   -1    0    0    0    0  0.00000000000E+00  0.00000000000E+00  0.45593999997E+02  0.45594000000E+02  0.51100000000E-03 0.  1.
         11   -1    0    0    0    0 -0.00000000000E+00 -0.00000000000E+00 -0.45593999997E+02  0.45594000000E+02  0.51100000000E-03 0. -1.
    9900012    2    1    2    0    0 -0.21064624850E+00  0.56132168902E+00 -0.10166907845E+01  0.90007697483E+02  0.89999958290E+02 0.  0.
        -12    1    1    2    0    0  0.21064624850E+00 -0.56132168902E+00  0.10166907845E+01  0.11803025171E+01  0.00000000000E+00 0.  1.
         11    1    3    3    0    0  0.76897889498E+01  0.15583377930E+01 -0.53828674208E+01  0.95150687176E+01  0.51100000000E-03 0. -1.
        -11    1    3    3    0    0  0.35880925134E+02 -0.12954329386E+01  0.71982050859E+01  0.36618753278E+02  0.51100000000E-03 0.  1.
         12    1    3    3    0    0 -0.43781360332E+02  0.29841683468E+00 -0.28320284496E+01  0.43873875487E+02  0.00000000000E+00 0. -1.
</event>
<event>
 7    1  0.3505640E-015  0.9000766E+02  0.7816164E-02  0.1186339E+00
        -11   -1    0    0    0    0  0.00000000000E+00  0.00000000000E+00  0.45593999997E+02  0.45594000000E+02  0.51100000000E-03 0.  1.
         11   -1    0    0    0    0 -0.00000000000E+00 -0.00000000000E+00 -0.45593999997E+02  0.45594000000E+02  0.51100000000E-03 0. -1.
    9900012    2    1    2    0    0 -0.22304669155E+00 -0.60324862348E+00 -0.98971356181E+00  0.90007664597E+02  0.89999924970E+02 0.  0.
        -12    1    1    2    0    0  0.22304669155E+00  0.60324862348E+00  0.98971356181E+00  0.11803354027E+01  0.00000000000E+00 0.  1.
         11    1    3    3    0    0 -0.31458346281E+02 -0.75455249145E+01  0.16254321745E+02  0.36204495199E+02  0.51100000000E-03 0. -1.
        -11    1    3    3    0    0 -0.62367027839E+01 -0.31725251198E+01  0.54258878987E+01  0.88544698882E+01  0.51100000000E-03 0.  1.
        -12    1    3    3    0    0  0.37472002374E+02  0.10114801411E+02 -0.22669923205E+02  0.44948699510E+02  0.00000000000E+00 0.  1.
</event>
<event>
 7    1  0.3505640E-015  0.9000767E+02  0.7816164E-02  0.1186339E+00
        -11   -1    0    0    0    0  0.00000000000E+00  0.00000000000E+00  0.45593999997E+02  0.45594000000E+02  0.51100000000E-03 0. -1.
         11   -1    0    0    0    0 -0.00000000000E+00 -0.00000000000E+00 -0.45593999997E+02  0.45594000000E+02  0.51100000000E-03 0.  1.
    9900012    2    1    2    0    0 -0.75797533513E+00  0.45760793129E+00  0.78054726747E+00  0.90007667138E+02  0.89999927545E+02 0.  0.
        -12    1    1    2    0    0  0.75797533513E+00 -0.45760793129E+00 -0.78054726747E+00  0.11803328616E+01  0.00000000000E+00 0.  1.
         11    1    3    3    0    0  0.30372502834E+01 -0.16117830893E+02 -0.67393559917E+00  0.16415344999E+02  0.51100000000E-03 0. -1.
        -11    1    3    3    0    0 -0.23257771628E+02  0.17160768059E+02 -0.26708073592E+02  0.39353997214E+02  0.51100000000E-03 0.  1.
         12    1    3    3    0    0  0.19462546009E+02 -0.58532923495E+00  0.28162556458E+02  0.34238324926E+02  0.00000000000E+00 0. -1.
</event>
<event>
 7    1  0.3505640E-015  0.9000770E+02  0.7816164E-02  0.1186339E+00
        -11   -1    0    0    0    0  0.00000000000E+00  0.00000000000E+00  0.45593999997E+02  0.45594000000E+02  0.51100000000E-03 0.  1.
         11   -1    0    0    0    0 -0.00000000000E+00 -0.00000000000E+00 -0.45593999997E+02  0.45594000000E+02  0.51100000000E-03 0. -1.
    9900012    2    1    2    0    0  0.10784951396E+01  0.62943066982E-01 -0.47538818450E+00  0.90007700241E+02  0.89999961084E+02 0.  0.
        -12    1    1    2    0    0 -0.10784951396E+01 -0.62943066982E-01  0.47538818450E+00  0.11802997593E+01  0.00000000000E+00 0.  1.
         11    1    3    3    0    0 -0.66033146212E+00 -0.12948284532E+02 -0.98562598778E+01  0.16286189517E+02  0.51100000000E-03 0. -1.
        -11    1    3    3    0    0 -0.10115970529E+02 -0.27857340414E+02 -0.19010927094E+01  0.29698121631E+02  0.51100000000E-03 0.  1.
         12    1    3    3    0    0  0.11854797130E+02  0.40868568013E+02  0.11281964403E+02  0.44023389092E+02  0.00000000000E+00 0. -1.
</event>
<event>
 7    1  0.3505640E-015  0.9000788E+02  0.7816164E-02  0.1186339E+00
        -11   -1    0    0    0    0  0.00000000000E+00  0.00000000000E+00  0.45593999997E+02  0.45594000000E+02  0.51100000000E-03 0.  1.
         11   -1    0    0    0    0 -0.00000000000E+00 -0.00000000000E+00 -0.45593999997E+02  0.45594000000E+02  0.51100000000E-03 0. -1.
    9900012    2    1    2    0    0 -0.91257575471E-01  0.10365768134E+01 -0.55665854215E+00  0.90007877901E+02  0.90000141090E+02 0.  0.
        -12    1    1    2    0    0  0.91257575471E-01 -0.10365768134E+01  0.55665854215E+00  0.11801220987E+01  0.00000000000E+00 0.  1.
         11    1    3    3    0    0 -0.13028777286E+02  0.33027804904E+02 -0.20100553685E+02  0.40799720502E+02  0.51100000000E-03 0. -1.
        -11    1    3    3    0    0 -0.29734024059E+01 -0.85494922266E+01 -0.61642414371E+01  0.10951384020E+02  0.51100000000E-03 0.  1.
        -12    1    3    3    0    0  0.15910922117E+02 -0.23441735864E+02  0.25708136580E+02  0.38256773379E+02  0.00000000000E+00 0.  1.
</event>
<event>
 7    1  0.3505640E-015  0.9000779E+02  0.7816164E-02  0.1186339E+00
        -11   -1    0    0    0    0  0.00000000000E+00  0.00000000000E+00  0.45593999997E+02  0.45594000000E+02  0.51100000000E-03 0.  1.
         11   -1    0    0    0    0 -0.00000000000E+00 -0.00000000000E+00 -0.45593999997E+02  0.45594000000E+02  0.51100000000E-03 0. -1.
    9900012    2    1    2    0    0 -0.48809328738E+00 -0.32737105393E-01 -0.10740530985E+01  0.90007789496E+02  0.90000051517E+02 0.  0.
        -12    1    1    2    0    0  0.48809328738E+00  0.32737105393E-01  0.10740530985E+01  0.11802105039E+01  0.00000000000E+00 0.  1.
         11    1    3    3    0    0  0.26642934476E+01 -0.29578595283E+01 -0.64135248455E+01  0.75485557406E+01  0.51100000000E-03 0. -1.
        -11    1    3    3    0    0  0.31388089815E+02 -0.21453845388E+02  0.11533830948E+02  0.39730453317E+02  0.51100000000E-03 0.  1.
         12    1    3    3    0    0 -0.34540476550E+02  0.24378967811E+02 -0.61943592006E+01  0.42728780438E+02  0.00000000000E+00 0. -1.
</event>
<event>
 7    1  0.3505640E-015  0.9000772E+02  0.7816164E-02  0.1186339E+00
        -11   -1    0    0    0    0  0.00000000000E+00  0.00000000000E+00  0.45593999997E+02  0.45594000000E+02  0.51100000000E-03 0.  1.
         11   -1    0    0    0    0 -0.00000000000E+00 -0.00000000000E+00 -0.45593999997E+02  0.45594000000E+02  0.51100000000E-03 0. -1.
    9900012    2    1    2    0    0  0.28269238139E+00 -0.62255513639E+00 -0.96206572602E+00  0.90007720227E+02  0.89999981334E+02 0.  0.
        -12    1    1    2    0    0 -0.28269238139E+00  0.62255513639E+00  0.96206572602E+00  0.11802797726E+01  0.00000000000E+00 0.  1.
         11    1    3    3    0    0  0.24378676969E+01  0.36499663509E+01  0.92814874234E+01  0.10267008441E+02  0.51100000000E-03 0. -1.
        -11    1    3    3    0    0 -0.20106484419E+02  0.26047401008E+02  0.15232736283E+02  0.36259813429E+02  0.51100000000E-03 0.  1.
         12    1    3    3    0    0  0.17951309104E+02 -0.30319922496E+02 -0.25476289433E+02  0.43480898357E+02  0.00000000000E+00 0. -1.
</event>
<event>
 7    1  0.3505640E-015  0.9000786E+02  0.7816164E-02  0.1186339E+00
        -11   -1    0    0    0    0  0.00000000000E+00  0.00000000000E+00  0.45593999997E+02  0.45594000000E+02  0.51100000000E-03 0.  1.
         11   -1    0    0    0    0 -0.00000000000E+00 -0.00000000000E+00 -0.45593999997E+02  0.45594000000E+02  0.51100000000E-03 0. -1.
    9900012    2    1    2    0    0 -0.67118562416E+00 -0.42850402680E+00 -0.87098754898E+00  0.90007862231E+02  0.90000125212E+02 0.  0.
        -12    1    1    2    0    0  0.67118562416E+00  0.42850402680E+00  0.87098754898E+00  0.11801377689E+01  0.00000000000E+00 0.  1.
         11    1    3    3    0    0 -0.86304055672E+00  0.85974994190E+01  0.17646141307E+00  0.86425097138E+01  0.51100000000E-03 0. -1.
        -11    1    3    3    0    0  0.20429757224E+02  0.22908536163E+02 -0.22349957521E+02  0.37969680152E+02  0.51100000000E-03 0.  1.
         12    1    3    3    0    0 -0.20237902292E+02 -0.31934539608E+02  0.21302508559E+02  0.43395672366E+02  0.00000000000E+00 0. -1.
</event>
<event>
 7    1  0.3505640E-015  0.9000760E+02  0.7816164E-02  0.1186339E+00
        -11   -1    0    0    0    0  0.00000000000E+00  0.00000000000E+00  0.45593999997E+02  0.45594000000E+02  0.51100000000E-03 0.  1.
         11   -1    0    0    0    0 -0.00000000000E+00 -0.00000000000E+00 -0.45593999997E+02  0.45594000000E+02  0.51100000000E-03 0. -1.
    9900012    2    1    2    0    0  0.47599627023E+00  0.54640699290E+00 -0.93177357918E+00  0.90007603857E+02  0.89999863428E+02 0.  0.
        -12    1    1    2    0    0 -0.47599627023E+00 -0.54640699290E+00  0.93177357918E+00  0.11803961428E+01  0.00000000000E+00 0.  1.
         11    1    3    3    0    0 -0.48354178561E+01 -0.20743187660E+02 -0.33504994777E+02  0.39701961859E+02  0.51100000000E-03 0. -1.
        -11    1    3    3    0    0 -0.32756113442E+01 -0.61707980300E+01  0.19226833214E+00  0.69889445110E+01  0.51100000000E-03 0.  1.
        -12    1    3    3    0    0  0.85870254706E+01  0.27460392683E+02  0.32380952866E+02  0.43316697488E+02  0.00000000000E+00 0.  1.
</event>
<event>
 7    1  0.3505640E-015  0.9000770E+02  0.7816164E-02  0.1186339E+00
        -11   -1    0    0    0    0  0.00000000000E+00  0.00000000000E+00  0.45593999997E+02  0.45594000000E+02  0.51100000000E-03 0. -1.
         11   -1    0    0    0    0 -0.00000000000E+00 -0.00000000000E+00 -0.45593999997E+02  0.45594000000E+02  0.51100000000E-03 0.  1.
    9900012    2    1    2    0    0  0.50148239442E+00  0.10541216828E+01 -0.17449318372E+00  0.90007701315E+02  0.89999962173E+02 0.  0.
        -12    1    1    2    0    0 -0.50148239442E+00 -0.10541216828E+01  0.17449318372E+00  0.11802986847E+01  0.00000000000E+00 0.  1.
         11    1    3    3    0    0 -0.15378631755E+01  0.67596872217E+01 -0.47174535030E+01  0.83852705559E+01  0.51100000000E-03 0. -1.
        -11    1    3    3    0    0 -0.69429983729E+01  0.15220711333E+02 -0.33408378680E+02  0.37363017091E+02  0.51100000000E-03 0.  1.
         12    1    3    3    0    0  0.89823439428E+01 -0.20926276872E+02  0.37951338999E+02  0.44259413668E+02  0.00000000000E+00 0. -1.
</event>
<event>
 7    1  0.3505640E-015  0.9000778E+02  0.7816164E-02  0.1186339E+00
        -11   -1    0    0    0    0  0.00000000000E+00  0.00000000000E+00  0.45593999997E+02  0.45594000000E+02  0.51100000000E-03 0.  1.
         11   -1    0    0    0    0 -0.00000000000E+00 -0.00000000000E+00 -0.45593999997E+02  0.45594000000E+02  0.51100000000E-03 0. -1.
    9900012    2    1    2    0    0  0.11318488788E+01  0.29479495820E+00  0.15790074928E+00  0.90007780275E+02  0.90000042175E+02 0.  0.
        -12    1    1    2    0    0 -0.11318488788E+01 -0.29479495820E+00 -0.15790074928E+00  0.11802197246E+01  0.00000000000E+00 0.  1.
         11    1    3    3    0    0 -0.26669174807E+02 -0.24840188334E+02 -0.22717593675E+01  0.36516307758E+02  0.51100000000E-03 0. -1.
        -11    1    3    3    0    0 -0.81905488394E+01 -0.19065247250E+01  0.73164879329E+00  0.84412817175E+01  0.51100000000E-03 0.  1.
        -12    1    3    3    0    0  0.35991572525E+02  0.27041508017E+02  0.16980113235E+01  0.45050190800E+02  0.00000000000E+00 0.  1.
</event>
<event>
 7    1  0.3652625E-015  0.9000775E+02  0.7816164E-02  0.1186339E+00
        -11   -1    0    0    0    0  0.00000000000E+00  0.00000000000E+00  0.45593999997E+02  0.45594000000E+02  0.51100000000E-03 0.  1.
         11   -1    0    0    0    0 -0.00000000000E+00 -0.00000000000E+00 -0.45593999997E+02  0.45594000000E+02  0.51100000000E-03 0. -1.
    9900012    2    1    2    0    0  0.25994046734E+00  0.11079604412E+01  0.31281418375E+00  0.90007746595E+02  0.90000008050E+02 0.  0.
        -12    1    1    2    0    0 -0.25994046734E+00 -0.11079604412E+01 -0.31281418375E+00  0.11802534047E+01  0.00000000000E+00 0.  1.
         11    1    3    3    0    0  0.51712043072E+01 -0.84106636407E+01  0.62230289509E-01  0.98734234049E+01  0.51100000000E-03 0. -1.
        -11    1    3    3    0    0 -0.21277750328E+02 -0.30331345019E+02 -0.26125485367E+00  0.37051334713E+02  0.51100000000E-03 0.  1.
         12    1    3    3    0    0  0.16366486488E+02  0.39849969100E+02  0.51183874792E+00  0.43082988478E+02  0.00000000000E+00 0. -1.
</event>
<event>
 7    1  0.3505640E-015  0.9000774E+02  0.7816164E-02  0.1186339E+00
        -11   -1    0    0    0    0  0.00000000000E+00  0.00000000000E+00  0.45593999997E+02  0.45594000000E+02  0.51100000000E-03 0.  1.
         11   -1    0    0    0    0 -0.00000000000E+00 -0.00000000000E+00 -0.45593999997E+02  0.45594000000E+02  0.51100000000E-03 0. -1.
    9900012    2    1    2    0    0  0.84566441699E+00 -0.74373762249E+00 -0.35314254741E+00  0.90007744258E+02  0.90000005682E+02 0.  0.
        -12    1    1    2    0    0 -0.84566441699E+00  0.74373762249E+00  0.35314254741E+00  0.11802557418E+01  0.00000000000E+00 0.  1.
         11    1    3    3    0    0  0.77716067903E+01  0.14069054597E+01  0.45607750528E+01  0.91201932227E+01  0.51100000000E-03 0. -1.
        -11    1    3    3    0    0 -0.16504945439E+02 -0.36543443665E+01  0.35503885171E+02  0.39322936299E+02  0.51100000000E-03 0.  1.
         12    1    3    3    0    0  0.95790030662E+01  0.15037012844E+01 -0.40417802771E+02  0.41564614736E+02  0.00000000000E+00 0. -1.
</event>
<event>
 7    1  0.3505640E-015  0.9000776E+02  0.7816164E-02  0.1186339E+00
        -11   -1    0    0    0    0  0.00000000000E+00  0.00000000000E+00  0.45593999997E+02  0.45594000000E+02  0.51100000000E-03 0.  1.
         11   -1    0    0    0    0 -0.00000000000E+00 -0.00000000000E+00 -0.45593999997E+02  0.45594000000E+02  0.51100000000E-03 0. -1.
    9900012    2    1    2    0    0 -0.70270145586E+00  0.88492577252E+00 -0.34072648898E+00  0.90007755322E+02  0.90000016893E+02 0.  0.
        -12    1    1    2    0    0  0.70270145586E+00 -0.88492577252E+00  0.34072648898E+00  0.11802446777E+01  0.00000000000E+00 0.  1.
         11    1    3    3    0    0 -0.80196761977E+01 -0.71061443558E+01 -0.35582415814E+01  0.11290419715E+02  0.51100000000E-03 0. -1.
        -11    1    3    3    0    0 -0.83937579191E+01 -0.11883477346E+02  0.35099455918E+02  0.37995315657E+02  0.51100000000E-03 0.  1.
         12    1    3    3    0    0  0.15710732661E+02  0.19874547475E+02 -0.31881940826E+02  0.40722019951E+02  0.00000000000E+00 0. -1.
</event>
<event>
 7    1  0.3505640E-015  0.9000768E+02  0.7816164E-02  0.1186339E+00
        -11   -1    0    0    0    0  0.00000000000E+00  0.00000000000E+00  0.45593999997E+02  0.45594000000E+02  0.51100000000E-03 0. -1.
         11   -1    0    0    0    0 -0.00000000000E+00 -0.00000000000E+00 -0.45593999997E+02  0.45594000000E+02  0.51100000000E-03 0.  1.
    9900012    2    1    2    0    0 -0.50311766107E-01 -0.11594867781E+01  0.21499572106E+00  0.90007676306E+02  0.89999936833E+02 0.  0.
        -12    1    1    2    0    0  0.50311766107E-01  0.11594867781E+01 -0.21499572106E+00  0.11803236940E+01  0.00000000000E+00 0.  1.
         11    1    3    3    0    0 -0.26646973183E+00  0.26351151181E+02  0.23880520335E+02  0.35563090788E+02  0.51100000000E-03 0. -1.
        -11    1    3    3    0    0  0.87071778507E+01  0.29602478205E+01  0.60792208563E+01  0.11024288628E+02  0.51100000000E-03 0.  1.
        -12    1    3    3    0    0 -0.84910198850E+01 -0.30470885779E+02 -0.29744745470E+02  0.43420296889E+02  0.00000000000E+00 0.  1.
</event>
<event>
 7    1  0.3505640E-015  0.9000779E+02  0.7816164E-02  0.1186339E+00
        -11   -1    0    0    0    0  0.00000000000E+00  0.00000000000E+00  0.45593999997E+02  0.45594000000E+02  0.51100000000E-03 0. -1.
         11   -1    0    0    0    0 -0.00000000000E+00 -0.00000000000E+00 -0.45593999997E+02  0.45594000000E+02  0.51100000000E-03 0.  1.
    9900012    2    1    2    0    0  0.71935907739E+00 -0.93541510996E+00  0.20203290399E-01  0.90007793627E+02  0.90000055703E+02 0.  0.
        -12    1    1    2    0    0 -0.71935907739E+00  0.93541510996E+00 -0.20203290399E-01  0.11802063731E+01  0.00000000000E+00 0.  1.
         11    1    3    3    0    0 -0.40776616128E+01 -0.99686748512E+01  0.13605266551E+01  0.10856004585E+02  0.51100000000E-03 0. -1.
        -11    1    3    3    0    0  0.25990239514E+02 -0.26853363599E+02 -0.25389071104E+01  0.37457198723E+02  0.51100000000E-03 0.  1.
         12    1    3    3    0    0 -0.21193218824E+02  0.35886623340E+02  0.11985837457E+01  0.41694590319E+02  0.00000000000E+00 0. -1.
</event>
<event>
 7    1  0.3505640E-015  0.9000764E+02  0.7816164E-02  0.1186339E+00
        -11   -1    0    0    0    0  0.00000000000E+00  0.00000000000E+00  0.45593999997E+02  0.45594000000E+02  0.51100000000E-03 0.  1.
         11   -1    0    0    0    0 -0.00000000000E+00 -0.00000000000E+00 -0.45593999997E+02  0.45594000000E+02  0.51100000000E-03 0. -1.
    9900012    2    1    2    0    0  0.11310995963E+01 -0.64157212810E-01 -0.33127811264E+00  0.90007640888E+02  0.89999900948E+02 0.  0.
        -12    1    1    2    0    0 -0.11310995963E+01  0.64157212810E-01  0.33127811264E+00  0.11803591117E+01  0.00000000000E+00 0.  1.
         11    1    3    3    0    0 -0.11093594750E+02  0.57723551485E+01 -0.36058689661E+02  0.38165652474E+02  0.51100000000E-03 0. -1.
        -11    1    3    3    0    0 -0.90878112837E+01  0.13155457391E+01 -0.51125368475E+00  0.91967578587E+01  0.51100000000E-03 0.  1.
        -12    1    3    3    0    0  0.21312505630E+02 -0.71520581005E+01  0.36238665233E+02  0.42645230556E+02  0.00000000000E+00 0.  1.
</event>
<event>
 7    1  0.3505640E-015  0.9000778E+02  0.7816164E-02  0.1186339E+00
        -11   -1    0    0    0    0  0.00000000000E+00  0.00000000000E+00  0.45593999997E+02  0.45594000000E+02  0.51100000000E-03 0. -1.
         11   -1    0    0    0    0 -0.00000000000E+00 -0.00000000000E+00 -0.45593999997E+02  0.45594000000E+02  0.51100000000E-03 0.  1.
    9900012    2    1    2    0    0  0.45123983475E-01 -0.11787453408E+01 -0.38064669247E-01  0.90007777279E+02  0.90000039139E+02 0.  0.
        -12    1    1    2    0    0 -0.45123983475E-01  0.11787453408E+01  0.38064669247E-01  0.11802227211E+01  0.00000000000E+00 0.  1.
         11    1    3    3    0    0  0.24549220288E+01  0.27995533771E+01  0.62127985164E+01  0.72431351600E+01  0.51100000000E-03 0. -1.
        -11    1    3    3    0    0 -0.39483684597E+02  0.12403691371E+02 -0.81798874136E+01  0.42186768866E+02  0.51100000000E-03 0.  1.
         12    1    3    3    0    0  0.37073886551E+02 -0.16381990089E+02  0.19290242279E+01  0.40577873253E+02  0.00000000000E+00 0. -1.
</event>
<event>
 7    1  0.3505640E-015  0.9000774E+02  0.7816164E-02  0.1186339E+00
        -11   -1    0    0    0    0  0.00000000000E+00  0.00000000000E+00  0.45593999997E+02  0.45594000000E+02  0.51100000000E-03 0. -1.
         11   -1    0    0    0    0 -0.00000000000E+00 -0.00000000000E+00 -0.45593999997E+02  0.45594000000E+02  0.51100000000E-03 0.  1.
    9900012    2    1    2    0    0 -0.22314693889E+00  0.70550372333E+00  0.91950212396E+00  0.90007739768E+02  0.90000001133E+02 0.  0.
        -12    1    1    2    0    0  0.22314693889E+00 -0.70550372333E+00 -0.91950212396E+00  0.11802602323E+01  0.00000000000E+00 0.  1.
         11    1    3    3    0    0 -0.22785479925E+02  0.31724278864E+02  0.10231580420E+02  0.40376889466E+02  0.51100000000E-03 0. -1.
        -11    1    3    3    0    0 -0.59834520850E+01 -0.54026387025E+01  0.40421188353E+01  0.90182553048E+01  0.51100000000E-03 0.  1.
        -12    1    3    3    0    0  0.28545785071E+02 -0.25616136438E+02 -0.13354197132E+02  0.40612594996E+02  0.00000000000E+00 0.  1.
</event>
<event>
 7    1  0.3878994E-015  0.9000782E+02  0.7816164E-02  0.1186339E+00
        -11   -1    0    0    0    0  0.00000000000E+00  0.00000000000E+00  0.45593999997E+02  0.45594000000E+02  0.51100000000E-03 0.  1.
         11   -1    0    0    0    0 -0.00000000000E+00 -0.00000000000E+00 -0.45593999997E+02  0.45594000000E+02  0.51100000000E-03 0. -1.
    9900012    2    1    2    0    0  0.41044367010E+00 -0.75791103980E+00 -0.80618586812E+00  0.90007818317E+02  0.90000080719E+02 0.  0.
        -12    1    1    2    0    0 -0.41044367010E+00  0.75791103980E+00  0.80618586812E+00  0.11801816828E+01  0.00000000000E+00 0.  1.
         11    1    3    3    0    0  0.25173127105E+01 -0.89139479927E+01  0.56604307512E+00  0.92798565249E+01  0.51100000000E-03 0. -1.
        -11    1    3    3    0    0  0.15387602631E+02 -0.11841278676E+02  0.32390566356E+02  0.37764308342E+02  0.51100000000E-03 0.  1.
         12    1    3    3    0    0 -0.17494471671E+02  0.19997315629E+02 -0.33762795299E+02  0.42963653451E+02  0.00000000000E+00 0. -1.
</event>
<event>
 7    1  0.3505640E-015  0.9000774E+02  0.7816164E-02  0.1186339E+00
        -11   -1    0    0    0    0  0.00000000000E+00  0.00000000000E+00  0.45593999997E+02  0.45594000000E+02  0.51100000000E-03 0. -1.
         11   -1    0    0    0    0 -0.00000000000E+00 -0.00000000000E+00 -0.45593999997E+02  0.45594000000E+02  0.51100000000E-03 0.  1.
    9900012    2    1    2    0    0 -0.11749421022E+01  0.83919219448E-01 -0.74048503441E-01  0.90007739622E+02  0.90000000985E+02 0.  0.
        -12    1    1    2    0    0  0.11749421022E+01 -0.83919219448E-01  0.74048503441E-01  0.11802603780E+01  0.00000000000E+00 0.  1.
         11    1    3    3    0    0  0.39808732797E+02  0.49596052922E+01 -0.27019918714E+01  0.40207383052E+02  0.51100000000E-03 0. -1.
        -11    1    3    3    0    0 -0.12504534575E+01 -0.82205250806E+01  0.52611654469E+01  0.98397423020E+01  0.51100000000E-03 0.  1.
        -12    1    3    3    0    0 -0.39733221442E+02  0.33448390078E+01 -0.26332220790E+01  0.39960614268E+02  0.00000000000E+00 0.  1.
</event>
<event>
 7    1  0.3505640E-015  0.9000775E+02  0.7816164E-02  0.1186339E+00
        -11   -1    0    0    0    0  0.00000000000E+00  0.00000000000E+00  0.45593999997E+02  0.45594000000E+02  0.51100000000E-03 0.  1.
         11   -1    0    0    0    0 -0.00000000000E+00 -0.00000000000E+00 -0.45593999997E+02  0.45594000000E+02  0.51100000000E-03 0. -1.
    9900012    2    1    2    0    0  0.92637120547E+00  0.62134182386E+00 -0.38568321669E+00  0.90007753917E+02  0.90000015469E+02 0.  0.
        -12    1    1    2    0    0 -0.92637120547E+00 -0.62134182386E+00  0.38568321669E+00  0.11802460828E+01  0.00000000000E+00 0.  1.
         11    1    3    3    0    0 -0.24945220640E+02 -0.25850935752E+02 -0.16078007983E+02  0.39357810571E+02  0.51100000000E-03 0. -1.
        -11    1    3    3    0    0  0.27706858678E+01  0.20131812912E+02 -0.26299410157E+01  0.20491051249E+02  0.51100000000E-03 0.  1.
        -12    1    3    3    0    0  0.23100905977E+02  0.63404646639E+01  0.18322265782E+02  0.30158892097E+02  0.00000000000E+00 0.  1.
</event>
<event>
 7    1  0.3505640E-015  0.9000762E+02  0.7816164E-02  0.1186339E+00
        -11   -1    0    0    0    0  0.00000000000E+00  0.00000000000E+00  0.45593999997E+02  0.45594000000E+02  0.51100000000E-03 0. -1.
         11   -1    0    0    0    0 -0.00000000000E+00 -0.00000000000E+00 -0.45593999997E+02  0.45594000000E+02  0.51100000000E-03 0.  1.
    9900012    2    1    2    0    0  0.63928089810E+00 -0.83656252645E+00 -0.53365670082E+00  0.90007615994E+02  0.89999875725E+02 0.  0.
        -12    1    1    2    0    0 -0.63928089810E+00  0.83656252645E+00  0.53365670082E+00  0.11803840060E+01  0.00000000000E+00 0.  1.
         11    1    3    3    0    0 -0.42133299335E+00  0.20500769275E+02  0.33345028262E+02  0.39145242015E+02  0.51100000000E-03 0. -1.
        -11    1    3    3    0    0  0.26893076711E+01  0.57162746018E+01  0.13045147433E+01  0.64505759471E+01  0.51100000000E-03 0.  1.
        -12    1    3    3    0    0 -0.16286937797E+01 -0.27053606403E+02 -0.35183199706E+02  0.44411798032E+02  0.00000000000E+00 0.  1.
</event>
<event>
 7    1  0.3505640E-015  0.9000770E+02  0.7816164E-02  0.1186339E+00
        -11   -1    0    0    0    0  0.00000000000E+00  0.00000000000E+00  0.45593999997E+02  0.45594000000E+02  0.51100000000E-03 0. -1.
         11   -1    0    0    0    0 -0.00000000000E+00 -0.00000000000E+00 -0.45593999997E+02  0.45594000000E+02  0.51100000000E-03 0.  1.
    9900012    2    1    2    0    0  0.42567659066E+00 -0.10215823316E+01 -0.41020990419E+00  0.90007702078E+02  0.89999962945E+02 0.  0.
        -12    1    1    2    0    0 -0.42567659066E+00  0.10215823316E+01  0.41020990419E+00  0.11802979224E+01  0.00000000000E+00 0.  1.
         11    1    3    3    0    0  0.27325809756E+02  0.91116693384E+01  0.25451233015E+02  0.38438101660E+02  0.51100000000E-03 0. -1.
        -11    1    3    3    0    0  0.73150056692E+01  0.28982205705E+01 -0.61595415811E+01  0.99924443039E+01  0.51100000000E-03 0.  1.
        -12    1    3    3    0    0 -0.34215138835E+02 -0.13031472240E+02 -0.19701901338E+02  0.41577156114E+02  0.00000000000E+00 0.  1.
</event>
<event>
 7    1  0.3505640E-015  0.9000776E+02  0.7816164E-02  0.1186339E+00
        -11   -1    0    0    0    0  0.00000000000E+00  0.00000000000E+00  0.45593999997E+02  0.45594000000E+02  0.51100000000E-03 0. -1.
         11   -1    0    0    0    0 -0.00000000000E+00 -0.00000000000E+00 -0.45593999997E+02  0.45594000000E+02  0.51100000000E-03 0.  1.
    9900012    2    1    2    0    0  0.25034001751E+00  0.25269423636E+00  0.11253679267E+01  0.90007755334E+02  0.90000016904E+02 0.  0.
        -12    1    1    2    0    0 -0.25034001751E+00 -0.25269423636E+00 -0.11253679267E+01  0.11802446661E+01  0.00000000000E+00 0.  1.
         11    1    3    3    0    0 -0.25476374921E+02  0.17704697838E+01  0.23688482077E+02  0.34832806745E+02  0.51100000000E-03 0. -1.
        -11    1    3    3    0    0 -0.83449694667E+01 -0.37855398221E+01  0.57487953472E+01  0.10817461595E+02  0.51100000000E-03 0.  1.
        -12    1    3    3    0    0  0.34071684405E+02  0.22677642746E+01 -0.28311909498E+02  0.44357486994E+02  0.00000000000E+00 0.  1.
</event>
<event>
 7    1  0.3505640E-015  0.9000775E+02  0.7816164E-02  0.1186339E+00
        -11   -1    0    0    0    0  0.00000000000E+00  0.00000000000E+00  0.45593999997E+02  0.45594000000E+02  0.51100000000E-03 0. -1.
         11   -1    0    0    0    0 -0.00000000000E+00 -0.00000000000E+00 -0.45593999997E+02  0.45594000000E+02  0.51100000000E-03 0.  1.
    9900012    2    1    2    0    0  0.48777355178E+00  0.41369752764E+00  0.99192633520E+00  0.90007751494E+02  0.90000013013E+02 0.  0.
        -12    1    1    2    0    0 -0.48777355178E+00 -0.41369752764E+00 -0.99192633520E+00  0.11802485063E+01  0.00000000000E+00 0.  1.
         11    1    3    3    0    0 -0.52749300075E+01  0.32087595716E+02 -0.24103118613E+02  0.40477141852E+02  0.51100000000E-03 0. -1.
        -11    1    3    3    0    0 -0.89939797020E+01 -0.19682116962E+01  0.30292944172E+01  0.96923760291E+01  0.51100000000E-03 0.  1.
        -12    1    3    3    0    0  0.14756683261E+02 -0.29705686492E+02  0.22065750531E+02  0.39838233612E+02  0.00000000000E+00 0.  1.
</event>
<event>
 7    1  0.3505640E-015  0.9000771E+02  0.7816164E-02  0.1186339E+00
        -11   -1    0    0    0    0  0.00000000000E+00  0.00000000000E+00  0.45593999997E+02  0.45594000000E+02  0.51100000000E-03 0.  1.
         11   -1    0    0    0    0 -0.00000000000E+00 -0.00000000000E+00 -0.45593999997E+02  0.45594000000E+02  0.51100000000E-03 0. -1.
    9900012    2    1    2    0    0  0.11522824378E+01  0.25275000063E+00 -0.38102251743E-01  0.90007708019E+02  0.89999968965E+02 0.  0.
        -12    1    1    2    0    0 -0.11522824378E+01 -0.25275000063E+00  0.38102251743E-01  0.11802919812E+01  0.00000000000E+00 0.  1.
         11    1    3    3    0    0 -0.51303778479E+01  0.82363861361E+01 -0.52045874282E+01  0.11011201751E+02  0.51100000000E-03 0. -1.
        -11    1    3    3    0    0 -0.24015783292E+02 -0.12874099551E+01  0.30568544183E+02  0.38895387455E+02  0.51100000000E-03 0.  1.
         12    1    3    3    0    0  0.30298443577E+02 -0.66962261804E+01 -0.25402059007E+02  0.40101118813E+02  0.00000000000E+00 0. -1.
</event>
<event>
 7    1  0.3505640E-015  0.9000773E+02  0.7816164E-02  0.1186339E+00
        -11   -1    0    0    0    0  0.00000000000E+00  0.00000000000E+00  0.45593999997E+02  0.45594000000E+02  0.51100000000E-03 0.  1.
         11   -1    0    0    0    0 -0.00000000000E+00 -0.00000000000E+00 -0.45593999997E+02  0.45594000000E+02  0.51100000000E-03 0. -1.
    9900012    2    1    2    0    0  0.59053355403E+00  0.70113091110E+00 -0.74345563475E+00  0.90007728542E+02  0.89999989759E+02 0.  0.
        -12    1    1    2    0    0 -0.59053355403E+00 -0.70113091110E+00  0.74345563475E+00  0.11802714577E+01  0.00000000000E+00 0.  1.
         11    1    3    3    0    0 -0.10827566500E+02 -0.32937828726E+02 -0.18293911254E+02  0.39202091101E+02  0.51100000000E-03 0. -1.
        -11    1    3    3    0    0 -0.53446131022E+01 -0.38599446102E+01  0.27945399664E+01  0.71605527365E+01  0.51100000000E-03 0.  1.
        -12    1    3    3    0    0  0.16762713157E+02  0.37498904247E+02  0.14755915652E+02  0.43645084705E+02  0.00000000000E+00 0.  1.
</event>
<event>
 7    1  0.3505640E-015  0.9000773E+02  0.7816164E-02  0.1186339E+00
        -11   -1    0    0    0    0  0.00000000000E+00  0.00000000000E+00  0.45593999997E+02  0.45594000000E+02  0.51100000000E-03 0.  1.
         11   -1    0    0    0    0 -0.00000000000E+00 -0.00000000000E+00 -0.45593999997E+02  0.45594000000E+02  0.51100000000E-03 0. -1.
    9900012    2    1    2    0    0 -0.89018960133E+00  0.33025011237E+00 -0.70109994067E+00  0.90007727239E+02  0.89999988439E+02 0.  0.
        -12    1    1    2    0    0  0.89018960133E+00 -0.33025011237E+00  0.70109994067E+00  0.11802727608E+01  0.00000000000E+00 0.  1.
         11    1    3    3    0    0  0.27256559835E+01 -0.30225774997E+02  0.18667680110E+02  0.35630169178E+02  0.51100000000E-03 0. -1.
        -11    1    3    3    0    0  0.52066661609E-01 -0.68205448584E+01  0.59769433837E+01  0.90689798531E+01  0.51100000000E-03 0.  1.
        -12    1    3    3    0    0 -0.36679122465E+01  0.37376569968E+02 -0.25345723434E+02  0.45308578208E+02  0.00000000000E+00 0.  1.
</event>
<event>
 7    1  0.3505640E-015  0.9000772E+02  0.7816164E-02  0.1186339E+00
        -11   -1    0    0    0    0  0.00000000000E+00  0.00000000000E+00  0.45593999997E+02  0.45594000000E+02  0.51100000000E-03 0.  1.
         11   -1    0    0    0    0 -0.00000000000E+00 -0.00000000000E+00 -0.45593999997E+02  0.45594000000E+02  0.51100000000E-03 0. -1.
    9900012    2    1    2    0    0  0.73917704076E+00 -0.91156587785E+00  0.12542180566E+00  0.90007717967E+02  0.89999979045E+02 0.  0.
        -12    1    1    2    0    0 -0.73917704076E+00  0.91156587785E+00 -0.12542180566E+00  0.11802820326E+01  0.00000000000E+00 0.  1.
         11    1    3    3    0    0  0.22814910981E+01  0.85312193775E+01  0.75727472983E+00  0.88634288498E+01  0.51100000000E-03 0. -1.
        -11    1    3    3    0    0  0.14038461516E+02  0.31035810605E+02 -0.12321133698E+02  0.36223062784E+02  0.51100000000E-03 0.  1.
         12    1    3    3    0    0 -0.15580775573E+02 -0.40478595860E+02  0.11689280774E+02  0.44921226333E+02  0.00000000000E+00 0. -1.
</event>
<event>
 7    1  0.3505640E-015  0.9000782E+02  0.7816164E-02  0.1186339E+00
        -11   -1    0    0    0    0  0.00000000000E+00  0.00000000000E+00  0.45593999997E+02  0.45594000000E+02  0.51100000000E-03 0.  1.
         11   -1    0    0    0    0 -0.00000000000E+00 -0.00000000000E+00 -0.45593999997E+02  0.45594000000E+02  0.51100000000E-03 0. -1.
    9900012    2    1    2    0    0  0.26958836416E+00 -0.83021927217E+00  0.79427460334E+00  0.90007824559E+02  0.90000087043E+02 0.  0.
        -12    1    1    2    0    0 -0.26958836416E+00  0.83021927217E+00 -0.79427460334E+00  0.11801754410E+01  0.00000000000E+00 0.  1.
         11    1    3    3    0    0  0.35824045733E+01 -0.52486806047E+00  0.26912451250E+01  0.45113090774E+01  0.51100000000E-03 0. -1.
        -11    1    3    3    0    0  0.40931055260E+02 -0.37082521786E+01 -0.12211047669E+01  0.41116827650E+02  0.51100000000E-03 0.  1.
         12    1    3    3    0    0 -0.44243871469E+02  0.34029009669E+01 -0.67586575478E+00  0.44379687832E+02  0.00000000000E+00 0. -1.
</event>
<event>
 7    1  0.3505640E-015  0.9000784E+02  0.7816164E-02  0.1186339E+00
        -11   -1    0    0    0    0  0.00000000000E+00  0.00000000000E+00  0.45593999997E+02  0.45594000000E+02  0.51100000000E-03 0.  1.
         11   -1    0    0    0    0 -0.00000000000E+00 -0.00000000000E+00 -0.45593999997E+02  0.45594000000E+02  0.51100000000E-03 0. -1.
    9900012    2    1    2    0    0 -0.15689034885E+00 -0.11395490976E+00 -0.11641215028E+01  0.90007839343E+02  0.90000102022E+02 0.  0.
        -12    1    1    2    0    0  0.15689034885E+00  0.11395490976E+00  0.11641215028E+01  0.11801606570E+01  0.00000000000E+00 0.  1.
         11    1    3    3    0    0 -0.68327812532E+01  0.26057966941E+01 -0.53823288002E+01  0.90800076894E+01  0.51100000000E-03 0. -1.
        -11    1    3    3    0    0 -0.91451988479E+01  0.18548427527E+02  0.34785082740E+02  0.40468269140E+02  0.51100000000E-03 0.  1.
         12    1    3    3    0    0  0.15821089752E+02 -0.21268179131E+02 -0.30566875443E+02  0.40459562514E+02  0.00000000000E+00 0. -1.
</event>
<event>
 7    1  0.3845799E-015  0.9000772E+02  0.7816164E-02  0.1186339E+00
        -11   -1    0    0    0    0  0.00000000000E+00  0.00000000000E+00  0.45593999997E+02  0.45594000000E+02  0.51100000000E-03 0.  1.
         11   -1    0    0    0    0 -0.00000000000E+00 -0.00000000000E+00 -0.45593999997E+02  0.45594000000E+02  0.51100000000E-03 0. -1.
    9900012    2    1    2    0    0 -0.89796663287E+00 -0.60313943590E+00 -0.47217486258E+00  0.90007715986E+02  0.89999977037E+02 0.  0.
        -12    1    1    2    0    0  0.89796663287E+00  0.60313943590E+00  0.47217486258E+00  0.11802840140E+01  0.00000000000E+00 0.  1.
         11    1    3    3    0    0 -0.36284291741E+01 -0.79103303050E+01  0.22864641535E+01  0.89981521654E+01  0.51100000000E-03 0. -1.
        -11    1    3    3    0    0  0.41655129271E+01 -0.35233405236E+01  0.38215974479E+02  0.38603447152E+02  0.51100000000E-03 0.  1.
         12    1    3    3    0    0 -0.14350503859E+01  0.10830531393E+02 -0.40974613495E+02  0.42406116669E+02  0.00000000000E+00 0. -1.
</event>
<event>
 7    1  0.3505640E-015  0.9000774E+02  0.7816164E-02  0.1186339E+00
        -11   -1    0    0    0    0  0.00000000000E+00  0.00000000000E+00  0.45593999997E+02  0.45594000000E+02  0.51100000000E-03 0. -1.
         11   -1    0    0    0    0 -0.00000000000E+00 -0.00000000000E+00 -0.45593999997E+02  0.45594000000E+02  0.51100000000E-03 0.  1.
    9900012    2    1    2    0    0 -0.83072670361E+00  0.72567143812E+00  0.41988780407E+00  0.90007740850E+02  0.90000002230E+02 0.  0.
        -12    1    1    2    0    0  0.83072670361E+00 -0.72567143812E+00 -0.41988780407E+00  0.11802591496E+01  0.00000000000E+00 0.  1.
         11    1    3    3    0    0 -0.57703302931E+01  0.13861325064E+01  0.78263150308E+01  0.98218777349E+01  0.51100000000E-03 0. -1.
        -11    1    3    3    0    0  0.22206226726E+02 -0.32854735771E+02  0.81417134411E+01  0.40482560023E+02  0.51100000000E-03 0.  1.
         12    1    3    3    0    0 -0.17266623137E+02  0.32194274703E+02 -0.15548140668E+02  0.39703303092E+02  0.00000000000E+00 0. -1.
</event>
<event>
 7    1  0.3505640E-015  0.9000787E+02  0.7816164E-02  0.1186339E+00
        -11   -1    0    0    0    0  0.00000000000E+00  0.00000000000E+00  0.45593999997E+02  0.45594000000E+02  0.51100000000E-03 0.  1.
         11   -1    0    0    0    0 -0.00000000000E+00 -0.00000000000E+00 -0.45593999997E+02  0.45594000000E+02  0.51100000000E-03 0. -1.
    9900012    2    1    2    0    0 -0.11761668881E+01  0.80620140694E-01  0.53172815972E-01  0.90007874793E+02  0.90000137940E+02 0.  0.
        -12    1    1    2    0    0  0.11761668881E+01 -0.80620140694E-01 -0.53172815972E-01  0.11801252070E+01  0.00000000000E+00 0.  1.
         11    1    3    3    0    0  0.57321565582E+00  0.91646754172E+01  0.21414381410E+00  0.91850808121E+01  0.51100000000E-03 0. -1.
        -11    1    3    3    0    0  0.11939383913E+02  0.23970571258E+02  0.25355521458E+02  0.36878715316E+02  0.51100000000E-03 0.  1.
         12    1    3    3    0    0 -0.13688766457E+02 -0.33054626534E+02 -0.25516492456E+02  0.43944078665E+02  0.00000000000E+00 0. -1.
</event>
<event>
 7    1  0.3505640E-015  0.9000777E+02  0.7816164E-02  0.1186339E+00
        -11   -1    0    0    0    0  0.00000000000E+00  0.00000000000E+00  0.45593999997E+02  0.45594000000E+02  0.51100000000E-03 0.  1.
         11   -1    0    0    0    0 -0.00000000000E+00 -0.00000000000E+00 -0.45593999997E+02  0.45594000000E+02  0.51100000000E-03 0. -1.
    9900012    2    1    2    0    0 -0.79640779656E+00 -0.46917230631E+00 -0.73386747277E+00  0.90007767184E+02  0.90000028911E+02 0.  0.
        -12    1    1    2    0    0  0.79640779656E+00  0.46917230631E+00  0.73386747277E+00  0.11802328156E+01  0.00000000000E+00 0.  1.
         11    1    3    3    0    0  0.37741448357E+02 -0.17574773087E+01  0.47357049823E+01  0.38077979890E+02  0.51100000000E-03 0. -1.
        -11    1    3    3    0    0  0.13221327541E+01 -0.13675428123E+00  0.93022891607E+01  0.93967718204E+01  0.51100000000E-03 0.  1.
        -12    1    3    3    0    0 -0.39859988908E+02  0.14250592836E+01 -0.14771861616E+02  0.42533015474E+02  0.00000000000E+00 0.  1.
</event>
<event>
 7    1  0.3505640E-015  0.9000781E+02  0.7816164E-02  0.1186339E+00
        -11   -1    0    0    0    0  0.00000000000E+00  0.00000000000E+00  0.45593999997E+02  0.45594000000E+02  0.51100000000E-03 0. -1.
         11   -1    0    0    0    0 -0.00000000000E+00 -0.00000000000E+00 -0.45593999997E+02  0.45594000000E+02  0.51100000000E-03 0.  1.
    9900012    2    1    2    0    0  0.83182539528E+00  0.75144873981E+00  0.36909273477E+00  0.90007814361E+02  0.90000076710E+02 0.  0.
        -12    1    1    2    0    0 -0.83182539528E+00 -0.75144873981E+00 -0.36909273477E+00  0.11801856395E+01  0.00000000000E+00 0.  1.
         11    1    3    3    0    0 -0.17547129044E+02  0.30794272473E+01  0.36854363772E+02  0.40934444410E+02  0.51100000000E-03 0. -1.
        -11    1    3    3    0    0  0.14972422652E+01 -0.91221264272E+01 -0.11342629563E+01  0.93135104912E+01  0.51100000000E-03 0.  1.
        -12    1    3    3    0    0  0.16881712174E+02  0.67941479198E+01 -0.35351008081E+02  0.39759859459E+02  0.00000000000E+00 0.  1.
</event>
<event>
 7    1  0.3505640E-015  0.9000768E+02  0.7816164E-02  0.1186339E+00
        -11   -1    0    0    0    0  0.00000000000E+00  0.00000000000E+00  0.45593999997E+02  0.45594000000E+02  0.51100000000E-03 0. -1.
         11   -1    0    0    0    0 -0.00000000000E+00 -0.00000000000E+00 -0.45593999997E+02  0.45594000000E+02  0.51100000000E-03 0.  1.
    9900012    2    1    2    0    0 -0.57200741683E+00  0.80388574822E+00  0.64785824381E+00  0.90007684328E+02  0.89999944961E+02 0.  0.
        -12    1    1    2    0    0  0.57200741683E+00 -0.80388574822E+00 -0.64785824381E+00  0.11803156718E+01  0.00000000000E+00 0.  1.
         11    1    3    3    0    0 -0.40500150360E+01  0.24613324350E+01 -0.34008431475E+01  0.58332249676E+01  0.51100000000E-03 0. -1.
        -11    1    3    3    0    0 -0.19611107857E+02  0.22440291489E+02 -0.25786139503E+02  0.39409227653E+02  0.51100000000E-03 0.  1.
         12    1    3    3    0    0  0.23089115476E+02 -0.24097738175E+02  0.29834840894E+02  0.44765231708E+02  0.00000000000E+00 0. -1.
</event>
<event>
 7    1  0.3505640E-015  0.9000782E+02  0.7816164E-02  0.1186339E+00
        -11   -1    0    0    0    0  0.00000000000E+00  0.00000000000E+00  0.45593999997E+02  0.45594000000E+02  0.51100000000E-03 0. -1.
         11   -1    0    0    0    0 -0.00000000000E+00 -0.00000000000E+00 -0.45593999997E+02  0.45594000000E+02  0.51100000000E-03 0.  1.
    9900012    2    1    2    0    0 -0.11735411525E+01  0.88041729173E-01 -0.88739907643E-01  0.90007819949E+02  0.90000082372E+02 0.  0.
        -12    1    1    2    0    0  0.11735411525E+01 -0.88041729173E-01  0.88739907643E-01  0.11801800515E+01  0.00000000000E+00 0.  1.
         11    1    3    3    0    0 -0.93628920382E+01 -0.32317375474E+02  0.24093564492E+02  0.41383285938E+02  0.51100000000E-03 0. -1.
        -11    1    3    3    0    0 -0.59492676268E+01  0.10867617360E+01  0.85569188121E+00  0.61079493467E+01  0.51100000000E-03 0.  1.
        -12    1    3    3    0    0  0.14138618512E+02  0.31318655467E+02 -0.25037996281E+02  0.42516584664E+02  0.00000000000E+00 0.  1.
</event>
<event>
 7    1  0.3505640E-015  0.9000772E+02  0.7816164E-02  0.1186339E+00
        -11   -1    0    0    0    0  0.00000000000E+00  0.00000000000E+00  0.45593999997E+02  0.45594000000E+02  0.51100000000E-03 0.  1.
         11   -1    0    0    0    0 -0.00000000000E+00 -0.00000000000E+00 -0.45593999997E+02  0.45594000000E+02  0.51100000000E-03 0. -1.
    9900012    2    1    2    0    0  0.89570458235E+00  0.32969267309E+00 -0.69431060427E+00  0.90007724112E+02  0.89999985270E+02 0.  0.
        -12    1    1    2    0    0 -0.89570458235E+00 -0.32969267309E+00  0.69431060427E+00  0.11802758884E+01  0.00000000000E+00 0.  1.
         11    1    3    3    0    0 -0.72009890630E+01  0.25077557199E+01  0.79752288984E+01  0.11033918546E+02  0.51100000000E-03 0. -1.
        -11    1    3    3    0    0  0.40314184083E+02  0.13504677134E+02 -0.22822481175E+01  0.42577205163E+02  0.51100000000E-03 0.  1.
         12    1    3    3    0    0 -0.32217490437E+02 -0.15682740181E+02 -0.63872913852E+01  0.36396600403E+02  0.00000000000E+00 0. -1.
</event>
<event>
 7    1  0.6306040E-015  0.9000775E+02  0.7816164E-02  0.1186339E+00
        -11   -1    0    0    0    0  0.00000000000E+00  0.00000000000E+00  0.45593999997E+02  0.45594000000E+02  0.51100000000E-03 0. -1.
         11   -1    0    0    0    0 -0.00000000000E+00 -0.00000000000E+00 -0.45593999997E+02  0.45594000000E+02  0.51100000000E-03 0.  1.
    9900012    2    1    2    0    0 -0.66895386767E+00 -0.76324251101E+00  0.60245108811E+00  0.90007751839E+02  0.90000013363E+02 0.  0.
        -12    1    1    2    0    0  0.66895386767E+00  0.76324251101E+00 -0.60245108811E+00  0.11802481609E+01  0.00000000000E+00 0.  1.
         11    1    3    3    0    0  0.39425172070E+01 -0.25389292371E+01 -0.81372649124E+01  0.93917348831E+01  0.51100000000E-03 0. -1.
        -11    1    3    3    0    0 -0.23515511521E+02  0.29300951270E+02 -0.14134297888E+02  0.40141043889E+02  0.51100000000E-03 0.  1.
         12    1    3    3    0    0  0.18904040447E+02 -0.27525264544E+02  0.22874013889E+02  0.40474973067E+02  0.00000000000E+00 0. -1.
</event>
<event>
 7    1  0.3505640E-015  0.9000777E+02  0.7816164E-02  0.1186339E+00
        -11   -1    0    0    0    0  0.00000000000E+00  0.00000000000E+00  0.45593999997E+02  0.45594000000E+02  0.51100000000E-03 0. -1.
         11   -1    0    0    0    0 -0.00000000000E+00 -0.00000000000E+00 -0.45593999997E+02  0.45594000000E+02  0.51100000000E-03 0.  1.
    9900012    2    1    2    0    0  0.26694549433E+00  0.93339259238E+00 -0.67116888752E+00  0.90007767267E+02  0.90000028995E+02 0.  0.
        -12    1    1    2    0    0 -0.26694549433E+00 -0.93339259238E+00  0.67116888752E+00  0.11802327330E+01  0.00000000000E+00 0.  1.
         11    1    3    3    0    0 -0.10479906748E+02  0.36426288796E+02  0.17046910787E+01  0.37942178810E+02  0.51100000000E-03 0. -1.
        -11    1    3    3    0    0  0.56079468398E+01  0.68462707543E+01 -0.31918491811E+01  0.94078899045E+01  0.51100000000E-03 0.  1.
        -12    1    3    3    0    0  0.51389054022E+01 -0.42339166958E+02  0.81598921485E+00  0.42657698553E+02  0.00000000000E+00 0.  1.
</event>
<event>
 7    1  0.3505640E-015  0.9000795E+02  0.7816164E-02  0.1186339E+00
        -11   -1    0    0    0    0  0.00000000000E+00  0.00000000000E+00  0.45593999997E+02  0.45594000000E+02  0.51100000000E-03 0.  1.
         11   -1    0    0    0    0 -0.00000000000E+00 -0.00000000000E+00 -0.45593999997E+02  0.45594000000E+02  0.51100000000E-03 0. -1.
    9900012    2    1    2    0    0  0.68529096982E+00 -0.95247215726E+00 -0.12530110919E+00  0.90007946064E+02  0.90000210152E+02 0.  0.
        -12    1    1    2    0    0 -0.68529096982E+00  0.95247215726E+00  0.12530110919E+00  0.11800539359E+01  0.00000000000E+00 0.  1.
         11    1    3    3    0    0  0.18007651283E+01  0.29580231384E+01 -0.50412494490E+01  0.61161141424E+01  0.51100000000E-03 0. -1.
        -11    1    3    3    0    0 -0.24076701886E+02  0.32154194060E+02  0.82517456912E+01  0.41008183044E+02  0.51100000000E-03 0.  1.
         12    1    3    3    0    0  0.22961227727E+02 -0.36064689356E+02 -0.33357973514E+01  0.42883648878E+02  0.00000000000E+00 0. -1.
</event>
<event>
 7    1  0.3505640E-015  0.9000772E+02  0.7816164E-02  0.1186339E+00
        -11   -1    0    0    0    0  0.00000000000E+00  0.00000000000E+00  0.45593999997E+02  0.45594000000E+02  0.51100000000E-03 0. -1.
         11   -1    0    0    0    0 -0.00000000000E+00 -0.00000000000E+00 -0.45593999997E+02  0.45594000000E+02  0.51100000000E-03 0.  1.
    9900012    2    1    2    0    0  0.79830316274E+00 -0.18234677718E+00  0.85001995090E+00  0.90007715202E+02  0.89999976243E+02 0.  0.
        -12    1    1    2    0    0 -0.79830316274E+00  0.18234677718E+00 -0.85001995090E+00  0.11802847977E+01  0.00000000000E+00 0.  1.
         11    1    3    3    0    0  0.53153998630E+01  0.22348677451E+02  0.30745235871E+02  0.38379504798E+02  0.51100000000E-03 0. -1.
        -11    1    3    3    0    0  0.69387916897E+00 -0.16759789217E+01  0.79227762414E+01  0.81277768965E+01  0.51100000000E-03 0.  1.
        -12    1    3    3    0    0 -0.52109758693E+01 -0.20855045306E+02 -0.37817992162E+02  0.43500433508E+02  0.00000000000E+00 0.  1.
</event>
<event>
 7    1  0.3709312E-015  0.9000736E+02  0.7816164E-02  0.1186340E+00
        -11   -1    0    0    0    0  0.00000000000E+00  0.00000000000E+00  0.45593999997E+02  0.45594000000E+02  0.51100000000E-03 0. -1.
         11   -1    0    0    0    0 -0.00000000000E+00 -0.00000000000E+00 -0.45593999997E+02  0.45594000000E+02  0.51100000000E-03 0.  1.
    9900012    2    1    2    0    0 -0.67045379154E+00  0.73201402690E+00 -0.63918123611E+00  0.90007362259E+02  0.89999618640E+02 0.  0.
        -12    1    1    2    0    0  0.67045379154E+00 -0.73201402690E+00  0.63918123611E+00  0.11806377407E+01  0.00000000000E+00 0.  1.
         11    1    3    3    0    0  0.70849908209E+01 -0.45825763363E+01  0.28900976558E+01  0.89190675258E+01  0.51100000000E-03 0. -1.
        -11    1    3    3    0    0  0.27722413894E+02  0.21774157266E+02  0.14381701442E+02  0.38072030329E+02  0.51100000000E-03 0.  1.
         12    1    3    3    0    0 -0.35477858506E+02 -0.16459566903E+02 -0.17910980334E+02  0.43016264405E+02  0.00000000000E+00 0. -1.
</event>
<event>
 7    1  0.3505640E-015  0.9000775E+02  0.7816164E-02  0.1186339E+00
        -11   -1    0    0    0    0  0.00000000000E+00  0.00000000000E+00  0.45593999997E+02  0.45594000000E+02  0.51100000000E-03 0.  1.
         11   -1    0    0    0    0 -0.00000000000E+00 -0.00000000000E+00 -0.45593999997E+02  0.45594000000E+02  0.51100000000E-03 0. -1.
    9900012    2    1    2    0    0 -0.10195734212E+01  0.45445885296E+00 -0.38329772296E+00  0.90007754282E+02  0.90000015839E+02 0.  0.
        -12    1    1    2    0    0  0.10195734212E+01 -0.45445885296E+00  0.38329772296E+00  0.11802457179E+01  0.00000000000E+00 0.  1.
         11    1    3    3    0    0 -0.10614500415E+02 -0.34996019269E+02  0.16637720701E+02  0.40177141936E+02  0.51100000000E-03 0. -1.
        -11    1    3    3    0    0 -0.77249897687E+01  0.61148345488E+00 -0.44883997108E+01  0.89551723136E+01  0.51100000000E-03 0.  1.
        -12    1    3    3    0    0  0.17319916762E+02  0.34838994667E+02 -0.12532618713E+02  0.40875440033E+02  0.00000000000E+00 0.  1.
</event>
<event>
 7    1  0.3505640E-015  0.9000771E+02  0.7816164E-02  0.1186339E+00
        -11   -1    0    0    0    0  0.00000000000E+00  0.00000000000E+00  0.45593999997E+02  0.45594000000E+02  0.51100000000E-03 0. -1.
         11   -1    0    0    0    0 -0.00000000000E+00 -0.00000000000E+00 -0.45593999997E+02  0.45594000000E+02  0.51100000000E-03 0.  1.
    9900012    2    1    2    0    0  0.80453669836E+00 -0.84776011508E+00  0.16461107010E+00  0.90007714731E+02  0.89999975765E+02 0.  0.
        -12    1    1    2    0    0 -0.80453669836E+00  0.84776011508E+00 -0.16461107010E+00  0.11802852690E+01  0.00000000000E+00 0.  1.
         11    1    3    3    0    0 -0.15119721980E+02  0.93897311386E+00  0.17529135534E+01  0.15249930146E+02  0.51100000000E-03 0. -1.
        -11    1    3    3    0    0 -0.19035438044E+02 -0.77893627260E+01 -0.24912089458E+02  0.32305328889E+02  0.51100000000E-03 0.  1.
         12    1    3    3    0    0  0.34959696723E+02  0.60026294971E+01  0.23323786974E+02  0.42452455696E+02  0.00000000000E+00 0. -1.
</event>
<event>
 7    1  0.3505640E-015  0.9000764E+02  0.7816164E-02  0.1186339E+00
        -11   -1    0    0    0    0  0.00000000000E+00  0.00000000000E+00  0.45593999997E+02  0.45594000000E+02  0.51100000000E-03 0. -1.
         11   -1    0    0    0    0 -0.00000000000E+00 -0.00000000000E+00 -0.45593999997E+02  0.45594000000E+02  0.51100000000E-03 0.  1.
    9900012    2    1    2    0    0  0.94620742216E+00  0.57409219263E+00  0.41031679926E+00  0.90007639798E+02  0.89999899843E+02 0.  0.
        -12    1    1    2    0    0 -0.94620742216E+00 -0.57409219263E+00 -0.41031679926E+00  0.11803602023E+01  0.00000000000E+00 0.  1.
         11    1    3    3    0    0 -0.29232506240E+02  0.86245595559E+01 -0.24730971565E+02  0.39249756731E+02  0.51100000000E-03 0. -1.
        -11    1    3    3    0    0 -0.47907581417E+01 -0.74976565675E+01  0.31203806505E+01  0.94288383824E+01  0.51100000000E-03 0.  1.
        -12    1    3    3    0    0  0.34969471804E+02 -0.55281079573E+00  0.22020907714E+02  0.41329044685E+02  0.00000000000E+00 0.  1.
</event>
<event>
 7    1  0.3505640E-015  0.9000779E+02  0.7816164E-02  0.1186339E+00
        -11   -1    0    0    0    0  0.00000000000E+00  0.00000000000E+00  0.45593999997E+02  0.45594000000E+02  0.51100000000E-03 0.  1.
         11   -1    0    0    0    0 -0.00000000000E+00 -0.00000000000E+00 -0.45593999997E+02  0.45594000000E+02  0.51100000000E-03 0. -1.
    9900012    2    1    2    0    0  0.77334732241E+00  0.52915209555E+00 -0.71751842900E+00  0.90007787851E+02  0.90000049850E+02 0.  0.
        -12    1    1    2    0    0 -0.77334732241E+00 -0.52915209555E+00  0.71751842900E+00  0.11802121493E+01  0.00000000000E+00 0.  1.
         11    1    3    3    0    0  0.83961364501E+01  0.19490985268E+01  0.48336331097E+01  0.98822113748E+01  0.51100000000E-03 0. -1.
        -11    1    3    3    0    0  0.11486112217E+02  0.15293383663E+01  0.34098043700E+02  0.36013139743E+02  0.51100000000E-03 0.  1.
         12    1    3    3    0    0 -0.19108901344E+02 -0.29492847976E+01 -0.39649195239E+02  0.44112436733E+02  0.00000000000E+00 0. -1.
</event>
<event>
 7    1  0.3505640E-015  0.9000775E+02  0.7816164E-02  0.1186339E+00
        -11   -1    0    0    0    0  0.00000000000E+00  0.00000000000E+00  0.45593999997E+02  0.45594000000E+02  0.51100000000E-03 0. -1.
         11   -1    0    0    0    0 -0.00000000000E+00 -0.00000000000E+00 -0.45593999997E+02  0.45594000000E+02  0.51100000000E-03 0.  1.
    9900012    2    1    2    0    0 -0.11683453625E+01 -0.82486860527E-02 -0.16698185877E+00  0.90007753471E+02  0.90000015017E+02 0.  0.
        -12    1    1    2    0    0  0.11683453625E+01  0.82486860527E-02  0.16698185877E+00  0.11802465285E+01  0.00000000000E+00 0.  1.
         11    1    3    3    0    0 -0.75497535256E+00 -0.62281788581E+01 -0.29063944609E+01  0.69142843950E+01  0.51100000000E-03 0. -1.
        -11    1    3    3    0    0  0.14526529109E+02 -0.10364729875E+02 -0.34977299819E+02  0.39266514694E+02  0.51100000000E-03 0.  1.
         12    1    3    3    0    0 -0.14939899119E+02  0.16584660047E+02  0.37716712421E+02  0.43826954382E+02  0.00000000000E+00 0. -1.
</event>
<event>
 8    1  0.3505640E-015  0.9000745E+02  0.7816164E-02  0.1186340E+00
        -11   -1    0    0    0    0  0.00000000000E+00  0.00000000000E+00  0.45593999997E+02  0.45594000000E+02  0.51100000000E-03 0. -1.
         11   -1    0    0    0    0 -0.00000000000E+00 -0.00000000000E+00 -0.45593999997E+02  0.45594000000E+02  0.51100000000E-03 0.  1.
    9900012    2    1    2    0    0 -0.16165976868E+00 -0.10946907518E+01  0.41136238417E+00  0.90007448970E+02  0.89999706496E+02 0.  0.
         23    2    3    3    0    0 -0.39750946539E+01  0.24163116942E+02 -0.96350746345E+01  0.62558769004E+02  0.56754799958E+02 0.  0.
        -12    1    1    2    0    0  0.16165976868E+00  0.10946907518E+01 -0.41136238417E+00  0.11805510298E+01  0.00000000000E+00 0.  1.
         11    1    4    4    0    0 -0.19384628965E+02  0.52695253899E+01  0.17096675747E+02  0.26378553027E+02  0.51100000000E-03 0. -1.
        -11    1    4    4    0    0  0.15409534311E+02  0.18893591552E+02 -0.26731750382E+02  0.36180215977E+02  0.51100000000E-03 0.  1.
         12    1    3    3    0    0  0.38134348852E+01 -0.25257807694E+02  0.10046437019E+02  0.27448679966E+02  0.00000000000E+00 0. -1.
</event>
<event>
 7    1  0.3505640E-015  0.9000768E+02  0.7816164E-02  0.1186339E+00
        -11   -1    0    0    0    0  0.00000000000E+00  0.00000000000E+00  0.45593999997E+02  0.45594000000E+02  0.51100000000E-03 0.  1.
         11   -1    0    0    0    0 -0.00000000000E+00 -0.00000000000E+00 -0.45593999997E+02  0.45594000000E+02  0.51100000000E-03 0. -1.
    9900012    2    1    2    0    0  0.48871777306E+00  0.75044565535E+00 -0.76885285566E+00  0.90007682900E+02  0.89999943514E+02 0.  0.
        -12    1    1    2    0    0 -0.48871777306E+00 -0.75044565535E+00  0.76885285566E+00  0.11803171002E+01  0.00000000000E+00 0.  1.
         11    1    3    3    0    0  0.55890439494E+01 -0.11206412476E+01  0.78413399906E+01  0.96943211307E+01  0.51100000000E-03 0. -1.
        -11    1    3    3    0    0 -0.24180026631E+02  0.32275036612E+02 -0.16481042402E+02  0.43565771371E+02  0.51100000000E-03 0.  1.
         12    1    3    3    0    0  0.19079700454E+02 -0.30403949709E+02  0.78708495560E+01  0.36747590399E+02  0.00000000000E+00 0. -1.
</event>
<event>
 7    1  0.3505640E-015  0.9000774E+02  0.7816164E-02  0.1186339E+00
        -11   -1    0    0    0    0  0.00000000000E+00  0.00000000000E+00  0.45593999997E+02  0.45594000000E+02  0.51100000000E-03 0.  1.
         11   -1    0    0    0    0 -0.00000000000E+00 -0.00000000000E+00 -0.45593999997E+02  0.45594000000E+02  0.51100000000E-03 0. -1.
    9900012    2    1    2    0    0  0.88071974179E+00  0.47171342515E+00 -0.62835685157E+00  0.90007740218E+02  0.90000001589E+02 0.  0.
        -12    1    1    2    0    0 -0.88071974179E+00 -0.47171342515E+00  0.62835685157E+00  0.11802597816E+01  0.00000000000E+00 0.  1.
         11    1    3    3    0    0  0.34058827049E+02  0.96895669179E+01 -0.19014257204E+02  0.40192454320E+02  0.51100000000E-03 0. -1.
        -11    1    3    3    0    0 -0.14554328324E+01 -0.71882208778E+01 -0.62204349064E+01  0.96167881750E+01  0.51100000000E-03 0.  1.
        -12    1    3    3    0    0 -0.31722674475E+02 -0.20296326150E+01  0.24606335259E+02  0.40198497723E+02  0.00000000000E+00 0.  1.
</event>
<event>
 7    1  0.3505640E-015  0.9000777E+02  0.7816164E-02  0.1186339E+00
        -11   -1    0    0    0    0  0.00000000000E+00  0.00000000000E+00  0.45593999997E+02  0.45594000000E+02  0.51100000000E-03 0.  1.
         11   -1    0    0    0    0 -0.00000000000E+00 -0.00000000000E+00 -0.45593999997E+02  0.45594000000E+02  0.51100000000E-03 0. -1.
    9900012    2    1    2    0    0  0.11381975381E+01 -0.37741404808E-01 -0.30986469037E+00  0.90007773676E+02  0.90000035489E+02 0.  0.
        -12    1    1    2    0    0 -0.11381975381E+01  0.37741404808E-01  0.30986469037E+00  0.11802263239E+01  0.00000000000E+00 0.  1.
         11    1    3    3    0    0 -0.36525272641E+01 -0.79289742774E+01 -0.97153828565E+00  0.87837051070E+01  0.51100000000E-03 0. -1.
        -11    1    3    3    0    0 -0.36920006026E+02 -0.16914183910E+01  0.79670772853E+01  0.37807698447E+02  0.51100000000E-03 0.  1.
         12    1    3    3    0    0  0.41710730828E+02  0.95826512635E+01 -0.73054036901E+01  0.43416370122E+02  0.00000000000E+00 0. -1.
</event>
<event>
 7    1  0.3505640E-015  0.9000774E+02  0.7816164E-02  0.1186339E+00
        -11   -1    0    0    0    0  0.00000000000E+00  0.00000000000E+00  0.45593999997E+02  0.45594000000E+02  0.51100000000E-03 0. -1.
         11   -1    0    0    0    0 -0.00000000000E+00 -0.00000000000E+00 -0.45593999997E+02  0.45594000000E+02  0.51100000000E-03 0.  1.
    9900012    2    1    2    0    0  0.50015184890E+00 -0.10154110829E+01  0.33437191203E+00  0.90007738963E+02  0.90000000318E+02 0.  0.
        -12    1    1    2    0    0 -0.50015184890E+00  0.10154110829E+01 -0.33437191203E+00  0.11802610367E+01  0.00000000000E+00 0.  1.
         11    1    3    3    0    0 -0.12518894525E+02 -0.31133670336E+02  0.93227286492E+01  0.34827308515E+02  0.51100000000E-03 0. -1.
        -11    1    3    3    0    0  0.11506313075E+02 -0.82614045500E+01  0.38557072412E+01  0.14680344829E+02  0.51100000000E-03 0.  1.
        -12    1    3    3    0    0  0.15127332996E+01  0.38379663803E+02 -0.12844063978E+02  0.40500085619E+02  0.00000000000E+00 0.  1.
</event>
<event>
 7    1  0.3505640E-015  0.9000771E+02  0.7816164E-02  0.1186339E+00
        -11   -1    0    0    0    0  0.00000000000E+00  0.00000000000E+00  0.45593999997E+02  0.45594000000E+02  0.51100000000E-03 0. -1.
         11   -1    0    0    0    0 -0.00000000000E+00 -0.00000000000E+00 -0.45593999997E+02  0.45594000000E+02  0.51100000000E-03 0.  1.
    9900012    2    1    2    0    0 -0.31583579329E+00  0.10879350592E+01 -0.33125914711E+00  0.90007708695E+02  0.89999969650E+02 0.  0.
        -12    1    1    2    0    0  0.31583579329E+00 -0.10879350592E+01  0.33125914711E+00  0.11802913047E+01  0.00000000000E+00 0.  1.
         11    1    3    3    0    0 -0.12183043946E+01 -0.74398220785E+01  0.80735977555E+01  0.11046184823E+02  0.51100000000E-03 0. -1.
        -11    1    3    3    0    0  0.11465226995E+02 -0.39797895867E+01 -0.40852925568E+02  0.42617504419E+02  0.51100000000E-03 0.  1.
         12    1    3    3    0    0 -0.10562758394E+02  0.12507546724E+02  0.32448068665E+02  0.36344019454E+02  0.00000000000E+00 0. -1.
</event>
<event>
 7    1  0.3505640E-015  0.9000777E+02  0.7816164E-02  0.1186339E+00
        -11   -1    0    0    0    0  0.00000000000E+00  0.00000000000E+00  0.45593999997E+02  0.45594000000E+02  0.51100000000E-03 0.  1.
         11   -1    0    0    0    0 -0.00000000000E+00 -0.00000000000E+00 -0.45593999997E+02  0.45594000000E+02  0.51100000000E-03 0. -1.
    9900012    2    1    2    0    0  0.84922345351E-01  0.13392491561E+00 -0.11695292282E+01  0.90007768538E+02  0.90000030283E+02 0.  0.
        -12    1    1    2    0    0 -0.84922345351E-01 -0.13392491561E+00  0.11695292282E+01  0.11802314618E+01  0.00000000000E+00 0.  1.
         11    1    3    3    0    0 -0.21608559120E+02  0.38492732200E+01 -0.30597174393E+02  0.37655461923E+02  0.51100000000E-03 0. -1.
        -11    1    3    3    0    0  0.15349800289E+01  0.27753147100E+01 -0.84117203020E+01  0.89897482795E+01  0.51100000000E-03 0.  1.
        -12    1    3    3    0    0  0.20158501436E+02 -0.64906630144E+01  0.37839365466E+02  0.43362558336E+02  0.00000000000E+00 0.  1.
</event>
<event>
 7    1  0.3505640E-015  0.9000770E+02  0.7816164E-02  0.1186339E+00
        -11   -1    0    0    0    0  0.00000000000E+00  0.00000000000E+00  0.45593999997E+02  0.45594000000E+02  0.51100000000E-03 0.  1.
         11   -1    0    0    0    0 -0.00000000000E+00 -0.00000000000E+00 -0.45593999997E+02  0.45594000000E+02  0.51100000000E-03 0. -1.
    9900012    2    1    2    0    0 -0.43219678161E-01 -0.29100758274E+00 -0.11430421586E+01  0.90007703965E+02  0.89999964857E+02 0.  0.
        -12    1    1    2    0    0  0.43219678161E-01  0.29100758274E+00  0.11430421586E+01  0.11802960349E+01  0.00000000000E+00 0.  1.
         11    1    3    3    0    0 -0.95285250174E+01  0.31193567089E+02 -0.20026710972E+02  0.38274019509E+02  0.51100000000E-03 0. -1.
        -11    1    3    3    0    0 -0.36329421363E+00  0.58825667136E+01 -0.37157136045E+01  0.69672879715E+01  0.51100000000E-03 0.  1.
        -12    1    3    3    0    0  0.98485995529E+01 -0.37367141386E+02  0.22599382418E+02  0.44766396484E+02  0.00000000000E+00 0.  1.
</event>
<event>
 7    1  0.3505640E-015  0.9000773E+02  0.7816164E-02  0.1186339E+00
        -11   -1    0    0    0    0  0.00000000000E+00  0.00000000000E+00  0.45593999997E+02  0.45594000000E+02  0.51100000000E-03 0. -1.
         11   -1    0    0    0    0 -0.00000000000E+00 -0.00000000000E+00 -0.45593999997E+02  0.45594000000E+02  0.51100000000E-03 0.  1.
    9900012    2    1    2    0    0 -0.38385761656E+00  0.10853483986E+01  0.26020087820E+00  0.90007732101E+02  0.89999993365E+02 0.  0.
        -12    1    1    2    0    0  0.38385761656E+00 -0.10853483986E+01 -0.26020087820E+00  0.11802678989E+01  0.00000000000E+00 0.  1.
         11    1    3    3    0    0 -0.86449865253E+01  0.32733202517E+01  0.53155098135E+01  0.10663257585E+02  0.51100000000E-03 0. -1.
        -11    1    3    3    0    0 -0.10126904105E+02 -0.25005904161E+02  0.25418237327E+02  0.37066645637E+02  0.51100000000E-03 0.  1.
         12    1    3    3    0    0  0.18388033013E+02  0.22817932308E+02 -0.30473546262E+02  0.42277828879E+02  0.00000000000E+00 0. -1.
</event>
<event>
 7    1  0.3505640E-015  0.9000772E+02  0.7816164E-02  0.1186339E+00
        -11   -1    0    0    0    0  0.00000000000E+00  0.00000000000E+00  0.45593999997E+02  0.45594000000E+02  0.51100000000E-03 0.  1.
         11   -1    0    0    0    0 -0.00000000000E+00 -0.00000000000E+00 -0.45593999997E+02  0.45594000000E+02  0.51100000000E-03 0. -1.
    9900012    2    1    2    0    0  0.51045519165E+00  0.61164902861E+00 -0.87084954847E+00  0.90007721231E+02  0.89999982351E+02 0.  0.
        -12    1    1    2    0    0 -0.51045519165E+00 -0.61164902861E+00  0.87084954847E+00  0.11802787692E+01  0.00000000000E+00 0.  1.
         11    1    3    3    0    0 -0.11646651587E+02  0.19805718632E+02 -0.20566055259E+02  0.30836238631E+02  0.51100000000E-03 0. -1.
        -11    1    3    3    0    0  0.95930038584E+01  0.16420216012E+02  0.14464852156E+01  0.19072009245E+02  0.51100000000E-03 0.  1.
        -12    1    3    3    0    0  0.25641029205E+01 -0.35614285615E+02  0.18248720495E+02  0.40099473355E+02  0.00000000000E+00 0.  1.
</event>
<event>
 7    1  0.3505640E-015  0.9000783E+02  0.7816164E-02  0.1186339E+00
        -11   -1    0    0    0    0  0.00000000000E+00  0.00000000000E+00  0.45593999997E+02  0.45594000000E+02  0.51100000000E-03 0.  1.
         11   -1    0    0    0    0 -0.00000000000E+00 -0.00000000000E+00 -0.45593999997E+02  0.45594000000E+02  0.51100000000E-03 0. -1.
    9900012    2    1    2    0    0  0.69120469505E+00  0.22086542198E+00 -0.93072610091E+00  0.90007831987E+02  0.90000094569E+02 0.  0.
        -12    1    1    2    0    0 -0.69120469505E+00 -0.22086542198E+00  0.93072610091E+00  0.11801680135E+01  0.00000000000E+00 0.  1.
         11    1    3    3    0    0  0.12491562858E+02  0.13062311515E+02 -0.31068292376E+02  0.35943037103E+02  0.51100000000E-03 0. -1.
        -11    1    3    3    0    0  0.57936072830E+01  0.59032255495E+01 -0.56381609803E+01  0.10010135700E+02  0.51100000000E-03 0.  1.
        -12    1    3    3    0    0 -0.17593965446E+02 -0.18744671643E+02  0.35775727255E+02  0.44054659183E+02  0.00000000000E+00 0.  1.
</event>
<event>
 8    1  0.3505640E-015  0.9000773E+02  0.7816164E-02  0.1186339E+00
        -11   -1    0    0    0    0  0.00000000000E+00  0.00000000000E+00  0.45593999997E+02  0.45594000000E+02  0.51100000000E-03 0. -1.
         11   -1    0    0    0    0 -0.00000000000E+00 -0.00000000000E+00 -0.45593999997E+02  0.45594000000E+02  0.51100000000E-03 0.  1.
    9900012    2    1    2    0    0  0.51498637732E+00  0.28580121206E+00  0.10228134549E+01  0.90007728563E+02  0.89999989780E+02 0.  0.
         23    2    3    3    0    0  0.20087584381E+02 -0.44886753234E+01 -0.11733393664E+02  0.66162329869E+02  0.61774769237E+02 0.  0.
        -12    1    1    2    0    0 -0.51498637732E+00 -0.28580121206E+00 -0.10228134549E+01  0.11802714371E+01  0.00000000000E+00 0.  1.
         11    1    4    4    0    0 -0.10773608048E+02  0.55769441367E+01 -0.27513108393E+02  0.30068988510E+02  0.51100000000E-03 0. -1.
        -11    1    4    4    0    0  0.30861192429E+02 -0.10065619460E+02  0.15779714729E+02  0.36093341359E+02  0.51100000000E-03 0.  1.
         12    1    3    3    0    0 -0.19572598004E+02  0.47744765355E+01  0.12756207119E+02  0.23845398694E+02  0.00000000000E+00 0. -1.
</event>
<event>
 7    1  0.3505640E-015  0.9000776E+02  0.7816164E-02  0.1186339E+00
        -11   -1    0    0    0    0  0.00000000000E+00  0.00000000000E+00  0.45593999997E+02  0.45594000000E+02  0.51100000000E-03 0. -1.
         11   -1    0    0    0    0 -0.00000000000E+00 -0.00000000000E+00 -0.45593999997E+02  0.45594000000E+02  0.51100000000E-03 0.  1.
    9900012    2    1    2    0    0 -0.52672016735E+00  0.10483479196E+01 -0.12842422915E+00  0.90007762618E+02  0.90000024285E+02 0.  0.
        -12    1    1    2    0    0  0.52672016735E+00 -0.10483479196E+01  0.12842422915E+00  0.11802373820E+01  0.00000000000E+00 0.  1.
         11    1    3    3    0    0  0.82859147310E+01  0.19530908646E+02  0.22302754646E+02  0.30781904433E+02  0.51100000000E-03 0. -1.
        -11    1    3    3    0    0  0.58682116286E+01  0.11263477917E+02  0.73269625232E+01  0.14662408485E+02  0.51100000000E-03 0.  1.
        -12    1    3    3    0    0 -0.14680846527E+02 -0.29746038643E+02 -0.29758141399E+02  0.44563449700E+02  0.00000000000E+00 0.  1.
</event>
<event>
 7    1  0.3505640E-015  0.9000764E+02  0.7816164E-02  0.1186339E+00
        -11   -1    0    0    0    0  0.00000000000E+00  0.00000000000E+00  0.45593999997E+02  0.45594000000E+02  0.51100000000E-03 0.  1.
         11   -1    0    0    0    0 -0.00000000000E+00 -0.00000000000E+00 -0.45593999997E+02  0.45594000000E+02  0.51100000000E-03 0. -1.
    9900012    2    1    2    0    0  0.24835035828E+00 -0.34463022740E-01 -0.11534278032E+01  0.90007635100E+02  0.89999895083E+02 0.  0.
        -12    1    1    2    0    0 -0.24835035828E+00  0.34463022740E-01  0.11534278032E+01  0.11803649002E+01  0.00000000000E+00 0.  1.
         11    1    3    3    0    0  0.75810347310E+01  0.30478019577E+02 -0.25111351126E+02  0.40211462551E+02  0.51100000000E-03 0. -1.
        -11    1    3    3    0    0 -0.10132276953E+02 -0.15392611724E+01 -0.24019417122E+01  0.10526237953E+02  0.51100000000E-03 0.  1.
        -12    1    3    3    0    0  0.27995925798E+01 -0.28973221427E+02  0.26359865035E+02  0.39269934595E+02  0.00000000000E+00 0.  1.
</event>
<event>
 7    1  0.3505640E-015  0.9000788E+02  0.7816164E-02  0.1186339E+00
        -11   -1    0    0    0    0  0.00000000000E+00  0.00000000000E+00  0.45593999997E+02  0.45594000000E+02  0.51100000000E-03 0. -1.
         11   -1    0    0    0    0 -0.00000000000E+00 -0.00000000000E+00 -0.45593999997E+02  0.45594000000E+02  0.51100000000E-03 0.  1.
    9900012    2    1    2    0    0  0.48730171324E-01  0.84215662284E+00  0.82527006108E+00  0.90007884294E+02  0.90000147566E+02 0.  0.
        -12    1    1    2    0    0 -0.48730171324E-01 -0.84215662284E+00 -0.82527006108E+00  0.11801157065E+01  0.00000000000E+00 0.  1.
         11    1    3    3    0    0 -0.84894842396E+01 -0.44586823839E+01  0.40938123387E+02  0.42046178637E+02  0.51100000000E-03 0. -1.
        -11    1    3    3    0    0  0.41865081040E+01 -0.69542117388E+01 -0.30293512843E+01  0.86639991043E+01  0.51100000000E-03 0.  1.
        -12    1    3    3    0    0  0.43517063069E+01  0.12255050746E+02 -0.37083502042E+02  0.39297706552E+02  0.00000000000E+00 0.  1.
</event>
<event>
 7    1  0.3505640E-015  0.9000817E+02  0.7816164E-02  0.1186338E+00
        -11   -1    0    0    0    0  0.00000000000E+00  0.00000000000E+00  0.45593999997E+02  0.45594000000E+02  0.51100000000E-03 0.  1.
         11   -1    0    0    0    0 -0.00000000000E+00 -0.00000000000E+00 -0.45593999997E+02  0.45594000000E+02  0.51100000000E-03 0. -1.
    9900012    2    1    2    0    0  0.27627534080E+00  0.67162998683E+00 -0.92983098909E+00  0.90008169262E+02  0.90000436295E+02 0.  0.
        -12    1    1    2    0    0 -0.27627534080E+00 -0.67162998683E+00  0.92983098909E+00  0.11798307385E+01  0.00000000000E+00 0.  1.
         11    1    3    3    0    0  0.43068977123E+01 -0.36109785273E+01  0.10916103544E+02  0.12278023077E+02  0.51100000000E-03 0. -1.
        -11    1    3    3    0    0  0.57461904999E+01 -0.34348146669E+01  0.31719929996E+02  0.32418676967E+02  0.51100000000E-03 0.  1.
         12    1    3    3    0    0 -0.97768128714E+01  0.77174231810E+01 -0.43565864529E+02  0.45311469218E+02  0.00000000000E+00 0. -1.
</event>
<event>
 7    1  0.3505640E-015  0.9000785E+02  0.7816164E-02  0.1186339E+00
        -11   -1    0    0    0    0  0.00000000000E+00  0.00000000000E+00  0.45593999997E+02  0.45594000000E+02  0.51100000000E-03 0.  1.
         11   -1    0    0    0    0 -0.00000000000E+00 -0.00000000000E+00 -0.45593999997E+02  0.45594000000E+02  0.51100000000E-03 0. -1.
    9900012    2    1    2    0    0  0.41905173755E+00 -0.82356516635E+00 -0.73408626469E+00  0.90007853151E+02  0.90000116012E+02 0.  0.
        -12    1    1    2    0    0 -0.41905173755E+00  0.82356516635E+00  0.73408626469E+00  0.11801468493E+01  0.00000000000E+00 0.  1.
         11    1    3    3    0    0  0.56787348511E+01 -0.47445666221E+01 -0.39364806267E+02  0.40054299577E+02  0.51100000000E-03 0. -1.
        -11    1    3    3    0    0  0.39793022604E+01 -0.79984031533E+01  0.49851449478E+00  0.89475033638E+01  0.51100000000E-03 0.  1.
        -12    1    3    3    0    0 -0.92389853739E+01  0.11919404609E+02  0.38132205507E+02  0.41006050210E+02  0.00000000000E+00 0.  1.
</event>
<event>
 7    1  0.3505640E-015  0.9000771E+02  0.7816164E-02  0.1186339E+00
        -11   -1    0    0    0    0  0.00000000000E+00  0.00000000000E+00  0.45593999997E+02  0.45594000000E+02  0.51100000000E-03 0. -1.
         11   -1    0    0    0    0 -0.00000000000E+00 -0.00000000000E+00 -0.45593999997E+02  0.45594000000E+02  0.51100000000E-03 0.  1.
    9900012    2    1    2    0    0 -0.65581639411E+00  0.63174201951E+00  0.75093302295E+00  0.90007706169E+02  0.89999967091E+02 0.  0.
        -12    1    1    2    0    0  0.65581639411E+00 -0.63174201951E+00 -0.75093302295E+00  0.11802938308E+01  0.00000000000E+00 0.  1.
         11    1    3    3    0    0 -0.25440209921E+02  0.18786990619E+02  0.22629512812E+02  0.38887660610E+02  0.51100000000E-03 0. -1.
        -11    1    3    3    0    0  0.12913728673E+01 -0.14292039724E+01  0.88037423781E+01  0.90120002218E+01  0.51100000000E-03 0.  1.
        -12    1    3    3    0    0  0.23493020660E+02 -0.16726044627E+02 -0.30682322167E+02  0.42108045337E+02  0.00000000000E+00 0.  1.
</event>
<event>
 7    1  0.3505640E-015  0.9000734E+02  0.7816164E-02  0.1186340E+00
        -11   -1    0    0    0    0  0.00000000000E+00  0.00000000000E+00  0.45593999997E+02  0.45594000000E+02  0.51100000000E-03 0. -1.
         11   -1    0    0    0    0 -0.00000000000E+00 -0.00000000000E+00 -0.45593999997E+02  0.45594000000E+02  0.51100000000E-03 0.  1.
    9900012    2    1    2    0    0 -0.67486203901E+00 -0.79943203602E+00 -0.54719887491E+00  0.90007340455E+02  0.89999596548E+02 0.  0.
        -12    1    1    2    0    0  0.67486203901E+00  0.79943203602E+00  0.54719887491E+00  0.11806595448E+01  0.00000000000E+00 0.  1.
         11    1    3    3    0    0  0.90916417856E+01  0.68285676067E+00  0.15387981967E+01  0.92461961836E+01  0.51100000000E-03 0. -1.
        -11    1    3    3    0    0 -0.23586827566E+02  0.22300603797E+02 -0.28076286987E+02  0.42917749890E+02  0.51100000000E-03 0.  1.
         12    1    3    3    0    0  0.13820323742E+02 -0.23782892594E+02  0.25990289916E+02  0.37843394382E+02  0.00000000000E+00 0. -1.
</event>
<event>
 7    1  0.3505640E-015  0.9000777E+02  0.7816164E-02  0.1186339E+00
        -11   -1    0    0    0    0  0.00000000000E+00  0.00000000000E+00  0.45593999997E+02  0.45594000000E+02  0.51100000000E-03 0.  1.
         11   -1    0    0    0    0 -0.00000000000E+00 -0.00000000000E+00 -0.45593999997E+02  0.45594000000E+02  0.51100000000E-03 0. -1.
    9900012    2    1    2    0    0 -0.45587155337E+00 -0.96548600772E+00  0.50295510401E+00  0.90007768692E+02  0.90000030438E+02 0.  0.
        -12    1    1    2    0    0  0.45587155337E+00  0.96548600772E+00 -0.50295510401E+00  0.11802313082E+01  0.00000000000E+00 0.  1.
         11    1    3    3    0    0 -0.25990779512E+02 -0.30159113285E+02 -0.50855042088E+01  0.40136704986E+02  0.51100000000E-03 0. -1.
        -11    1    3    3    0    0  0.72375167923E+01 -0.54401667977E+01 -0.34198965665E+01  0.96784687266E+01  0.51100000000E-03 0.  1.
        -12    1    3    3    0    0  0.18297391166E+02  0.34633794075E+02  0.90083558793E+01  0.40192594979E+02  0.00000000000E+00 0.  1.
</event>
<event>
 7    1  0.3505640E-015  0.9000774E+02  0.7816164E-02  0.1186339E+00
        -11   -1    0    0    0    0  0.00000000000E+00  0.00000000000E+00  0.45593999997E+02  0.45594000000E+02  0.51100000000E-03 0.  1.
         11   -1    0    0    0    0 -0.00000000000E+00 -0.00000000000E+00 -0.45593999997E+02  0.45594000000E+02  0.51100000000E-03 0. -1.
    9900012    2    1    2    0    0  0.96678779834E+00  0.66423171432E+00 -0.13089702217E+00  0.90007738822E+02  0.90000000175E+02 0.  0.
        -12    1    1    2    0    0 -0.96678779834E+00 -0.66423171432E+00  0.13089702217E+00  0.11802611778E+01  0.00000000000E+00 0.  1.
         11    1    3    3    0    0  0.19815006571E+02  0.33880251874E+02  0.15624965868E+01  0.39280368485E+02  0.51100000000E-03 0. -1.
        -11    1    3    3    0    0 -0.40247476224E+01  0.62100030671E+01  0.36812168469E+01  0.82652337688E+01  0.51100000000E-03 0.  1.
        -12    1    3    3    0    0 -0.14823471150E+02 -0.39426023227E+02 -0.53746104558E+01  0.42462136569E+02  0.00000000000E+00 0.  1.
</event>
<event>
 7    1  0.3505640E-015  0.9000748E+02  0.7816164E-02  0.1186340E+00
        -11   -1    0    0    0    0  0.00000000000E+00  0.00000000000E+00  0.45593999997E+02  0.45594000000E+02  0.51100000000E-03 0. -1.
         11   -1    0    0    0    0 -0.00000000000E+00 -0.00000000000E+00 -0.45593999997E+02  0.45594000000E+02  0.51100000000E-03 0.  1.
    9900012    2    1    2    0    0 -0.11573194851E+01  0.23266392658E+00  0.10297061420E-01  0.90007480232E+02  0.89999738171E+02 0.  0.
        -12    1    1    2    0    0  0.11573194851E+01 -0.23266392658E+00 -0.10297061420E-01  0.11805197680E+01  0.00000000000E+00 0.  1.
         11    1    3    3    0    0 -0.14622224122E+01 -0.11480199410E+01 -0.11902044271E+02  0.12046356389E+02  0.51100000000E-03 0. -1.
        -11    1    3    3    0    0 -0.15645492955E+02 -0.32691696592E+02  0.16939061832E+02  0.40005753235E+02  0.51100000000E-03 0.  1.
         12    1    3    3    0    0  0.15950395882E+02  0.34072380459E+02 -0.50267204997E+01  0.37955370608E+02  0.00000000000E+00 0. -1.
</event>
<event>
 7    1  0.3505640E-015  0.9000823E+02  0.7816164E-02  0.1186338E+00
        -11   -1    0    0    0    0  0.00000000000E+00  0.00000000000E+00  0.45593999997E+02  0.45594000000E+02  0.51100000000E-03 0. -1.
         11   -1    0    0    0    0 -0.00000000000E+00 -0.00000000000E+00 -0.45593999997E+02  0.45594000000E+02  0.51100000000E-03 0.  1.
    9900012    2    1    2    0    0 -0.38938751044E+00 -0.95726693960E+00  0.56910288146E+00  0.90008228532E+02  0.90000496347E+02 0.  0.
        -12    1    1    2    0    0  0.38938751044E+00  0.95726693960E+00 -0.56910288146E+00  0.11797714680E+01  0.00000000000E+00 0.  1.
         11    1    3    3    0    0 -0.81679854037E+01  0.44700528140E+01 -0.31380240018E+01  0.98257087588E+01  0.51100000000E-03 0. -1.
        -11    1    3    3    0    0 -0.11781229704E+02 -0.32384250637E+02 -0.19494089403E+02  0.39592380386E+02  0.51100000000E-03 0.  1.
         12    1    3    3    0    0  0.19559827598E+02  0.26956930884E+02  0.23201216286E+02  0.40590139387E+02  0.00000000000E+00 0. -1.
</event>
<event>
 7    1  0.3505640E-015  0.9000781E+02  0.7816164E-02  0.1186339E+00
        -11   -1    0    0    0    0  0.00000000000E+00  0.00000000000E+00  0.45593999997E+02  0.45594000000E+02  0.51100000000E-03 0. -1.
         11   -1    0    0    0    0 -0.00000000000E+00 -0.00000000000E+00 -0.45593999997E+02  0.45594000000E+02  0.51100000000E-03 0.  1.
    9900012    2    1    2    0    0 -0.31582142063E+00 -0.66364115382E+00  0.92341569699E+00  0.90007805397E+02  0.90000067629E+02 0.  0.
        -12    1    1    2    0    0  0.31582142063E+00  0.66364115382E+00 -0.92341569699E+00  0.11801946027E+01  0.00000000000E+00 0.  1.
         11    1    3    3    0    0 -0.67058266613E+01  0.25759512203E+00 -0.63179887474E+01  0.92169110081E+01  0.51100000000E-03 0. -1.
        -11    1    3    3    0    0 -0.17661786148E+02  0.33769998910E+02  0.58370191998E+01  0.38554147762E+02  0.51100000000E-03 0.  1.
         12    1    3    3    0    0  0.24051791388E+02 -0.34691235186E+02  0.14043852446E+01  0.42236746627E+02  0.00000000000E+00 0. -1.
</event>
<event>
 7    1  0.3505640E-015  0.9000780E+02  0.7816164E-02  0.1186339E+00
        -11   -1    0    0    0    0  0.00000000000E+00  0.00000000000E+00  0.45593999997E+02  0.45594000000E+02  0.51100000000E-03 0. -1.
         11   -1    0    0    0    0 -0.00000000000E+00 -0.00000000000E+00 -0.45593999997E+02  0.45594000000E+02  0.51100000000E-03 0.  1.
    9900012    2    1    2    0    0  0.64729739496E-01  0.11770117047E+01 -0.57762272605E-01  0.90007795368E+02  0.90000057467E+02 0.  0.
        -12    1    1    2    0    0 -0.64729739496E-01 -0.11770117047E+01  0.57762272605E-01  0.11802046316E+01  0.00000000000E+00 0.  1.
         11    1    3    3    0    0 -0.30723997950E+02  0.26942617394E+02  0.70117131347E+01  0.41461220476E+02  0.51100000000E-03 0. -1.
        -11    1    3    3    0    0 -0.98689555187E+00  0.21823697949E+01 -0.57270083554E+01  0.62076827976E+01  0.51100000000E-03 0.  1.
        -12    1    3    3    0    0  0.31775623241E+02 -0.27947975484E+02 -0.13424670519E+01  0.42338892095E+02  0.00000000000E+00 0.  1.
</event>
<event>
 7    1  0.3505640E-015  0.9000761E+02  0.7816164E-02  0.1186339E+00
        -11   -1    0    0    0    0  0.00000000000E+00  0.00000000000E+00  0.45593999997E+02  0.45594000000E+02  0.51100000000E-03 0.  1.
         11   -1    0    0    0    0 -0.00000000000E+00 -0.00000000000E+00 -0.45593999997E+02  0.45594000000E+02  0.51100000000E-03 0. -1.
    9900012    2    1    2    0    0  0.35739523891E+00 -0.73119587759E+00 -0.85494947506E+00  0.90007611347E+02  0.89999871016E+02 0.  0.
        -12    1    1    2    0    0 -0.35739523891E+00  0.73119587759E+00  0.85494947506E+00  0.11803886534E+01  0.00000000000E+00 0.  1.
         11    1    3    3    0    0 -0.64203934748E+01  0.89832866266E+01  0.28458202707E+01  0.11402613045E+02  0.51100000000E-03 0. -1.
        -11    1    3    3    0    0  0.29015974032E+02  0.20265925658E+02  0.13009212279E+02  0.37707745838E+02  0.51100000000E-03 0.  1.
         12    1    3    3    0    0 -0.22238185318E+02 -0.29980408162E+02 -0.16709982024E+02  0.40897252464E+02  0.00000000000E+00 0. -1.
</event>
<event>
 7    1  0.3881412E-015  0.9000791E+02  0.7816164E-02  0.1186339E+00
        -11   -1    0    0    0    0  0.00000000000E+00  0.00000000000E+00  0.45593999997E+02  0.45594000000E+02  0.51100000000E-03 0. -1.
         11   -1    0    0    0    0 -0.00000000000E+00 -0.00000000000E+00 -0.45593999997E+02  0.45594000000E+02  0.51100000000E-03 0.  1.
    9900012    2    1    2    0    0 -0.28096831502E+00  0.27217602482E+00  0.11133657589E+01  0.90007912590E+02  0.90000176236E+02 0.  0.
        -12    1    1    2    0    0  0.28096831502E+00 -0.27217602482E+00 -0.11133657589E+01  0.11800874101E+01  0.00000000000E+00 0.  1.
         11    1    3    3    0    0  0.96286624479E+01 -0.32087899921E+00 -0.35865682511E+01  0.10279959920E+02  0.51100000000E-03 0. -1.
        -11    1    3    3    0    0 -0.24732106544E+02 -0.29339176462E+02 -0.14711034052E+02  0.41095971733E+02  0.51100000000E-03 0.  1.
         12    1    3    3    0    0  0.14822475781E+02  0.29932231486E+02  0.19410968062E+02  0.38631980937E+02  0.00000000000E+00 0. -1.
</event>
<event>
 7    1  0.5092681E-015  0.9000775E+02  0.7816164E-02  0.1186339E+00
        -11   -1    0    0    0    0  0.00000000000E+00  0.00000000000E+00  0.45593999997E+02  0.45594000000E+02  0.51100000000E-03 0. -1.
         11   -1    0    0    0    0 -0.00000000000E+00 -0.00000000000E+00 -0.45593999997E+02  0.45594000000E+02  0.51100000000E-03 0.  1.
    9900012    2    1    2    0    0 -0.82864624386E+00 -0.60232609853E+00  0.58613158287E+00  0.90007745130E+02  0.90000006565E+02 0.  0.
        -12    1    1    2    0    0  0.82864624386E+00  0.60232609853E+00 -0.58613158287E+00  0.11802548703E+01  0.00000000000E+00 0.  1.
         11    1    3    3    0    0 -0.72905512261E+00  0.78808784278E+01  0.46702897742E+01  0.91897428148E+01  0.51100000000E-03 0. -1.
        -11    1    3    3    0    0  0.43029038221E+01  0.31810205706E+02 -0.19377979240E+02  0.37495469700E+02  0.51100000000E-03 0.  1.
         12    1    3    3    0    0 -0.44024949434E+01 -0.40293410232E+02  0.15293821048E+02  0.43322532615E+02  0.00000000000E+00 0. -1.
</event>
<event>
 7    1  0.3505640E-015  0.9000736E+02  0.7816164E-02  0.1186340E+00
        -11   -1    0    0    0    0  0.00000000000E+00  0.00000000000E+00  0.45593999997E+02  0.45594000000E+02  0.51100000000E-03 0. -1.
         11   -1    0    0    0    0 -0.00000000000E+00 -0.00000000000E+00 -0.45593999997E+02  0.45594000000E+02  0.51100000000E-03 0.  1.
    9900012    2    1    2    0    0  0.48167037483E+00  0.98836988433E+00 -0.43015259733E+00  0.90007359227E+02  0.89999615568E+02 0.  0.
        -12    1    1    2    0    0 -0.48167037483E+00 -0.98836988433E+00  0.43015259733E+00  0.11806407732E+01  0.00000000000E+00 0.  1.
         11    1    3    3    0    0 -0.37149543603E+01  0.51635681544E+01  0.52479831540E+01  0.82464931595E+01  0.51100000000E-03 0. -1.
        -11    1    3    3    0    0 -0.49387959003E+01  0.37371750155E+02  0.46589119786E+01  0.37983481616E+02  0.51100000000E-03 0.  1.
         12    1    3    3    0    0  0.91354206354E+01 -0.41546948425E+02 -0.10337047730E+02  0.43777384451E+02  0.00000000000E+00 0. -1.
</event>
<event>
 7    1  0.3505640E-015  0.9000772E+02  0.7816164E-02  0.1186339E+00
        -11   -1    0    0    0    0  0.00000000000E+00  0.00000000000E+00  0.45593999997E+02  0.45594000000E+02  0.51100000000E-03 0. -1.
         11   -1    0    0    0    0 -0.00000000000E+00 -0.00000000000E+00 -0.45593999997E+02  0.45594000000E+02  0.51100000000E-03 0.  1.
    9900012    2    1    2    0    0 -0.97109378193E+00  0.56181729838E+00 -0.36660603728E+00  0.90007719611E+02  0.89999980710E+02 0.  0.
        -12    1    1    2    0    0  0.97109378193E+00 -0.56181729838E+00  0.36660603728E+00  0.11802803890E+01  0.00000000000E+00 0.  1.
         11    1    3    3    0    0  0.52758529842E+01 -0.81939456293E+01 -0.66396701006E+00  0.97681227541E+01  0.51100000000E-03 0. -1.
        -11    1    3    3    0    0 -0.35608508494E+02 -0.13463564663E+02 -0.14250596173E+02  0.40648652403E+02  0.51100000000E-03 0.  1.
         12    1    3    3    0    0  0.29361561728E+02  0.22219327591E+02  0.14547957145E+02  0.39590944454E+02  0.00000000000E+00 0. -1.
</event>
<event>
 7    1  0.3505640E-015  0.9000774E+02  0.7816164E-02  0.1186339E+00
        -11   -1    0    0    0    0  0.00000000000E+00  0.00000000000E+00  0.45593999997E+02  0.45594000000E+02  0.51100000000E-03 0. -1.
         11   -1    0    0    0    0 -0.00000000000E+00 -0.00000000000E+00 -0.45593999997E+02  0.45594000000E+02  0.51100000000E-03 0.  1.
    9900012    2    1    2    0    0  0.81568742068E+00 -0.82449543389E+00 -0.21878933496E+00  0.90007742629E+02  0.90000004032E+02 0.  0.
        -12    1    1    2    0    0 -0.81568742068E+00  0.82449543389E+00  0.21878933496E+00  0.11802573710E+01  0.00000000000E+00 0.  1.
         11    1    3    3    0    0 -0.32286618890E+02  0.13267166649E+02  0.70172471073E+01  0.35604567508E+02  0.51100000000E-03 0. -1.
        -11    1    3    3    0    0 -0.72634923510E+01  0.19926007813E+01  0.52635546397E+01  0.91887859216E+01  0.51100000000E-03 0.  1.
        -12    1    3    3    0    0  0.40365798661E+02 -0.16084262864E+02 -0.12499591082E+02  0.45214389199E+02  0.00000000000E+00 0.  1.
</event>
<event>
 7    1  0.3505640E-015  0.9000770E+02  0.7816164E-02  0.1186339E+00
        -11   -1    0    0    0    0  0.00000000000E+00  0.00000000000E+00  0.45593999997E+02  0.45594000000E+02  0.51100000000E-03 0.  1.
         11   -1    0    0    0    0 -0.00000000000E+00 -0.00000000000E+00 -0.45593999997E+02  0.45594000000E+02  0.51100000000E-03 0. -1.
    9900012    2    1    2    0    0 -0.40700182770E+00  0.60389705745E+00 -0.92885404062E+00  0.90007698355E+02  0.89999959174E+02 0.  0.
        -12    1    1    2    0    0  0.40700182770E+00 -0.60389705745E+00  0.92885404062E+00  0.11803016447E+01  0.00000000000E+00 0.  1.
         11    1    3    3    0    0  0.34460713250E+02  0.14583241837E+02 -0.11228336426E+02  0.39067726314E+02  0.51100000000E-03 0. -1.
        -11    1    3    3    0    0  0.24785935832E+01 -0.97240177876E+01 -0.38905376431E+01  0.10762724167E+02  0.51100000000E-03 0.  1.
        -12    1    3    3    0    0 -0.37346308660E+02 -0.42553269922E+01  0.14190020028E+02  0.40177247875E+02  0.00000000000E+00 0.  1.
</event>
<event>
 7    1  0.3505640E-015  0.9000777E+02  0.7816164E-02  0.1186339E+00
        -11   -1    0    0    0    0  0.00000000000E+00  0.00000000000E+00  0.45593999997E+02  0.45594000000E+02  0.51100000000E-03 0. -1.
         11   -1    0    0    0    0 -0.00000000000E+00 -0.00000000000E+00 -0.45593999997E+02  0.45594000000E+02  0.51100000000E-03 0.  1.
    9900012    2    1    2    0    0 -0.15326346534E+00 -0.88217276351E+00  0.76891106652E+00  0.90007770064E+02  0.90000031828E+02 0.  0.
        -12    1    1    2    0    0  0.15326346534E+00  0.88217276351E+00 -0.76891106652E+00  0.11802299364E+01  0.00000000000E+00 0.  1.
         11    1    3    3    0    0 -0.90489579225E+01 -0.52720256942E+01 -0.13658169084E+02  0.17211143989E+02  0.51100000000E-03 0. -1.
        -11    1    3    3    0    0  0.10384489332E+02  0.60033828472E+01 -0.27922659801E+02  0.30390017357E+02  0.51100000000E-03 0.  1.
         12    1    3    3    0    0 -0.14887948745E+01 -0.16135299166E+01  0.42349739952E+02  0.42406608718E+02  0.00000000000E+00 0. -1.
</event>
<event>
 7    1  0.3505640E-015  0.9000813E+02  0.7816164E-02  0.1186338E+00
        -11   -1    0    0    0    0  0.00000000000E+00  0.00000000000E+00  0.45593999997E+02  0.45594000000E+02  0.51100000000E-03 0. -1.
         11   -1    0    0    0    0 -0.00000000000E+00 -0.00000000000E+00 -0.45593999997E+02  0.45594000000E+02  0.51100000000E-03 0.  1.
    9900012    2    1    2    0    0  0.22798632202E+00  0.11150952840E+01  0.31093793497E+00  0.90008128119E+02  0.90000394610E+02 0.  0.
        -12    1    1    2    0    0 -0.22798632202E+00 -0.11150952840E+01 -0.31093793497E+00  0.11798718807E+01  0.00000000000E+00 0.  1.
         11    1    3    3    0    0 -0.14011881127E+02  0.17571452610E+02 -0.31300511882E+02  0.38533242841E+02  0.51100000000E-03 0. -1.
        -11    1    3    3    0    0  0.44067725721E+01  0.67719224322E+01 -0.30249460986E+01  0.86272172275E+01  0.51100000000E-03 0.  1.
        -12    1    3    3    0    0  0.98330948766E+01 -0.23228279758E+02  0.34636395915E+02  0.42847668051E+02  0.00000000000E+00 0.  1.
</event>
<event>
 7    1  0.3505640E-015  0.9000806E+02  0.7816164E-02  0.1186338E+00
        -11   -1    0    0    0    0  0.00000000000E+00  0.00000000000E+00  0.45593999997E+02  0.45594000000E+02  0.51100000000E-03 0. -1.
         11   -1    0    0    0    0 -0.00000000000E+00 -0.00000000000E+00 -0.45593999997E+02  0.45594000000E+02  0.51100000000E-03 0.  1.
    9900012    2    1    2    0    0 -0.30339693052E+00  0.86409682162E+00  0.74401366217E+00  0.90008055364E+02  0.90000320894E+02 0.  0.
        -12    1    1    2    0    0  0.30339693052E+00 -0.86409682162E+00 -0.74401366217E+00  0.11799446360E+01  0.00000000000E+00 0.  1.
         11    1    3    3    0    0 -0.17117724079E+02  0.29123141098E+02  0.13554693300E+02  0.36399224384E+02  0.51100000000E-03 0. -1.
        -11    1    3    3    0    0 -0.70762424890E+00  0.99390480408E+01 -0.35309576841E+01  0.10571332483E+02  0.51100000000E-03 0.  1.
        -12    1    3    3    0    0  0.17521951397E+02 -0.38198092317E+02 -0.92797219534E+01  0.43037498498E+02  0.00000000000E+00 0.  1.
</event>
<event>
 7    1  0.3505640E-015  0.9000774E+02  0.7816164E-02  0.1186339E+00
        -11   -1    0    0    0    0  0.00000000000E+00  0.00000000000E+00  0.45593999997E+02  0.45594000000E+02  0.51100000000E-03 0. -1.
         11   -1    0    0    0    0 -0.00000000000E+00 -0.00000000000E+00 -0.45593999997E+02  0.45594000000E+02  0.51100000000E-03 0.  1.
    9900012    2    1    2    0    0  0.80552247990E+00 -0.84638677145E+00 -0.16666766551E+00  0.90007739375E+02  0.90000000735E+02 0.  0.
        -12    1    1    2    0    0 -0.80552247990E+00  0.84638677145E+00  0.16666766551E+00  0.11802606251E+01  0.00000000000E+00 0.  1.
         11    1    3    3    0    0 -0.35455735833E+02  0.15030809483E+02 -0.52257824320E+01  0.38863134710E+02  0.51100000000E-03 0. -1.
        -11    1    3    3    0    0 -0.96859942109E+00 -0.12984434664E+01 -0.87086551304E+01  0.88580367303E+01  0.51100000000E-03 0.  1.
        -12    1    3    3    0    0  0.37229857734E+02 -0.14578752788E+02  0.13767769897E+02  0.42286567935E+02  0.00000000000E+00 0.  1.
</event>
<event>
 7    1  0.3505640E-015  0.9000777E+02  0.7816164E-02  0.1186339E+00
        -11   -1    0    0    0    0  0.00000000000E+00  0.00000000000E+00  0.45593999997E+02  0.45594000000E+02  0.51100000000E-03 0. -1.
         11   -1    0    0    0    0 -0.00000000000E+00 -0.00000000000E+00 -0.45593999997E+02  0.45594000000E+02  0.51100000000E-03 0.  1.
    9900012    2    1    2    0    0  0.46748470263E+00  0.39107370785E+00  0.10106765317E+01  0.90007767970E+02  0.90000029707E+02 0.  0.
        -12    1    1    2    0    0 -0.46748470263E+00 -0.39107370785E+00 -0.10106765317E+01  0.11802320297E+01  0.00000000000E+00 0.  1.
         11    1    3    3    0    0  0.46341833218E+01  0.12022092330E+02  0.29393717318E+01  0.13215379884E+02  0.51100000000E-03 0. -1.
        -11    1    3    3    0    0  0.72758065628E+01  0.46562045616E+01 -0.36169318568E+02  0.37186519171E+02  0.51100000000E-03 0.  1.
         12    1    3    3    0    0 -0.11442505182E+02 -0.16287223184E+02  0.34240623368E+02  0.39605868915E+02  0.00000000000E+00 0. -1.
</event>
<event>
 7    1  0.3802213E-015  0.9000779E+02  0.7816164E-02  0.1186339E+00
        -11   -1    0    0    0    0  0.00000000000E+00  0.00000000000E+00  0.45593999997E+02  0.45594000000E+02  0.51100000000E-03 0.  1.
         11   -1    0    0    0    0 -0.00000000000E+00 -0.00000000000E+00 -0.45593999997E+02  0.45594000000E+02  0.51100000000E-03 0. -1.
    9900012    2    1    2    0    0 -0.85112722510E+00  0.65716946877E+00 -0.48642186244E+00  0.90007790064E+02  0.90000052093E+02 0.  0.
        -12    1    1    2    0    0  0.85112722510E+00 -0.65716946877E+00  0.48642186244E+00  0.11802099357E+01  0.00000000000E+00 0.  1.
         11    1    3    3    0    0 -0.73434816204E+01  0.36589465477E+01  0.44199407494E+01  0.93193609564E+01  0.51100000000E-03 0. -1.
        -11    1    3    3    0    0 -0.35745528380E+02  0.50763662300E+01  0.52980931630E+01  0.36490849329E+02  0.51100000000E-03 0.  1.
         12    1    3    3    0    0  0.42237882776E+02 -0.80781433089E+01 -0.10204455775E+02  0.44197579779E+02  0.00000000000E+00 0. -1.
</event>
<event>
 7    1  0.3505640E-015  0.9000786E+02  0.7816164E-02  0.1186339E+00
        -11   -1    0    0    0    0  0.00000000000E+00  0.00000000000E+00  0.45593999997E+02  0.45594000000E+02  0.51100000000E-03 0. -1.
         11   -1    0    0    0    0 -0.00000000000E+00 -0.00000000000E+00 -0.45593999997E+02  0.45594000000E+02  0.51100000000E-03 0.  1.
    9900012    2    1    2    0    0  0.74998450878E+00  0.87926432084E+00  0.23907535589E+00  0.90007856138E+02  0.90000119039E+02 0.  0.
        -12    1    1    2    0    0 -0.74998450878E+00 -0.87926432084E+00 -0.23907535589E+00  0.11801438620E+01  0.00000000000E+00 0.  1.
         11    1    3    3    0    0  0.11731899737E+02 -0.38257080631E+02 -0.94417378459E+01  0.41114329663E+02  0.51100000000E-03 0. -1.
        -11    1    3    3    0    0  0.62109085915E+01  0.75924331913E+01 -0.38040222952E+01  0.10520979668E+02  0.51100000000E-03 0.  1.
        -12    1    3    3    0    0 -0.17192823820E+02  0.31543911760E+02  0.13484835497E+02  0.38372546807E+02  0.00000000000E+00 0.  1.
</event>
<event>
 7    1  0.3505640E-015  0.9000766E+02  0.7816164E-02  0.1186339E+00
        -11   -1    0    0    0    0  0.00000000000E+00  0.00000000000E+00  0.45593999997E+02  0.45594000000E+02  0.51100000000E-03 0. -1.
         11   -1    0    0    0    0 -0.00000000000E+00 -0.00000000000E+00 -0.45593999997E+02  0.45594000000E+02  0.51100000000E-03 0.  1.
    9900012    2    1    2    0    0  0.69946718195E+00  0.94406574282E-01  0.94606691163E+00  0.90007657024E+02  0.89999917297E+02 0.  0.
        -12    1    1    2    0    0 -0.69946718195E+00 -0.94406574282E-01 -0.94606691163E+00  0.11803429761E+01  0.00000000000E+00 0.  1.
         11    1    3    3    0    0 -0.80697346192E+01 -0.43824031473E+01 -0.14135870074E+01  0.92910872700E+01  0.51100000000E-03 0. -1.
        -11    1    3    3    0    0  0.11406407775E+01 -0.36383157604E+02  0.11467113471E+02  0.38164511136E+02  0.51100000000E-03 0.  1.
         12    1    3    3    0    0  0.76285610236E+01  0.40859967326E+02 -0.91074595515E+01  0.42552058618E+02  0.00000000000E+00 0. -1.
</event>
<event>
 7    1  0.3505640E-015  0.9000772E+02  0.7816164E-02  0.1186339E+00
        -11   -1    0    0    0    0  0.00000000000E+00  0.00000000000E+00  0.45593999997E+02  0.45594000000E+02  0.51100000000E-03 0. -1.
         11   -1    0    0    0    0 -0.00000000000E+00 -0.00000000000E+00 -0.45593999997E+02  0.45594000000E+02  0.51100000000E-03 0.  1.
    9900012    2    1    2    0    0 -0.52636363525E-01  0.50658468475E+00  0.10647383361E+01  0.90007717680E+02  0.89999978754E+02 0.  0.
        -12    1    1    2    0    0  0.52636363525E-01 -0.50658468475E+00 -0.10647383361E+01  0.11802823196E+01  0.00000000000E+00 0.  1.
         11    1    3    3    0    0  0.75122589922E+01 -0.26378219881E+02  0.23764356769E+02  0.36290345441E+02  0.51100000000E-03 0. -1.
        -11    1    3    3    0    0  0.46835006336E+01 -0.51020276188E+01  0.58979009739E+01  0.90967631698E+01  0.51100000000E-03 0.  1.
        -12    1    3    3    0    0 -0.12248395989E+02  0.31986832185E+02 -0.28597519407E+02  0.44620609070E+02  0.00000000000E+00 0.  1.
</event>
<event>
 7    1  0.3505640E-015  0.9000789E+02  0.7816164E-02  0.1186339E+00
        -11   -1    0    0    0    0  0.00000000000E+00  0.00000000000E+00  0.45593999997E+02  0.45594000000E+02  0.51100000000E-03 0. -1.
         11   -1    0    0    0    0 -0.00000000000E+00 -0.00000000000E+00 -0.45593999997E+02  0.45594000000E+02  0.51100000000E-03 0.  1.
    9900012    2    1    2    0    0  0.94422191180E-01  0.38909037971E+00 -0.11101089540E+01  0.90007894596E+02  0.90000158005E+02 0.  0.
        -12    1    1    2    0    0 -0.94422191180E-01 -0.38909037971E+00  0.11101089540E+01  0.11801054036E+01  0.00000000000E+00 0.  1.
         11    1    3    3    0    0 -0.54519159707E+01  0.77064723243E+01 -0.45112344076E+01  0.10462520709E+02  0.51100000000E-03 0. -1.
        -11    1    3    3    0    0 -0.90457181279E+01  0.23523796086E+02 -0.24741318611E+02  0.35317514715E+02  0.51100000000E-03 0.  1.
         12    1    3    3    0    0  0.14592056290E+02 -0.30841178031E+02  0.28142444065E+02  0.44227859173E+02  0.00000000000E+00 0. -1.
</event>
<event>
 7    1  0.3505640E-015  0.9000789E+02  0.7816164E-02  0.1186339E+00
        -11   -1    0    0    0    0  0.00000000000E+00  0.00000000000E+00  0.45593999997E+02  0.45594000000E+02  0.51100000000E-03 0.  1.
         11   -1    0    0    0    0 -0.00000000000E+00 -0.00000000000E+00 -0.45593999997E+02  0.45594000000E+02  0.51100000000E-03 0. -1.
    9900012    2    1    2    0    0 -0.30211192989E+00 -0.67127953558E+00 -0.92236799636E+00  0.90007893838E+02  0.90000157236E+02 0.  0.
        -12    1    1    2    0    0  0.30211192989E+00  0.67127953558E+00  0.92236799636E+00  0.11801061621E+01  0.00000000000E+00 0.  1.
         11    1    3    3    0    0  0.58824176777E+01  0.31929116664E+01 -0.12560362889E+02  0.14232365889E+02  0.51100000000E-03 0. -1.
        -11    1    3    3    0    0 -0.25046852814E+02  0.15156601961E+02 -0.19136590156E+02  0.34975369933E+02  0.51100000000E-03 0.  1.
         12    1    3    3    0    0  0.18862323206E+02 -0.19020793163E+02  0.30774585048E+02  0.40800158016E+02  0.00000000000E+00 0. -1.
</event>
<event>
 7    1  0.3505640E-015  0.9000777E+02  0.7816164E-02  0.1186339E+00
        -11   -1    0    0    0    0  0.00000000000E+00  0.00000000000E+00  0.45593999997E+02  0.45594000000E+02  0.51100000000E-03 0. -1.
         11   -1    0    0    0    0 -0.00000000000E+00 -0.00000000000E+00 -0.45593999997E+02  0.45594000000E+02  0.51100000000E-03 0.  1.
    9900012    2    1    2    0    0  0.52974989329E+00  0.55682778921E+00  0.89568356163E+00  0.90007770709E+02  0.90000032483E+02 0.  0.
        -12    1    1    2    0    0 -0.52974989329E+00 -0.55682778921E+00 -0.89568356163E+00  0.11802292908E+01  0.00000000000E+00 0.  1.
         11    1    3    3    0    0  0.10288442850E+02  0.33449503023E+02 -0.17566353927E+02  0.39157350514E+02  0.51100000000E-03 0. -1.
        -11    1    3    3    0    0 -0.11513058715E+02  0.13412303882E+01 -0.63991681824E+00  0.11608570701E+02  0.51100000000E-03 0.  1.
        -12    1    3    3    0    0  0.17543657584E+01 -0.34233905622E+02  0.19101954307E+02  0.39241849494E+02  0.00000000000E+00 0.  1.
</event>
<event>
 7    1  0.3505640E-015  0.9000751E+02  0.7816164E-02  0.1186340E+00
        -11   -1    0    0    0    0  0.00000000000E+00  0.00000000000E+00  0.45593999997E+02  0.45594000000E+02  0.51100000000E-03 0. -1.
         11   -1    0    0    0    0 -0.00000000000E+00 -0.00000000000E+00 -0.45593999997E+02  0.45594000000E+02  0.51100000000E-03 0.  1.
    9900012    2    1    2    0    0  0.68747831017E+00  0.95631548669E+00 -0.79943061284E-01  0.90007510004E+02  0.89999768336E+02 0.  0.
        -12    1    1    2    0    0 -0.68747831017E+00 -0.95631548669E+00  0.79943061284E-01  0.11804899958E+01  0.00000000000E+00 0.  1.
         11    1    3    3    0    0 -0.20433150417E+01  0.19386848608E+02  0.28071251260E+02  0.34176310258E+02  0.51100000000E-03 0. -1.
        -11    1    3    3    0    0 -0.18318275849E+01  0.10472895942E+02  0.48841044586E+01  0.11700069159E+02  0.51100000000E-03 0.  1.
        -12    1    3    3    0    0  0.45626209368E+01 -0.28903429063E+02 -0.33035298780E+02  0.44131130587E+02  0.00000000000E+00 0.  1.
</event>
<event>
 7    1  0.3505640E-015  0.9000785E+02  0.7816164E-02  0.1186339E+00
        -11   -1    0    0    0    0  0.00000000000E+00  0.00000000000E+00  0.45593999997E+02  0.45594000000E+02  0.51100000000E-03 0. -1.
         11   -1    0    0    0    0 -0.00000000000E+00 -0.00000000000E+00 -0.45593999997E+02  0.45594000000E+02  0.51100000000E-03 0.  1.
    9900012    2    1    2    0    0 -0.33835474861E+00 -0.10619300253E+01  0.38804167370E+00  0.90007849308E+02  0.90000112119E+02 0.  0.
        -12    1    1    2    0    0  0.33835474861E+00  0.10619300253E+01 -0.38804167370E+00  0.11801506917E+01  0.00000000000E+00 0.  1.
         11    1    3    3    0    0  0.44518993589E+01  0.24790376727E+02  0.24875805205E+02  0.35400393656E+02  0.51100000000E-03 0. -1.
        -11    1    3    3    0    0 -0.20727841946E+00  0.43053480724E+01  0.85905088643E+01  0.96112345293E+01  0.51100000000E-03 0.  1.
        -12    1    3    3    0    0 -0.45829756880E+01 -0.30157654825E+02 -0.33078272395E+02  0.44996221123E+02  0.00000000000E+00 0.  1.
</event>
<event>
 7    1  0.3505640E-015  0.9000772E+02  0.7816164E-02  0.1186339E+00
        -11   -1    0    0    0    0  0.00000000000E+00  0.00000000000E+00  0.45593999997E+02  0.45594000000E+02  0.51100000000E-03 0.  1.
         11   -1    0    0    0    0 -0.00000000000E+00 -0.00000000000E+00 -0.45593999997E+02  0.45594000000E+02  0.51100000000E-03 0. -1.
    9900012    2    1    2    0    0 -0.11010325502E+00 -0.44689536229E+00 -0.10868400740E+01  0.90007720568E+02  0.89999981679E+02 0.  0.
        -12    1    1    2    0    0  0.11010325502E+00  0.44689536229E+00  0.10868400740E+01  0.11802794322E+01  0.00000000000E+00 0.  1.
         11    1    3    3    0    0 -0.37632136482E+01 -0.37081471520E+02 -0.70409694142E+01  0.37931155501E+02  0.51100000000E-03 0. -1.
        -11    1    3    3    0    0  0.15371163839E+00 -0.11398958881E+01 -0.10616907402E+02  0.10679031461E+02  0.51100000000E-03 0.  1.
        -12    1    3    3    0    0  0.34993987548E+01  0.37774472046E+02  0.16571036742E+02  0.41397533606E+02  0.00000000000E+00 0.  1.
</event>
<event>
 7    1  0.3505640E-015  0.9000768E+02  0.7816164E-02  0.1186339E+00
        -11   -1    0    0    0    0  0.00000000000E+00  0.00000000000E+00  0.45593999997E+02  0.45594000000E+02  0.51100000000E-03 0. -1.
         11   -1    0    0    0    0 -0.00000000000E+00 -0.00000000000E+00 -0.45593999997E+02  0.45594000000E+02  0.51100000000E-03 0.  1.
    9900012    2    1    2    0    0  0.70510356598E+00  0.46470073359E+00 -0.82464365138E+00  0.90007680144E+02  0.89999940722E+02 0.  0.
        -12    1    1    2    0    0 -0.70510356598E+00 -0.46470073359E+00  0.82464365138E+00  0.11803198559E+01  0.00000000000E+00 0.  1.
         11    1    3    3    0    0 -0.50348116300E+01 -0.24711919464E+01 -0.27145034259E+00  0.56151405446E+01  0.51100000000E-03 0. -1.
        -11    1    3    3    0    0 -0.17712206701E+02  0.13656409705E+02 -0.34895001370E+02  0.41447326972E+02  0.51100000000E-03 0.  1.
         12    1    3    3    0    0  0.23452121897E+02 -0.10720517025E+02  0.34341808061E+02  0.42945212628E+02  0.00000000000E+00 0. -1.
</event>
<event>
 7    1  0.3505640E-015  0.9000783E+02  0.7816164E-02  0.1186339E+00
        -11   -1    0    0    0    0  0.00000000000E+00  0.00000000000E+00  0.45593999997E+02  0.45594000000E+02  0.51100000000E-03 0.  1.
         11   -1    0    0    0    0 -0.00000000000E+00 -0.00000000000E+00 -0.45593999997E+02  0.45594000000E+02  0.51100000000E-03 0. -1.
    9900012    2    1    2    0    0 -0.71495701231E-01  0.90849733209E+00 -0.74988513151E+00  0.90007827662E+02  0.90000090187E+02 0.  0.
        -12    1    1    2    0    0  0.71495701231E-01 -0.90849733209E+00  0.74988513151E+00  0.11801723383E+01  0.00000000000E+00 0.  1.
         11    1    3    3    0    0  0.87301364041E+00 -0.72404643192E+01  0.47565747490E+01  0.87069788089E+01  0.51100000000E-03 0. -1.
        -11    1    3    3    0    0 -0.26063286854E+02  0.96982802734E+01  0.27955236781E+02  0.39431546072E+02  0.51100000000E-03 0.  1.
         12    1    3    3    0    0  0.25118777512E+02 -0.15493186221E+01 -0.33461696661E+02  0.41869302781E+02  0.00000000000E+00 0. -1.
</event>
<event>
 7    1  0.3505640E-015  0.9000772E+02  0.7816164E-02  0.1186339E+00
        -11   -1    0    0    0    0  0.00000000000E+00  0.00000000000E+00  0.45593999997E+02  0.45594000000E+02  0.51100000000E-03 0.  1.
         11   -1    0    0    0    0 -0.00000000000E+00 -0.00000000000E+00 -0.45593999997E+02  0.45594000000E+02  0.51100000000E-03 0. -1.
    9900012    2    1    2    0    0 -0.65091602081E+00  0.54541261301E+00 -0.81969106658E+00  0.90007720360E+02  0.89999981468E+02 0.  0.
        -12    1    1    2    0    0  0.65091602081E+00 -0.54541261301E+00  0.81969106658E+00  0.11802796403E+01  0.00000000000E+00 0.  1.
         11    1    3    3    0    0  0.29040811570E+01  0.55390842927E+01 -0.76451827851E+01  0.98774471524E+01  0.51100000000E-03 0. -1.
        -11    1    3    3    0    0  0.34342130855E+02 -0.73170397750E+01  0.19422631892E+02  0.40126794696E+02  0.51100000000E-03 0.  1.
         12    1    3    3    0    0 -0.37897128033E+02  0.23233680953E+01 -0.12597140173E+02  0.40003478511E+02  0.00000000000E+00 0. -1.
</event>
<event>
 7    1  0.3505640E-015  0.9000772E+02  0.7816164E-02  0.1186339E+00
        -11   -1    0    0    0    0  0.00000000000E+00  0.00000000000E+00  0.45593999997E+02  0.45594000000E+02  0.51100000000E-03 0. -1.
         11   -1    0    0    0    0 -0.00000000000E+00 -0.00000000000E+00 -0.45593999997E+02  0.45594000000E+02  0.51100000000E-03 0.  1.
    9900012    2    1    2    0    0 -0.65274577761E+00  0.30077997832E+00  0.93622527039E+00  0.90007718931E+02  0.89999980021E+02 0.  0.
        -12    1    1    2    0    0  0.65274577761E+00 -0.30077997832E+00 -0.93622527039E+00  0.11802810693E+01  0.00000000000E+00 0.  1.
         11    1    3    3    0    0  0.37374787085E+02 -0.27494667558E+01 -0.10409997230E+02  0.38894759540E+02  0.51100000000E-03 0. -1.
        -11    1    3    3    0    0 -0.85752524474E-01 -0.94705982566E+01 -0.36370123829E+00  0.94779672760E+01  0.51100000000E-03 0.  1.
        -12    1    3    3    0    0 -0.37941780338E+02  0.12520844991E+02  0.11709923738E+02  0.41634992115E+02  0.00000000000E+00 0.  1.
</event>
<event>
 7    1  0.3505640E-015  0.9000787E+02  0.7816164E-02  0.1186339E+00
        -11   -1    0    0    0    0  0.00000000000E+00  0.00000000000E+00  0.45593999997E+02  0.45594000000E+02  0.51100000000E-03 0.  1.
         11   -1    0    0    0    0 -0.00000000000E+00 -0.00000000000E+00 -0.45593999997E+02  0.45594000000E+02  0.51100000000E-03 0. -1.
    9900012    2    1    2    0    0  0.37085691351E-01 -0.41805164600E+00 -0.11029821800E+01  0.90007867712E+02  0.90000130766E+02 0.  0.
        -12    1    1    2    0    0 -0.37085691351E-01  0.41805164600E+00  0.11029821800E+01  0.11801322878E+01  0.00000000000E+00 0.  1.
         11    1    3    3    0    0 -0.70881984305E+01 -0.46439194195E+01 -0.31661595875E+00  0.84799050992E+01  0.51100000000E-03 0. -1.
        -11    1    3    3    0    0 -0.16163221433E+00 -0.37963007611E+02  0.51268999905E+01  0.38307977963E+02  0.51100000000E-03 0.  1.
         12    1    3    3    0    0  0.72869163362E+01  0.42188875384E+02 -0.59132662117E+01  0.43219984650E+02  0.00000000000E+00 0. -1.
</event>
<event>
 7    1  0.3505640E-015  0.9000778E+02  0.7816164E-02  0.1186339E+00
        -11   -1    0    0    0    0  0.00000000000E+00  0.00000000000E+00  0.45593999997E+02  0.45594000000E+02  0.51100000000E-03 0. -1.
         11   -1    0    0    0    0 -0.00000000000E+00 -0.00000000000E+00 -0.45593999997E+02  0.45594000000E+02  0.51100000000E-03 0.  1.
    9900012    2    1    2    0    0  0.47783536324E+00  0.85081736992E+00  0.66385553244E+00  0.90007779258E+02  0.90000041144E+02 0.  0.
        -12    1    1    2    0    0 -0.47783536324E+00 -0.85081736992E+00 -0.66385553244E+00  0.11802207418E+01  0.00000000000E+00 0.  1.
         11    1    3    3    0    0  0.23734403898E+02  0.14685516900E+02  0.21279378238E+02  0.35096983823E+02  0.51100000000E-03 0. -1.
        -11    1    3    3    0    0 -0.45849027178E+01  0.52874795749E+01  0.11294511423E+02  0.13287014778E+02  0.51100000000E-03 0.  1.
        -12    1    3    3    0    0 -0.18671665817E+02 -0.19122179105E+02 -0.31910034128E+02  0.41623780657E+02  0.00000000000E+00 0.  1.
</event>
<event>
 7    1  0.3505640E-015  0.9000768E+02  0.7816164E-02  0.1186339E+00
        -11   -1    0    0    0    0  0.00000000000E+00  0.00000000000E+00  0.45593999997E+02  0.45594000000E+02  0.51100000000E-03 0. -1.
         11   -1    0    0    0    0 -0.00000000000E+00 -0.00000000000E+00 -0.45593999997E+02  0.45594000000E+02  0.51100000000E-03 0.  1.
    9900012    2    1    2    0    0  0.75355275564E+00  0.88808805540E+00 -0.19135611246E+00  0.90007678302E+02  0.89999938855E+02 0.  0.
        -12    1    1    2    0    0 -0.75355275564E+00 -0.88808805540E+00  0.19135611246E+00  0.11803216983E+01  0.00000000000E+00 0.  1.
         11    1    3    3    0    0 -0.15145717065E+02 -0.33492603785E+02  0.66782951016E+01  0.37359695923E+02  0.51100000000E-03 0. -1.
        -11    1    3    3    0    0  0.44714475131E+01 -0.47255772953E+01  0.70507840259E+01  0.95936687080E+01  0.51100000000E-03 0.  1.
        -12    1    3    3    0    0  0.11427822308E+02  0.39106269136E+02 -0.13920435240E+02  0.43054313671E+02  0.00000000000E+00 0.  1.
</event>
<event>
 7    1  0.3505640E-015  0.9000764E+02  0.7816164E-02  0.1186339E+00
        -11   -1    0    0    0    0  0.00000000000E+00  0.00000000000E+00  0.45593999997E+02  0.45594000000E+02  0.51100000000E-03 0. -1.
         11   -1    0    0    0    0 -0.00000000000E+00 -0.00000000000E+00 -0.45593999997E+02  0.45594000000E+02  0.51100000000E-03 0.  1.
    9900012    2    1    2    0    0 -0.61260122125E+00  0.80576528967E+00  0.60720866422E+00  0.90007643986E+02  0.89999904086E+02 0.  0.
        -12    1    1    2    0    0  0.61260122125E+00 -0.80576528967E+00 -0.60720866422E+00  0.11803560142E+01  0.00000000000E+00 0.  1.
         11    1    3    3    0    0 -0.11666320185E+00  0.31161684297E+02  0.22823192582E+02  0.38625927800E+02  0.51100000000E-03 0. -1.
        -11    1    3    3    0    0 -0.92250495749E+01 -0.85517514289E+00  0.48037407637E+01  0.10435937417E+02  0.51100000000E-03 0.  1.
        -12    1    3    3    0    0  0.87291115555E+01 -0.29500743865E+02 -0.27019724681E+02  0.40945778769E+02  0.00000000000E+00 0.  1.
</event>
<event>
 7    1  0.3505640E-015  0.9000776E+02  0.7816164E-02  0.1186339E+00
        -11   -1    0    0    0    0  0.00000000000E+00  0.00000000000E+00  0.45593999997E+02  0.45594000000E+02  0.51100000000E-03 0. -1.
         11   -1    0    0    0    0 -0.00000000000E+00 -0.00000000000E+00 -0.45593999997E+02  0.45594000000E+02  0.51100000000E-03 0.  1.
    9900012    2    1    2    0    0 -0.73620126150E+00  0.21682528674E+00  0.89663429717E+00  0.90007763344E+02  0.90000025020E+02 0.  0.
        -12    1    1    2    0    0  0.73620126150E+00 -0.21682528674E+00 -0.89663429717E+00  0.11802366565E+01  0.00000000000E+00 0.  1.
         11    1    3    3    0    0 -0.76789124221E+01 -0.16602034307E+01  0.95258110308E+01  0.12347592780E+02  0.51100000000E-03 0. -1.
        -11    1    3    3    0    0 -0.94170330408E+01  0.33230479339E+02  0.12184170607E+02  0.36625118184E+02  0.51100000000E-03 0.  1.
         12    1    3    3    0    0  0.16359744201E+02 -0.31353450621E+02 -0.20813347340E+02  0.41035052379E+02  0.00000000000E+00 0. -1.
</event>
<event>
 7    1  0.3505640E-015  0.9000773E+02  0.7816164E-02  0.1186339E+00
        -11   -1    0    0    0    0  0.00000000000E+00  0.00000000000E+00  0.45593999997E+02  0.45594000000E+02  0.51100000000E-03 0.  1.
         11   -1    0    0    0    0 -0.00000000000E+00 -0.00000000000E+00 -0.45593999997E+02  0.45594000000E+02  0.51100000000E-03 0. -1.
    9900012    2    1    2    0    0  0.90009609155E+00  0.18196973527E-01 -0.76324414709E+00  0.90007726416E+02  0.89999987605E+02 0.  0.
        -12    1    1    2    0    0 -0.90009609155E+00 -0.18196973527E-01  0.76324414709E+00  0.11802735835E+01  0.00000000000E+00 0.  1.
         11    1    3    3    0    0 -0.17344111452E+00  0.35242469080E+01 -0.89445315160E+01  0.96153545119E+01  0.51100000000E-03 0. -1.
        -11    1    3    3    0    0 -0.36861076988E+02 -0.11708611479E+01  0.18144855841E+02  0.41101650895E+02  0.51100000000E-03 0.  1.
         12    1    3    3    0    0  0.37934614194E+02 -0.23351887866E+01 -0.99635684724E+01  0.39290721009E+02  0.00000000000E+00 0. -1.
</event>
<event>
 7    1  0.3505640E-015  0.9000798E+02  0.7816164E-02  0.1186339E+00
        -11   -1    0    0    0    0  0.00000000000E+00  0.00000000000E+00  0.45593999997E+02  0.45594000000E+02  0.51100000000E-03 0. -1.
         11   -1    0    0    0    0 -0.00000000000E+00 -0.00000000000E+00 -0.45593999997E+02  0.45594000000E+02  0.51100000000E-03 0.  1.
    9900012    2    1    2    0    0  0.66412098355E+00 -0.15664732472E+00  0.96272727952E+00  0.90007983526E+02  0.90000248108E+02 0.  0.
        -12    1    1    2    0    0 -0.66412098355E+00  0.15664732472E+00 -0.96272727952E+00  0.11800164744E+01  0.00000000000E+00 0.  1.
         11    1    3    3    0    0  0.11202213374E+02  0.39012265156E+02  0.51713071034E+01  0.40916852696E+02  0.51100000000E-03 0. -1.
        -11    1    3    3    0    0  0.68252603434E+01 -0.32243381071E+01 -0.51896923117E+01  0.91604280214E+01  0.51100000000E-03 0.  1.
        -12    1    3    3    0    0 -0.17363352734E+02 -0.35944574374E+02  0.98111248783E+00  0.39930702809E+02  0.00000000000E+00 0.  1.
</event>
<event>
 7    1  0.3505640E-015  0.9000788E+02  0.7816164E-02  0.1186339E+00
        -11   -1    0    0    0    0  0.00000000000E+00  0.00000000000E+00  0.45593999997E+02  0.45594000000E+02  0.51100000000E-03 0. -1.
         11   -1    0    0    0    0 -0.00000000000E+00 -0.00000000000E+00 -0.45593999997E+02  0.45594000000E+02  0.51100000000E-03 0.  1.
    9900012    2    1    2    0    0  0.10728076173E+01 -0.47236661582E+00  0.13654472278E+00  0.90007876759E+02  0.90000139932E+02 0.  0.
        -12    1    1    2    0    0 -0.10728076173E+01  0.47236661582E+00 -0.13654472278E+00  0.11801232414E+01  0.00000000000E+00 0.  1.
         11    1    3    3    0    0 -0.16660750361E+02 -0.99763072256E+01  0.13843527131E+02  0.23848491611E+02  0.51100000000E-03 0. -1.
        -11    1    3    3    0    0  0.93590239179E+01  0.33561780585E+02  0.40944126871E+01  0.35082027596E+02  0.51100000000E-03 0.  1.
         12    1    3    3    0    0  0.83745340606E+01 -0.24057839975E+02 -0.17801395095E+02  0.31077357551E+02  0.00000000000E+00 0. -1.
</event>
<event>
 7    1  0.3505640E-015  0.9000765E+02  0.7816164E-02  0.1186339E+00
        -11   -1    0    0    0    0  0.00000000000E+00  0.00000000000E+00  0.45593999997E+02  0.45594000000E+02  0.51100000000E-03 0.  1.
         11   -1    0    0    0    0 -0.00000000000E+00 -0.00000000000E+00 -0.45593999997E+02  0.45594000000E+02  0.51100000000E-03 0. -1.
    9900012    2    1    2    0    0  0.10774635714E+01 -0.47915112629E+00  0.52162143829E-01  0.90007646477E+02  0.89999906611E+02 0.  0.
        -12    1    1    2    0    0 -0.10774635714E+01  0.47915112629E+00 -0.52162143829E-01  0.11803535228E+01  0.00000000000E+00 0.  1.
         11    1    3    3    0    0 -0.78688212633E+01 -0.19016258258E+02 -0.32086057275E+02  0.38118912602E+02  0.51100000000E-03 0. -1.
        -11    1    3    3    0    0  0.57376143849E+01  0.43216818563E+01 -0.70584187418E+01  0.10070671690E+02  0.51100000000E-03 0.  1.
        -12    1    3    3    0    0  0.32086704498E+01  0.14215425276E+02  0.39196638161E+02  0.41818062185E+02  0.00000000000E+00 0.  1.
</event>
<event>
 7    1  0.3505640E-015  0.9000774E+02  0.7816164E-02  0.1186339E+00
        -11   -1    0    0    0    0  0.00000000000E+00  0.00000000000E+00  0.45593999997E+02  0.45594000000E+02  0.51100000000E-03 0.  1.
         11   -1    0    0    0    0 -0.00000000000E+00 -0.00000000000E+00 -0.45593999997E+02  0.45594000000E+02  0.51100000000E-03 0. -1.
    9900012    2    1    2    0    0  0.76318010696E-01  0.44079046222E+00 -0.10922008512E+01  0.90007735890E+02  0.89999997204E+02 0.  0.
        -12    1    1    2    0    0 -0.76318010696E-01 -0.44079046222E+00  0.10922008512E+01  0.11802641102E+01  0.00000000000E+00 0.  1.
         11    1    3    3    0    0 -0.26494956311E+02 -0.70607649163E+01 -0.28186605753E+02  0.39323299140E+02  0.51100000000E-03 0. -1.
        -11    1    3    3    0    0 -0.69040123421E+01  0.58107153330E+01  0.34266875498E+01  0.96525637489E+01  0.51100000000E-03 0.  1.
        -12    1    3    3    0    0  0.33475286664E+02  0.16908400455E+01  0.23667717352E+02  0.41031873001E+02  0.00000000000E+00 0.  1.
</event>
<event>
 7    1  0.3505640E-015  0.9000776E+02  0.7816164E-02  0.1186339E+00
        -11   -1    0    0    0    0  0.00000000000E+00  0.00000000000E+00  0.45593999997E+02  0.45594000000E+02  0.51100000000E-03 0.  1.
         11   -1    0    0    0    0 -0.00000000000E+00 -0.00000000000E+00 -0.45593999997E+02  0.45594000000E+02  0.51100000000E-03 0. -1.
    9900012    2    1    2    0    0  0.93661183539E+00  0.45693860759E+00  0.55401080459E+00  0.90007761637E+02  0.90000023291E+02 0.  0.
        -12    1    1    2    0    0 -0.93661183539E+00 -0.45693860759E+00 -0.55401080459E+00  0.11802383627E+01  0.00000000000E+00 0.  1.
         11    1    3    3    0    0  0.14577153690E+01  0.18410489529E+02 -0.31746610052E+01  0.18738984272E+02  0.51100000000E-03 0. -1.
        -11    1    3    3    0    0  0.40637323048E+01  0.39808868356E+01  0.33515123699E+02  0.33994483333E+02  0.51100000000E-03 0.  1.
         12    1    3    3    0    0 -0.45848358384E+01 -0.21934437757E+02 -0.29786451890E+02  0.37274294032E+02  0.00000000000E+00 0. -1.
</event>
<event>
 7    1  0.3647968E-015  0.9000760E+02  0.7816164E-02  0.1186339E+00
        -11   -1    0    0    0    0  0.00000000000E+00  0.00000000000E+00  0.45593999997E+02  0.45594000000E+02  0.51100000000E-03 0. -1.
         11   -1    0    0    0    0 -0.00000000000E+00 -0.00000000000E+00 -0.45593999997E+02  0.45594000000E+02  0.51100000000E-03 0.  1.
    9900012    2    1    2    0    0 -0.43327530995E+00  0.10528533054E+01 -0.31165027806E+00  0.90007596055E+02  0.89999855523E+02 0.  0.
        -12    1    1    2    0    0  0.43327530995E+00 -0.10528533054E+01  0.31165027806E+00  0.11804039447E+01  0.00000000000E+00 0.  1.
         11    1    3    3    0    0  0.84846744980E+01  0.41966424639E+00  0.39412040709E+01  0.93647695758E+01  0.51100000000E-03 0. -1.
        -11    1    3    3    0    0  0.22382467315E+02 -0.25888897455E+02  0.12352031776E+02  0.36383822556E+02  0.51100000000E-03 0.  1.
         12    1    3    3    0    0 -0.31300417123E+02  0.26522086513E+02 -0.16604886125E+02  0.44259003924E+02  0.00000000000E+00 0. -1.
</event>
<event>
 7    1  0.3505640E-015  0.9000770E+02  0.7816164E-02  0.1186339E+00
        -11   -1    0    0    0    0  0.00000000000E+00  0.00000000000E+00  0.45593999997E+02  0.45594000000E+02  0.51100000000E-03 0.  1.
         11   -1    0    0    0    0 -0.00000000000E+00 -0.00000000000E+00 -0.45593999997E+02  0.45594000000E+02  0.51100000000E-03 0. -1.
    9900012    2    1    2    0    0  0.64349502624E+00  0.97125339272E+00 -0.18888945125E+00  0.90007704178E+02  0.89999965074E+02 0.  0.
        -12    1    1    2    0    0 -0.64349502624E+00 -0.97125339272E+00  0.18888945125E+00  0.11802958216E+01  0.00000000000E+00 0.  1.
         11    1    3    3    0    0  0.37011186681E+02  0.58844648294E+00 -0.14092328180E+02  0.39607675047E+02  0.51100000000E-03 0. -1.
        -11    1    3    3    0    0 -0.24932824398E+01  0.52378633444E+01 -0.79168261457E+01  0.98146730064E+01  0.51100000000E-03 0.  1.
        -12    1    3    3    0    0 -0.33874409215E+02 -0.48550564347E+01  0.21820264874E+02  0.40585356126E+02  0.00000000000E+00 0.  1.
</event>
<event>
 7    1  0.3505640E-015  0.9000673E+02  0.7816164E-02  0.1186341E+00
        -11   -1    0    0    0    0  0.00000000000E+00  0.00000000000E+00  0.45593999997E+02  0.45594000000E+02  0.51100000000E-03 0. -1.
         11   -1    0    0    0    0 -0.00000000000E+00 -0.00000000000E+00 -0.45593999997E+02  0.45594000000E+02  0.51100000000E-03 0.  1.
    9900012    2    1    2    0    0 -0.25190232418E+00  0.51894286754E+00  0.10308436473E+01  0.90006731569E+02  0.89998979620E+02 0.  0.
        -12    1    1    2    0    0  0.25190232418E+00 -0.51894286754E+00 -0.10308436473E+01  0.11812684309E+01  0.00000000000E+00 0.  1.
         11    1    3    3    0    0 -0.89106386608E+01 -0.22208963301E+01  0.63540422126E+01  0.11167171287E+02  0.51100000000E-03 0. -1.
        -11    1    3    3    0    0  0.42779245517E+01 -0.91014025765E+01 -0.40361709612E+02  0.41595718174E+02  0.51100000000E-03 0.  1.
         12    1    3    3    0    0  0.43808117849E+01  0.11841241774E+02  0.35038511046E+02  0.37243842109E+02  0.00000000000E+00 0. -1.
</event>
<event>
 7    1  0.3505640E-015  0.9000776E+02  0.7816164E-02  0.1186339E+00
        -11   -1    0    0    0    0  0.00000000000E+00  0.00000000000E+00  0.45593999997E+02  0.45594000000E+02  0.51100000000E-03 0.  1.
         11   -1    0    0    0    0 -0.00000000000E+00 -0.00000000000E+00 -0.45593999997E+02  0.45594000000E+02  0.51100000000E-03 0. -1.
    9900012    2    1    2    0    0 -0.78890984374E+00  0.67624820766E+00  0.55971844527E+00  0.90007756331E+02  0.90000017915E+02 0.  0.
        -12    1    1    2    0    0  0.78890984374E+00 -0.67624820766E+00 -0.55971844527E+00  0.11802436689E+01  0.00000000000E+00 0.  1.
         11    1    3    3    0    0  0.22376942636E+02 -0.14403316082E+02 -0.30718886237E+02  0.40642749019E+02  0.51100000000E-03 0. -1.
        -11    1    3    3    0    0 -0.28381289403E+01  0.85023015714E+01 -0.25814203910E+01  0.93277992789E+01  0.51100000000E-03 0.  1.
        -12    1    3    3    0    0 -0.20327723540E+02  0.65772627179E+01  0.33860025073E+02  0.40037208034E+02  0.00000000000E+00 0.  1.
</event>
<event>
 7    1  0.3505640E-015  0.9000778E+02  0.7816164E-02  0.1186339E+00
        -11   -1    0    0    0    0  0.00000000000E+00  0.00000000000E+00  0.45593999997E+02  0.45594000000E+02  0.51100000000E-03 0.  1.
         11   -1    0    0    0    0 -0.00000000000E+00 -0.00000000000E+00 -0.45593999997E+02  0.45594000000E+02  0.51100000000E-03 0. -1.
    9900012    2    1    2    0    0 -0.64510112338E+00 -0.94392735640E+00 -0.29286415582E+00  0.90007778103E+02  0.90000039973E+02 0.  0.
        -12    1    1    2    0    0  0.64510112338E+00  0.94392735640E+00  0.29286415582E+00  0.11802218975E+01  0.00000000000E+00 0.  1.
         11    1    3    3    0    0 -0.66315246254E+01  0.91562677212E+01  0.42303943132E+01  0.12071064317E+02  0.51100000000E-03 0. -1.
        -11    1    3    3    0    0  0.30026169428E+02 -0.50049699964E+01  0.25095369547E+02  0.39451212251E+02  0.51100000000E-03 0.  1.
         12    1    3    3    0    0 -0.24039745926E+02 -0.50952250812E+01 -0.29618628016E+02  0.38485501534E+02  0.00000000000E+00 0. -1.
</event>
<event>
 7    1  0.3505640E-015  0.9000758E+02  0.7816164E-02  0.1186339E+00
        -11   -1    0    0    0    0  0.00000000000E+00  0.00000000000E+00  0.45593999997E+02  0.45594000000E+02  0.51100000000E-03 0.  1.
         11   -1    0    0    0    0 -0.00000000000E+00 -0.00000000000E+00 -0.45593999997E+02  0.45594000000E+02  0.51100000000E-03 0. -1.
    9900012    2    1    2    0    0  0.86134667551E+00  0.75575865562E+00 -0.28336880517E+00  0.90007581803E+02  0.89999841082E+02 0.  0.
        -12    1    1    2    0    0 -0.86134667551E+00 -0.75575865562E+00  0.28336880517E+00  0.11804181974E+01  0.00000000000E+00 0.  1.
         11    1    3    3    0    0  0.10235119080E+01 -0.36158488773E+01  0.99422536052E+01  0.10628750949E+02  0.51100000000E-03 0. -1.
        -11    1    3    3    0    0  0.20540933741E+02  0.15430048371E+02  0.25781982760E+02  0.36396799131E+02  0.51100000000E-03 0.  1.
         12    1    3    3    0    0 -0.20703098974E+02 -0.11058440838E+02 -0.36007605170E+02  0.42982031722E+02  0.00000000000E+00 0. -1.
</event>
<event>
 7    1  0.3505640E-015  0.9000767E+02  0.7816164E-02  0.1186339E+00
        -11   -1    0    0    0    0  0.00000000000E+00  0.00000000000E+00  0.45593999997E+02  0.45594000000E+02  0.51100000000E-03 0.  1.
         11   -1    0    0    0    0 -0.00000000000E+00 -0.00000000000E+00 -0.45593999997E+02  0.45594000000E+02  0.51100000000E-03 0. -1.
    9900012    2    1    2    0    0 -0.11490782693E+01  0.25457643091E+00 -0.89360399545E-01  0.90007671525E+02  0.89999931989E+02 0.  0.
        -12    1    1    2    0    0  0.11490782693E+01 -0.25457643091E+00  0.89360399545E-01  0.11803284751E+01  0.00000000000E+00 0.  1.
         11    1    3    3    0    0  0.37062652280E+01 -0.14666941986E+01 -0.31827878582E+01  0.51007580441E+01  0.51100000000E-03 0. -1.
        -11    1    3    3    0    0  0.35445051522E+02  0.12748527899E+01  0.20544119566E+02  0.40988263882E+02  0.51100000000E-03 0.  1.
         12    1    3    3    0    0 -0.40300395019E+02  0.44641783965E+00 -0.17450692107E+02  0.43918649599E+02  0.00000000000E+00 0. -1.
</event>
<event>
 7    1  0.3505640E-015  0.9000780E+02  0.7816164E-02  0.1186339E+00
        -11   -1    0    0    0    0  0.00000000000E+00  0.00000000000E+00  0.45593999997E+02  0.45594000000E+02  0.51100000000E-03 0.  1.
         11   -1    0    0    0    0 -0.00000000000E+00 -0.00000000000E+00 -0.45593999997E+02  0.45594000000E+02  0.51100000000E-03 0. -1.
    9900012    2    1    2    0    0 -0.95567951066E+00 -0.25840776059E+00 -0.64247628671E+00  0.90007799307E+02  0.90000061457E+02 0.  0.
        -12    1    1    2    0    0  0.95567951066E+00  0.25840776059E+00  0.64247628671E+00  0.11802006934E+01  0.00000000000E+00 0.  1.
         11    1    3    3    0    0  0.44851897705E+01  0.63660919165E+01  0.47345261718E+01  0.91137144951E+01  0.51100000000E-03 0. -1.
        -11    1    3    3    0    0  0.30689406711E+02 -0.25360961598E+02 -0.55282441777E+01  0.40194272495E+02  0.51100000000E-03 0.  1.
         12    1    3    3    0    0 -0.36130275992E+02  0.18736461921E+02  0.15124171922E+00  0.40699812317E+02  0.00000000000E+00 0. -1.
</event>
<event>
 7    1  0.3505640E-015  0.9000769E+02  0.7816164E-02  0.1186339E+00
        -11   -1    0    0    0    0  0.00000000000E+00  0.00000000000E+00  0.45593999997E+02  0.45594000000E+02  0.51100000000E-03 0. -1.
         11   -1    0    0    0    0 -0.00000000000E+00 -0.00000000000E+00 -0.45593999997E+02  0.45594000000E+02  0.51100000000E-03 0.  1.
    9900012    2    1    2    0    0 -0.23967975766E-01  0.31114803888E+00  0.11383066044E+01  0.90007690934E+02  0.89999951654E+02 0.  0.
        -12    1    1    2    0    0  0.23967975766E-01 -0.31114803888E+00 -0.11383066044E+01  0.11803090662E+01  0.00000000000E+00 0.  1.
         11    1    3    3    0    0 -0.60164315104E+01  0.77238020344E+01  0.29574987830E+01  0.10227480887E+02  0.51100000000E-03 0. -1.
        -11    1    3    3    0    0 -0.17194791163E+02  0.18055656450E+00 -0.34763935617E+02  0.38784335287E+02  0.51100000000E-03 0.  1.
         12    1    3    3    0    0  0.23187254698E+02 -0.75932105601E+01  0.32944743439E+02  0.40995874759E+02  0.00000000000E+00 0. -1.
</event>
<event>
 7    1  0.3505640E-015  0.9000771E+02  0.7816164E-02  0.1186339E+00
        -11   -1    0    0    0    0  0.00000000000E+00  0.00000000000E+00  0.45593999997E+02  0.45594000000E+02  0.51100000000E-03 0.  1.
         11   -1    0    0    0    0 -0.00000000000E+00 -0.00000000000E+00 -0.45593999997E+02  0.45594000000E+02  0.51100000000E-03 0. -1.
    9900012    2    1    2    0    0 -0.10212069867E+01 -0.56113370818E+00  0.18804441548E+00  0.90007705354E+02  0.89999966265E+02 0.  0.
        -12    1    1    2    0    0  0.10212069867E+01  0.56113370818E+00 -0.18804441548E+00  0.11802946456E+01  0.00000000000E+00 0.  1.
         11    1    3    3    0    0 -0.42873004715E+02 -0.99731517207E+01  0.79744054312E+01  0.44734208731E+02  0.51100000000E-03 0. -1.
        -11    1    3    3    0    0  0.10294402834E+02 -0.17329621189E+01 -0.53160090165E+01  0.11714855507E+02  0.51100000000E-03 0.  1.
        -12    1    3    3    0    0  0.31557394894E+02  0.11144980131E+02 -0.24703519992E+01  0.33558641117E+02  0.00000000000E+00 0.  1.
</event>
<event>
 7    1  0.3505640E-015  0.9000773E+02  0.7816164E-02  0.1186339E+00
        -11   -1    0    0    0    0  0.00000000000E+00  0.00000000000E+00  0.45593999997E+02  0.45594000000E+02  0.51100000000E-03 0.  1.
         11   -1    0    0    0    0 -0.00000000000E+00 -0.00000000000E+00 -0.45593999997E+02  0.45594000000E+02  0.51100000000E-03 0. -1.
    9900012    2    1    2    0    0 -0.11458443468E+01 -0.20847878884E+00 -0.19137801440E+00  0.90007725364E+02  0.89999986539E+02 0.  0.
        -12    1    1    2    0    0  0.11458443468E+01  0.20847878884E+00  0.19137801440E+00  0.11802746362E+01  0.00000000000E+00 0.  1.
         11    1    3    3    0    0  0.59663703635E+01 -0.37676809271E+00  0.54611102685E+01  0.80971140004E+01  0.51100000000E-03 0. -1.
        -11    1    3    3    0    0 -0.80418778888E+00 -0.87473811504E+00  0.37886270978E+02  0.37904899600E+02  0.51100000000E-03 0.  1.
         12    1    3    3    0    0 -0.63080269214E+01  0.10430274189E+01 -0.43538759261E+02  0.44005711764E+02  0.00000000000E+00 0. -1.
</event>
<event>
 7    1  0.4856927E-015  0.9000755E+02  0.7816164E-02  0.1186339E+00
        -11   -1    0    0    0    0  0.00000000000E+00  0.00000000000E+00  0.45593999997E+02  0.45594000000E+02  0.51100000000E-03 0.  1.
         11   -1    0    0    0    0 -0.00000000000E+00 -0.00000000000E+00 -0.45593999997E+02  0.45594000000E+02  0.51100000000E-03 0. -1.
    9900012    2    1    2    0    0  0.89395710937E+00  0.43921125622E+00 -0.63356126096E+00  0.90007548513E+02  0.89999807354E+02 0.  0.
        -12    1    1    2    0    0 -0.89395710937E+00 -0.43921125622E+00  0.63356126096E+00  0.11804514867E+01  0.00000000000E+00 0.  1.
         11    1    3    3    0    0 -0.10471239751E+01  0.44938985015E+01  0.74637491690E+01  0.87749156281E+01  0.51100000000E-03 0. -1.
        -11    1    3    3    0    0 -0.15695545930E+02  0.18127928237E+01  0.32746235887E+02  0.36358662584E+02  0.51100000000E-03 0.  1.
         12    1    3    3    0    0  0.17636627015E+02 -0.58674800690E+01 -0.40843546317E+02  0.44873970301E+02  0.00000000000E+00 0. -1.
</event>
<event>
 7    1  0.3505640E-015  0.9000768E+02  0.7816164E-02  0.1186339E+00
        -11   -1    0    0    0    0  0.00000000000E+00  0.00000000000E+00  0.45593999997E+02  0.45594000000E+02  0.51100000000E-03 0.  1.
         11   -1    0    0    0    0 -0.00000000000E+00 -0.00000000000E+00 -0.45593999997E+02  0.45594000000E+02  0.51100000000E-03 0. -1.
    9900012    2    1    2    0    0 -0.16389953983E+00 -0.53798983370E+00 -0.10377146775E+01  0.90007683147E+02  0.89999943765E+02 0.  0.
        -12    1    1    2    0    0  0.16389953983E+00  0.53798983370E+00  0.10377146775E+01  0.11803168525E+01  0.00000000000E+00 0.  1.
         11    1    3    3    0    0 -0.78339234082E+01 -0.70277289958E+01  0.10098126267E+01  0.10572561308E+02  0.51100000000E-03 0. -1.
        -11    1    3    3    0    0 -0.12502427988E+01 -0.83435071946E+01  0.36350227011E+02  0.37316433691E+02  0.51100000000E-03 0.  1.
         12    1    3    3    0    0  0.89202666672E+01  0.14833246357E+02 -0.38397754316E+02  0.42118688149E+02  0.00000000000E+00 0. -1.
</event>
<event>
 7    1  0.3505640E-015  0.9000789E+02  0.7816164E-02  0.1186339E+00
        -11   -1    0    0    0    0  0.00000000000E+00  0.00000000000E+00  0.45593999997E+02  0.45594000000E+02  0.51100000000E-03 0.  1.
         11   -1    0    0    0    0 -0.00000000000E+00 -0.00000000000E+00 -0.45593999997E+02  0.45594000000E+02  0.51100000000E-03 0. -1.
    9900012    2    1    2    0    0 -0.81276691483E+00 -0.80242176625E+00  0.29698030848E+00  0.90007886424E+02  0.90000149725E+02 0.  0.
        -12    1    1    2    0    0  0.81276691483E+00  0.80242176625E+00 -0.29698030848E+00  0.11801135761E+01  0.00000000000E+00 0.  1.
         11    1    3    3    0    0 -0.26691955326E+02  0.14510866022E+02  0.22196790721E+02  0.37626097730E+02  0.51100000000E-03 0. -1.
        -11    1    3    3    0    0 -0.64109455809E+01 -0.64600451716E+01  0.41081785590E+01  0.99854663484E+01  0.51100000000E-03 0.  1.
        -12    1    3    3    0    0  0.32290133992E+02 -0.88532426166E+01 -0.26007988971E+02  0.42396322345E+02  0.00000000000E+00 0.  1.
</event>
<event>
 7    1  0.3505640E-015  0.9000763E+02  0.7816164E-02  0.1186339E+00
        -11   -1    0    0    0    0  0.00000000000E+00  0.00000000000E+00  0.45593999997E+02  0.45594000000E+02  0.51100000000E-03 0.  1.
         11   -1    0    0    0    0 -0.00000000000E+00 -0.00000000000E+00 -0.45593999997E+02  0.45594000000E+02  0.51100000000E-03 0. -1.
    9900012    2    1    2    0    0  0.51818277326E+00  0.73934030317E+00  0.76035166471E+00  0.90007630514E+02  0.89999890436E+02 0.  0.
        -12    1    1    2    0    0 -0.51818277326E+00 -0.73934030317E+00 -0.76035166471E+00  0.11803694864E+01  0.00000000000E+00 0.  1.
         11    1    3    3    0    0  0.47516014539E+01  0.86208721027E+01  0.23293171920E+02  0.25287724503E+02  0.51100000000E-03 0. -1.
        -11    1    3    3    0    0 -0.21467572619E+02  0.15255924555E+02  0.25908887105E+01  0.26463420276E+02  0.51100000000E-03 0.  1.
        -12    1    3    3    0    0  0.17234153938E+02 -0.23137456354E+02 -0.25123708966E+02  0.38256485734E+02  0.00000000000E+00 0.  1.
</event>
<event>
 7    1  0.3505640E-015  0.9000771E+02  0.7816164E-02  0.1186339E+00
        -11   -1    0    0    0    0  0.00000000000E+00  0.00000000000E+00  0.45593999997E+02  0.45594000000E+02  0.51100000000E-03 0.  1.
         11   -1    0    0    0    0 -0.00000000000E+00 -0.00000000000E+00 -0.45593999997E+02  0.45594000000E+02  0.51100000000E-03 0. -1.
    9900012    2    1    2    0    0  0.11147480569E+01 -0.58592032375E-01 -0.38337811928E+00  0.90007714001E+02  0.89999975026E+02 0.  0.
        -12    1    1    2    0    0 -0.11147480569E+01  0.58592032375E-01  0.38337811928E+00  0.11802859988E+01  0.00000000000E+00 0.  1.
         11    1    3    3    0    0  0.75397033092E+01  0.14041293551E+02 -0.32181991727E+02  0.35912193505E+02  0.51100000000E-03 0. -1.
        -11    1    3    3    0    0  0.14269857228E+01  0.11202809145E+01 -0.93504222534E+01  0.95247947042E+01  0.51100000000E-03 0.  1.
        -12    1    3    3    0    0 -0.78519409751E+01 -0.15220166498E+02  0.41149035861E+02  0.44570725792E+02  0.00000000000E+00 0.  1.
</event>
<event>
 7    1  0.3505640E-015  0.9000773E+02  0.7816164E-02  0.1186339E+00
        -11   -1    0    0    0    0  0.00000000000E+00  0.00000000000E+00  0.45593999997E+02  0.45594000000E+02  0.51100000000E-03 0.  1.
         11   -1    0    0    0    0 -0.00000000000E+00 -0.00000000000E+00 -0.45593999997E+02  0.45594000000E+02  0.51100000000E-03 0. -1.
    9900012    2    1    2    0    0 -0.72748699589E+00 -0.82507870809E+00 -0.42784467880E+00  0.90007727458E+02  0.89999988661E+02 0.  0.
        -12    1    1    2    0    0  0.72748699589E+00  0.82507870809E+00  0.42784467880E+00  0.11802725418E+01  0.00000000000E+00 0.  1.
         11    1    3    3    0    0  0.35269746656E+01 -0.59805630124E+01 -0.14874828489E+02  0.16415456347E+02  0.51100000000E-03 0. -1.
        -11    1    3    3    0    0  0.30676472556E+02  0.11338382760E+02 -0.50832166083E+01  0.33097492102E+02  0.51100000000E-03 0.  1.
         12    1    3    3    0    0 -0.34930934218E+02 -0.61828984555E+01  0.19530200419E+02  0.40494779009E+02  0.00000000000E+00 0. -1.
</event>
<event>
 7    1  0.3505640E-015  0.9000773E+02  0.7816164E-02  0.1186339E+00
        -11   -1    0    0    0    0  0.00000000000E+00  0.00000000000E+00  0.45593999997E+02  0.45594000000E+02  0.51100000000E-03 0.  1.
         11   -1    0    0    0    0 -0.00000000000E+00 -0.00000000000E+00 -0.45593999997E+02  0.45594000000E+02  0.51100000000E-03 0. -1.
    9900012    2    1    2    0    0  0.93175350535E+00  0.71955652918E+00  0.84313868911E-01  0.90007730954E+02  0.89999992202E+02 0.  0.
        -12    1    1    2    0    0 -0.93175350535E+00 -0.71955652918E+00 -0.84313868911E-01  0.11802690464E+01  0.00000000000E+00 0.  1.
         11    1    3    3    0    0 -0.53489784558E+01  0.22482183307E+01 -0.76696981228E+01  0.96171890768E+01  0.51100000000E-03 0. -1.
        -11    1    3    3    0    0 -0.17356130436E+02  0.15823903968E+02 -0.26426946790E+02  0.35355547195E+02  0.51100000000E-03 0.  1.
         12    1    3    3    0    0  0.23636862397E+02 -0.17352565770E+02  0.34180958782E+02  0.45034994682E+02  0.00000000000E+00 0. -1.
</event>
<event>
 7    1  0.3505640E-015  0.9000778E+02  0.7816164E-02  0.1186339E+00
        -11   -1    0    0    0    0  0.00000000000E+00  0.00000000000E+00  0.45593999997E+02  0.45594000000E+02  0.51100000000E-03 0. -1.
         11   -1    0    0    0    0 -0.00000000000E+00 -0.00000000000E+00 -0.45593999997E+02  0.45594000000E+02  0.51100000000E-03 0.  1.
    9900012    2    1    2    0    0 -0.20173222895E-01 -0.97258869965E+00  0.66826698514E+00  0.90007781164E+02  0.90000043075E+02 0.  0.
        -12    1    1    2    0    0  0.20173222895E-01  0.97258869965E+00 -0.66826698514E+00  0.11802188361E+01  0.00000000000E+00 0.  1.
         11    1    3    3    0    0  0.57838472557E+01 -0.64545207355E+01 -0.52419378244E+01  0.10128753103E+02  0.51100000000E-03 0. -1.
        -11    1    3    3    0    0  0.34224379378E+02 -0.11116568505E+02  0.63657032531E+01  0.36543240378E+02  0.51100000000E-03 0.  1.
         12    1    3    3    0    0 -0.40028399857E+02  0.16598500541E+02 -0.45549844351E+00  0.43335787683E+02  0.00000000000E+00 0. -1.
</event>
<event>
 7    1  0.3505640E-015  0.9000767E+02  0.7816164E-02  0.1186339E+00
        -11   -1    0    0    0    0  0.00000000000E+00  0.00000000000E+00  0.45593999997E+02  0.45594000000E+02  0.51100000000E-03 0.  1.
         11   -1    0    0    0    0 -0.00000000000E+00 -0.00000000000E+00 -0.45593999997E+02  0.45594000000E+02  0.51100000000E-03 0. -1.
    9900012    2    1    2    0    0 -0.11351659501E+01 -0.27175259660E+00 -0.17529618852E+00  0.90007669554E+02  0.89999929992E+02 0.  0.
        -12    1    1    2    0    0  0.11351659501E+01  0.27175259660E+00  0.17529618852E+00  0.11803304460E+01  0.00000000000E+00 0.  1.
         11    1    3    3    0    0  0.18961430381E+02  0.35784506262E+02  0.23112491905E+01  0.40563636469E+02  0.51100000000E-03 0. -1.
        -11    1    3    3    0    0  0.61137334405E+01 -0.35987785550E+01  0.22848051405E+01  0.74531388328E+01  0.51100000000E-03 0.  1.
        -12    1    3    3    0    0 -0.26210329772E+02 -0.32457480303E+02 -0.47713505195E+01  0.41990894253E+02  0.00000000000E+00 0.  1.
</event>
<event>
 7    1  0.3505640E-015  0.9000778E+02  0.7816164E-02  0.1186339E+00
        -11   -1    0    0    0    0  0.00000000000E+00  0.00000000000E+00  0.45593999997E+02  0.45594000000E+02  0.51100000000E-03 0.  1.
         11   -1    0    0    0    0 -0.00000000000E+00 -0.00000000000E+00 -0.45593999997E+02  0.45594000000E+02  0.51100000000E-03 0. -1.
    9900012    2    1    2    0    0 -0.77645733435E+00 -0.87968050851E+00 -0.12721650476E+00  0.90007784838E+02  0.90000046798E+02 0.  0.
        -12    1    1    2    0    0  0.77645733435E+00  0.87968050851E+00  0.12721650476E+00  0.11802151618E+01  0.00000000000E+00 0.  1.
         11    1    3    3    0    0 -0.83396731444E+01  0.12455270139E+02 -0.21735232426E+01  0.15146224148E+02  0.51100000000E-03 0. -1.
        -11    1    3    3    0    0 -0.13084861909E+02 -0.38722615384E+02  0.78665382545E+01  0.41623754969E+02  0.51100000000E-03 0.  1.
         12    1    3    3    0    0  0.20648077719E+02  0.25387664736E+02 -0.58202315167E+01  0.33237805721E+02  0.00000000000E+00 0. -1.
</event>
<event>
 7    1  0.3505640E-015  0.9000748E+02  0.7816164E-02  0.1186340E+00
        -11   -1    0    0    0    0  0.00000000000E+00  0.00000000000E+00  0.45593999997E+02  0.45594000000E+02  0.51100000000E-03 0.  1.
         11   -1    0    0    0    0 -0.00000000000E+00 -0.00000000000E+00 -0.45593999997E+02  0.45594000000E+02  0.51100000000E-03 0. -1.
    9900012    2    1    2    0    0  0.67755838936E+00  0.16448384488E+00 -0.95262538073E+00  0.90007476632E+02  0.89999734523E+02 0.  0.
        -12    1    1    2    0    0 -0.67755838936E+00 -0.16448384488E+00  0.95262538073E+00  0.11805233679E+01  0.00000000000E+00 0.  1.
         11    1    3    3    0    0  0.34622582920E+02  0.80277897433E+01  0.11682834786E+02  0.37411993868E+02  0.51100000000E-03 0. -1.
        -11    1    3    3    0    0  0.49148160914E+00  0.99560129184E+01  0.35468962097E+01  0.10580369577E+02  0.51100000000E-03 0.  1.
        -12    1    3    3    0    0 -0.34436506140E+02 -0.17819318817E+02 -0.16182356377E+02  0.42015113187E+02  0.00000000000E+00 0.  1.
</event>
<event>
 7    1  0.3505640E-015  0.9000786E+02  0.7816164E-02  0.1186339E+00
        -11   -1    0    0    0    0  0.00000000000E+00  0.00000000000E+00  0.45593999997E+02  0.45594000000E+02  0.51100000000E-03 0.  1.
         11   -1    0    0    0    0 -0.00000000000E+00 -0.00000000000E+00 -0.45593999997E+02  0.45594000000E+02  0.51100000000E-03 0. -1.
    9900012    2    1    2    0    0 -0.72325536662E+00  0.91378596750E+00 -0.18608296562E+00  0.90007860182E+02  0.90000123136E+02 0.  0.
        -12    1    1    2    0    0  0.72325536662E+00 -0.91378596750E+00  0.18608296562E+00  0.11801398179E+01  0.00000000000E+00 0.  1.
         11    1    3    3    0    0  0.33087059872E+02 -0.25433926058E+02  0.10141669266E+02  0.42947544533E+02  0.51100000000E-03 0. -1.
        -11    1    3    3    0    0 -0.88855156580E+01  0.21110252066E+01  0.33116003036E+01  0.97147060050E+01  0.51100000000E-03 0.  1.
        -12    1    3    3    0    0 -0.24924799581E+02  0.24236686818E+02 -0.13639352535E+02  0.37345609644E+02  0.00000000000E+00 0.  1.
</event>
<event>
 7    1  0.3505640E-015  0.9000774E+02  0.7816164E-02  0.1186339E+00
        -11   -1    0    0    0    0  0.00000000000E+00  0.00000000000E+00  0.45593999997E+02  0.45594000000E+02  0.51100000000E-03 0.  1.
         11   -1    0    0    0    0 -0.00000000000E+00 -0.00000000000E+00 -0.45593999997E+02  0.45594000000E+02  0.51100000000E-03 0. -1.
    9900012    2    1    2    0    0  0.10225014235E+01  0.39856945065E+00  0.43433159657E+00  0.90007741256E+02  0.90000002640E+02 0.  0.
        -12    1    1    2    0    0 -0.10225014235E+01 -0.39856945065E+00 -0.43433159657E+00  0.11802587445E+01  0.00000000000E+00 0.  1.
         11    1    3    3    0    0 -0.32743427485E+01 -0.88632136094E+01 -0.33967913583E+02  0.35257581161E+02  0.51100000000E-03 0. -1.
        -11    1    3    3    0    0  0.19678083601E+01  0.19008755138E+01 -0.96480072224E+01  0.10028441608E+02  0.51100000000E-03 0.  1.
        -12    1    3    3    0    0  0.23290358119E+01  0.73609075462E+01  0.44050252402E+02  0.44721718486E+02  0.00000000000E+00 0.  1.
</event>
<event>
 7    1  0.3505640E-015  0.9000775E+02  0.7816164E-02  0.1186339E+00
        -11   -1    0    0    0    0  0.00000000000E+00  0.00000000000E+00  0.45593999997E+02  0.45594000000E+02  0.51100000000E-03 0.  1.
         11   -1    0    0    0    0 -0.00000000000E+00 -0.00000000000E+00 -0.45593999997E+02  0.45594000000E+02  0.51100000000E-03 0. -1.
    9900012    2    1    2    0    0  0.89258099633E+00  0.28783244925E-01 -0.77166365025E+00  0.90007748290E+02  0.90000009767E+02 0.  0.
        -12    1    1    2    0    0 -0.89258099633E+00 -0.28783244925E-01  0.77166365025E+00  0.11802517101E+01  0.00000000000E+00 0.  1.
         11    1    3    3    0    0 -0.14324715911E+02 -0.73248200876E+01  0.67826358051E+01  0.17460086597E+02  0.51100000000E-03 0. -1.
        -11    1    3    3    0    0  0.37216509862E+02 -0.13652210521E+02 -0.12851310628E+02  0.41672624630E+02  0.51100000000E-03 0.  1.
         12    1    3    3    0    0 -0.21999212955E+02  0.21005813853E+02  0.52970111731E+01  0.30875037063E+02  0.00000000000E+00 0. -1.
</event>
<event>
 7    1  0.3505640E-015  0.9000778E+02  0.7816164E-02  0.1186339E+00
        -11   -1    0    0    0    0  0.00000000000E+00  0.00000000000E+00  0.45593999997E+02  0.45594000000E+02  0.51100000000E-03 0.  1.
         11   -1    0    0    0    0 -0.00000000000E+00 -0.00000000000E+00 -0.45593999997E+02  0.45594000000E+02  0.51100000000E-03 0. -1.
    9900012    2    1    2    0    0  0.26025381543E-01 -0.11653724044E+01 -0.18478414583E+00  0.90007781655E+02  0.90000043573E+02 0.  0.
        -12    1    1    2    0    0 -0.26025381543E-01  0.11653724044E+01  0.18478414583E+00  0.11802183450E+01  0.00000000000E+00 0.  1.
         11    1    3    3    0    0  0.20947224409E+02  0.27779950222E+01 -0.90512941041E+01  0.22987592132E+02  0.51100000000E-03 0. -1.
        -11    1    3    3    0    0 -0.13357959956E+02  0.12615333219E+02  0.32412363088E+02  0.37257791234E+02  0.51100000000E-03 0.  1.
         12    1    3    3    0    0 -0.75632390718E+01 -0.16558700646E+02 -0.23545853130E+02  0.29762398290E+02  0.00000000000E+00 0. -1.
</event>
<event>
 7    1  0.3505640E-015  0.9000760E+02  0.7816164E-02  0.1186339E+00
        -11   -1    0    0    0    0  0.00000000000E+00  0.00000000000E+00  0.45593999997E+02  0.45594000000E+02  0.51100000000E-03 0. -1.
         11   -1    0    0    0    0 -0.00000000000E+00 -0.00000000000E+00 -0.45593999997E+02  0.45594000000E+02  0.51100000000E-03 0.  1.
    9900012    2    1    2    0    0 -0.53796505848E+00  0.13201901005E+00  0.10423620594E+01  0.90007595795E+02  0.89999855260E+02 0.  0.
        -12    1    1    2    0    0  0.53796505848E+00 -0.13201901005E+00 -0.10423620594E+01  0.11804042045E+01  0.00000000000E+00 0.  1.
         11    1    3    3    0    0  0.28163337252E+02 -0.26147189635E+02  0.82219664257E+01  0.39299488840E+02  0.51100000000E-03 0. -1.
        -11    1    3    3    0    0  0.24770238045E+01  0.83318175710E+01  0.78571551181E+01  0.11717069505E+02  0.51100000000E-03 0.  1.
        -12    1    3    3    0    0 -0.31178326115E+02  0.17947391074E+02 -0.15036759484E+02  0.38991037450E+02  0.00000000000E+00 0.  1.
</event>
<event>
 7    1  0.3505640E-015  0.9000778E+02  0.7816164E-02  0.1186339E+00
        -11   -1    0    0    0    0  0.00000000000E+00  0.00000000000E+00  0.45593999997E+02  0.45594000000E+02  0.51100000000E-03 0.  1.
         11   -1    0    0    0    0 -0.00000000000E+00 -0.00000000000E+00 -0.45593999997E+02  0.45594000000E+02  0.51100000000E-03 0. -1.
    9900012    2    1    2    0    0  0.88467545082E+00  0.24899312646E+00  0.74045703288E+00  0.90007777628E+02  0.90000039492E+02 0.  0.
        -12    1    1    2    0    0 -0.88467545082E+00 -0.24899312646E+00 -0.74045703288E+00  0.11802223722E+01  0.00000000000E+00 0.  1.
         11    1    3    3    0    0 -0.55013683728E+01 -0.79940432590E+00  0.89436060840E+01  0.10530536135E+02  0.51100000000E-03 0. -1.
        -11    1    3    3    0    0 -0.45492449449E+01  0.39143064862E+02 -0.48135502226E+01  0.39699438565E+02  0.51100000000E-03 0.  1.
         12    1    3    3    0    0  0.10935288769E+02 -0.38094667410E+02 -0.33895988285E+01  0.39777802927E+02  0.00000000000E+00 0. -1.
</event>
<event>
 7    1  0.3505640E-015  0.9000766E+02  0.7816164E-02  0.1186339E+00
        -11   -1    0    0    0    0  0.00000000000E+00  0.00000000000E+00  0.45593999997E+02  0.45594000000E+02  0.51100000000E-03 0.  1.
         11   -1    0    0    0    0 -0.00000000000E+00 -0.00000000000E+00 -0.45593999997E+02  0.45594000000E+02  0.51100000000E-03 0. -1.
    9900012    2    1    2    0    0 -0.90063541947E+00 -0.69475262183E+00  0.31523142307E+00  0.90007662669E+02  0.89999923016E+02 0.  0.
        -12    1    1    2    0    0  0.90063541947E+00  0.69475262183E+00 -0.31523142307E+00  0.11803373308E+01  0.00000000000E+00 0.  1.
         11    1    3    3    0    0  0.66035434655E+01 -0.67740796178E+01  0.52142213468E+01  0.10801992663E+02  0.51100000000E-03 0. -1.
        -11    1    3    3    0    0  0.20628973555E+02 -0.35306334047E+01  0.27939546653E+02  0.34908998691E+02  0.51100000000E-03 0.  1.
         12    1    3    3    0    0 -0.28133152440E+02  0.96099604007E+01 -0.32838536577E+02  0.44296671315E+02  0.00000000000E+00 0. -1.
</event>
<event>
 7    1  0.3505640E-015  0.9000793E+02  0.7816164E-02  0.1186339E+00
        -11   -1    0    0    0    0  0.00000000000E+00  0.00000000000E+00  0.45593999997E+02  0.45594000000E+02  0.51100000000E-03 0.  1.
         11   -1    0    0    0    0 -0.00000000000E+00 -0.00000000000E+00 -0.45593999997E+02  0.45594000000E+02  0.51100000000E-03 0. -1.
    9900012    2    1    2    0    0  0.68386072963E+00 -0.48945962508E+00  0.82784590663E+00  0.90007930058E+02  0.90000193935E+02 0.  0.
        -12    1    1    2    0    0 -0.68386072963E+00  0.48945962508E+00 -0.82784590663E+00  0.11800699417E+01  0.00000000000E+00 0.  1.
         11    1    3    3    0    0  0.64279509706E+01  0.51025618496E+01  0.42455676326E+01  0.92401047555E+01  0.51100000000E-03 0. -1.
        -11    1    3    3    0    0  0.18845036929E+02  0.61059802756E+01  0.31056672624E+02  0.36836603083E+02  0.51100000000E-03 0.  1.
         12    1    3    3    0    0 -0.24589127170E+02 -0.11698001750E+02 -0.34474394350E+02  0.43931222220E+02  0.00000000000E+00 0. -1.
</event>
<event>
 7    1  0.3505640E-015  0.9000777E+02  0.7816164E-02  0.1186339E+00
        -11   -1    0    0    0    0  0.00000000000E+00  0.00000000000E+00  0.45593999997E+02  0.45594000000E+02  0.51100000000E-03 0.  1.
         11   -1    0    0    0    0 -0.00000000000E+00 -0.00000000000E+00 -0.45593999997E+02  0.45594000000E+02  0.51100000000E-03 0. -1.
    9900012    2    1    2    0    0  0.64274502628E+00 -0.82338836398E+00 -0.54942158122E+00  0.90007765430E+02  0.90000027133E+02 0.  0.
        -12    1    1    2    0    0 -0.64274502628E+00  0.82338836398E+00  0.54942158122E+00  0.11802345702E+01  0.00000000000E+00 0.  1.
         11    1    3    3    0    0 -0.98217678926E+01 -0.35496110052E+02  0.50350563861E+01  0.37172472967E+02  0.51100000000E-03 0. -1.
        -11    1    3    3    0    0 -0.87999076540E+01 -0.31233097301E+01  0.24613074673E+01  0.96566802317E+01  0.51100000000E-03 0.  1.
        -12    1    3    3    0    0  0.19264420573E+02  0.37796031418E+02 -0.80457854346E+01  0.43178612232E+02  0.00000000000E+00 0.  1.
</event>
<event>
 7    1  0.3505640E-015  0.9000814E+02  0.7816164E-02  0.1186338E+00
        -11   -1    0    0    0    0  0.00000000000E+00  0.00000000000E+00  0.45593999997E+02  0.45594000000E+02  0.51100000000E-03 0.  1.
         11   -1    0    0    0    0 -0.00000000000E+00 -0.00000000000E+00 -0.45593999997E+02  0.45594000000E+02  0.51100000000E-03 0. -1.
    9900012    2    1    2    0    0  0.29855709797E-01 -0.11606177740E+01  0.21011975659E+00  0.90008137596E+02  0.90000404211E+02 0.  0.
        -12    1    1    2    0    0 -0.29855709797E-01  0.11606177740E+01 -0.21011975659E+00  0.11798624042E+01  0.00000000000E+00 0.  1.
         11    1    3    3    0    0  0.43838692392E+01 -0.38981083599E+01 -0.21112314172E+01  0.62346496814E+01  0.51100000000E-03 0. -1.
        -11    1    3    3    0    0  0.32381501257E+02  0.11404667149E+02 -0.20188135279E+02  0.39826986614E+02  0.51100000000E-03 0.  1.
         12    1    3    3    0    0 -0.36735514786E+02 -0.86671765627E+01  0.22509486453E+02  0.43946501301E+02  0.00000000000E+00 0. -1.
</event>
<event>
 7    1  0.3505640E-015  0.9000793E+02  0.7816164E-02  0.1186339E+00
        -11   -1    0    0    0    0  0.00000000000E+00  0.00000000000E+00  0.45593999997E+02  0.45594000000E+02  0.51100000000E-03 0.  1.
         11   -1    0    0    0    0 -0.00000000000E+00 -0.00000000000E+00 -0.45593999997E+02  0.45594000000E+02  0.51100000000E-03 0. -1.
    9900012    2    1    2    0    0  0.53964818199E+00 -0.24157251885E+00 -0.10212676012E+01  0.90007930106E+02  0.90000193983E+02 0.  0.
        -12    1    1    2    0    0 -0.53964818199E+00  0.24157251885E+00  0.10212676012E+01  0.11800698943E+01  0.00000000000E+00 0.  1.
         11    1    3    3    0    0 -0.12554734673E+02  0.10015332631E+02  0.58560852354E+01  0.17094501601E+02  0.51100000000E-03 0. -1.
        -11    1    3    3    0    0  0.31754284599E+02  0.19644557117E+02 -0.32253808245E+01  0.37478611186E+02  0.51100000000E-03 0.  1.
         12    1    3    3    0    0 -0.18659901744E+02 -0.29901462267E+02 -0.36519720121E+01  0.35434817319E+02  0.00000000000E+00 0. -1.
</event>
<event>
 7    1  0.3505640E-015  0.9000799E+02  0.7816164E-02  0.1186339E+00
        -11   -1    0    0    0    0  0.00000000000E+00  0.00000000000E+00  0.45593999997E+02  0.45594000000E+02  0.51100000000E-03 0.  1.
         11   -1    0    0    0    0 -0.00000000000E+00 -0.00000000000E+00 -0.45593999997E+02  0.45594000000E+02  0.51100000000E-03 0. -1.
    9900012    2    1    2    0    0 -0.10690281154E+01 -0.12751606107E+00 -0.48304584547E+00  0.90007993752E+02  0.90000258469E+02 0.  0.
        -12    1    1    2    0    0  0.10690281154E+01  0.12751606107E+00  0.48304584547E+00  0.11800062483E+01  0.00000000000E+00 0.  1.
         11    1    3    3    0    0 -0.24815597727E+01 -0.77079710137E+01 -0.22444468715E+01  0.84028862942E+01  0.51100000000E-03 0. -1.
        -11    1    3    3    0    0 -0.28246377498E+02 -0.22445784581E+02 -0.10642367858E+02  0.37615569663E+02  0.51100000000E-03 0.  1.
         12    1    3    3    0    0  0.29658909155E+02  0.30026239534E+02  0.12403768884E+02  0.43989537794E+02  0.00000000000E+00 0. -1.
</event>
<event>
 7    1  0.3505640E-015  0.9000774E+02  0.7816164E-02  0.1186339E+00
        -11   -1    0    0    0    0  0.00000000000E+00  0.00000000000E+00  0.45593999997E+02  0.45594000000E+02  0.51100000000E-03 0. -1.
         11   -1    0    0    0    0 -0.00000000000E+00 -0.00000000000E+00 -0.45593999997E+02  0.45594000000E+02  0.51100000000E-03 0.  1.
    9900012    2    1    2    0    0 -0.11602751154E+01  0.18838622722E+00 -0.10621046899E+00  0.90007742241E+02  0.90000003639E+02 0.  0.
        -12    1    1    2    0    0  0.11602751154E+01 -0.18838622722E+00  0.10621046899E+00  0.11802577591E+01  0.00000000000E+00 0.  1.
         11    1    3    3    0    0 -0.11225610935E+02  0.58980052403E+01  0.28493546659E+01  0.12996908438E+02  0.51100000000E-03 0. -1.
        -11    1    3    3    0    0 -0.13845837050E+02 -0.23859369641E+02 -0.26961516967E+02  0.38573308398E+02  0.51100000000E-03 0.  1.
         12    1    3    3    0    0  0.23911172870E+02  0.18149750628E+02  0.24005951833E+02  0.38437525405E+02  0.00000000000E+00 0. -1.
</event>
<event>
 7    1  0.3505640E-015  0.9000769E+02  0.7816164E-02  0.1186339E+00
        -11   -1    0    0    0    0  0.00000000000E+00  0.00000000000E+00  0.45593999997E+02  0.45594000000E+02  0.51100000000E-03 0.  1.
         11   -1    0    0    0    0 -0.00000000000E+00 -0.00000000000E+00 -0.45593999997E+02  0.45594000000E+02  0.51100000000E-03 0. -1.
    9900012    2    1    2    0    0 -0.55137886049E+00 -0.48780100882E+00 -0.92259017265E+00  0.90007686017E+02  0.89999946672E+02 0.  0.
        -12    1    1    2    0    0  0.55137886049E+00  0.48780100882E+00  0.92259017265E+00  0.11803139831E+01  0.00000000000E+00 0.  1.
         11    1    3    3    0    0 -0.51277190777E+01  0.79113397163E+01  0.23672292299E+01  0.97204204402E+01  0.51100000000E-03 0. -1.
        -11    1    3    3    0    0  0.33992940546E+02  0.17300059706E+02  0.92774591979E+01  0.39254086695E+02  0.51100000000E-03 0.  1.
         12    1    3    3    0    0 -0.29416600329E+02 -0.25699200432E+02 -0.12567278600E+02  0.41033178882E+02  0.00000000000E+00 0. -1.
</event>
<event>
 7    1  0.3505640E-015  0.9000771E+02  0.7816164E-02  0.1186339E+00
        -11   -1    0    0    0    0  0.00000000000E+00  0.00000000000E+00  0.45593999997E+02  0.45594000000E+02  0.51100000000E-03 0. -1.
         11   -1    0    0    0    0 -0.00000000000E+00 -0.00000000000E+00 -0.45593999997E+02  0.45594000000E+02  0.51100000000E-03 0.  1.
    9900012    2    1    2    0    0 -0.73415619049E-02 -0.52710929639E+00  0.10560277995E+01  0.90007706468E+02  0.89999967393E+02 0.  0.
        -12    1    1    2    0    0  0.73415619049E-02  0.52710929639E+00 -0.10560277995E+01  0.11802935322E+01  0.00000000000E+00 0.  1.
         11    1    3    3    0    0  0.31754742130E+01 -0.14454498106E+01 -0.69606525742E+01  0.77861188119E+01  0.51100000000E-03 0. -1.
        -11    1    3    3    0    0  0.70222682027E+01  0.28680168104E+02 -0.24424984815E+02  0.38320284141E+02  0.51100000000E-03 0.  1.
         12    1    3    3    0    0 -0.10205083978E+02 -0.27761827589E+02  0.32441665189E+02  0.43901303515E+02  0.00000000000E+00 0. -1.
</event>
<event>
 7    1  0.3505640E-015  0.9000831E+02  0.7816164E-02  0.1186338E+00
        -11   -1    0    0    0    0  0.00000000000E+00  0.00000000000E+00  0.45593999997E+02  0.45594000000E+02  0.51100000000E-03 0. -1.
         11   -1    0    0    0    0 -0.00000000000E+00 -0.00000000000E+00 -0.45593999997E+02  0.45594000000E+02  0.51100000000E-03 0.  1.
    9900012    2    1    2    0    0 -0.17323883861E-01  0.11341668306E+01  0.32410228170E+00  0.90008306478E+02  0.90000575322E+02 0.  0.
        -12    1    1    2    0    0  0.17323883861E-01 -0.11341668306E+01 -0.32410228170E+00  0.11796935218E+01  0.00000000000E+00 0.  1.
         11    1    3    3    0    0  0.20991609974E+02  0.35453942125E+01  0.28090451117E+02  0.35246148068E+02  0.51100000000E-03 0. -1.
        -11    1    3    3    0    0 -0.47262070708E+01  0.39966368728E+01  0.10779709396E+02  0.12430296637E+02  0.51100000000E-03 0.  1.
        -12    1    3    3    0    0 -0.16282726787E+02 -0.64078642547E+01 -0.38546058231E+02  0.42331861772E+02  0.00000000000E+00 0.  1.
</event>
<event>
 7    1  0.3505640E-015  0.9000784E+02  0.7816164E-02  0.1186339E+00
        -11   -1    0    0    0    0  0.00000000000E+00  0.00000000000E+00  0.45593999997E+02  0.45594000000E+02  0.51100000000E-03 0.  1.
         11   -1    0    0    0    0 -0.00000000000E+00 -0.00000000000E+00 -0.45593999997E+02  0.45594000000E+02  0.51100000000E-03 0. -1.
    9900012    2    1    2    0    0 -0.28459714793E+00 -0.11306368026E+01 -0.18286550758E+00  0.90007841151E+02  0.90000103854E+02 0.  0.
        -12    1    1    2    0    0  0.28459714793E+00  0.11306368026E+01  0.18286550758E+00  0.11801588494E+01  0.00000000000E+00 0.  1.
         11    1    3    3    0    0  0.15462499178E+02  0.24555434770E+02 -0.23170675608E+02  0.37134060725E+02  0.51100000000E-03 0. -1.
        -11    1    3    3    0    0  0.56770037056E+00  0.85869522017E+01  0.21472808921E+00  0.86083761674E+01  0.51100000000E-03 0.  1.
        -12    1    3    3    0    0 -0.16314796696E+02 -0.34273023774E+02  0.22773082011E+02  0.44265404258E+02  0.00000000000E+00 0.  1.
</event>
<event>
 7    1  0.3505640E-015  0.9000763E+02  0.7816164E-02  0.1186339E+00
        -11   -1    0    0    0    0  0.00000000000E+00  0.00000000000E+00  0.45593999997E+02  0.45594000000E+02  0.51100000000E-03 0.  1.
         11   -1    0    0    0    0 -0.00000000000E+00 -0.00000000000E+00 -0.45593999997E+02  0.45594000000E+02  0.51100000000E-03 0. -1.
    9900012    2    1    2    0    0  0.11631298786E+01  0.90554420159E-01 -0.17941799151E+00  0.90007634788E+02  0.89999894767E+02 0.  0.
        -12    1    1    2    0    0 -0.11631298786E+01 -0.90554420159E-01  0.17941799151E+00  0.11803652118E+01  0.00000000000E+00 0.  1.
         11    1    3    3    0    0 -0.32390794492E+01  0.33585023839E+02  0.14836835102E+02  0.36858881400E+02  0.51100000000E-03 0. -1.
        -11    1    3    3    0    0  0.64265118255E+01  0.49002375481E+01  0.52986371146E+01  0.96637434674E+01  0.51100000000E-03 0.  1.
        -12    1    3    3    0    0 -0.20243024977E+01 -0.38394706967E+02 -0.20314890208E+02  0.43485009921E+02  0.00000000000E+00 0.  1.
</event>
<event>
 7    1  0.3505640E-015  0.9000776E+02  0.7816164E-02  0.1186339E+00
        -11   -1    0    0    0    0  0.00000000000E+00  0.00000000000E+00  0.45593999997E+02  0.45594000000E+02  0.51100000000E-03 0. -1.
         11   -1    0    0    0    0 -0.00000000000E+00 -0.00000000000E+00 -0.45593999997E+02  0.45594000000E+02  0.51100000000E-03 0.  1.
    9900012    2    1    2    0    0 -0.17039064214E+00 -0.91050246862E+00  0.73137961754E+00  0.90007761100E+02  0.90000022746E+02 0.  0.
        -12    1    1    2    0    0  0.17039064214E+00  0.91050246862E+00 -0.73137961754E+00  0.11802389001E+01  0.00000000000E+00 0.  1.
         11    1    3    3    0    0 -0.53979935232E+01 -0.75432313747E+01  0.70072379748E+00  0.93021335053E+01  0.51100000000E-03 0. -1.
        -11    1    3    3    0    0 -0.13832129973E+02  0.38558146689E+02  0.10086773899E+02  0.42187693747E+02  0.51100000000E-03 0.  1.
         12    1    3    3    0    0  0.19059732854E+02 -0.31925417783E+02 -0.10056118079E+02  0.38517933848E+02  0.00000000000E+00 0. -1.
</event>
<event>
 7    1  0.3505640E-015  0.9000777E+02  0.7816164E-02  0.1186339E+00
        -11   -1    0    0    0    0  0.00000000000E+00  0.00000000000E+00  0.45593999997E+02  0.45594000000E+02  0.51100000000E-03 0. -1.
         11   -1    0    0    0    0 -0.00000000000E+00 -0.00000000000E+00 -0.45593999997E+02  0.45594000000E+02  0.51100000000E-03 0.  1.
    9900012    2    1    2    0    0  0.13585812263E-01 -0.12809277118E-01  0.11800840937E+01  0.90007768192E+02  0.90000029932E+02 0.  0.
        -12    1    1    2    0    0 -0.13585812263E-01  0.12809277118E-01 -0.11800840937E+01  0.11802318078E+01  0.00000000000E+00 0.  1.
         11    1    3    3    0    0  0.24400140701E+02  0.28162504331E+02 -0.21086443957E+01  0.37322110041E+02  0.51100000000E-03 0. -1.
        -11    1    3    3    0    0 -0.16774166430E+02  0.57796275710E+01  0.10190105703E+00  0.17742241638E+02  0.51100000000E-03 0.  1.
         12    1    3    3    0    0 -0.76123884595E+01 -0.33954941179E+02  0.31868274323E+01  0.34943416513E+02  0.00000000000E+00 0. -1.
</event>
