<event>
 7    1  0.4450624E-010  0.4778728E+02  0.7816164E-02  0.1312668E+00
        -11   -1    0    0    0    0  0.00000000000E+00  0.00000000000E+00  0.45593999997E+02  0.45594000000E+02  0.51100000000E-03 0. -1.
         11   -1    0    0    0    0 -0.00000000000E+00 -0.00000000000E+00 -0.45593999997E+02  0.45594000000E+02  0.51100000000E-03 0.  1.
    9900012    2    1    2    0    0 -0.12150059402E+02 -0.29364026597E+02 -0.29559304439E+02  0.47787280186E+02  0.20000041681E+02 0.  0.
         12    1    1    2    0    0  0.12150059402E+02  0.29364026597E+02  0.29559304439E+02  0.43400719814E+02  0.00000000000E+00 0. -1.
         11    1    3    3    0    0  0.25384055915E+00 -0.51441199659E+01 -0.40662996547E+01  0.65621031991E+01  0.51100000000E-03 0. -1.
        -11    1    3    3    0    0 -0.87084961930E+01 -0.17865411412E+02 -0.27191427049E+02  0.33680625530E+02  0.51100000000E-03 0.  1.
         12    1    3    3    0    0 -0.36954037680E+01 -0.63544952192E+01  0.16984222653E+01  0.75445514572E+01  0.00000000000E+00 0. -1.
</event>
<event>
 7    1  0.4450624E-010  0.4778727E+02  0.7816164E-02  0.1312668E+00
        -11   -1    0    0    0    0  0.00000000000E+00  0.00000000000E+00  0.45593999997E+02  0.45594000000E+02  0.51100000000E-03 0.  1.
         11   -1    0    0    0    0 -0.00000000000E+00 -0.00000000000E+00 -0.45593999997E+02  0.45594000000E+02  0.51100000000E-03 0. -1.
    9900012    2    1    2    0    0 -0.35338660539E+02 -0.83269463573E+01  0.23779492942E+02  0.47787271332E+02  0.20000001310E+02 0.  0.
         12    1    1    2    0    0  0.35338660539E+02  0.83269463573E+01 -0.23779492942E+02  0.43400728668E+02  0.00000000000E+00 0. -1.
         11    1    3    3    0    0 -0.91456254059E+01 -0.23338341395E+01  0.83174553182E+00  0.94752861037E+01  0.51100000000E-03 0. -1.
        -11    1    3    3    0    0 -0.23308560550E+02 -0.97463299427E+00  0.12749396524E+02  0.26585447454E+02  0.51100000000E-03 0.  1.
         12    1    3    3    0    0 -0.28844745835E+01 -0.50184792236E+01  0.10198350887E+02  0.11726537774E+02  0.00000000000E+00 0. -1.
</event>
<event>
 7    1  0.4450624E-010  0.4778727E+02  0.7816164E-02  0.1312668E+00
        -11   -1    0    0    0    0  0.00000000000E+00  0.00000000000E+00  0.45593999997E+02  0.45594000000E+02  0.51100000000E-03 0. -1.
         11   -1    0    0    0    0 -0.00000000000E+00 -0.00000000000E+00 -0.45593999997E+02  0.45594000000E+02  0.51100000000E-03 0.  1.
    9900012    2    1    2    0    0 -0.23021183797E+02 -0.36140097401E+02  0.68950598548E+01  0.47787269661E+02  0.19999993692E+02 0.  0.
         12    1    1    2    0    0  0.23021183797E+02  0.36140097401E+02 -0.68950598548E+01  0.43400730339E+02  0.00000000000E+00 0. -1.
         11    1    3    3    0    0 -0.83050518816E+00  0.42992860979E+00  0.40412437343E+01  0.41480391341E+01  0.51100000000E-03 0. -1.
        -11    1    3    3    0    0  0.51998521734E+00 -0.13566228436E+01  0.86375878116E+00  0.16902336108E+01  0.51100000000E-03 0.  1.
        -12    1    3    3    0    0 -0.22710663826E+02 -0.35213403167E+02  0.19900573393E+01  0.41948996916E+02  0.00000000000E+00 0.  1.
</event>
<event>
 7    1  0.4450624E-010  0.4778727E+02  0.7816164E-02  0.1312668E+00
        -11   -1    0    0    0    0  0.00000000000E+00  0.00000000000E+00  0.45593999997E+02  0.45594000000E+02  0.51100000000E-03 0.  1.
         11   -1    0    0    0    0 -0.00000000000E+00 -0.00000000000E+00 -0.45593999997E+02  0.45594000000E+02  0.51100000000E-03 0. -1.
    9900012    2    1    2    0    0 -0.10301421356E+02 -0.35109982547E+02 -0.23340806530E+02  0.47787269523E+02  0.19999993064E+02 0.  0.
         12    1    1    2    0    0  0.10301421356E+02  0.35109982547E+02  0.23340806530E+02  0.43400730477E+02  0.00000000000E+00 0. -1.
         11    1    3    3    0    0  0.16471263721E+01 -0.32833669668E+01 -0.35703574462E+00  0.36906637219E+01  0.51100000000E-03 0. -1.
        -11    1    3    3    0    0 -0.61509667349E+01 -0.64247654576E+01 -0.13902521506E+02  0.16504305725E+02  0.51100000000E-03 0.  1.
        -12    1    3    3    0    0 -0.57975809937E+01 -0.25401850123E+02 -0.90812492794E+01  0.27592300077E+02  0.00000000000E+00 0.  1.
</event>
<event>
 7    1  0.4450624E-010  0.4778732E+02  0.7816164E-02  0.1312668E+00
        -11   -1    0    0    0    0  0.00000000000E+00  0.00000000000E+00  0.45593999997E+02  0.45594000000E+02  0.51100000000E-03 0.  1.
         11   -1    0    0    0    0 -0.00000000000E+00 -0.00000000000E+00 -0.45593999997E+02  0.45594000000E+02  0.51100000000E-03 0. -1.
    9900012    2    1    2    0    0 -0.30290011696E+02  0.18630387899E+02  0.24880569444E+02  0.47787321461E+02  0.20000229867E+02 0.  0.
         12    1    1    2    0    0  0.30290011696E+02 -0.18630387899E+02 -0.24880569444E+02  0.43400678539E+02  0.00000000000E+00 0. -1.
         11    1    3    3    0    0 -0.99520375776E+01  0.12834840912E+01  0.74438132446E+01  0.12494028143E+02  0.51100000000E-03 0. -1.
        -11    1    3    3    0    0 -0.18108690622E+02  0.77844921864E+01  0.15963670879E+02  0.25364577324E+02  0.51100000000E-03 0.  1.
        -12    1    3    3    0    0 -0.22292834965E+01  0.95624116211E+01  0.14730853204E+01  0.99287159935E+01  0.00000000000E+00 0.  1.
</event>
<event>
 7    1  0.4450624E-010  0.4778727E+02  0.7816164E-02  0.1312668E+00
        -11   -1    0    0    0    0  0.00000000000E+00  0.00000000000E+00  0.45593999997E+02  0.45594000000E+02  0.51100000000E-03 0. -1.
         11   -1    0    0    0    0 -0.00000000000E+00 -0.00000000000E+00 -0.45593999997E+02  0.45594000000E+02  0.51100000000E-03 0.  1.
    9900012    2    1    2    0    0  0.31976073628E+02 -0.21339538008E+02 -0.20143931978E+02  0.47787272327E+02  0.20000005845E+02 0.  0.
         12    1    1    2    0    0 -0.31976073628E+02  0.21339538008E+02  0.20143931978E+02  0.43400727673E+02  0.00000000000E+00 0. -1.
         11    1    3    3    0    0  0.11479058717E+01  0.11500463686E+01 -0.23101197609E+00  0.16412377447E+01  0.51100000000E-03 0. -1.
        -11    1    3    3    0    0  0.29252782929E+02 -0.22081864554E+02 -0.12758181085E+02  0.38808571684E+02  0.51100000000E-03 0.  1.
         12    1    3    3    0    0  0.15753848273E+01 -0.40771982239E+00 -0.71547389172E+01  0.73374628981E+01  0.00000000000E+00 0. -1.
</event>
<event>
 7    1  0.4450624E-010  0.4778727E+02  0.7816164E-02  0.1312668E+00
        -11   -1    0    0    0    0  0.00000000000E+00  0.00000000000E+00  0.45593999997E+02  0.45594000000E+02  0.51100000000E-03 0. -1.
         11   -1    0    0    0    0 -0.00000000000E+00 -0.00000000000E+00 -0.45593999997E+02  0.45594000000E+02  0.51100000000E-03 0.  1.
    9900012    2    1    2    0    0 -0.29294524464E+01 -0.41588916604E+02 -0.12058350624E+02  0.47787268489E+02  0.19999988347E+02 0.  0.
         12    1    1    2    0    0  0.29294524464E+01  0.41588916604E+02  0.12058350624E+02  0.43400731511E+02  0.00000000000E+00 0. -1.
         11    1    3    3    0    0  0.36407987170E+01 -0.25797171166E+01 -0.20748630113E+01  0.49209158168E+01  0.51100000000E-03 0. -1.
        -11    1    3    3    0    0  0.20151537173E+01 -0.11681511078E+02  0.16132857260E+01  0.11963328829E+02  0.51100000000E-03 0.  1.
        -12    1    3    3    0    0 -0.85854048807E+01 -0.27327688409E+02 -0.11596773338E+02  0.30903023843E+02  0.00000000000E+00 0.  1.
</event>
<event>
 7    1  0.4450624E-010  0.4778728E+02  0.7816164E-02  0.1312668E+00
        -11   -1    0    0    0    0  0.00000000000E+00  0.00000000000E+00  0.45593999997E+02  0.45594000000E+02  0.51100000000E-03 0.  1.
         11   -1    0    0    0    0 -0.00000000000E+00 -0.00000000000E+00 -0.45593999997E+02  0.45594000000E+02  0.51100000000E-03 0. -1.
    9900012    2    1    2    0    0  0.23530522271E+01 -0.34661354920E+02  0.26013006284E+02  0.47787275633E+02  0.20000020920E+02 0.  0.
         12    1    1    2    0    0 -0.23530522271E+01  0.34661354920E+02 -0.26013006284E+02  0.43400724367E+02  0.00000000000E+00 0. -1.
         11    1    3    3    0    0 -0.40426543618E+01 -0.17211554229E+02  0.11863168393E+02  0.21291205176E+02  0.51100000000E-03 0. -1.
        -11    1    3    3    0    0  0.48750032752E+01 -0.19242208864E+02  0.11447568197E+02  0.22914516726E+02  0.51100000000E-03 0.  1.
         12    1    3    3    0    0  0.15207033137E+01  0.17924081729E+01  0.27022696943E+01  0.35815537309E+01  0.00000000000E+00 0. -1.
</event>
<event>
 7    1  0.4450624E-010  0.4778726E+02  0.7816164E-02  0.1312668E+00
        -11   -1    0    0    0    0  0.00000000000E+00  0.00000000000E+00  0.45593999997E+02  0.45594000000E+02  0.51100000000E-03 0.  1.
         11   -1    0    0    0    0 -0.00000000000E+00 -0.00000000000E+00 -0.45593999997E+02  0.45594000000E+02  0.51100000000E-03 0. -1.
    9900012    2    1    2    0    0  0.43296416010E+02 -0.11083293942E+01 -0.27956846849E+01  0.47787263990E+02  0.19999967838E+02 0.  0.
         12    1    1    2    0    0 -0.43296416010E+02  0.11083293942E+01  0.27956846849E+01  0.43400736010E+02  0.00000000000E+00 0. -1.
         11    1    3    3    0    0  0.32354575005E+01 -0.66160391795E-01  0.33561549591E+01  0.46622246627E+01  0.51100000000E-03 0.  1.
        -11    1    3    3    0    0  0.60624619947E+01  0.42093994037E+01 -0.45827399604E+01  0.86875770260E+01  0.51100000000E-03 0. -1.
         12    1    3    3    0    0  0.33998496514E+02 -0.52515684062E+01 -0.15690996835E+01  0.34437462302E+02  0.00000000000E+00 0. -1.
</event>
<event>
 7    1  0.4450624E-010  0.4778727E+02  0.7816164E-02  0.1312668E+00
        -11   -1    0    0    0    0  0.00000000000E+00  0.00000000000E+00  0.45593999997E+02  0.45594000000E+02  0.51100000000E-03 0.  1.
         11   -1    0    0    0    0 -0.00000000000E+00 -0.00000000000E+00 -0.45593999997E+02  0.45594000000E+02  0.51100000000E-03 0. -1.
    9900012    2    1    2    0    0 -0.17645924384E+02 -0.37314213107E+02  0.13412466945E+02  0.47787269399E+02  0.19999992498E+02 0.  0.
         12    1    1    2    0    0  0.17645924384E+02  0.37314213107E+02 -0.13412466945E+02  0.43400730601E+02  0.00000000000E+00 0. -1.
         11    1    3    3    0    0 -0.16833698549E+00 -0.84068064939E+00  0.29549912067E+01  0.30768579083E+01  0.51100000000E-03 0. -1.
        -11    1    3    3    0    0  0.23637263351E+01 -0.83785200489E+01  0.45123451407E+01  0.98055116810E+01  0.51100000000E-03 0.  1.
         12    1    3    3    0    0 -0.19841313734E+02 -0.28095012409E+02  0.59451305971E+01  0.34904899810E+02  0.00000000000E+00 0. -1.
</event>
<event>
 7    1  0.4450624E-010  0.4778727E+02  0.7816164E-02  0.1312668E+00
        -11   -1    0    0    0    0  0.00000000000E+00  0.00000000000E+00  0.45593999997E+02  0.45594000000E+02  0.51100000000E-03 0. -1.
         11   -1    0    0    0    0 -0.00000000000E+00 -0.00000000000E+00 -0.45593999997E+02  0.45594000000E+02  0.51100000000E-03 0.  1.
    9900012    2    1    2    0    0  0.54480549398E+01 -0.25913226880E+02 -0.34386720811E+02  0.47787271917E+02  0.20000003978E+02 0.  0.
         12    1    1    2    0    0 -0.54480549398E+01  0.25913226880E+02  0.34386720811E+02  0.43400728083E+02  0.00000000000E+00 0. -1.
         11    1    3    3    0    0  0.76987824582E+01 -0.19244280814E+02 -0.30347299642E+02  0.36750131853E+02  0.51100000000E-03 0. -1.
        -11    1    3    3    0    0 -0.10087484997E+01 -0.69421437142E+01 -0.56341359816E+01  0.89974674995E+01  0.51100000000E-03 0.  1.
         12    1    3    3    0    0 -0.12419790187E+01  0.27319764739E+00  0.15947148124E+01  0.20396725645E+01  0.00000000000E+00 0. -1.
</event>
<event>
 7    1  0.4450624E-010  0.4778727E+02  0.7816164E-02  0.1312668E+00
        -11   -1    0    0    0    0  0.00000000000E+00  0.00000000000E+00  0.45593999997E+02  0.45594000000E+02  0.51100000000E-03 0.  1.
         11   -1    0    0    0    0 -0.00000000000E+00 -0.00000000000E+00 -0.45593999997E+02  0.45594000000E+02  0.51100000000E-03 0. -1.
    9900012    2    1    2    0    0 -0.34050280464E+02 -0.25469709132E+02  0.86888307091E+01  0.47787268876E+02  0.19999990115E+02 0.  0.
         12    1    1    2    0    0  0.34050280464E+02  0.25469709132E+02 -0.86888307091E+01  0.43400731124E+02  0.00000000000E+00 0. -1.
         11    1    3    3    0    0 -0.22776268169E+02 -0.25323882569E+02  0.65114146200E+01  0.34676446483E+02  0.51100000000E-03 0. -1.
        -11    1    3    3    0    0 -0.48222276767E+01 -0.31116076988E+01  0.21140853087E+00  0.57428804676E+01  0.51100000000E-03 0.  1.
        -12    1    3    3    0    0 -0.64517846189E+01  0.29657811354E+01  0.19660075582E+01  0.73679419263E+01  0.00000000000E+00 0.  1.
</event>
<event>
 7    1  0.4450624E-010  0.4778726E+02  0.7816164E-02  0.1312668E+00
        -11   -1    0    0    0    0  0.00000000000E+00  0.00000000000E+00  0.45593999997E+02  0.45594000000E+02  0.51100000000E-03 0. -1.
         11   -1    0    0    0    0 -0.00000000000E+00 -0.00000000000E+00 -0.45593999997E+02  0.45594000000E+02  0.51100000000E-03 0.  1.
    9900012    2    1    2    0    0  0.12457467282E+02  0.28122388776E+02 -0.30619711944E+02  0.47787262666E+02  0.19999961801E+02 0.  0.
         12    1    1    2    0    0 -0.12457467282E+02 -0.28122388776E+02  0.30619711944E+02  0.43400737334E+02  0.00000000000E+00 0. -1.
         11    1    3    3    0    0  0.66670085551E+01  0.25418987272E+01 -0.88858911866E+01  0.11396021878E+02  0.51100000000E-03 0. -1.
        -11    1    3    3    0    0  0.84883566573E+01  0.21508754837E+02 -0.21382342048E+02  0.31494178590E+02  0.51100000000E-03 0.  1.
         12    1    3    3    0    0 -0.26978979309E+01  0.40717352125E+01 -0.35147870995E+00  0.48970621979E+01  0.00000000000E+00 0. -1.
</event>
<event>
 7    1  0.4450624E-010  0.4778727E+02  0.7816164E-02  0.1312668E+00
        -11   -1    0    0    0    0  0.00000000000E+00  0.00000000000E+00  0.45593999997E+02  0.45594000000E+02  0.51100000000E-03 0.  1.
         11   -1    0    0    0    0 -0.00000000000E+00 -0.00000000000E+00 -0.45593999997E+02  0.45594000000E+02  0.51100000000E-03 0. -1.
    9900012    2    1    2    0    0  0.11226537524E+02 -0.31649707611E+02  0.27493347082E+02  0.47787271084E+02  0.20000000182E+02 0.  0.
         12    1    1    2    0    0 -0.11226537524E+02  0.31649707611E+02 -0.27493347082E+02  0.43400728916E+02  0.00000000000E+00 0. -1.
         11    1    3    3    0    0  0.51080829690E+01 -0.57782693668E+01  0.14056727464E+02  0.16033480463E+02  0.51100000000E-03 0. -1.
        -11    1    3    3    0    0 -0.29136956952E+01 -0.33420152422E+01  0.28657119321E+01  0.52792985919E+01  0.51100000000E-03 0.  1.
         12    1    3    3    0    0  0.90321502506E+01 -0.22529423002E+02  0.10570907686E+02  0.26474492030E+02  0.00000000000E+00 0. -1.
</event>
<event>
 7    1  0.4450624E-010  0.4778727E+02  0.7816164E-02  0.1312668E+00
        -11   -1    0    0    0    0  0.00000000000E+00  0.00000000000E+00  0.45593999997E+02  0.45594000000E+02  0.51100000000E-03 0.  1.
         11   -1    0    0    0    0 -0.00000000000E+00 -0.00000000000E+00 -0.45593999997E+02  0.45594000000E+02  0.51100000000E-03 0. -1.
    9900012    2    1    2    0    0 -0.24389372424E+02  0.58624520314E+00  0.35894818976E+02  0.47787271895E+02  0.20000003878E+02 0.  0.
         12    1    1    2    0    0  0.24389372424E+02 -0.58624520314E+00 -0.35894818976E+02  0.43400728105E+02  0.00000000000E+00 0. -1.
         11    1    3    3    0    0 -0.93401140839E+00  0.12553150956E+01  0.12043594966E+02  0.12144808490E+02  0.51100000000E-03 0. -1.
        -11    1    3    3    0    0 -0.58822936025E+01  0.26114073657E+01  0.13573340477E+02  0.15021864013E+02  0.51100000000E-03 0.  1.
         12    1    3    3    0    0 -0.17573067413E+02 -0.32804772581E+01  0.10277883534E+02  0.20620599392E+02  0.00000000000E+00 0. -1.
</event>
<event>
 7    1  0.4450624E-010  0.4778728E+02  0.7816164E-02  0.1312668E+00
        -11   -1    0    0    0    0  0.00000000000E+00  0.00000000000E+00  0.45593999997E+02  0.45594000000E+02  0.51100000000E-03 0.  1.
         11   -1    0    0    0    0 -0.00000000000E+00 -0.00000000000E+00 -0.45593999997E+02  0.45594000000E+02  0.51100000000E-03 0. -1.
    9900012    2    1    2    0    0  0.35429602730E+02 -0.13419509633E+02  0.21172676380E+02  0.47787283261E+02  0.20000055698E+02 0.  0.
         12    1    1    2    0    0 -0.35429602730E+02  0.13419509633E+02 -0.21172676380E+02  0.43400716739E+02  0.00000000000E+00 0. -1.
         11    1    3    3    0    0  0.63757371141E+01 -0.67395991731E+01  0.72327664411E+01  0.11763720985E+02  0.51100000000E-03 0. -1.
        -11    1    3    3    0    0  0.12756062925E+02 -0.45623052101E+01  0.14146970364E+02  0.19587458766E+02  0.51100000000E-03 0.  1.
         12    1    3    3    0    0  0.16297802691E+02 -0.21176052493E+01 -0.20706042509E+00  0.16436103509E+02  0.00000000000E+00 0. -1.
</event>
<event>
 7    1  0.4450624E-010  0.4778727E+02  0.7816164E-02  0.1312668E+00
        -11   -1    0    0    0    0  0.00000000000E+00  0.00000000000E+00  0.45593999997E+02  0.45594000000E+02  0.51100000000E-03 0. -1.
         11   -1    0    0    0    0 -0.00000000000E+00 -0.00000000000E+00 -0.45593999997E+02  0.45594000000E+02  0.51100000000E-03 0.  1.
    9900012    2    1    2    0    0 -0.27923169644E+02 -0.33078298843E+02 -0.31218842433E+01  0.47787269378E+02  0.19999992400E+02 0.  0.
         12    1    1    2    0    0  0.27923169644E+02  0.33078298843E+02  0.31218842433E+01  0.43400730622E+02  0.00000000000E+00 0. -1.
         11    1    3    3    0    0 -0.12529483209E+02 -0.13105658838E+02 -0.75984870419E-01  0.18131519986E+02  0.51100000000E-03 0. -1.
        -11    1    3    3    0    0 -0.52062790600E+01 -0.18075607223E+02 -0.40603500737E+01  0.19243683668E+02  0.51100000000E-03 0.  1.
         12    1    3    3    0    0 -0.10187407375E+02 -0.18970327825E+01  0.10144507008E+01  0.10412065723E+02  0.00000000000E+00 0. -1.
</event>
<event>
 7    1  0.4450624E-010  0.4778727E+02  0.7816164E-02  0.1312668E+00
        -11   -1    0    0    0    0  0.00000000000E+00  0.00000000000E+00  0.45593999997E+02  0.45594000000E+02  0.51100000000E-03 0.  1.
         11   -1    0    0    0    0 -0.00000000000E+00 -0.00000000000E+00 -0.45593999997E+02  0.45594000000E+02  0.51100000000E-03 0. -1.
    9900012    2    1    2    0    0 -0.12566464218E+02  0.28893936255E+02  0.29847068853E+02  0.47787273112E+02  0.20000009428E+02 0.  0.
         12    1    1    2    0    0  0.12566464218E+02 -0.28893936255E+02 -0.29847068853E+02  0.43400726888E+02  0.00000000000E+00 0. -1.
         11    1    3    3    0    0 -0.62697144718E+01  0.67885322101E+01  0.10002333919E+02  0.13617641984E+02  0.51100000000E-03 0.  1.
        -11    1    3    3    0    0 -0.30801432568E+01  0.26318497535E+01 -0.21753871286E+01  0.45985024766E+01  0.51100000000E-03 0. -1.
         12    1    3    3    0    0 -0.32166064896E+01  0.19473554291E+02  0.22020122063E+02  0.29571128652E+02  0.00000000000E+00 0. -1.
</event>
<event>
 7    1  0.4450624E-010  0.4778726E+02  0.7816164E-02  0.1312668E+00
        -11   -1    0    0    0    0  0.00000000000E+00  0.00000000000E+00  0.45593999997E+02  0.45594000000E+02  0.51100000000E-03 0.  1.
         11   -1    0    0    0    0 -0.00000000000E+00 -0.00000000000E+00 -0.45593999997E+02  0.45594000000E+02  0.51100000000E-03 0. -1.
    9900012    2    1    2    0    0 -0.12914549144E+02 -0.17265189168E+02  0.37666319393E+02  0.47787263218E+02  0.19999964315E+02 0.  0.
         12    1    1    2    0    0  0.12914549144E+02  0.17265189168E+02 -0.37666319393E+02  0.43400736782E+02  0.00000000000E+00 0. -1.
         11    1    3    3    0    0  0.27796999528E+01  0.46752346274E-01  0.14737315755E+01  0.31465540878E+01  0.51100000000E-03 0. -1.
        -11    1    3    3    0    0 -0.13350897664E+01 -0.19880736205E+01  0.13545202190E+02  0.13755268228E+02  0.51100000000E-03 0.  1.
         12    1    3    3    0    0 -0.14359159331E+02 -0.15323867894E+02  0.22647385628E+02  0.30885440902E+02  0.00000000000E+00 0. -1.
</event>
<event>
 7    1  0.4450624E-010  0.4778728E+02  0.7816164E-02  0.1312668E+00
        -11   -1    0    0    0    0  0.00000000000E+00  0.00000000000E+00  0.45593999997E+02  0.45594000000E+02  0.51100000000E-03 0.  1.
         11   -1    0    0    0    0 -0.00000000000E+00 -0.00000000000E+00 -0.45593999997E+02  0.45594000000E+02  0.51100000000E-03 0. -1.
    9900012    2    1    2    0    0  0.10380196051E+02 -0.46177425341E+00  0.42138592285E+02  0.47787278055E+02  0.20000031966E+02 0.  0.
         12    1    1    2    0    0 -0.10380196051E+02  0.46177425341E+00 -0.42138592285E+02  0.43400721945E+02  0.00000000000E+00 0. -1.
         11    1    3    3    0    0  0.24370157952E-01 -0.11234256510E+00 -0.74639570177E+00  0.75519637265E+00  0.51100000000E-03 0. -1.
        -11    1    3    3    0    0  0.36070387687E+01  0.77691234393E+01  0.16000515845E+02  0.18149008657E+02  0.51100000000E-03 0.  1.
         12    1    3    3    0    0  0.67487871245E+01 -0.81185551276E+01  0.26884472142E+02  0.28883073025E+02  0.00000000000E+00 0. -1.
</event>
<event>
 7    1  0.4450624E-010  0.4778727E+02  0.7816164E-02  0.1312668E+00
        -11   -1    0    0    0    0  0.00000000000E+00  0.00000000000E+00  0.45593999997E+02  0.45594000000E+02  0.51100000000E-03 0.  1.
         11   -1    0    0    0    0 -0.00000000000E+00 -0.00000000000E+00 -0.45593999997E+02  0.45594000000E+02  0.51100000000E-03 0. -1.
    9900012    2    1    2    0    0 -0.20906283431E+02 -0.24705734774E+02  0.28916724323E+02  0.47787274623E+02  0.20000016318E+02 0.  0.
         12    1    1    2    0    0  0.20906283431E+02  0.24705734774E+02 -0.28916724323E+02  0.43400725377E+02  0.00000000000E+00 0. -1.
         11    1    3    3    0    0  0.16276816668E+01  0.60925400580E+00 -0.42756437146E+00  0.17897903802E+01  0.51100000000E-03 0. -1.
        -11    1    3    3    0    0 -0.50330531676E+00 -0.42358755110E+01  0.69952997279E+01  0.81933006860E+01  0.51100000000E-03 0.  1.
        -12    1    3    3    0    0 -0.22030659781E+02 -0.21079113269E+02  0.22348988967E+02  0.37804183557E+02  0.00000000000E+00 0.  1.
</event>
<event>
 7    1  0.4450624E-010  0.4778730E+02  0.7816164E-02  0.1312668E+00
        -11   -1    0    0    0    0  0.00000000000E+00  0.00000000000E+00  0.45593999997E+02  0.45594000000E+02  0.51100000000E-03 0.  1.
         11   -1    0    0    0    0 -0.00000000000E+00 -0.00000000000E+00 -0.45593999997E+02  0.45594000000E+02  0.51100000000E-03 0. -1.
    9900012    2    1    2    0    0  0.31969436571E+02 -0.28978258991E+02 -0.46729808977E+01  0.47787295867E+02  0.20000113175E+02 0.  0.
         12    1    1    2    0    0 -0.31969436571E+02  0.28978258991E+02  0.46729808977E+01  0.43400704133E+02  0.00000000000E+00 0. -1.
         11    1    3    3    0    0  0.54262160041E+01 -0.48464959022E+01  0.61981872294E+01  0.95577124797E+01  0.51100000000E-03 0. -1.
        -11    1    3    3    0    0  0.11451659886E+02 -0.58520176194E+01 -0.25772693908E+01  0.13115980411E+02  0.51100000000E-03 0.  1.
         12    1    3    3    0    0  0.15091560680E+02 -0.18279745469E+02 -0.82938987362E+01  0.25113602976E+02  0.00000000000E+00 0. -1.
</event>
<event>
 7    1  0.4450624E-010  0.4778728E+02  0.7816164E-02  0.1312668E+00
        -11   -1    0    0    0    0  0.00000000000E+00  0.00000000000E+00  0.45593999997E+02  0.45594000000E+02  0.51100000000E-03 0.  1.
         11   -1    0    0    0    0 -0.00000000000E+00 -0.00000000000E+00 -0.45593999997E+02  0.45594000000E+02  0.51100000000E-03 0. -1.
    9900012    2    1    2    0    0  0.49961792578E+01  0.37523227178E+02  0.21228951660E+02  0.47787276807E+02  0.20000026276E+02 0.  0.
         12    1    1    2    0    0 -0.49961792578E+01 -0.37523227178E+02 -0.21228951660E+02  0.43400723193E+02  0.00000000000E+00 0. -1.
         11    1    3    3    0    0 -0.41221755559E+01  0.70967423368E+01  0.44320413902E+01  0.93273294278E+01  0.51100000000E-03 0. -1.
        -11    1    3    3    0    0 -0.36715753960E+01  0.64999964099E+01  0.34369470275E+01  0.82184563239E+01  0.51100000000E-03 0.  1.
        -12    1    3    3    0    0  0.12789930210E+02  0.23926488432E+02  0.13359963242E+02  0.30241491056E+02  0.00000000000E+00 0.  1.
</event>
<event>
 7    1  0.4450624E-010  0.4778727E+02  0.7816164E-02  0.1312668E+00
        -11   -1    0    0    0    0  0.00000000000E+00  0.00000000000E+00  0.45593999997E+02  0.45594000000E+02  0.51100000000E-03 0. -1.
         11   -1    0    0    0    0 -0.00000000000E+00 -0.00000000000E+00 -0.45593999997E+02  0.45594000000E+02  0.51100000000E-03 0.  1.
    9900012    2    1    2    0    0 -0.27767386869E+02 -0.27693313739E+02  0.18592364181E+02  0.47787269531E+02  0.19999993102E+02 0.  0.
         12    1    1    2    0    0  0.27767386869E+02  0.27693313739E+02 -0.18592364181E+02  0.43400730469E+02  0.00000000000E+00 0. -1.
         11    1    3    3    0    0 -0.49631256733E-01  0.78677405456E+00  0.56547766157E+01  0.57094636796E+01  0.51100000000E-03 0. -1.
        -11    1    3    3    0    0 -0.66718284032E+01 -0.74509134070E+01  0.11156383997E+01  0.10063501088E+02  0.51100000000E-03 0.  1.
        -12    1    3    3    0    0 -0.21045927209E+02 -0.21029174387E+02  0.11821949166E+02  0.32014304764E+02  0.00000000000E+00 0.  1.
</event>
<event>
 7    1  0.4450624E-010  0.4778727E+02  0.7816164E-02  0.1312668E+00
        -11   -1    0    0    0    0  0.00000000000E+00  0.00000000000E+00  0.45593999997E+02  0.45594000000E+02  0.51100000000E-03 0.  1.
         11   -1    0    0    0    0 -0.00000000000E+00 -0.00000000000E+00 -0.45593999997E+02  0.45594000000E+02  0.51100000000E-03 0. -1.
    9900012    2    1    2    0    0 -0.39807882325E+02 -0.34925244029E+01  0.16933922233E+02  0.47787274844E+02  0.20000017323E+02 0.  0.
         12    1    1    2    0    0  0.39807882325E+02  0.34925244029E+01 -0.16933922233E+02  0.43400725156E+02  0.00000000000E+00 0. -1.
         11    1    3    3    0    0 -0.27169416552E+02 -0.80435095365E+01  0.16151133363E+02  0.32614940605E+02  0.51100000000E-03 0. -1.
        -11    1    3    3    0    0 -0.23597864288E+01  0.13169660022E+01  0.31392807914E+01  0.41422307504E+01  0.51100000000E-03 0.  1.
        -12    1    3    3    0    0 -0.10278679344E+02  0.32340191314E+01 -0.23564919221E+01  0.11030103489E+02  0.00000000000E+00 0.  1.
</event>
<event>
 7    1  0.4450624E-010  0.4778732E+02  0.7816164E-02  0.1312668E+00
        -11   -1    0    0    0    0  0.00000000000E+00  0.00000000000E+00  0.45593999997E+02  0.45594000000E+02  0.51100000000E-03 0.  1.
         11   -1    0    0    0    0 -0.00000000000E+00 -0.00000000000E+00 -0.45593999997E+02  0.45594000000E+02  0.51100000000E-03 0. -1.
    9900012    2    1    2    0    0  0.15544616139E+02  0.40128512335E+02  0.56290934632E+01  0.47787316983E+02  0.20000209452E+02 0.  0.
         12    1    1    2    0    0 -0.15544616139E+02 -0.40128512335E+02 -0.56290934632E+01  0.43400683017E+02  0.00000000000E+00 0. -1.
         11    1    3    3    0    0  0.48633117817E+01  0.13302454748E+02 -0.20851067786E+01  0.14316241628E+02  0.51100000000E-03 0. -1.
        -11    1    3    3    0    0  0.91218933538E+01  0.22986649034E+02  0.12018477425E+02  0.27496159224E+02  0.51100000000E-03 0.  1.
         12    1    3    3    0    0  0.15594110037E+01  0.38394085525E+01 -0.43042771832E+01  0.59749161317E+01  0.00000000000E+00 0. -1.
</event>
<event>
 7    1  0.4450624E-010  0.4778727E+02  0.7816164E-02  0.1312668E+00
        -11   -1    0    0    0    0  0.00000000000E+00  0.00000000000E+00  0.45593999997E+02  0.45594000000E+02  0.51100000000E-03 0.  1.
         11   -1    0    0    0    0 -0.00000000000E+00 -0.00000000000E+00 -0.45593999997E+02  0.45594000000E+02  0.51100000000E-03 0. -1.
    9900012    2    1    2    0    0  0.27565014277E+02  0.33193036254E+02 -0.46920804067E+01  0.47787270900E+02  0.19999999343E+02 0.  0.
         12    1    1    2    0    0 -0.27565014277E+02 -0.33193036254E+02  0.46920804067E+01  0.43400729100E+02  0.00000000000E+00 0. -1.
         11    1    3    3    0    0  0.40687821143E+01  0.37445967503E+01 -0.44630990031E+01  0.71060710444E+01  0.51100000000E-03 0. -1.
        -11    1    3    3    0    0  0.26518255916E+01  0.88647707585E+01  0.55953657964E+01  0.10813161343E+02  0.51100000000E-03 0.  1.
        -12    1    3    3    0    0  0.20844406571E+02  0.20583668746E+02 -0.58243472000E+01  0.29868038513E+02  0.00000000000E+00 0.  1.
</event>
<event>
 7    1  0.4450624E-010  0.4778727E+02  0.7816164E-02  0.1312668E+00
        -11   -1    0    0    0    0  0.00000000000E+00  0.00000000000E+00  0.45593999997E+02  0.45594000000E+02  0.51100000000E-03 0.  1.
         11   -1    0    0    0    0 -0.00000000000E+00 -0.00000000000E+00 -0.45593999997E+02  0.45594000000E+02  0.51100000000E-03 0. -1.
    9900012    2    1    2    0    0  0.12708070514E+02 -0.27064592482E+02  0.31458480650E+02  0.47787271582E+02  0.20000002449E+02 0.  0.
         12    1    1    2    0    0 -0.12708070514E+02  0.27064592482E+02 -0.31458480650E+02  0.43400728418E+02  0.00000000000E+00 0. -1.
         11    1    3    3    0    0  0.34753280265E+00 -0.96457936282E+01  0.64747945673E+01  0.11622610667E+02  0.51100000000E-03 0.  1.
        -11    1    3    3    0    0  0.81334027059E+01 -0.47650076469E-01  0.95699001612E+01  0.12559359039E+02  0.51100000000E-03 0. -1.
         12    1    3    3    0    0  0.42271350058E+01 -0.17371148778E+02  0.15413785922E+02  0.23605301876E+02  0.00000000000E+00 0. -1.
</event>
<event>
 7    1  0.4450624E-010  0.4778727E+02  0.7816164E-02  0.1312668E+00
        -11   -1    0    0    0    0  0.00000000000E+00  0.00000000000E+00  0.45593999997E+02  0.45594000000E+02  0.51100000000E-03 0. -1.
         11   -1    0    0    0    0 -0.00000000000E+00 -0.00000000000E+00 -0.45593999997E+02  0.45594000000E+02  0.51100000000E-03 0.  1.
    9900012    2    1    2    0    0  0.88987270654E+01 -0.38983457596E+02 -0.16873835800E+02  0.47787266779E+02  0.19999980552E+02 0.  0.
         12    1    1    2    0    0 -0.88987270654E+01  0.38983457596E+02  0.16873835800E+02  0.43400733221E+02  0.00000000000E+00 0. -1.
         11    1    3    3    0    0  0.75741345107E+01 -0.13257246326E+02  0.73494755192E+00  0.15286014585E+02  0.51100000000E-03 0. -1.
        -11    1    3    3    0    0  0.20822104317E+01 -0.58847701939E+01 -0.44992559751E+00  0.62584785548E+01  0.51100000000E-03 0.  1.
        -12    1    3    3    0    0 -0.75761787699E+00 -0.19841441076E+02 -0.17158857755E+02  0.26242773639E+02  0.00000000000E+00 0.  1.
</event>
<event>
 7    1  0.4450624E-010  0.4778728E+02  0.7816164E-02  0.1312668E+00
        -11   -1    0    0    0    0  0.00000000000E+00  0.00000000000E+00  0.45593999997E+02  0.45594000000E+02  0.51100000000E-03 0.  1.
         11   -1    0    0    0    0 -0.00000000000E+00 -0.00000000000E+00 -0.45593999997E+02  0.45594000000E+02  0.51100000000E-03 0. -1.
    9900012    2    1    2    0    0  0.21773255849E+02  0.28443936524E+02  0.24504908845E+02  0.47787277048E+02  0.20000027373E+02 0.  0.
         12    1    1    2    0    0 -0.21773255849E+02 -0.28443936524E+02 -0.24504908845E+02  0.43400722952E+02  0.00000000000E+00 0. -1.
         11    1    3    3    0    0  0.79456592550E+01  0.18528729211E+02  0.13657265514E+02  0.24350938560E+02  0.51100000000E-03 0. -1.
        -11    1    3    3    0    0  0.14058017743E+01  0.65690919843E+01  0.76487370068E+01  0.10180001286E+02  0.51100000000E-03 0.  1.
         12    1    3    3    0    0  0.12421794820E+02  0.33461153286E+01  0.31989063241E+01  0.13256337202E+02  0.00000000000E+00 0. -1.
</event>
<event>
 7    1  0.4450624E-010  0.4778727E+02  0.7816164E-02  0.1312668E+00
        -11   -1    0    0    0    0  0.00000000000E+00  0.00000000000E+00  0.45593999997E+02  0.45594000000E+02  0.51100000000E-03 0. -1.
         11   -1    0    0    0    0 -0.00000000000E+00 -0.00000000000E+00 -0.45593999997E+02  0.45594000000E+02  0.51100000000E-03 0.  1.
    9900012    2    1    2    0    0  0.34357177502E+02 -0.13681560181E+02 -0.22716128794E+02  0.47787271409E+02  0.20000001662E+02 0.  0.
         12    1    1    2    0    0 -0.34357177502E+02  0.13681560181E+02  0.22716128794E+02  0.43400728591E+02  0.00000000000E+00 0. -1.
         11    1    3    3    0    0  0.63777053865E+01 -0.44069564262E+01 -0.10299843885E+02  0.12891205345E+02  0.51100000000E-03 0. -1.
        -11    1    3    3    0    0  0.89258369441E+01 -0.43750800191E+01 -0.11500741173E+02  0.15201280805E+02  0.51100000000E-03 0.  1.
        -12    1    3    3    0    0  0.19053635171E+02 -0.48995237353E+01 -0.91554373646E+00  0.19694785259E+02  0.00000000000E+00 0.  1.
</event>
<event>
 7    1  0.4450624E-010  0.4778727E+02  0.7816164E-02  0.1312668E+00
        -11   -1    0    0    0    0  0.00000000000E+00  0.00000000000E+00  0.45593999997E+02  0.45594000000E+02  0.51100000000E-03 0. -1.
         11   -1    0    0    0    0 -0.00000000000E+00 -0.00000000000E+00 -0.45593999997E+02  0.45594000000E+02  0.51100000000E-03 0.  1.
    9900012    2    1    2    0    0  0.66205995472E+01 -0.42756888478E+02 -0.34116904015E+01  0.47787268646E+02  0.19999989064E+02 0.  0.
         12    1    1    2    0    0 -0.66205995472E+01  0.42756888478E+02  0.34116904015E+01  0.43400731354E+02  0.00000000000E+00 0. -1.
         11    1    3    3    0    0  0.26183500213E+00 -0.97145957738E+00  0.96554950653E+00  0.13944810467E+01  0.51100000000E-03 0. -1.
        -11    1    3    3    0    0  0.83146135845E+01 -0.14867707498E+02 -0.85888449461E+01  0.19077467942E+02  0.51100000000E-03 0.  1.
        -12    1    3    3    0    0 -0.19558490395E+01 -0.26917721403E+02  0.42116050381E+01  0.27315319657E+02  0.00000000000E+00 0.  1.
</event>
<event>
 7    1  0.4450624E-010  0.4778728E+02  0.7816164E-02  0.1312668E+00
        -11   -1    0    0    0    0  0.00000000000E+00  0.00000000000E+00  0.45593999997E+02  0.45594000000E+02  0.51100000000E-03 0.  1.
         11   -1    0    0    0    0 -0.00000000000E+00 -0.00000000000E+00 -0.45593999997E+02  0.45594000000E+02  0.51100000000E-03 0. -1.
    9900012    2    1    2    0    0 -0.25130649649E+02  0.51980188063E+01  0.35000761039E+02  0.47787283132E+02  0.20000055112E+02 0.  0.
         12    1    1    2    0    0  0.25130649649E+02 -0.51980188063E+01 -0.35000761039E+02  0.43400716868E+02  0.00000000000E+00 0. -1.
         11    1    3    3    0    0 -0.27998502036E+01 -0.36471362185E+00 -0.86890586799E+00  0.29541792189E+01  0.51100000000E-03 0. -1.
        -11    1    3    3    0    0 -0.11739913327E+02  0.84086791018E+01  0.12831055883E+02  0.19317542403E+02  0.51100000000E-03 0.  1.
        -12    1    3    3    0    0 -0.10590886119E+02 -0.28459466736E+01  0.23038611024E+02  0.25515561510E+02  0.00000000000E+00 0.  1.
</event>
<event>
 7    1  0.4450624E-010  0.4778727E+02  0.7816164E-02  0.1312668E+00
        -11   -1    0    0    0    0  0.00000000000E+00  0.00000000000E+00  0.45593999997E+02  0.45594000000E+02  0.51100000000E-03 0.  1.
         11   -1    0    0    0    0 -0.00000000000E+00 -0.00000000000E+00 -0.45593999997E+02  0.45594000000E+02  0.51100000000E-03 0. -1.
    9900012    2    1    2    0    0 -0.42991281503E+02  0.14595002284E+01  0.57656654187E+01  0.47787270468E+02  0.19999997372E+02 0.  0.
         12    1    1    2    0    0  0.42991281503E+02 -0.14595002284E+01 -0.57656654187E+01  0.43400729532E+02  0.00000000000E+00 0. -1.
         11    1    3    3    0    0 -0.20388194261E+02 -0.70663832988E+00  0.49073555473E+01  0.20982372165E+02  0.51100000000E-03 0.  1.
        -11    1    3    3    0    0 -0.62245106832E+01 -0.53344948092E+01  0.28541849286E+01  0.86803075972E+01  0.51100000000E-03 0. -1.
        -12    1    3    3    0    0 -0.16378576559E+02  0.75006333674E+01 -0.19958750571E+01  0.18124590706E+02  0.00000000000E+00 0.  1.
</event>
<event>
 7    1  0.4450624E-010  0.4778727E+02  0.7816164E-02  0.1312668E+00
        -11   -1    0    0    0    0  0.00000000000E+00  0.00000000000E+00  0.45593999997E+02  0.45594000000E+02  0.51100000000E-03 0.  1.
         11   -1    0    0    0    0 -0.00000000000E+00 -0.00000000000E+00 -0.45593999997E+02  0.45594000000E+02  0.51100000000E-03 0. -1.
    9900012    2    1    2    0    0 -0.40191345565E+02  0.13811408742E+01 -0.16320902974E+02  0.47787266339E+02  0.19999978545E+02 0.  0.
         12    1    1    2    0    0  0.40191345565E+02 -0.13811408742E+01  0.16320902974E+02  0.43400733661E+02  0.00000000000E+00 0. -1.
         11    1    3    3    0    0 -0.12585350550E+02 -0.15067912685E+01  0.14054070712E+01  0.12752907029E+02  0.51100000000E-03 0. -1.
        -11    1    3    3    0    0 -0.24838912574E+02  0.34311096811E+01 -0.10330915491E+02  0.27119585296E+02  0.51100000000E-03 0.  1.
         12    1    3    3    0    0 -0.27670824419E+01 -0.54317753839E+00 -0.73953945545E+01  0.79147740142E+01  0.00000000000E+00 0. -1.
</event>
<event>
 7    1  0.4450624E-010  0.4778727E+02  0.7816164E-02  0.1312668E+00
        -11   -1    0    0    0    0  0.00000000000E+00  0.00000000000E+00  0.45593999997E+02  0.45594000000E+02  0.51100000000E-03 0. -1.
         11   -1    0    0    0    0 -0.00000000000E+00 -0.00000000000E+00 -0.45593999997E+02  0.45594000000E+02  0.51100000000E-03 0.  1.
    9900012    2    1    2    0    0  0.43366987903E+02  0.67544908848E+00  0.15720357060E+01  0.47787272270E+02  0.20000005586E+02 0.  0.
         12    1    1    2    0    0 -0.43366987903E+02 -0.67544908848E+00 -0.15720357060E+01  0.43400727730E+02  0.00000000000E+00 0. -1.
         11    1    3    3    0    0  0.23140534398E+02  0.35964372231E+01 -0.47919039931E+01  0.23903577913E+02  0.51100000000E-03 0. -1.
        -11    1    3    3    0    0  0.17579320729E+02  0.10536807580E+01  0.25969864122E+01  0.17801322960E+02  0.51100000000E-03 0.  1.
        -12    1    3    3    0    0  0.26471327765E+01 -0.39746688927E+01  0.37669532869E+01  0.60823713968E+01  0.00000000000E+00 0.  1.
</event>
<event>
 7    1  0.4450624E-010  0.4778727E+02  0.7816164E-02  0.1312668E+00
        -11   -1    0    0    0    0  0.00000000000E+00  0.00000000000E+00  0.45593999997E+02  0.45594000000E+02  0.51100000000E-03 0.  1.
         11   -1    0    0    0    0 -0.00000000000E+00 -0.00000000000E+00 -0.45593999997E+02  0.45594000000E+02  0.51100000000E-03 0. -1.
    9900012    2    1    2    0    0  0.18633616363E+02  0.66683578523E+01  0.38625699048E+02  0.47787270949E+02  0.19999999566E+02 0.  0.
         12    1    1    2    0    0 -0.18633616363E+02 -0.66683578523E+01 -0.38625699048E+02  0.43400729051E+02  0.00000000000E+00 0. -1.
         11    1    3    3    0    0  0.14368251626E+02  0.11307888291E+02  0.16856036433E+02  0.24868473152E+02  0.51100000000E-03 0. -1.
        -11    1    3    3    0    0  0.10930860860E+01  0.41223810242E+00  0.44436303882E+01  0.45946304239E+01  0.51100000000E-03 0.  1.
         12    1    3    3    0    0  0.31722786513E+01 -0.50517685412E+01  0.17326032226E+02  0.18324167374E+02  0.00000000000E+00 0. -1.
</event>
<event>
 7    1  0.4450624E-010  0.4778727E+02  0.7816164E-02  0.1312668E+00
        -11   -1    0    0    0    0  0.00000000000E+00  0.00000000000E+00  0.45593999997E+02  0.45594000000E+02  0.51100000000E-03 0.  1.
         11   -1    0    0    0    0 -0.00000000000E+00 -0.00000000000E+00 -0.45593999997E+02  0.45594000000E+02  0.51100000000E-03 0. -1.
    9900012    2    1    2    0    0  0.19014489372E+02  0.38993452487E+02  0.12582143180E+01  0.47787271364E+02  0.20000001455E+02 0.  0.
         12    1    1    2    0    0 -0.19014489372E+02 -0.38993452487E+02 -0.12582143180E+01  0.43400728636E+02  0.00000000000E+00 0. -1.
         11    1    3    3    0    0  0.36251044627E+01  0.54811802544E+01 -0.16419871202E+01  0.67735397918E+01  0.51100000000E-03 0.  1.
        -11    1    3    3    0    0  0.12216562807E+02  0.11181450994E+02 -0.46957424980E+01  0.17213926078E+02  0.51100000000E-03 0. -1.
         12    1    3    3    0    0  0.31728221023E+01  0.22330821238E+02  0.75959439362E+01  0.23799805494E+02  0.00000000000E+00 0. -1.
</event>
<event>
 7    1  0.4450624E-010  0.4778727E+02  0.7816164E-02  0.1312668E+00
        -11   -1    0    0    0    0  0.00000000000E+00  0.00000000000E+00  0.45593999997E+02  0.45594000000E+02  0.51100000000E-03 0. -1.
         11   -1    0    0    0    0 -0.00000000000E+00 -0.00000000000E+00 -0.45593999997E+02  0.45594000000E+02  0.51100000000E-03 0.  1.
    9900012    2    1    2    0    0 -0.31261321716E+01  0.24856615776E+02 -0.35440081174E+02  0.47787269547E+02  0.19999993174E+02 0.  0.
         12    1    1    2    0    0  0.31261321716E+01 -0.24856615776E+02  0.35440081174E+02  0.43400730453E+02  0.00000000000E+00 0. -1.
         11    1    3    3    0    0 -0.31602046929E+01  0.39753327739E+00 -0.58802774472E+01  0.66874950112E+01  0.51100000000E-03 0. -1.
        -11    1    3    3    0    0 -0.57532947627E+00  0.37519914410E+00  0.15833510059E+01  0.17259139820E+01  0.51100000000E-03 0.  1.
        -12    1    3    3    0    0  0.60940199760E+00  0.24083883354E+02 -0.31143154733E+02  0.39373860554E+02  0.00000000000E+00 0.  1.
</event>
<event>
 7    1  0.4450624E-010  0.4778727E+02  0.7816164E-02  0.1312668E+00
        -11   -1    0    0    0    0  0.00000000000E+00  0.00000000000E+00  0.45593999997E+02  0.45594000000E+02  0.51100000000E-03 0. -1.
         11   -1    0    0    0    0 -0.00000000000E+00 -0.00000000000E+00 -0.45593999997E+02  0.45594000000E+02  0.51100000000E-03 0.  1.
    9900012    2    1    2    0    0 -0.17807951622E+02 -0.27512938961E+02  0.28452384384E+02  0.47787272721E+02  0.20000007642E+02 0.  0.
         12    1    1    2    0    0  0.17807951622E+02  0.27512938961E+02 -0.28452384384E+02  0.43400727279E+02  0.00000000000E+00 0. -1.
         11    1    3    3    0    0  0.24052074026E+00  0.16068797007E+00  0.58430062793E+01  0.58501618347E+01  0.51100000000E-03 0. -1.
        -11    1    3    3    0    0 -0.46741137507E+00 -0.11195851652E+02  0.78218898366E+01  0.13665559940E+02  0.51100000000E-03 0.  1.
        -12    1    3    3    0    0 -0.17581060987E+02 -0.16477775279E+02  0.14787488268E+02  0.28271550945E+02  0.00000000000E+00 0.  1.
</event>
<event>
 7    1  0.4450624E-010  0.4778727E+02  0.7816164E-02  0.1312668E+00
        -11   -1    0    0    0    0  0.00000000000E+00  0.00000000000E+00  0.45593999997E+02  0.45594000000E+02  0.51100000000E-03 0. -1.
         11   -1    0    0    0    0 -0.00000000000E+00 -0.00000000000E+00 -0.45593999997E+02  0.45594000000E+02  0.51100000000E-03 0.  1.
    9900012    2    1    2    0    0 -0.11651104520E+02  0.40714778961E+02 -0.94963957938E+01  0.47787274252E+02  0.20000014625E+02 0.  0.
         12    1    1    2    0    0  0.11651104520E+02 -0.40714778961E+02  0.94963957938E+01  0.43400725748E+02  0.00000000000E+00 0. -1.
         11    1    3    3    0    0 -0.80248912756E+01  0.10059452228E+02  0.53857845895E+00  0.12879500228E+02  0.51100000000E-03 0. -1.
        -11    1    3    3    0    0 -0.49560759009E+01  0.17083036421E+02  0.31091395406E+00  0.17790151474E+02  0.51100000000E-03 0.  1.
        -12    1    3    3    0    0  0.13298626564E+01  0.13572290312E+02 -0.10345888207E+02  0.17117622550E+02  0.00000000000E+00 0.  1.
</event>
<event>
 7    1  0.4450624E-010  0.4778727E+02  0.7816164E-02  0.1312668E+00
        -11   -1    0    0    0    0  0.00000000000E+00  0.00000000000E+00  0.45593999997E+02  0.45594000000E+02  0.51100000000E-03 0.  1.
         11   -1    0    0    0    0 -0.00000000000E+00 -0.00000000000E+00 -0.45593999997E+02  0.45594000000E+02  0.51100000000E-03 0. -1.
    9900012    2    1    2    0    0  0.27947249302E+02  0.32100497138E+02 -0.84931027556E+01  0.47787268964E+02  0.19999990515E+02 0.  0.
         12    1    1    2    0    0 -0.27947249302E+02 -0.32100497138E+02  0.84931027556E+01  0.43400731036E+02  0.00000000000E+00 0. -1.
         11    1    3    3    0    0  0.16922768847E+02  0.14341615122E+02 -0.12964362581E+00  0.22182850076E+02  0.51100000000E-03 0. -1.
        -11    1    3    3    0    0  0.26797834448E+01  0.12348346843E+02 -0.40232479357E-01  0.12635842987E+02  0.51100000000E-03 0.  1.
         12    1    3    3    0    0  0.83446970096E+01  0.54105351725E+01 -0.83232266505E+01  0.12968575901E+02  0.00000000000E+00 0. -1.
</event>
<event>
 7    1  0.4450624E-010  0.4778727E+02  0.7816164E-02  0.1312668E+00
        -11   -1    0    0    0    0  0.00000000000E+00  0.00000000000E+00  0.45593999997E+02  0.45594000000E+02  0.51100000000E-03 0.  1.
         11   -1    0    0    0    0 -0.00000000000E+00 -0.00000000000E+00 -0.45593999997E+02  0.45594000000E+02  0.51100000000E-03 0. -1.
    9900012    2    1    2    0    0 -0.12899629873E+01  0.28279851503E+01  0.43289278822E+02  0.47787272294E+02  0.20000005697E+02 0.  0.
         12    1    1    2    0    0  0.12899629873E+01 -0.28279851503E+01 -0.43289278822E+02  0.43400727706E+02  0.00000000000E+00 0. -1.
         11    1    3    3    0    0 -0.73868459446E+00 -0.43621404312E+01  0.12107204278E+02  0.12890241261E+02  0.51100000000E-03 0. -1.
        -11    1    3    3    0    0 -0.41107685760E+01 -0.28272728593E+01  0.87253428786E+01  0.10051044658E+02  0.51100000000E-03 0.  1.
         12    1    3    3    0    0  0.35594901831E+01  0.10017398441E+02  0.22456731665E+02  0.24845986375E+02  0.00000000000E+00 0. -1.
</event>
<event>
 7    1  0.4450624E-010  0.4778732E+02  0.7816164E-02  0.1312668E+00
        -11   -1    0    0    0    0  0.00000000000E+00  0.00000000000E+00  0.45593999997E+02  0.45594000000E+02  0.51100000000E-03 0.  1.
         11   -1    0    0    0    0 -0.00000000000E+00 -0.00000000000E+00 -0.45593999997E+02  0.45594000000E+02  0.51100000000E-03 0. -1.
    9900012    2    1    2    0    0 -0.42906031008E+01 -0.39169000951E+02  0.18193384195E+02  0.47787318681E+02  0.20000217193E+02 0.  0.
         12    1    1    2    0    0  0.42906031008E+01  0.39169000951E+02 -0.18193384195E+02  0.43400681319E+02  0.00000000000E+00 0. -1.
         11    1    3    3    0    0  0.90257352023E+00 -0.10853329318E+00  0.25266088746E+01  0.26851761770E+01  0.51100000000E-03 0. -1.
        -11    1    3    3    0    0  0.40044440140E+01 -0.24275197739E+02  0.66137365488E+01  0.25476701288E+02  0.51100000000E-03 0.  1.
         12    1    3    3    0    0 -0.91976206350E+01 -0.14785269919E+02  0.90530387720E+01  0.19625441216E+02  0.00000000000E+00 0. -1.
</event>
<event>
 7    1  0.4450624E-010  0.4778727E+02  0.7816164E-02  0.1312668E+00
        -11   -1    0    0    0    0  0.00000000000E+00  0.00000000000E+00  0.45593999997E+02  0.45594000000E+02  0.51100000000E-03 0. -1.
         11   -1    0    0    0    0 -0.00000000000E+00 -0.00000000000E+00 -0.45593999997E+02  0.45594000000E+02  0.51100000000E-03 0.  1.
    9900012    2    1    2    0    0  0.84085849480E+00  0.43008894326E+02 -0.57577103097E+01  0.47787271179E+02  0.20000000613E+02 0.  0.
         12    1    1    2    0    0 -0.84085849480E+00 -0.43008894326E+02  0.57577103097E+01  0.43400728821E+02  0.00000000000E+00 0. -1.
         11    1    3    3    0    0  0.31155503374E+01  0.81062730692E+01 -0.19683155233E+01  0.89046382991E+01  0.51100000000E-03 0. -1.
        -11    1    3    3    0    0 -0.33437318086E+01  0.35322797116E+02 -0.63791200706E+01  0.36049600715E+02  0.51100000000E-03 0.  1.
        -12    1    3    3    0    0  0.10690399660E+01 -0.42017585924E+00  0.25897252842E+01  0.28330321652E+01  0.00000000000E+00 0.  1.
</event>
<event>
 7    1  0.4450624E-010  0.4778725E+02  0.7816164E-02  0.1312668E+00
        -11   -1    0    0    0    0  0.00000000000E+00  0.00000000000E+00  0.45593999997E+02  0.45594000000E+02  0.51100000000E-03 0.  1.
         11   -1    0    0    0    0 -0.00000000000E+00 -0.00000000000E+00 -0.45593999997E+02  0.45594000000E+02  0.51100000000E-03 0. -1.
    9900012    2    1    2    0    0  0.18631637440E+02  0.31249850563E+02  0.23662925097E+02  0.47787250029E+02  0.19999904183E+02 0.  0.
         12    1    1    2    0    0 -0.18631637440E+02 -0.31249850563E+02 -0.23662925097E+02  0.43400749971E+02  0.00000000000E+00 0. -1.
         11    1    3    3    0    0  0.80001964606E+00  0.26790401832E+01  0.36095736525E+01  0.45657759419E+01  0.51100000000E-03 0. -1.
        -11    1    3    3    0    0  0.15958587795E+02  0.29501165560E+02  0.13181004832E+02  0.36037954748E+02  0.51100000000E-03 0.  1.
        -12    1    3    3    0    0  0.18730299984E+01 -0.93035517968E+00  0.68723466123E+01  0.71835193391E+01  0.00000000000E+00 0.  1.
</event>
<event>
 7    1  0.4450624E-010  0.4778727E+02  0.7816164E-02  0.1312668E+00
        -11   -1    0    0    0    0  0.00000000000E+00  0.00000000000E+00  0.45593999997E+02  0.45594000000E+02  0.51100000000E-03 0. -1.
         11   -1    0    0    0    0 -0.00000000000E+00 -0.00000000000E+00 -0.45593999997E+02  0.45594000000E+02  0.51100000000E-03 0.  1.
    9900012    2    1    2    0    0 -0.31336596345E+01 -0.24715210535E+02 -0.35538171505E+02  0.47787273181E+02  0.20000009741E+02 0.  0.
         12    1    1    2    0    0  0.31336596345E+01  0.24715210535E+02  0.35538171505E+02  0.43400726819E+02  0.00000000000E+00 0. -1.
         11    1    3    3    0    0 -0.25968292730E+00  0.15830353822E+00  0.20435962031E+00  0.36641281157E+00  0.51100000000E-03 0. -1.
        -11    1    3    3    0    0 -0.10754454733E+02 -0.12504317686E+02 -0.19345382165E+02  0.25421645674E+02  0.51100000000E-03 0.  1.
         12    1    3    3    0    0  0.78804780257E+01 -0.12369196387E+02 -0.16397148961E+02  0.21999214696E+02  0.00000000000E+00 0. -1.
</event>
<event>
 7    1  0.4450624E-010  0.4778727E+02  0.7816164E-02  0.1312668E+00
        -11   -1    0    0    0    0  0.00000000000E+00  0.00000000000E+00  0.45593999997E+02  0.45594000000E+02  0.51100000000E-03 0.  1.
         11   -1    0    0    0    0 -0.00000000000E+00 -0.00000000000E+00 -0.45593999997E+02  0.45594000000E+02  0.51100000000E-03 0. -1.
    9900012    2    1    2    0    0 -0.39988571644E+01 -0.16695592574E+02  0.39860879376E+02  0.47787269883E+02  0.19999994705E+02 0.  0.
         12    1    1    2    0    0  0.39988571644E+01  0.16695592574E+02 -0.39860879376E+02  0.43400730117E+02  0.00000000000E+00 0. -1.
         11    1    3    3    0    0  0.14759294554E+01  0.73475313782E+00  0.58500433725E+00  0.17494171219E+01  0.51100000000E-03 0. -1.
        -11    1    3    3    0    0 -0.87828959092E+01 -0.50350309875E+01  0.24261277269E+02  0.26288787964E+02  0.51100000000E-03 0.  1.
        -12    1    3    3    0    0  0.33081092894E+01 -0.12395314724E+02  0.15014597770E+02  0.19749064798E+02  0.00000000000E+00 0.  1.
</event>
<event>
 7    1  0.4450624E-010  0.4778727E+02  0.7816164E-02  0.1312668E+00
        -11   -1    0    0    0    0  0.00000000000E+00  0.00000000000E+00  0.45593999997E+02  0.45594000000E+02  0.51100000000E-03 0. -1.
         11   -1    0    0    0    0 -0.00000000000E+00 -0.00000000000E+00 -0.45593999997E+02  0.45594000000E+02  0.51100000000E-03 0.  1.
    9900012    2    1    2    0    0  0.40215293178E+02  0.13965391654E+02 -0.84452006971E+01  0.47787269772E+02  0.19999994200E+02 0.  0.
         12    1    1    2    0    0 -0.40215293178E+02 -0.13965391654E+02  0.84452006971E+01  0.43400730228E+02  0.00000000000E+00 0. -1.
         11    1    3    3    0    0  0.54988936555E+01 -0.26978847242E+01 -0.40659127484E+01  0.73517385807E+01  0.51100000000E-03 0. -1.
        -11    1    3    3    0    0  0.11167664435E+02 -0.25744424290E-01 -0.28833054209E+01  0.11533899693E+02  0.51100000000E-03 0.  1.
        -12    1    3    3    0    0  0.23548735088E+02  0.16689020802E+02 -0.14959825278E+01  0.28901631499E+02  0.00000000000E+00 0.  1.
</event>
<event>
 7    1  0.4450624E-010  0.4778727E+02  0.7816164E-02  0.1312668E+00
        -11   -1    0    0    0    0  0.00000000000E+00  0.00000000000E+00  0.45593999997E+02  0.45594000000E+02  0.51100000000E-03 0. -1.
         11   -1    0    0    0    0 -0.00000000000E+00 -0.00000000000E+00 -0.45593999997E+02  0.45594000000E+02  0.51100000000E-03 0.  1.
    9900012    2    1    2    0    0  0.31117577302E+02  0.78586157888E+01 -0.29215781187E+02  0.47787270403E+02  0.19999997074E+02 0.  0.
         12    1    1    2    0    0 -0.31117577302E+02 -0.78586157888E+01  0.29215781187E+02  0.43400729597E+02  0.00000000000E+00 0. -1.
         11    1    3    3    0    0  0.37434687913E+01  0.31656174395E+01 -0.70527221499E+01  0.85892713514E+01  0.51100000000E-03 0. -1.
        -11    1    3    3    0    0  0.51003174994E+01  0.82329913975E+01 -0.80437906122E+01  0.12589597040E+02  0.51100000000E-03 0.  1.
         12    1    3    3    0    0  0.22273791011E+02 -0.35399930481E+01 -0.14119268424E+02  0.26608402012E+02  0.00000000000E+00 0. -1.
</event>
<event>
 7    1  0.4450624E-010  0.4778727E+02  0.7816164E-02  0.1312668E+00
        -11   -1    0    0    0    0  0.00000000000E+00  0.00000000000E+00  0.45593999997E+02  0.45594000000E+02  0.51100000000E-03 0. -1.
         11   -1    0    0    0    0 -0.00000000000E+00 -0.00000000000E+00 -0.45593999997E+02  0.45594000000E+02  0.51100000000E-03 0.  1.
    9900012    2    1    2    0    0 -0.89971938857E+01  0.30022410896E+02 -0.30022132923E+02  0.47787272828E+02  0.20000008131E+02 0.  0.
         12    1    1    2    0    0  0.89971938857E+01 -0.30022410896E+02  0.30022132923E+02  0.43400727172E+02  0.00000000000E+00 0. -1.
         11    1    3    3    0    0  0.82140133045E-01  0.50464711729E+01 -0.93001310193E+01  0.10581401398E+02  0.51100000000E-03 0. -1.
        -11    1    3    3    0    0 -0.13092343801E+02  0.14965825425E+02 -0.15564534708E+02  0.25251537335E+02  0.51100000000E-03 0.  1.
         12    1    3    3    0    0  0.40130097822E+01  0.10010114298E+02 -0.51574671957E+01  0.11954334095E+02  0.00000000000E+00 0. -1.
</event>
<event>
 7    1  0.4450624E-010  0.4778727E+02  0.7816164E-02  0.1312668E+00
        -11   -1    0    0    0    0  0.00000000000E+00  0.00000000000E+00  0.45593999997E+02  0.45594000000E+02  0.51100000000E-03 0.  1.
         11   -1    0    0    0    0 -0.00000000000E+00 -0.00000000000E+00 -0.45593999997E+02  0.45594000000E+02  0.51100000000E-03 0. -1.
    9900012    2    1    2    0    0  0.46096178526E+01  0.20232149216E+02  0.38118696807E+02  0.47787268613E+02  0.19999988915E+02 0.  0.
         12    1    1    2    0    0 -0.46096178526E+01 -0.20232149216E+02 -0.38118696807E+02  0.43400731387E+02  0.00000000000E+00 0. -1.
         11    1    3    3    0    0  0.73218956078E+01  0.12321904129E+02  0.21957034332E+02  0.26221190544E+02  0.51100000000E-03 0.  1.
        -11    1    3    3    0    0 -0.11422386993E+01  0.58242100744E+01  0.17607993841E+02  0.18581377225E+02  0.51100000000E-03 0. -1.
         12    1    3    3    0    0 -0.15700390560E+01  0.20860350120E+01 -0.14463313650E+01  0.29847008436E+01  0.00000000000E+00 0. -1.
</event>
<event>
 7    1  0.4450624E-010  0.4778727E+02  0.7816164E-02  0.1312668E+00
        -11   -1    0    0    0    0  0.00000000000E+00  0.00000000000E+00  0.45593999997E+02  0.45594000000E+02  0.51100000000E-03 0.  1.
         11   -1    0    0    0    0 -0.00000000000E+00 -0.00000000000E+00 -0.45593999997E+02  0.45594000000E+02  0.51100000000E-03 0. -1.
    9900012    2    1    2    0    0  0.18498407399E+02 -0.39259210404E+02 -0.38279039665E+00  0.47787271823E+02  0.20000003549E+02 0.  0.
         12    1    1    2    0    0 -0.18498407399E+02  0.39259210404E+02  0.38279039665E+00  0.43400728177E+02  0.00000000000E+00 0. -1.
         11    1    3    3    0    0  0.81740057148E+01 -0.72607098326E+01 -0.14253986165E+01  0.11025608290E+02  0.51100000000E-03 0. -1.
        -11    1    3    3    0    0 -0.27697917886E+01 -0.96240833215E+00 -0.75697899755E+00  0.30283648746E+01  0.51100000000E-03 0.  1.
        -12    1    3    3    0    0  0.13094193473E+02 -0.31036092239E+02  0.17995872174E+01  0.33733298658E+02  0.00000000000E+00 0.  1.
</event>
<event>
 7    1  0.4450624E-010  0.4778727E+02  0.7816164E-02  0.1312668E+00
        -11   -1    0    0    0    0  0.00000000000E+00  0.00000000000E+00  0.45593999997E+02  0.45594000000E+02  0.51100000000E-03 0. -1.
         11   -1    0    0    0    0 -0.00000000000E+00 -0.00000000000E+00 -0.45593999997E+02  0.45594000000E+02  0.51100000000E-03 0.  1.
    9900012    2    1    2    0    0  0.36226523003E+02 -0.20483505000E+02 -0.12316176226E+02  0.47787272555E+02  0.20000006886E+02 0.  0.
         12    1    1    2    0    0 -0.36226523003E+02  0.20483505000E+02  0.12316176226E+02  0.43400727445E+02  0.00000000000E+00 0. -1.
         11    1    3    3    0    0  0.10241470687E+02 -0.14601595750E+01 -0.10639568323E+01  0.10399605388E+02  0.51100000000E-03 0. -1.
        -11    1    3    3    0    0  0.23231813322E+02 -0.84571458545E+01 -0.82498921734E+01  0.26063407056E+02  0.51100000000E-03 0.  1.
         12    1    3    3    0    0  0.27532389937E+01 -0.10566199571E+02 -0.30023272205E+01  0.11324260111E+02  0.00000000000E+00 0. -1.
</event>
<event>
 7    1  0.4450624E-010  0.4778726E+02  0.7816164E-02  0.1312668E+00
        -11   -1    0    0    0    0  0.00000000000E+00  0.00000000000E+00  0.45593999997E+02  0.45594000000E+02  0.51100000000E-03 0.  1.
         11   -1    0    0    0    0 -0.00000000000E+00 -0.00000000000E+00 -0.45593999997E+02  0.45594000000E+02  0.51100000000E-03 0. -1.
    9900012    2    1    2    0    0  0.80047652534E+01 -0.23250548231E+02  0.35762549934E+02  0.47787259943E+02  0.19999949382E+02 0.  0.
         12    1    1    2    0    0 -0.80047652534E+01  0.23250548231E+02 -0.35762549934E+02  0.43400740057E+02  0.00000000000E+00 0. -1.
         11    1    3    3    0    0 -0.21011223134E+01 -0.57664615864E+01  0.46316748707E+01  0.76889015193E+01  0.51100000000E-03 0. -1.
        -11    1    3    3    0    0  0.30023433405E+01  0.13634383925E+01  0.11534701371E+02  0.11996764804E+02  0.51100000000E-03 0.  1.
         12    1    3    3    0    0  0.71035442263E+01 -0.18847525037E+02  0.19596173692E+02  0.28101593619E+02  0.00000000000E+00 0. -1.
</event>
<event>
 7    1  0.4450624E-010  0.4778727E+02  0.7816164E-02  0.1312668E+00
        -11   -1    0    0    0    0  0.00000000000E+00  0.00000000000E+00  0.45593999997E+02  0.45594000000E+02  0.51100000000E-03 0.  1.
         11   -1    0    0    0    0 -0.00000000000E+00 -0.00000000000E+00 -0.45593999997E+02  0.45594000000E+02  0.51100000000E-03 0. -1.
    9900012    2    1    2    0    0  0.21084374612E+01  0.23142129895E+02  0.36655415727E+02  0.47787272049E+02  0.20000004578E+02 0.  0.
         12    1    1    2    0    0 -0.21084374612E+01 -0.23142129895E+02 -0.36655415727E+02  0.43400727951E+02  0.00000000000E+00 0. -1.
         11    1    3    3    0    0 -0.45648493004E+01  0.79929136628E+01  0.19234447329E+02  0.21323425669E+02  0.51100000000E-03 0. -1.
        -11    1    3    3    0    0 -0.59800898652E+00  0.11950330669E+02  0.10914653637E+02  0.16195606878E+02  0.51100000000E-03 0.  1.
         12    1    3    3    0    0  0.72712957481E+01  0.31988855628E+01  0.65063147602E+01  0.10268239501E+02  0.00000000000E+00 0. -1.
</event>
<event>
 7    1  0.4450624E-010  0.4778727E+02  0.7816164E-02  0.1312668E+00
        -11   -1    0    0    0    0  0.00000000000E+00  0.00000000000E+00  0.45593999997E+02  0.45594000000E+02  0.51100000000E-03 0. -1.
         11   -1    0    0    0    0 -0.00000000000E+00 -0.00000000000E+00 -0.45593999997E+02  0.45594000000E+02  0.51100000000E-03 0.  1.
    9900012    2    1    2    0    0 -0.11258833586E+02 -0.13233386601E+02 -0.39771087669E+02  0.47787271100E+02  0.20000000256E+02 0.  0.
         12    1    1    2    0    0  0.11258833586E+02  0.13233386601E+02  0.39771087669E+02  0.43400728900E+02  0.00000000000E+00 0. -1.
         11    1    3    3    0    0 -0.13917826776E-01 -0.17109957927E+01 -0.91373350433E+00  0.19397446963E+01  0.51100000000E-03 0. -1.
        -11    1    3    3    0    0 -0.61393659143E+01 -0.84952899625E+01 -0.38500020648E+02  0.39901295162E+02  0.51100000000E-03 0.  1.
        -12    1    3    3    0    0 -0.51055498452E+01 -0.30271008453E+01 -0.35733351609E+00  0.59462312427E+01  0.00000000000E+00 0.  1.
</event>
<event>
 7    1  0.4450624E-010  0.4778727E+02  0.7816164E-02  0.1312668E+00
        -11   -1    0    0    0    0  0.00000000000E+00  0.00000000000E+00  0.45593999997E+02  0.45594000000E+02  0.51100000000E-03 0. -1.
         11   -1    0    0    0    0 -0.00000000000E+00 -0.00000000000E+00 -0.45593999997E+02  0.45594000000E+02  0.51100000000E-03 0.  1.
    9900012    2    1    2    0    0 -0.12849494417E+02  0.40152033534E+02 -0.10311548496E+02  0.47787270328E+02  0.19999996732E+02 0.  0.
         12    1    1    2    0    0  0.12849494417E+02 -0.40152033534E+02  0.10311548496E+02  0.43400729672E+02  0.00000000000E+00 0. -1.
         11    1    3    3    0    0 -0.25889917983E+01  0.14129586241E+02  0.12368526402E+00  0.14365353605E+02  0.51100000000E-03 0. -1.
        -11    1    3    3    0    0 -0.65137979598E+01  0.40770370675E+01  0.19741498583E+01  0.79340445572E+01  0.51100000000E-03 0.  1.
        -12    1    3    3    0    0 -0.37467046591E+01  0.21945410225E+02 -0.12409383618E+02  0.25487872166E+02  0.00000000000E+00 0.  1.
</event>
<event>
 7    1  0.4450624E-010  0.4778727E+02  0.7816164E-02  0.1312668E+00
        -11   -1    0    0    0    0  0.00000000000E+00  0.00000000000E+00  0.45593999997E+02  0.45594000000E+02  0.51100000000E-03 0. -1.
         11   -1    0    0    0    0 -0.00000000000E+00 -0.00000000000E+00 -0.45593999997E+02  0.45594000000E+02  0.51100000000E-03 0.  1.
    9900012    2    1    2    0    0 -0.20370300148E+02 -0.37575578252E+02 -0.75332819949E+01  0.47787267902E+02  0.19999985671E+02 0.  0.
         12    1    1    2    0    0  0.20370300148E+02  0.37575578252E+02  0.75332819949E+01  0.43400732098E+02  0.00000000000E+00 0. -1.
         11    1    3    3    0    0 -0.28335667237E+01 -0.27292002860E+01 -0.49737876707E+01  0.63416242898E+01  0.51100000000E-03 0. -1.
        -11    1    3    3    0    0 -0.46702481552E+01 -0.26297946316E+01  0.32552382833E+01  0.62708543419E+01  0.51100000000E-03 0.  1.
        -12    1    3    3    0    0 -0.12866485269E+02 -0.32216583334E+02 -0.58147326074E+01  0.35174789270E+02  0.00000000000E+00 0.  1.
</event>
<event>
 7    1  0.4785004E-010  0.4778727E+02  0.7816164E-02  0.1312668E+00
        -11   -1    0    0    0    0  0.00000000000E+00  0.00000000000E+00  0.45593999997E+02  0.45594000000E+02  0.51100000000E-03 0.  1.
         11   -1    0    0    0    0 -0.00000000000E+00 -0.00000000000E+00 -0.45593999997E+02  0.45594000000E+02  0.51100000000E-03 0. -1.
    9900012    2    1    2    0    0  0.32476571781E+02  0.28655475693E+02  0.27855026894E+01  0.47787273888E+02  0.20000012963E+02 0.  0.
         12    1    1    2    0    0 -0.32476571781E+02 -0.28655475693E+02 -0.27855026894E+01  0.43400726112E+02  0.00000000000E+00 0. -1.
         11    1    3    3    0    0  0.41223101682E+01  0.10522502515E+02  0.45764373498E+01  0.12192632176E+02  0.51100000000E-03 0. -1.
        -11    1    3    3    0    0  0.83237522301E+00 -0.15069445067E+01  0.14966835364E+00  0.17280425734E+01  0.51100000000E-03 0.  1.
        -12    1    3    3    0    0  0.27521886390E+02  0.19639917685E+02 -0.19406030141E+01  0.33866599138E+02  0.00000000000E+00 0.  1.
</event>
<event>
 7    1  0.4450624E-010  0.4778727E+02  0.7816164E-02  0.1312668E+00
        -11   -1    0    0    0    0  0.00000000000E+00  0.00000000000E+00  0.45593999997E+02  0.45594000000E+02  0.51100000000E-03 0. -1.
         11   -1    0    0    0    0 -0.00000000000E+00 -0.00000000000E+00 -0.45593999997E+02  0.45594000000E+02  0.51100000000E-03 0.  1.
    9900012    2    1    2    0    0 -0.12850474457E+02 -0.19979137853E+02 -0.36322482613E+02  0.47787269749E+02  0.19999994094E+02 0.  0.
         12    1    1    2    0    0  0.12850474457E+02  0.19979137853E+02  0.36322482613E+02  0.43400730251E+02  0.00000000000E+00 0. -1.
         11    1    3    3    0    0 -0.81203260783E+01 -0.81679135213E+01 -0.19936741677E+02  0.23024512500E+02  0.51100000000E-03 0. -1.
        -11    1    3    3    0    0 -0.39752537882E+01 -0.11924448651E+02 -0.52844740507E+01  0.13635277209E+02  0.51100000000E-03 0.  1.
         12    1    3    3    0    0 -0.75489459034E+00  0.11322431868E+00 -0.11101266885E+02  0.11127480040E+02  0.00000000000E+00 0. -1.
</event>
<event>
 7    1  0.4450624E-010  0.4778727E+02  0.7816164E-02  0.1312668E+00
        -11   -1    0    0    0    0  0.00000000000E+00  0.00000000000E+00  0.45593999997E+02  0.45594000000E+02  0.51100000000E-03 0.  1.
         11   -1    0    0    0    0 -0.00000000000E+00 -0.00000000000E+00 -0.45593999997E+02  0.45594000000E+02  0.51100000000E-03 0. -1.
    9900012    2    1    2    0    0 -0.29135721102E+02 -0.30362112710E+02  0.10624260168E+02  0.47787273779E+02  0.20000012470E+02 0.  0.
         12    1    1    2    0    0  0.29135721102E+02  0.30362112710E+02 -0.10624260168E+02  0.43400726221E+02  0.00000000000E+00 0. -1.
         11    1    3    3    0    0 -0.80712966301E+00 -0.29047581306E+01 -0.19517681091E+01  0.35914449882E+01  0.51100000000E-03 0. -1.
        -11    1    3    3    0    0 -0.50301804421E+00 -0.68260677434E+01  0.56390057087E+01  0.88682925997E+01  0.51100000000E-03 0.  1.
         12    1    3    3    0    0 -0.27825573395E+02 -0.20631286836E+02  0.69370225680E+01  0.35327536192E+02  0.00000000000E+00 0. -1.
</event>
<event>
 7    1  0.4450624E-010  0.4778728E+02  0.7816164E-02  0.1312668E+00
        -11   -1    0    0    0    0  0.00000000000E+00  0.00000000000E+00  0.45593999997E+02  0.45594000000E+02  0.51100000000E-03 0.  1.
         11   -1    0    0    0    0 -0.00000000000E+00 -0.00000000000E+00 -0.45593999997E+02  0.45594000000E+02  0.51100000000E-03 0. -1.
    9900012    2    1    2    0    0  0.31492344315E+02 -0.21287461189E+02  0.20945141310E+02  0.47787277669E+02  0.20000030206E+02 0.  0.
         12    1    1    2    0    0 -0.31492344315E+02  0.21287461189E+02 -0.20945141310E+02  0.43400722331E+02  0.00000000000E+00 0. -1.
         11    1    3    3    0    0  0.93341469389E+01 -0.39583787940E+01  0.43441124577E+01  0.11030248187E+02  0.51100000000E-03 0. -1.
        -11    1    3    3    0    0  0.18293849208E+02 -0.11322290743E+02  0.19511760602E+02  0.29044241917E+02  0.51100000000E-03 0.  1.
         12    1    3    3    0    0  0.38643481683E+01 -0.60067916518E+01 -0.29107317494E+01  0.77127875655E+01  0.00000000000E+00 0. -1.
</event>
<event>
 7    1  0.4450624E-010  0.4778730E+02  0.7816164E-02  0.1312668E+00
        -11   -1    0    0    0    0  0.00000000000E+00  0.00000000000E+00  0.45593999997E+02  0.45594000000E+02  0.51100000000E-03 0. -1.
         11   -1    0    0    0    0 -0.00000000000E+00 -0.00000000000E+00 -0.45593999997E+02  0.45594000000E+02  0.51100000000E-03 0.  1.
    9900012    2    1    2    0    0 -0.37641670099E+02  0.20387279905E+02  0.71473332811E+01  0.47787298591E+02  0.20000125595E+02 0.  0.
         12    1    1    2    0    0  0.37641670099E+02 -0.20387279905E+02 -0.71473332811E+01  0.43400701409E+02  0.00000000000E+00 0. -1.
         11    1    3    3    0    0 -0.20163740153E+02  0.86098198685E+01  0.48690216043E+01  0.22459135931E+02  0.51100000000E-03 0. -1.
        -11    1    3    3    0    0 -0.12138739108E+02  0.12497241748E+02  0.63836064961E+01  0.18554796431E+02  0.51100000000E-03 0.  1.
         12    1    3    3    0    0 -0.53391908381E+01 -0.71978171121E+00 -0.41052948193E+01  0.67733662289E+01  0.00000000000E+00 0. -1.
</event>
<event>
 7    1  0.4450624E-010  0.4778729E+02  0.7816164E-02  0.1312668E+00
        -11   -1    0    0    0    0  0.00000000000E+00  0.00000000000E+00  0.45593999997E+02  0.45594000000E+02  0.51100000000E-03 0.  1.
         11   -1    0    0    0    0 -0.00000000000E+00 -0.00000000000E+00 -0.45593999997E+02  0.45594000000E+02  0.51100000000E-03 0. -1.
    9900012    2    1    2    0    0  0.20082752089E+02 -0.31798721237E+02  0.21659787872E+02  0.47787285554E+02  0.20000066154E+02 0.  0.
         12    1    1    2    0    0 -0.20082752089E+02  0.31798721237E+02 -0.21659787872E+02  0.43400714446E+02  0.00000000000E+00 0. -1.
         11    1    3    3    0    0  0.41365678689E+01 -0.19747491097E+02  0.14370698942E+02  0.24770780906E+02  0.51100000000E-03 0.  1.
        -11    1    3    3    0    0  0.16996231161E+00 -0.18950569570E+00 -0.14198977368E+01  0.14425357674E+01  0.51100000000E-03 0. -1.
        -12    1    3    3    0    0  0.15776221908E+02 -0.11861724445E+02  0.87089866666E+01  0.21573968880E+02  0.00000000000E+00 0.  1.
</event>
<event>
 7    1  0.4450624E-010  0.4778726E+02  0.7816164E-02  0.1312668E+00
        -11   -1    0    0    0    0  0.00000000000E+00  0.00000000000E+00  0.45593999997E+02  0.45594000000E+02  0.51100000000E-03 0.  1.
         11   -1    0    0    0    0 -0.00000000000E+00 -0.00000000000E+00 -0.45593999997E+02  0.45594000000E+02  0.51100000000E-03 0. -1.
    9900012    2    1    2    0    0  0.30505073114E+02  0.62588857010E+01  0.30230625237E+02  0.47787264544E+02  0.19999970362E+02 0.  0.
         12    1    1    2    0    0 -0.30505073114E+02 -0.62588857010E+01 -0.30230625237E+02  0.43400735456E+02  0.00000000000E+00 0. -1.
         11    1    3    3    0    0  0.34089003161E+01 -0.24413882385E+00  0.69605133016E+01  0.77542859641E+01  0.51100000000E-03 0. -1.
        -11    1    3    3    0    0  0.87027884779E+01  0.10361073793E+02  0.73251679624E+01  0.15386632620E+02  0.51100000000E-03 0.  1.
         12    1    3    3    0    0  0.18393384320E+02 -0.38580492679E+01  0.15944943973E+02  0.24646345960E+02  0.00000000000E+00 0. -1.
</event>
<event>
 7    1  0.4450624E-010  0.4778728E+02  0.7816164E-02  0.1312668E+00
        -11   -1    0    0    0    0  0.00000000000E+00  0.00000000000E+00  0.45593999997E+02  0.45594000000E+02  0.51100000000E-03 0. -1.
         11   -1    0    0    0    0 -0.00000000000E+00 -0.00000000000E+00 -0.45593999997E+02  0.45594000000E+02  0.51100000000E-03 0.  1.
    9900012    2    1    2    0    0 -0.35160128647E+02 -0.11683662876E+02 -0.22602660156E+02  0.47787275688E+02  0.20000021173E+02 0.  0.
         12    1    1    2    0    0  0.35160128647E+02  0.11683662876E+02  0.22602660156E+02  0.43400724312E+02  0.00000000000E+00 0. -1.
         11    1    3    3    0    0 -0.17694596693E+01  0.16879970844E+00  0.66438788475E+00  0.18976017458E+01  0.51100000000E-03 0. -1.
        -11    1    3    3    0    0 -0.12493764926E+01 -0.66967774528E+01 -0.58018435379E+01  0.89481371565E+01  0.51100000000E-03 0.  1.
         12    1    3    3    0    0 -0.32141292485E+02 -0.51556851315E+01 -0.17465204503E+02  0.36941536786E+02  0.00000000000E+00 0. -1.
</event>
<event>
 7    1  0.4450624E-010  0.4778727E+02  0.7816164E-02  0.1312668E+00
        -11   -1    0    0    0    0  0.00000000000E+00  0.00000000000E+00  0.45593999997E+02  0.45594000000E+02  0.51100000000E-03 0.  1.
         11   -1    0    0    0    0 -0.00000000000E+00 -0.00000000000E+00 -0.45593999997E+02  0.45594000000E+02  0.51100000000E-03 0. -1.
    9900012    2    1    2    0    0 -0.33727498960E+02  0.26776659091E+02 -0.53934818149E+01  0.47787270694E+02  0.19999998403E+02 0.  0.
         12    1    1    2    0    0  0.33727498960E+02 -0.26776659091E+02  0.53934818149E+01  0.43400729306E+02  0.00000000000E+00 0. -1.
         11    1    3    3    0    0 -0.16263471210E+02  0.82216008504E+01 -0.55418126610E+01  0.19047490758E+02  0.51100000000E-03 0. -1.
        -11    1    3    3    0    0 -0.86795088838E+01  0.87590488309E+01 -0.65633620269E+01  0.13968984653E+02  0.51100000000E-03 0.  1.
         12    1    3    3    0    0 -0.87845188666E+01  0.97960094098E+01  0.67116928730E+01  0.14770795283E+02  0.00000000000E+00 0. -1.
</event>
<event>
 7    1  0.4450624E-010  0.4778727E+02  0.7816164E-02  0.1312668E+00
        -11   -1    0    0    0    0  0.00000000000E+00  0.00000000000E+00  0.45593999997E+02  0.45594000000E+02  0.51100000000E-03 0. -1.
         11   -1    0    0    0    0 -0.00000000000E+00 -0.00000000000E+00 -0.45593999997E+02  0.45594000000E+02  0.51100000000E-03 0.  1.
    9900012    2    1    2    0    0 -0.25530725219E+02  0.78602994671E+01 -0.34205569731E+02  0.47787271451E+02  0.20000001855E+02 0.  0.
         12    1    1    2    0    0  0.25530725219E+02 -0.78602994671E+01  0.34205569731E+02  0.43400728549E+02  0.00000000000E+00 0. -1.
         11    1    3    3    0    0 -0.72890049668E+00  0.44656635248E+01 -0.32899225744E+01  0.55943755199E+01  0.51100000000E-03 0. -1.
        -11    1    3    3    0    0 -0.18528399198E+02  0.71013569157E+01 -0.15629685532E+02  0.25259016548E+02  0.51100000000E-03 0.  1.
        -12    1    3    3    0    0 -0.62734255251E+01 -0.37067209734E+01 -0.15285961625E+02  0.16933879384E+02  0.00000000000E+00 0.  1.
</event>
<event>
 7    1  0.4450624E-010  0.4778727E+02  0.7816164E-02  0.1312668E+00
        -11   -1    0    0    0    0  0.00000000000E+00  0.00000000000E+00  0.45593999997E+02  0.45594000000E+02  0.51100000000E-03 0.  1.
         11   -1    0    0    0    0 -0.00000000000E+00 -0.00000000000E+00 -0.45593999997E+02  0.45594000000E+02  0.51100000000E-03 0. -1.
    9900012    2    1    2    0    0 -0.21188865711E+02 -0.28767844136E+02  0.24638718600E+02  0.47787270276E+02  0.19999996495E+02 0.  0.
         12    1    1    2    0    0  0.21188865711E+02  0.28767844136E+02 -0.24638718600E+02  0.43400729724E+02  0.00000000000E+00 0. -1.
         11    1    3    3    0    0 -0.39777591820E+00 -0.33403798600E+01  0.63906855971E+01  0.72219959812E+01  0.51100000000E-03 0. -1.
        -11    1    3    3    0    0 -0.34093318505E+01 -0.10335719211E+02 -0.47386031779E+00  0.10893813801E+02  0.51100000000E-03 0.  1.
        -12    1    3    3    0    0 -0.17381757942E+02 -0.15091745065E+02  0.18721893321E+02  0.29671460493E+02  0.00000000000E+00 0.  1.
</event>
<event>
 7    1  0.4450624E-010  0.4778729E+02  0.7816164E-02  0.1312668E+00
        -11   -1    0    0    0    0  0.00000000000E+00  0.00000000000E+00  0.45593999997E+02  0.45594000000E+02  0.51100000000E-03 0. -1.
         11   -1    0    0    0    0 -0.00000000000E+00 -0.00000000000E+00 -0.45593999997E+02  0.45594000000E+02  0.51100000000E-03 0.  1.
    9900012    2    1    2    0    0  0.25284483264E+02 -0.22350410630E+02 -0.27290571956E+02  0.47787294166E+02  0.20000105420E+02 0.  0.
         12    1    1    2    0    0 -0.25284483264E+02  0.22350410630E+02  0.27290571956E+02  0.43400705834E+02  0.00000000000E+00 0. -1.
         11    1    3    3    0    0  0.32698155517E+01 -0.34014304884E+01 -0.16066546551E+01  0.49842514535E+01  0.51100000000E-03 0. -1.
        -11    1    3    3    0    0  0.24592130693E+02 -0.17847564432E+02 -0.19750067021E+02  0.36240496627E+02  0.51100000000E-03 0.  1.
         12    1    3    3    0    0 -0.25774629811E+01 -0.11014157089E+01 -0.59338502792E+01  0.65625460851E+01  0.00000000000E+00 0. -1.
</event>
<event>
 7    1  0.4450624E-010  0.4778727E+02  0.7816164E-02  0.1312668E+00
        -11   -1    0    0    0    0  0.00000000000E+00  0.00000000000E+00  0.45593999997E+02  0.45594000000E+02  0.51100000000E-03 0. -1.
         11   -1    0    0    0    0 -0.00000000000E+00 -0.00000000000E+00 -0.45593999997E+02  0.45594000000E+02  0.51100000000E-03 0.  1.
    9900012    2    1    2    0    0 -0.31839914892E+01  0.23765052238E+02 -0.36176065635E+02  0.47787271498E+02  0.20000002070E+02 0.  0.
         12    1    1    2    0    0  0.31839914892E+01 -0.23765052238E+02  0.36176065635E+02  0.43400728502E+02  0.00000000000E+00 0. -1.
         11    1    3    3    0    0  0.45316215748E+01  0.11848583678E+02 -0.15959133116E+02  0.20386722624E+02  0.51100000000E-03 0. -1.
        -11    1    3    3    0    0 -0.14436302463E+01  0.31497936145E+00 -0.11493734935E+02  0.11588322713E+02  0.51100000000E-03 0.  1.
        -12    1    3    3    0    0 -0.62719828178E+01  0.11601489198E+02 -0.87231975834E+01  0.15812226161E+02  0.00000000000E+00 0.  1.
</event>
<event>
 7    1  0.4450624E-010  0.4778727E+02  0.7816164E-02  0.1312668E+00
        -11   -1    0    0    0    0  0.00000000000E+00  0.00000000000E+00  0.45593999997E+02  0.45594000000E+02  0.51100000000E-03 0.  1.
         11   -1    0    0    0    0 -0.00000000000E+00 -0.00000000000E+00 -0.45593999997E+02  0.45594000000E+02  0.51100000000E-03 0. -1.
    9900012    2    1    2    0    0 -0.31611816565E+02  0.24689184832E+02 -0.16575897376E+02  0.47787272264E+02  0.20000005560E+02 0.  0.
         12    1    1    2    0    0  0.31611816565E+02 -0.24689184832E+02  0.16575897376E+02  0.43400727736E+02  0.00000000000E+00 0. -1.
         11    1    3    3    0    0 -0.42129105526E+01  0.29669237209E+01 -0.71159441097E+01  0.87856651725E+01  0.51100000000E-03 0. -1.
        -11    1    3    3    0    0 -0.14116295028E+02  0.14503387153E+02 -0.12208697722E+02  0.23636207914E+02  0.51100000000E-03 0.  1.
         12    1    3    3    0    0 -0.13282610984E+02  0.72188739583E+01  0.27487444562E+01  0.15365399177E+02  0.00000000000E+00 0. -1.
</event>
<event>
 7    1  0.4450624E-010  0.4778727E+02  0.7816164E-02  0.1312668E+00
        -11   -1    0    0    0    0  0.00000000000E+00  0.00000000000E+00  0.45593999997E+02  0.45594000000E+02  0.51100000000E-03 0. -1.
         11   -1    0    0    0    0 -0.00000000000E+00 -0.00000000000E+00 -0.45593999997E+02  0.45594000000E+02  0.51100000000E-03 0.  1.
    9900012    2    1    2    0    0 -0.88255256777E+01 -0.31103420191E+02 -0.28953594307E+02  0.47787271039E+02  0.19999999973E+02 0.  0.
         12    1    1    2    0    0  0.88255256777E+01  0.31103420191E+02  0.28953594307E+02  0.43400728961E+02  0.00000000000E+00 0. -1.
         11    1    3    3    0    0 -0.22397578327E+01  0.13883127390E+00 -0.10189839661E+02  0.10434012740E+02  0.51100000000E-03 0. -1.
        -11    1    3    3    0    0  0.18755486335E+00 -0.91238550219E+01 -0.61596079544E+01  0.11010026235E+02  0.51100000000E-03 0.  1.
         12    1    3    3    0    0 -0.67733227083E+01 -0.22118396443E+02 -0.12604146691E+02  0.26343232063E+02  0.00000000000E+00 0. -1.
</event>
<event>
 7    1  0.4450624E-010  0.4778727E+02  0.7816164E-02  0.1312668E+00
        -11   -1    0    0    0    0  0.00000000000E+00  0.00000000000E+00  0.45593999997E+02  0.45594000000E+02  0.51100000000E-03 0.  1.
         11   -1    0    0    0    0 -0.00000000000E+00 -0.00000000000E+00 -0.45593999997E+02  0.45594000000E+02  0.51100000000E-03 0. -1.
    9900012    2    1    2    0    0  0.40223356973E+02  0.72775762107E+01 -0.14585666743E+02  0.47787271480E+02  0.20000001987E+02 0.  0.
         12    1    1    2    0    0 -0.40223356973E+02 -0.72775762107E+01  0.14585666743E+02  0.43400728520E+02  0.00000000000E+00 0. -1.
         11    1    3    3    0    0  0.16870789053E+02  0.20599040041E+01  0.55437634235E+00  0.17005118675E+02  0.51100000000E-03 0.  1.
        -11    1    3    3    0    0  0.98476688855E+01 -0.34764755093E+01 -0.37675614495E+01  0.11102116194E+02  0.51100000000E-03 0. -1.
        -12    1    3    3    0    0  0.13504899035E+02  0.86941477160E+01 -0.11372481636E+02  0.19680036611E+02  0.00000000000E+00 0.  1.
</event>
<event>
 7    1  0.4450624E-010  0.4778727E+02  0.7816164E-02  0.1312668E+00
        -11   -1    0    0    0    0  0.00000000000E+00  0.00000000000E+00  0.45593999997E+02  0.45594000000E+02  0.51100000000E-03 0. -1.
         11   -1    0    0    0    0 -0.00000000000E+00 -0.00000000000E+00 -0.45593999997E+02  0.45594000000E+02  0.51100000000E-03 0.  1.
    9900012    2    1    2    0    0 -0.32425609814E+02 -0.22553142022E+02 -0.17987748473E+02  0.47787268647E+02  0.19999989071E+02 0.  0.
         12    1    1    2    0    0  0.32425609814E+02  0.22553142022E+02  0.17987748473E+02  0.43400731353E+02  0.00000000000E+00 0. -1.
         11    1    3    3    0    0 -0.68842052232E+01  0.20761351574E+01 -0.71513681515E+01  0.10141236880E+02  0.51100000000E-03 0. -1.
        -11    1    3    3    0    0 -0.29070504462E+01 -0.19448315192E+01  0.73790057073E+00  0.35746061949E+01  0.51100000000E-03 0.  1.
        -12    1    3    3    0    0 -0.22634354144E+02 -0.22684445660E+02 -0.11574280892E+02  0.34071425573E+02  0.00000000000E+00 0.  1.
</event>
<event>
 7    1  0.4450624E-010  0.4778728E+02  0.7816164E-02  0.1312668E+00
        -11   -1    0    0    0    0  0.00000000000E+00  0.00000000000E+00  0.45593999997E+02  0.45594000000E+02  0.51100000000E-03 0.  1.
         11   -1    0    0    0    0 -0.00000000000E+00 -0.00000000000E+00 -0.45593999997E+02  0.45594000000E+02  0.51100000000E-03 0. -1.
    9900012    2    1    2    0    0 -0.39181778075E+02 -0.18575239669E+02  0.18360544164E+01  0.47787281600E+02  0.20000048125E+02 0.  0.
         12    1    1    2    0    0  0.39181778075E+02  0.18575239669E+02 -0.18360544164E+01  0.43400718400E+02  0.00000000000E+00 0. -1.
         11    1    3    3    0    0 -0.13105170001E+02 -0.90657702171E+01 -0.24905473435E+01  0.16128747524E+02  0.51100000000E-03 0. -1.
        -11    1    3    3    0    0 -0.16071322019E+02 -0.11596573554E+02  0.71274382696E+01  0.21061060898E+02  0.51100000000E-03 0.  1.
         12    1    3    3    0    0 -0.10005286055E+02  0.20871041020E+01 -0.28008365098E+01  0.10597473177E+02  0.00000000000E+00 0. -1.
</event>
<event>
 7    1  0.4450624E-010  0.4778728E+02  0.7816164E-02  0.1312668E+00
        -11   -1    0    0    0    0  0.00000000000E+00  0.00000000000E+00  0.45593999997E+02  0.45594000000E+02  0.51100000000E-03 0.  1.
         11   -1    0    0    0    0 -0.00000000000E+00 -0.00000000000E+00 -0.45593999997E+02  0.45594000000E+02  0.51100000000E-03 0. -1.
    9900012    2    1    2    0    0 -0.16818507577E+02  0.17092055705E+02  0.36174881027E+02  0.47787279008E+02  0.20000036310E+02 0.  0.
         12    1    1    2    0    0  0.16818507577E+02 -0.17092055705E+02 -0.36174881027E+02  0.43400720992E+02  0.00000000000E+00 0. -1.
         11    1    3    3    0    0 -0.14394040597E+01  0.16003825700E+01  0.56256968154E+00  0.22247681509E+01  0.51100000000E-03 0. -1.
        -11    1    3    3    0    0 -0.13419954238E+02  0.19116301559E+02  0.25173378977E+02  0.34339877205E+02  0.51100000000E-03 0.  1.
         12    1    3    3    0    0 -0.19591492793E+01 -0.36246284246E+01  0.10438932368E+02  0.11222633652E+02  0.00000000000E+00 0. -1.
</event>
<event>
 7    1  0.4450624E-010  0.4778727E+02  0.7816164E-02  0.1312668E+00
        -11   -1    0    0    0    0  0.00000000000E+00  0.00000000000E+00  0.45593999997E+02  0.45594000000E+02  0.51100000000E-03 0. -1.
         11   -1    0    0    0    0 -0.00000000000E+00 -0.00000000000E+00 -0.45593999997E+02  0.45594000000E+02  0.51100000000E-03 0.  1.
    9900012    2    1    2    0    0 -0.34157729606E+02 -0.34460600716E+01  0.26551790258E+02  0.47787269733E+02  0.19999994019E+02 0.  0.
         12    1    1    2    0    0  0.34157729606E+02  0.34460600716E+01 -0.26551790258E+02  0.43400730267E+02  0.00000000000E+00 0. -1.
         11    1    3    3    0    0 -0.38589136778E+01 -0.52806357155E+01  0.86809215718E+01  0.10868980078E+02  0.51100000000E-03 0. -1.
        -11    1    3    3    0    0 -0.19633787938E+02 -0.22482757958E+01  0.15823313748E+02  0.25316351061E+02  0.51100000000E-03 0.  1.
         12    1    3    3    0    0 -0.10665027990E+02  0.40828514396E+01  0.20475549384E+01  0.11601938594E+02  0.00000000000E+00 0. -1.
</event>
<event>
 7    1  0.4450624E-010  0.4778727E+02  0.7816164E-02  0.1312668E+00
        -11   -1    0    0    0    0  0.00000000000E+00  0.00000000000E+00  0.45593999997E+02  0.45594000000E+02  0.51100000000E-03 0. -1.
         11   -1    0    0    0    0 -0.00000000000E+00 -0.00000000000E+00 -0.45593999997E+02  0.45594000000E+02  0.51100000000E-03 0.  1.
    9900012    2    1    2    0    0  0.27109249442E+02  0.33859470792E+02  0.14994418383E+01  0.47787268515E+02  0.19999988466E+02 0.  0.
         12    1    1    2    0    0 -0.27109249442E+02 -0.33859470792E+02 -0.14994418383E+01  0.43400731485E+02  0.00000000000E+00 0. -1.
         11    1    3    3    0    0 -0.11040616513E+01  0.73863652339E+01  0.57189474689E+00  0.74902875352E+01  0.51100000000E-03 0. -1.
        -11    1    3    3    0    0 -0.98846308450E+00  0.16812454557E+01 -0.28721540600E+00  0.19713291208E+01  0.51100000000E-03 0.  1.
        -12    1    3    3    0    0  0.29201774178E+02  0.24791860103E+02  0.12147624974E+01  0.38325651859E+02  0.00000000000E+00 0.  1.
</event>
<event>
 7    1  0.4450624E-010  0.4778727E+02  0.7816164E-02  0.1312668E+00
        -11   -1    0    0    0    0  0.00000000000E+00  0.00000000000E+00  0.45593999997E+02  0.45594000000E+02  0.51100000000E-03 0.  1.
         11   -1    0    0    0    0 -0.00000000000E+00 -0.00000000000E+00 -0.45593999997E+02  0.45594000000E+02  0.51100000000E-03 0. -1.
    9900012    2    1    2    0    0 -0.24156032217E+02 -0.10444277506E+02  0.34511248139E+02  0.47787273357E+02  0.20000010542E+02 0.  0.
         12    1    1    2    0    0  0.24156032217E+02  0.10444277506E+02 -0.34511248139E+02  0.43400726643E+02  0.00000000000E+00 0. -1.
         11    1    3    3    0    0  0.42455890716E+00  0.12159135942E+01  0.85681683277E+00  0.15468779784E+01  0.51100000000E-03 0. -1.
        -11    1    3    3    0    0 -0.89207695787E+01  0.36388509814E+01  0.80701542703E+01  0.12567766570E+02  0.51100000000E-03 0.  1.
        -12    1    3    3    0    0 -0.15659821545E+02 -0.15299042081E+02  0.25584277036E+02  0.33672628809E+02  0.00000000000E+00 0.  1.
</event>
<event>
 7    1  0.4450624E-010  0.4778727E+02  0.7816164E-02  0.1312668E+00
        -11   -1    0    0    0    0  0.00000000000E+00  0.00000000000E+00  0.45593999997E+02  0.45594000000E+02  0.51100000000E-03 0. -1.
         11   -1    0    0    0    0 -0.00000000000E+00 -0.00000000000E+00 -0.45593999997E+02  0.45594000000E+02  0.51100000000E-03 0.  1.
    9900012    2    1    2    0    0  0.28107684675E+02 -0.29405279251E+02 -0.15129797653E+02  0.47787272326E+02  0.20000005842E+02 0.  0.
         12    1    1    2    0    0 -0.28107684675E+02  0.29405279251E+02  0.15129797653E+02  0.43400727674E+02  0.00000000000E+00 0. -1.
         11    1    3    3    0    0  0.91359881634E+01 -0.75090184728E+01 -0.12752945706E+02  0.17392218449E+02  0.51100000000E-03 0. -1.
        -11    1    3    3    0    0  0.32442128000E+01 -0.68072188513E+01  0.27119716865E+01  0.80136094159E+01  0.51100000000E-03 0.  1.
        -12    1    3    3    0    0  0.15727483712E+02 -0.15089041927E+02 -0.50888236344E+01  0.22381444461E+02  0.00000000000E+00 0.  1.
</event>
<event>
 7    1  0.4450624E-010  0.4778727E+02  0.7816164E-02  0.1312668E+00
        -11   -1    0    0    0    0  0.00000000000E+00  0.00000000000E+00  0.45593999997E+02  0.45594000000E+02  0.51100000000E-03 0.  1.
         11   -1    0    0    0    0 -0.00000000000E+00 -0.00000000000E+00 -0.45593999997E+02  0.45594000000E+02  0.51100000000E-03 0. -1.
    9900012    2    1    2    0    0 -0.93036705989E+01 -0.33718896019E+02  0.25692436276E+02  0.47787268242E+02  0.19999987223E+02 0.  0.
         12    1    1    2    0    0  0.93036705989E+01  0.33718896019E+02 -0.25692436276E+02  0.43400731758E+02  0.00000000000E+00 0. -1.
         11    1    3    3    0    0  0.17983582900E+01 -0.15062765653E+01  0.15357315838E+01  0.28038247785E+01  0.51100000000E-03 0. -1.
        -11    1    3    3    0    0 -0.69949736396E+01 -0.15964247686E+02  0.22027850447E+02  0.28089376212E+02  0.51100000000E-03 0.  1.
         12    1    3    3    0    0 -0.41070552492E+01 -0.16248371767E+02  0.21288542450E+01  0.16894067252E+02  0.00000000000E+00 0. -1.
</event>
<event>
 7    1  0.4450624E-010  0.4778727E+02  0.7816164E-02  0.1312668E+00
        -11   -1    0    0    0    0  0.00000000000E+00  0.00000000000E+00  0.45593999997E+02  0.45594000000E+02  0.51100000000E-03 0. -1.
         11   -1    0    0    0    0 -0.00000000000E+00 -0.00000000000E+00 -0.45593999997E+02  0.45594000000E+02  0.51100000000E-03 0.  1.
    9900012    2    1    2    0    0  0.41733790091E+02 -0.72331909606E+01 -0.94654740603E+01  0.47787268600E+02  0.19999988856E+02 0.  0.
         12    1    1    2    0    0 -0.41733790091E+02  0.72331909606E+01  0.94654740603E+01  0.43400731400E+02  0.00000000000E+00 0. -1.
         11    1    3    3    0    0  0.83364891188E+01  0.42528739778E+01 -0.76540811553E+01  0.12090035008E+02  0.51100000000E-03 0. -1.
        -11    1    3    3    0    0  0.11418992396E+02 -0.19561749381E+01 -0.19089750763E+01  0.11741558407E+02  0.51100000000E-03 0.  1.
         12    1    3    3    0    0  0.21978308577E+02 -0.95298900003E+01  0.97582171236E-01  0.23955675185E+02  0.00000000000E+00 0. -1.
</event>
<event>
 7    1  0.4450624E-010  0.4778727E+02  0.7816164E-02  0.1312668E+00
        -11   -1    0    0    0    0  0.00000000000E+00  0.00000000000E+00  0.45593999997E+02  0.45594000000E+02  0.51100000000E-03 0. -1.
         11   -1    0    0    0    0 -0.00000000000E+00 -0.00000000000E+00 -0.45593999997E+02  0.45594000000E+02  0.51100000000E-03 0.  1.
    9900012    2    1    2    0    0 -0.12658251280E+02  0.46990711005E+01 -0.41246944253E+02  0.47787274144E+02  0.20000014130E+02 0.  0.
         12    1    1    2    0    0  0.12658251280E+02 -0.46990711005E+01  0.41246944253E+02  0.43400725856E+02  0.00000000000E+00 0. -1.
         11    1    3    3    0    0 -0.82188577876E+01  0.68999034385E+00 -0.79472198371E+01  0.11453558984E+02  0.51100000000E-03 0. -1.
        -11    1    3    3    0    0 -0.28173052496E+01  0.83764634474E+01 -0.14635309689E+02  0.17096626530E+02  0.51100000000E-03 0.  1.
        -12    1    3    3    0    0 -0.16220882430E+01 -0.43673826908E+01 -0.18664414727E+02  0.19237088629E+02  0.00000000000E+00 0.  1.
</event>
<event>
 7    1  0.4450624E-010  0.4778727E+02  0.7816164E-02  0.1312668E+00
        -11   -1    0    0    0    0  0.00000000000E+00  0.00000000000E+00  0.45593999997E+02  0.45594000000E+02  0.51100000000E-03 0.  1.
         11   -1    0    0    0    0 -0.00000000000E+00 -0.00000000000E+00 -0.45593999997E+02  0.45594000000E+02  0.51100000000E-03 0. -1.
    9900012    2    1    2    0    0 -0.71216369635E+01  0.34181351485E+02 -0.25778688053E+02  0.47787271203E+02  0.20000000723E+02 0.  0.
         12    1    1    2    0    0  0.71216369635E+01 -0.34181351485E+02  0.25778688053E+02  0.43400728797E+02  0.00000000000E+00 0. -1.
         11    1    3    3    0    0 -0.98368241795E+01  0.22857576516E+02 -0.20053054586E+02  0.31958675076E+02  0.51100000000E-03 0.  1.
        -11    1    3    3    0    0 -0.12178193891E+00  0.18595367464E+00 -0.42327626667E+01  0.42385952465E+01  0.51100000000E-03 0. -1.
        -12    1    3    3    0    0  0.28369691550E+01  0.11137821295E+02 -0.14928707995E+01  0.11590000880E+02  0.00000000000E+00 0.  1.
</event>
<event>
 7    1  0.4450624E-010  0.4778727E+02  0.7816164E-02  0.1312668E+00
        -11   -1    0    0    0    0  0.00000000000E+00  0.00000000000E+00  0.45593999997E+02  0.45594000000E+02  0.51100000000E-03 0.  1.
         11   -1    0    0    0    0 -0.00000000000E+00 -0.00000000000E+00 -0.45593999997E+02  0.45594000000E+02  0.51100000000E-03 0. -1.
    9900012    2    1    2    0    0  0.25954920138E+02  0.22677910416E+02  0.26375698903E+02  0.47787274282E+02  0.20000014763E+02 0.  0.
         12    1    1    2    0    0 -0.25954920138E+02 -0.22677910416E+02 -0.26375698903E+02  0.43400725718E+02  0.00000000000E+00 0. -1.
         11    1    3    3    0    0  0.99213158615E+01  0.75047639361E+01  0.92076849898E+01  0.15476932942E+02  0.51100000000E-03 0. -1.
        -11    1    3    3    0    0  0.11845917275E+02  0.78320390517E+00  0.45320864944E+01  0.12707437692E+02  0.51100000000E-03 0.  1.
         12    1    3    3    0    0  0.41876870017E+01  0.14389942575E+02  0.12635927419E+02  0.19602903649E+02  0.00000000000E+00 0. -1.
</event>
<event>
 7    1  0.4450624E-010  0.4778729E+02  0.7816164E-02  0.1312668E+00
        -11   -1    0    0    0    0  0.00000000000E+00  0.00000000000E+00  0.45593999997E+02  0.45594000000E+02  0.51100000000E-03 0. -1.
         11   -1    0    0    0    0 -0.00000000000E+00 -0.00000000000E+00 -0.45593999997E+02  0.45594000000E+02  0.51100000000E-03 0.  1.
    9900012    2    1    2    0    0 -0.87574202216E+01  0.13828914974E+01 -0.42485489809E+02  0.47787289843E+02  0.20000085709E+02 0.  0.
         12    1    1    2    0    0  0.87574202216E+01 -0.13828914974E+01  0.42485489809E+02  0.43400710157E+02  0.00000000000E+00 0. -1.
         11    1    3    3    0    0 -0.78660447443E+01  0.73075775188E+01 -0.98400329552E+01  0.14563708248E+02  0.51100000000E-03 0. -1.
        -11    1    3    3    0    0 -0.23814427897E+00 -0.17179241703E+01 -0.62146075316E+01  0.64520789816E+01  0.51100000000E-03 0.  1.
         12    1    3    3    0    0 -0.65323119828E+00 -0.42067618511E+01 -0.26430849322E+02  0.26771502613E+02  0.00000000000E+00 0. -1.
</event>
<event>
 7    1  0.4450624E-010  0.4778728E+02  0.7816164E-02  0.1312668E+00
        -11   -1    0    0    0    0  0.00000000000E+00  0.00000000000E+00  0.45593999997E+02  0.45594000000E+02  0.51100000000E-03 0. -1.
         11   -1    0    0    0    0 -0.00000000000E+00 -0.00000000000E+00 -0.45593999997E+02  0.45594000000E+02  0.51100000000E-03 0.  1.
    9900012    2    1    2    0    0  0.40230232609E+02  0.37342204471E+01 -0.15849508035E+02  0.47787275086E+02  0.20000018427E+02 0.  0.
         12    1    1    2    0    0 -0.40230232609E+02 -0.37342204471E+01  0.15849508035E+02  0.43400724914E+02  0.00000000000E+00 0. -1.
         11    1    3    3    0    0  0.18848257932E+02  0.20323852786E+01  0.45710566930E+00  0.18963026205E+02  0.51100000000E-03 0. -1.
        -11    1    3    3    0    0 -0.86828861120E+00 -0.10281130599E+01 -0.78375718873E+00  0.15573108772E+01  0.51100000000E-03 0.  1.
        -12    1    3    3    0    0  0.22250263288E+02  0.27299482283E+01 -0.15522856515E+02  0.27266938004E+02  0.00000000000E+00 0.  1.
</event>
<event>
 7    1  0.4450624E-010  0.4778728E+02  0.7816164E-02  0.1312668E+00
        -11   -1    0    0    0    0  0.00000000000E+00  0.00000000000E+00  0.45593999997E+02  0.45594000000E+02  0.51100000000E-03 0.  1.
         11   -1    0    0    0    0 -0.00000000000E+00 -0.00000000000E+00 -0.45593999997E+02  0.45594000000E+02  0.51100000000E-03 0. -1.
    9900012    2    1    2    0    0  0.15044205148E+02 -0.22723065582E+02  0.33778053586E+02  0.47787277401E+02  0.20000028984E+02 0.  0.
         12    1    1    2    0    0 -0.15044205148E+02  0.22723065582E+02 -0.33778053586E+02  0.43400722599E+02  0.00000000000E+00 0. -1.
         11    1    3    3    0    0  0.59224230670E+01 -0.57577835795E+01  0.80079385161E+01  0.11504531554E+02  0.51100000000E-03 0. -1.
        -11    1    3    3    0    0  0.10286175183E+02 -0.19405725970E+02  0.19179093662E+02  0.29158621954E+02  0.51100000000E-03 0.  1.
         12    1    3    3    0    0 -0.11643931012E+01  0.24404439669E+01  0.65910214085E+01  0.71241238940E+01  0.00000000000E+00 0. -1.
</event>
<event>
 7    1  0.4450624E-010  0.4778727E+02  0.7816164E-02  0.1312668E+00
        -11   -1    0    0    0    0  0.00000000000E+00  0.00000000000E+00  0.45593999997E+02  0.45594000000E+02  0.51100000000E-03 0.  1.
         11   -1    0    0    0    0 -0.00000000000E+00 -0.00000000000E+00 -0.45593999997E+02  0.45594000000E+02  0.51100000000E-03 0. -1.
    9900012    2    1    2    0    0  0.13398662200E+02  0.26346544755E+02  0.31779849476E+02  0.47787269568E+02  0.19999993268E+02 0.  0.
         12    1    1    2    0    0 -0.13398662200E+02 -0.26346544755E+02 -0.31779849476E+02  0.43400730432E+02  0.00000000000E+00 0. -1.
         11    1    3    3    0    0 -0.26479131687E+01  0.20287142399E+01  0.71554108235E+01  0.78947469833E+01  0.51100000000E-03 0. -1.
        -11    1    3    3    0    0  0.65064384784E+00  0.98994737229E+01  0.51219812858E+01  0.11165017240E+02  0.51100000000E-03 0.  1.
        -12    1    3    3    0    0  0.15395931521E+02  0.14418356793E+02  0.19502457367E+02  0.28727505345E+02  0.00000000000E+00 0.  1.
</event>
<event>
 7    1  0.4450624E-010  0.4778726E+02  0.7816164E-02  0.1312668E+00
        -11   -1    0    0    0    0  0.00000000000E+00  0.00000000000E+00  0.45593999997E+02  0.45594000000E+02  0.51100000000E-03 0.  1.
         11   -1    0    0    0    0 -0.00000000000E+00 -0.00000000000E+00 -0.45593999997E+02  0.45594000000E+02  0.51100000000E-03 0. -1.
    9900012    2    1    2    0    0 -0.27133964925E+00  0.40548557222E+02  0.15471429422E+02  0.47787259841E+02  0.19999948919E+02 0.  0.
         12    1    1    2    0    0  0.27133964925E+00 -0.40548557222E+02 -0.15471429422E+02  0.43400740159E+02  0.00000000000E+00 0. -1.
         11    1    3    3    0    0 -0.46305786806E+01  0.43214161023E+01  0.57528004157E+01  0.85563782601E+01  0.51100000000E-03 0. -1.
        -11    1    3    3    0    0 -0.28505333747E+01  0.13391293085E+02  0.61890777659E+01  0.15025210643E+02  0.51100000000E-03 0.  1.
        -12    1    3    3    0    0  0.72097724060E+01  0.22835848034E+02  0.35295512406E+01  0.24205670938E+02  0.00000000000E+00 0.  1.
</event>
<event>
 7    1  0.4450624E-010  0.4778727E+02  0.7816164E-02  0.1312668E+00
        -11   -1    0    0    0    0  0.00000000000E+00  0.00000000000E+00  0.45593999997E+02  0.45594000000E+02  0.51100000000E-03 0.  1.
         11   -1    0    0    0    0 -0.00000000000E+00 -0.00000000000E+00 -0.45593999997E+02  0.45594000000E+02  0.51100000000E-03 0. -1.
    9900012    2    1    2    0    0 -0.18774391326E+02  0.38627365655E+01  0.38938729194E+02  0.47787272648E+02  0.20000007311E+02 0.  0.
         12    1    1    2    0    0  0.18774391326E+02 -0.38627365655E+01 -0.38938729194E+02  0.43400727352E+02  0.00000000000E+00 0. -1.
         11    1    3    3    0    0  0.96716667495E+00  0.26035048520E+01  0.13827137912E+02  0.14103311384E+02  0.51100000000E-03 0. -1.
        -11    1    3    3    0    0 -0.91480103187E+01  0.57169467665E+01  0.14229433750E+02  0.17856269438E+02  0.51100000000E-03 0.  1.
        -12    1    3    3    0    0 -0.10593547682E+02 -0.44577150530E+01  0.10882157532E+02  0.15827691826E+02  0.00000000000E+00 0.  1.
</event>
<event>
 7    1  0.4450624E-010  0.4778727E+02  0.7816164E-02  0.1312668E+00
        -11   -1    0    0    0    0  0.00000000000E+00  0.00000000000E+00  0.45593999997E+02  0.45594000000E+02  0.51100000000E-03 0.  1.
         11   -1    0    0    0    0 -0.00000000000E+00 -0.00000000000E+00 -0.45593999997E+02  0.45594000000E+02  0.51100000000E-03 0. -1.
    9900012    2    1    2    0    0 -0.39073143880E+00 -0.98161553155E+01  0.42274268005E+02  0.47787270610E+02  0.19999998019E+02 0.  0.
         12    1    1    2    0    0  0.39073143880E+00  0.98161553155E+01 -0.42274268005E+02  0.43400729390E+02  0.00000000000E+00 0. -1.
         11    1    3    3    0    0  0.26454060201E+01 -0.39072724684E+01  0.63467113491E+01  0.79085837141E+01  0.51100000000E-03 0. -1.
        -11    1    3    3    0    0  0.63898066325E+01 -0.28758032325E+01  0.10838477129E+02  0.12906295354E+02  0.51100000000E-03 0.  1.
         12    1    3    3    0    0 -0.94259440913E+01 -0.30330796146E+01  0.25089079527E+02  0.26972391542E+02  0.00000000000E+00 0. -1.
</event>
<event>
 7    1  0.4450624E-010  0.4778729E+02  0.7816164E-02  0.1312668E+00
        -11   -1    0    0    0    0  0.00000000000E+00  0.00000000000E+00  0.45593999997E+02  0.45594000000E+02  0.51100000000E-03 0.  1.
         11   -1    0    0    0    0 -0.00000000000E+00 -0.00000000000E+00 -0.45593999997E+02  0.45594000000E+02  0.51100000000E-03 0. -1.
    9900012    2    1    2    0    0  0.51401191603E+01  0.14174979042E+02  0.40697307934E+02  0.47787288844E+02  0.20000081154E+02 0.  0.
         12    1    1    2    0    0 -0.51401191603E+01 -0.14174979042E+02 -0.40697307934E+02  0.43400711156E+02  0.00000000000E+00 0. -1.
         11    1    3    3    0    0 -0.67658645875E+01  0.43698399468E+01  0.72556348037E+01  0.10840510202E+02  0.51100000000E-03 0. -1.
        -11    1    3    3    0    0  0.75444584944E+00  0.18281081823E+01  0.36464410540E+01  0.41482165671E+01  0.51100000000E-03 0.  1.
         12    1    3    3    0    0  0.11151537898E+02  0.79770309126E+01  0.29795232076E+02  0.32798562074E+02  0.00000000000E+00 0. -1.
</event>
<event>
 7    1  0.4450624E-010  0.4778727E+02  0.7816164E-02  0.1312668E+00
        -11   -1    0    0    0    0  0.00000000000E+00  0.00000000000E+00  0.45593999997E+02  0.45594000000E+02  0.51100000000E-03 0.  1.
         11   -1    0    0    0    0 -0.00000000000E+00 -0.00000000000E+00 -0.45593999997E+02  0.45594000000E+02  0.51100000000E-03 0. -1.
    9900012    2    1    2    0    0 -0.21878942254E+02  0.10964582639E+02  0.35842896264E+02  0.47787269601E+02  0.19999993419E+02 0.  0.
         12    1    1    2    0    0  0.21878942254E+02 -0.10964582639E+02 -0.35842896264E+02  0.43400730399E+02  0.00000000000E+00 0. -1.
         11    1    3    3    0    0 -0.72067476923E+01  0.83832734121E+01  0.84131383569E+01  0.13892349790E+02  0.51100000000E-03 0. -1.
        -11    1    3    3    0    0 -0.61637963498E+01  0.73516601154E+01  0.17610488646E+02  0.20054141779E+02  0.51100000000E-03 0.  1.
        -12    1    3    3    0    0 -0.85083982117E+01 -0.47703508883E+01  0.98192692610E+01  0.13840778033E+02  0.00000000000E+00 0.  1.
</event>
<event>
 7    1  0.4450624E-010  0.4778727E+02  0.7816164E-02  0.1312668E+00
        -11   -1    0    0    0    0  0.00000000000E+00  0.00000000000E+00  0.45593999997E+02  0.45594000000E+02  0.51100000000E-03 0.  1.
         11   -1    0    0    0    0 -0.00000000000E+00 -0.00000000000E+00 -0.45593999997E+02  0.45594000000E+02  0.51100000000E-03 0. -1.
    9900012    2    1    2    0    0 -0.20839375520E+02 -0.29447352539E+01  0.37956190892E+02  0.47787268845E+02  0.19999989972E+02 0.  0.
         12    1    1    2    0    0  0.20839375520E+02  0.29447352539E+01 -0.37956190892E+02  0.43400731155E+02  0.00000000000E+00 0. -1.
         11    1    3    3    0    0  0.10850384091E+01 -0.73602483092E+00 -0.68894480635E+00  0.14811097557E+01  0.51100000000E-03 0. -1.
        -11    1    3    3    0    0  0.21261092714E+00 -0.32716063137E+01  0.39061314680E+01  0.50996543593E+01  0.51100000000E-03 0.  1.
        -12    1    3    3    0    0 -0.22137024856E+02  0.10628958908E+01  0.34739004230E+02  0.41206504730E+02  0.00000000000E+00 0.  1.
</event>
<event>
 7    1  0.4450624E-010  0.4778727E+02  0.7816164E-02  0.1312668E+00
        -11   -1    0    0    0    0  0.00000000000E+00  0.00000000000E+00  0.45593999997E+02  0.45594000000E+02  0.51100000000E-03 0. -1.
         11   -1    0    0    0    0 -0.00000000000E+00 -0.00000000000E+00 -0.45593999997E+02  0.45594000000E+02  0.51100000000E-03 0.  1.
    9900012    2    1    2    0    0 -0.24726986863E+02  0.15728668700E+02 -0.32012624445E+02  0.47787273943E+02  0.20000013217E+02 0.  0.
         12    1    1    2    0    0  0.24726986863E+02 -0.15728668700E+02  0.32012624445E+02  0.43400726057E+02  0.00000000000E+00 0. -1.
         11    1    3    3    0    0 -0.90345568495E+01 -0.25263633575E+01 -0.13774017697E+02  0.16665212061E+02  0.51100000000E-03 0. -1.
        -11    1    3    3    0    0  0.57707061289E+00 -0.15631885240E+00 -0.16336560513E+00  0.61978597753E+00  0.51100000000E-03 0.  1.
        -12    1    3    3    0    0 -0.16269500626E+02  0.18411350910E+02 -0.18075241144E+02  0.30502275904E+02  0.00000000000E+00 0.  1.
</event>
<event>
 7    1  0.4450624E-010  0.4778728E+02  0.7816164E-02  0.1312668E+00
        -11   -1    0    0    0    0  0.00000000000E+00  0.00000000000E+00  0.45593999997E+02  0.45594000000E+02  0.51100000000E-03 0.  1.
         11   -1    0    0    0    0 -0.00000000000E+00 -0.00000000000E+00 -0.45593999997E+02  0.45594000000E+02  0.51100000000E-03 0. -1.
    9900012    2    1    2    0    0  0.31606989834E+02 -0.21588535398E+01  0.29664123603E+02  0.47787277839E+02  0.20000030980E+02 0.  0.
         12    1    1    2    0    0 -0.31606989834E+02  0.21588535398E+01 -0.29664123603E+02  0.43400722161E+02  0.00000000000E+00 0. -1.
         11    1    3    3    0    0  0.73697007168E+01 -0.51411449516E+01  0.12902305054E+01  0.90779157898E+01  0.51100000000E-03 0. -1.
        -11    1    3    3    0    0  0.10965591131E+02 -0.27168722246E+01  0.84829213318E+01  0.14127474584E+02  0.51100000000E-03 0.  1.
        -12    1    3    3    0    0  0.13271697985E+02  0.56991636365E+01  0.19890971766E+02  0.24581887465E+02  0.00000000000E+00 0.  1.
</event>
<event>
 7    1  0.4450624E-010  0.4778727E+02  0.7816164E-02  0.1312668E+00
        -11   -1    0    0    0    0  0.00000000000E+00  0.00000000000E+00  0.45593999997E+02  0.45594000000E+02  0.51100000000E-03 0.  1.
         11   -1    0    0    0    0 -0.00000000000E+00 -0.00000000000E+00 -0.45593999997E+02  0.45594000000E+02  0.51100000000E-03 0. -1.
    9900012    2    1    2    0    0  0.33603388388E+01 -0.19365657120E+02  0.38694993809E+02  0.47787273063E+02  0.20000009203E+02 0.  0.
         12    1    1    2    0    0 -0.33603388388E+01  0.19365657120E+02 -0.38694993809E+02  0.43400726937E+02  0.00000000000E+00 0. -1.
         11    1    3    3    0    0 -0.22516320283E+01 -0.86155061761E+00  0.11430290995E+02  0.11681766508E+02  0.51100000000E-03 0. -1.
        -11    1    3    3    0    0 -0.42701038143E+01 -0.89407626201E+01  0.10914785708E+02  0.14741220103E+02  0.51100000000E-03 0.  1.
        -12    1    3    3    0    0  0.98820746814E+01 -0.95633438824E+01  0.16349917106E+02  0.21364286452E+02  0.00000000000E+00 0.  1.
</event>
<event>
 7    1  0.4450624E-010  0.4778727E+02  0.7816164E-02  0.1312668E+00
        -11   -1    0    0    0    0  0.00000000000E+00  0.00000000000E+00  0.45593999997E+02  0.45594000000E+02  0.51100000000E-03 0. -1.
         11   -1    0    0    0    0 -0.00000000000E+00 -0.00000000000E+00 -0.45593999997E+02  0.45594000000E+02  0.51100000000E-03 0.  1.
    9900012    2    1    2    0    0 -0.11733159892E+02  0.40552227873E+02 -0.10073381810E+02  0.47787271347E+02  0.20000001379E+02 0.  0.
         12    1    1    2    0    0  0.11733159892E+02 -0.40552227873E+02  0.10073381810E+02  0.43400728653E+02  0.00000000000E+00 0. -1.
         11    1    3    3    0    0  0.23202359520E+01  0.17679328107E+02 -0.20288022156E+00  0.17832086188E+02  0.51100000000E-03 0. -1.
        -11    1    3    3    0    0 -0.18495411458E+01  0.68306957585E-01  0.74720667403E+00  0.19959424754E+01  0.51100000000E-03 0.  1.
        -12    1    3    3    0    0 -0.12203854699E+02  0.22804592808E+02 -0.10617708263E+02  0.27959242683E+02  0.00000000000E+00 0.  1.
</event>
<event>
 7    1  0.4450624E-010  0.4778728E+02  0.7816164E-02  0.1312668E+00
        -11   -1    0    0    0    0  0.00000000000E+00  0.00000000000E+00  0.45593999997E+02  0.45594000000E+02  0.51100000000E-03 0.  1.
         11   -1    0    0    0    0 -0.00000000000E+00 -0.00000000000E+00 -0.45593999997E+02  0.45594000000E+02  0.51100000000E-03 0. -1.
    9900012    2    1    2    0    0  0.29007696278E+02 -0.44182727829E+00  0.32279727506E+02  0.47787280391E+02  0.20000042616E+02 0.  0.
         12    1    1    2    0    0 -0.29007696278E+02  0.44182727829E+00 -0.32279727506E+02  0.43400719609E+02  0.00000000000E+00 0. -1.
         11    1    3    3    0    0  0.83387310703E+01 -0.11422947926E+01  0.88804842953E+01  0.12235288098E+02  0.51100000000E-03 0. -1.
        -11    1    3    3    0    0  0.21939816815E+02  0.19280818509E+01  0.24893503257E+02  0.33237923614E+02  0.51100000000E-03 0.  1.
         12    1    3    3    0    0 -0.12708516069E+01 -0.12276143366E+01 -0.14942600466E+01  0.23140686795E+01  0.00000000000E+00 0. -1.
</event>
<event>
 7    1  0.4450624E-010  0.4778727E+02  0.7816164E-02  0.1312668E+00
        -11   -1    0    0    0    0  0.00000000000E+00  0.00000000000E+00  0.45593999997E+02  0.45594000000E+02  0.51100000000E-03 0.  1.
         11   -1    0    0    0    0 -0.00000000000E+00 -0.00000000000E+00 -0.45593999997E+02  0.45594000000E+02  0.51100000000E-03 0. -1.
    9900012    2    1    2    0    0  0.20495073456E+02  0.29859362780E+02  0.23916394849E+02  0.47787268161E+02  0.19999986852E+02 0.  0.
         12    1    1    2    0    0 -0.20495073456E+02 -0.29859362780E+02 -0.23916394849E+02  0.43400731839E+02  0.00000000000E+00 0. -1.
         11    1    3    3    0    0  0.31457870648E+01  0.89396076820E+01  0.55968293732E+01  0.11006228285E+02  0.51100000000E-03 0. -1.
        -11    1    3    3    0    0 -0.40194418375E+00 -0.12399148333E+01  0.54569806405E+01  0.56104889174E+01  0.51100000000E-03 0.  1.
         12    1    3    3    0    0  0.17751230575E+02  0.22159669932E+02  0.12862584835E+02  0.31170550958E+02  0.00000000000E+00 0. -1.
</event>
<event>
 7    1  0.4450624E-010  0.4778727E+02  0.7816164E-02  0.1312668E+00
        -11   -1    0    0    0    0  0.00000000000E+00  0.00000000000E+00  0.45593999997E+02  0.45594000000E+02  0.51100000000E-03 0. -1.
         11   -1    0    0    0    0 -0.00000000000E+00 -0.00000000000E+00 -0.45593999997E+02  0.45594000000E+02  0.51100000000E-03 0.  1.
    9900012    2    1    2    0    0 -0.36153990964E+02 -0.16180332482E+02  0.17740046029E+02  0.47787268958E+02  0.19999990487E+02 0.  0.
         12    1    1    2    0    0  0.36153990964E+02  0.16180332482E+02 -0.17740046029E+02  0.43400731042E+02  0.00000000000E+00 0. -1.
         11    1    3    3    0    0 -0.11909739793E+02 -0.97090386374E+01  0.70769628500E+01  0.16917172832E+02  0.51100000000E-03 0. -1.
        -11    1    3    3    0    0 -0.21494600121E+02 -0.18220178825E+00  0.52465152440E+01  0.22126385930E+02  0.51100000000E-03 0.  1.
        -12    1    3    3    0    0 -0.27496510504E+01 -0.62890920568E+01  0.54165679348E+01  0.87437101959E+01  0.00000000000E+00 0.  1.
</event>
<event>
 7    1  0.4450624E-010  0.4778726E+02  0.7816164E-02  0.1312668E+00
        -11   -1    0    0    0    0  0.00000000000E+00  0.00000000000E+00  0.45593999997E+02  0.45594000000E+02  0.51100000000E-03 0.  1.
         11   -1    0    0    0    0 -0.00000000000E+00 -0.00000000000E+00 -0.45593999997E+02  0.45594000000E+02  0.51100000000E-03 0. -1.
    9900012    2    1    2    0    0 -0.23135533214E+02 -0.79036819320E+01  0.35859493209E+02  0.47787258781E+02  0.19999944085E+02 0.  0.
         12    1    1    2    0    0  0.23135533214E+02  0.79036819320E+01 -0.35859493209E+02  0.43400741219E+02  0.00000000000E+00 0. -1.
         11    1    3    3    0    0 -0.84440869664E+01  0.46516352656E+01  0.66275029079E+01  0.11698893554E+02  0.51100000000E-03 0. -1.
        -11    1    3    3    0    0 -0.54104312300E+01 -0.72823057299E+00  0.41965602791E+01  0.68857972885E+01  0.51100000000E-03 0.  1.
        -12    1    3    3    0    0 -0.92810150174E+01 -0.11827086625E+02  0.25035430022E+02  0.29202567938E+02  0.00000000000E+00 0.  1.
</event>
<event>
 7    1  0.4450624E-010  0.4778727E+02  0.7816164E-02  0.1312668E+00
        -11   -1    0    0    0    0  0.00000000000E+00  0.00000000000E+00  0.45593999997E+02  0.45594000000E+02  0.51100000000E-03 0. -1.
         11   -1    0    0    0    0 -0.00000000000E+00 -0.00000000000E+00 -0.45593999997E+02  0.45594000000E+02  0.51100000000E-03 0.  1.
    9900012    2    1    2    0    0 -0.37982837601E+02 -0.87781561844E+01 -0.19075401922E+02  0.47787274928E+02  0.20000017708E+02 0.  0.
         12    1    1    2    0    0  0.37982837601E+02  0.87781561844E+01  0.19075401922E+02  0.43400725072E+02  0.00000000000E+00 0. -1.
         11    1    3    3    0    0 -0.14024752315E+02 -0.11763457017E+02 -0.12359061760E+02  0.22086625055E+02  0.51100000000E-03 0. -1.
        -11    1    3    3    0    0 -0.50711555766E+00 -0.34382649455E+00  0.65222929298E+00  0.89486655928E+00  0.51100000000E-03 0.  1.
        -12    1    3    3    0    0 -0.23450969729E+02  0.33291273271E+01 -0.73685694554E+01  0.24805783314E+02  0.00000000000E+00 0.  1.
</event>
<event>
 7    1  0.4450624E-010  0.4778727E+02  0.7816164E-02  0.1312668E+00
        -11   -1    0    0    0    0  0.00000000000E+00  0.00000000000E+00  0.45593999997E+02  0.45594000000E+02  0.51100000000E-03 0. -1.
         11   -1    0    0    0    0 -0.00000000000E+00 -0.00000000000E+00 -0.45593999997E+02  0.45594000000E+02  0.51100000000E-03 0.  1.
    9900012    2    1    2    0    0  0.14309076030E+01  0.73057897924E+01 -0.42757469430E+02  0.47787271284E+02  0.20000001092E+02 0.  0.
         12    1    1    2    0    0 -0.14309076030E+01 -0.73057897924E+01  0.42757469430E+02  0.43400728716E+02  0.00000000000E+00 0. -1.
         11    1    3    3    0    0 -0.13519485417E+01 -0.52084670131E+01 -0.36747295349E+01  0.65160978278E+01  0.51100000000E-03 0. -1.
        -11    1    3    3    0    0  0.33706749860E+01  0.78479945376E+01 -0.24206609678E+02  0.25669289443E+02  0.51100000000E-03 0.  1.
        -12    1    3    3    0    0 -0.58781884128E+00  0.46662622679E+01 -0.14876130217E+02  0.15601884013E+02  0.00000000000E+00 0.  1.
</event>
<event>
 7    1  0.4450624E-010  0.4778728E+02  0.7816164E-02  0.1312668E+00
        -11   -1    0    0    0    0  0.00000000000E+00  0.00000000000E+00  0.45593999997E+02  0.45594000000E+02  0.51100000000E-03 0.  1.
         11   -1    0    0    0    0 -0.00000000000E+00 -0.00000000000E+00 -0.45593999997E+02  0.45594000000E+02  0.51100000000E-03 0. -1.
    9900012    2    1    2    0    0  0.33659030636E+02  0.60205499479E+01  0.26729111806E+02  0.47787276700E+02  0.20000025786E+02 0.  0.
         12    1    1    2    0    0 -0.33659030636E+02 -0.60205499479E+01 -0.26729111806E+02  0.43400723300E+02  0.00000000000E+00 0. -1.
         11    1    3    3    0    0  0.58567979150E+01  0.17493995724E+01  0.59421352162E+01  0.85247552380E+01  0.51100000000E-03 0. -1.
        -11    1    3    3    0    0  0.19904688836E+02  0.73927771782E+00  0.22906439630E+02  0.30355364369E+02  0.51100000000E-03 0.  1.
         12    1    3    3    0    0  0.78975438851E+01  0.35318726578E+01 -0.21194630406E+01  0.89071570924E+01  0.00000000000E+00 0. -1.
</event>
<event>
 7    1  0.4450624E-010  0.4778727E+02  0.7816164E-02  0.1312668E+00
        -11   -1    0    0    0    0  0.00000000000E+00  0.00000000000E+00  0.45593999997E+02  0.45594000000E+02  0.51100000000E-03 0.  1.
         11   -1    0    0    0    0 -0.00000000000E+00 -0.00000000000E+00 -0.45593999997E+02  0.45594000000E+02  0.51100000000E-03 0. -1.
    9900012    2    1    2    0    0  0.17754185861E+02  0.19629540604E+02  0.34396123928E+02  0.47787270500E+02  0.19999997517E+02 0.  0.
         12    1    1    2    0    0 -0.17754185861E+02 -0.19629540604E+02 -0.34396123928E+02  0.43400729500E+02  0.00000000000E+00 0. -1.
         11    1    3    3    0    0 -0.14441139333E+01  0.36869683064E+01  0.17854407376E+01  0.43436159169E+01  0.51100000000E-03 0. -1.
        -11    1    3    3    0    0  0.93839115668E+01  0.16225581891E+02  0.19304002884E+02  0.26906724654E+02  0.51100000000E-03 0.  1.
        -12    1    3    3    0    0  0.98143882277E+01 -0.28300959366E+00  0.13306680306E+02  0.16536929929E+02  0.00000000000E+00 0.  1.
</event>
<event>
 7    1  0.4450624E-010  0.4778726E+02  0.7816164E-02  0.1312668E+00
        -11   -1    0    0    0    0  0.00000000000E+00  0.00000000000E+00  0.45593999997E+02  0.45594000000E+02  0.51100000000E-03 0.  1.
         11   -1    0    0    0    0 -0.00000000000E+00 -0.00000000000E+00 -0.45593999997E+02  0.45594000000E+02  0.51100000000E-03 0. -1.
    9900012    2    1    2    0    0 -0.40309237367E+02  0.69789219728E+01  0.14494274797E+02  0.47787263015E+02  0.19999963389E+02 0.  0.
         12    1    1    2    0    0  0.40309237367E+02 -0.69789219728E+01 -0.14494274797E+02  0.43400736985E+02  0.00000000000E+00 0. -1.
         11    1    3    3    0    0 -0.15244243344E+01 -0.11107618820E+01 -0.24899940926E+01  0.31237369211E+01  0.51100000000E-03 0. -1.
        -11    1    3    3    0    0 -0.89382623616E+01 -0.26208790076E+01  0.17251589066E+01  0.94729992258E+01  0.51100000000E-03 0.  1.
         12    1    3    3    0    0 -0.29846550671E+02  0.10710562862E+02  0.15259109983E+02  0.35190526868E+02  0.00000000000E+00 0. -1.
</event>
<event>
 7    1  0.4450624E-010  0.4778727E+02  0.7816164E-02  0.1312668E+00
        -11   -1    0    0    0    0  0.00000000000E+00  0.00000000000E+00  0.45593999997E+02  0.45594000000E+02  0.51100000000E-03 0. -1.
         11   -1    0    0    0    0 -0.00000000000E+00 -0.00000000000E+00 -0.45593999997E+02  0.45594000000E+02  0.51100000000E-03 0.  1.
    9900012    2    1    2    0    0 -0.34745460601E+02  0.12510178131E+02 -0.22800699847E+02  0.47787268408E+02  0.19999987978E+02 0.  0.
         12    1    1    2    0    0  0.34745460601E+02 -0.12510178131E+02  0.22800699847E+02  0.43400731592E+02  0.00000000000E+00 0. -1.
         11    1    3    3    0    0 -0.15521650599E+02  0.12760154324E+02 -0.69951130681E+01  0.21276155263E+02  0.51100000000E-03 0. -1.
        -11    1    3    3    0    0  0.10244582446E+00 -0.15521335419E+01 -0.73598409103E-01  0.15572509964E+01  0.51100000000E-03 0.  1.
        -12    1    3    3    0    0 -0.19326255826E+02  0.13021573488E+01 -0.15731988370E+02  0.24953862148E+02  0.00000000000E+00 0.  1.
</event>
<event>
 7    1  0.4450624E-010  0.4778727E+02  0.7816164E-02  0.1312668E+00
        -11   -1    0    0    0    0  0.00000000000E+00  0.00000000000E+00  0.45593999997E+02  0.45594000000E+02  0.51100000000E-03 0. -1.
         11   -1    0    0    0    0 -0.00000000000E+00 -0.00000000000E+00 -0.45593999997E+02  0.45594000000E+02  0.51100000000E-03 0.  1.
    9900012    2    1    2    0    0  0.32827439694E+02 -0.17316908224E+02 -0.22496827659E+02  0.47787270029E+02  0.19999995369E+02 0.  0.
         12    1    1    2    0    0 -0.32827439694E+02  0.17316908224E+02  0.22496827659E+02  0.43400729971E+02  0.00000000000E+00 0. -1.
         11    1    3    3    0    0  0.78671402494E+01 -0.27142313379E+01 -0.95354928829E+01  0.12656404396E+02  0.51100000000E-03 0. -1.
        -11    1    3    3    0    0  0.70847635272E+01  0.12859436855E+01 -0.78922376131E+01  0.10683395537E+02  0.51100000000E-03 0.  1.
        -12    1    3    3    0    0  0.17875535917E+02 -0.15888620572E+02 -0.50690971631E+01  0.24447470095E+02  0.00000000000E+00 0.  1.
</event>
<event>
 7    1  0.4450624E-010  0.4778727E+02  0.7816164E-02  0.1312668E+00
        -11   -1    0    0    0    0  0.00000000000E+00  0.00000000000E+00  0.45593999997E+02  0.45594000000E+02  0.51100000000E-03 0. -1.
         11   -1    0    0    0    0 -0.00000000000E+00 -0.00000000000E+00 -0.45593999997E+02  0.45594000000E+02  0.51100000000E-03 0.  1.
    9900012    2    1    2    0    0 -0.65661013148E+01 -0.42569431058E+02  0.53247728075E+01  0.47787270138E+02  0.19999995866E+02 0.  0.
         12    1    1    2    0    0  0.65661013148E+01  0.42569431058E+02 -0.53247728075E+01  0.43400729862E+02  0.00000000000E+00 0. -1.
         11    1    3    3    0    0 -0.31391545832E+01 -0.74105855921E+01  0.40376865330E+01  0.90041092349E+01  0.51100000000E-03 0. -1.
        -11    1    3    3    0    0  0.59480956875E+01 -0.86472322620E+01 -0.11453006894E+01  0.10557754592E+02  0.51100000000E-03 0.  1.
        -12    1    3    3    0    0 -0.93750424191E+01 -0.26511613204E+02  0.24323869640E+01  0.28225406311E+02  0.00000000000E+00 0.  1.
</event>
<event>
 7    1  0.4450624E-010  0.4778727E+02  0.7816164E-02  0.1312668E+00
        -11   -1    0    0    0    0  0.00000000000E+00  0.00000000000E+00  0.45593999997E+02  0.45594000000E+02  0.51100000000E-03 0.  1.
         11   -1    0    0    0    0 -0.00000000000E+00 -0.00000000000E+00 -0.45593999997E+02  0.45594000000E+02  0.51100000000E-03 0. -1.
    9900012    2    1    2    0    0  0.38734393846E+02  0.32759508562E+00  0.19574549615E+02  0.47787267544E+02  0.19999984039E+02 0.  0.
         12    1    1    2    0    0 -0.38734393846E+02 -0.32759508562E+00 -0.19574549615E+02  0.43400732456E+02  0.00000000000E+00 0. -1.
         11    1    3    3    0    0  0.13528200925E+02  0.54741033983E+01  0.20343904842E+01  0.14734882870E+02  0.51100000000E-03 0. -1.
        -11    1    3    3    0    0  0.93658786561E+01  0.34245571765E+01  0.55060479793E+01  0.11391393219E+02  0.51100000000E-03 0.  1.
        -12    1    3    3    0    0  0.15840314264E+02 -0.85710654892E+01  0.12034111151E+02  0.21660991455E+02  0.00000000000E+00 0.  1.
</event>
<event>
 7    1  0.4450624E-010  0.4778727E+02  0.7816164E-02  0.1312668E+00
        -11   -1    0    0    0    0  0.00000000000E+00  0.00000000000E+00  0.45593999997E+02  0.45594000000E+02  0.51100000000E-03 0.  1.
         11   -1    0    0    0    0 -0.00000000000E+00 -0.00000000000E+00 -0.45593999997E+02  0.45594000000E+02  0.51100000000E-03 0. -1.
    9900012    2    1    2    0    0 -0.54848397688E+01  0.10751576929E+02  0.41688645377E+02  0.47787273887E+02  0.20000012961E+02 0.  0.
         12    1    1    2    0    0  0.54848397688E+01 -0.10751576929E+02 -0.41688645377E+02  0.43400726113E+02  0.00000000000E+00 0. -1.
         11    1    3    3    0    0 -0.69011321148E+01  0.41607194957E+01  0.38947903595E+01  0.89502292369E+01  0.51100000000E-03 0. -1.
        -11    1    3    3    0    0  0.37954480752E+00  0.49113422236E+01  0.12054788269E+02  0.13022413646E+02  0.51100000000E-03 0.  1.
         12    1    3    3    0    0  0.10367475385E+01  0.16795152096E+01  0.25739066749E+02  0.25814631004E+02  0.00000000000E+00 0. -1.
</event>
<event>
 7    1  0.4450624E-010  0.4778727E+02  0.7816164E-02  0.1312668E+00
        -11   -1    0    0    0    0  0.00000000000E+00  0.00000000000E+00  0.45593999997E+02  0.45594000000E+02  0.51100000000E-03 0. -1.
         11   -1    0    0    0    0 -0.00000000000E+00 -0.00000000000E+00 -0.45593999997E+02  0.45594000000E+02  0.51100000000E-03 0.  1.
    9900012    2    1    2    0    0 -0.24159554800E+02 -0.36038240693E+02  0.10883748671E+01  0.47787269128E+02  0.19999991262E+02 0.  0.
         12    1    1    2    0    0  0.24159554800E+02  0.36038240693E+02 -0.10883748671E+01  0.43400730872E+02  0.00000000000E+00 0. -1.
         11    1    3    3    0    0  0.44737893230E+00 -0.42684471633E+01 -0.35139033232E+01  0.55468284561E+01  0.51100000000E-03 0. -1.
        -11    1    3    3    0    0 -0.12845542791E+02 -0.11030656050E+02 -0.30422148539E+01  0.17202860633E+02  0.51100000000E-03 0.  1.
         12    1    3    3    0    0 -0.11761390941E+02 -0.20739137480E+02  0.76444930442E+01  0.25037580038E+02  0.00000000000E+00 0. -1.
</event>
<event>
 7    1  0.4450624E-010  0.4778726E+02  0.7816164E-02  0.1312668E+00
        -11   -1    0    0    0    0  0.00000000000E+00  0.00000000000E+00  0.45593999997E+02  0.45594000000E+02  0.51100000000E-03 0.  1.
         11   -1    0    0    0    0 -0.00000000000E+00 -0.00000000000E+00 -0.45593999997E+02  0.45594000000E+02  0.51100000000E-03 0. -1.
    9900012    2    1    2    0    0  0.29963676323E+01  0.31317835894E+02  0.29897136151E+02  0.47787264821E+02  0.19999971623E+02 0.  0.
         12    1    1    2    0    0 -0.29963676323E+01 -0.31317835894E+02 -0.29897136151E+02  0.43400735179E+02  0.00000000000E+00 0. -1.
         11    1    3    3    0    0 -0.24011939708E+00  0.41829180824E+01  0.39688492391E+01  0.57711546117E+01  0.51100000000E-03 0. -1.
        -11    1    3    3    0    0  0.82330711158E+01  0.26213728494E+02  0.18921769618E+02  0.33361300744E+02  0.51100000000E-03 0.  1.
         12    1    3    3    0    0 -0.49965840864E+01  0.92118931754E+00  0.70065172937E+01  0.86548094651E+01  0.00000000000E+00 0. -1.
</event>
<event>
 7    1  0.4450624E-010  0.4778727E+02  0.7816164E-02  0.1312668E+00
        -11   -1    0    0    0    0  0.00000000000E+00  0.00000000000E+00  0.45593999997E+02  0.45594000000E+02  0.51100000000E-03 0.  1.
         11   -1    0    0    0    0 -0.00000000000E+00 -0.00000000000E+00 -0.45593999997E+02  0.45594000000E+02  0.51100000000E-03 0. -1.
    9900012    2    1    2    0    0  0.15851800427E+01 -0.75090760426E+01  0.42716791860E+02  0.47787270449E+02  0.19999997284E+02 0.  0.
         12    1    1    2    0    0 -0.15851800427E+01  0.75090760426E+01 -0.42716791860E+02  0.43400729551E+02  0.00000000000E+00 0. -1.
         11    1    3    3    0    0  0.20840450173E+01 -0.65391362149E+01  0.65031140735E+01  0.94548420920E+01  0.51100000000E-03 0. -1.
        -11    1    3    3    0    0 -0.37112323571E+01 -0.26191047915E+01  0.44321041771E+01  0.63463771724E+01  0.51100000000E-03 0.  1.
         12    1    3    3    0    0  0.32123673825E+01  0.16491649638E+01  0.31781573609E+02  0.31986051184E+02  0.00000000000E+00 0. -1.
</event>
<event>
 7    1  0.4450624E-010  0.4778728E+02  0.7816164E-02  0.1312668E+00
        -11   -1    0    0    0    0  0.00000000000E+00  0.00000000000E+00  0.45593999997E+02  0.45594000000E+02  0.51100000000E-03 0.  1.
         11   -1    0    0    0    0 -0.00000000000E+00 -0.00000000000E+00 -0.45593999997E+02  0.45594000000E+02  0.51100000000E-03 0. -1.
    9900012    2    1    2    0    0  0.28624806655E+02 -0.24781604674E+02  0.21215921441E+02  0.47787276401E+02  0.20000024424E+02 0.  0.
         12    1    1    2    0    0 -0.28624806655E+02  0.24781604674E+02 -0.21215921441E+02  0.43400723599E+02  0.00000000000E+00 0. -1.
         11    1    3    3    0    0  0.16367554540E+02 -0.44577540458E+01  0.12963534855E+02  0.21349980069E+02  0.51100000000E-03 0. -1.
        -11    1    3    3    0    0  0.96768022723E+00 -0.41490198703E+01  0.47901625577E+01  0.64106496158E+01  0.51100000000E-03 0.  1.
        -12    1    3    3    0    0  0.11289571888E+02 -0.16174830758E+02  0.34622240282E+01  0.20026646716E+02  0.00000000000E+00 0.  1.
</event>
<event>
 7    1  0.4450624E-010  0.4778727E+02  0.7816164E-02  0.1312668E+00
        -11   -1    0    0    0    0  0.00000000000E+00  0.00000000000E+00  0.45593999997E+02  0.45594000000E+02  0.51100000000E-03 0. -1.
         11   -1    0    0    0    0 -0.00000000000E+00 -0.00000000000E+00 -0.45593999997E+02  0.45594000000E+02  0.51100000000E-03 0.  1.
    9900012    2    1    2    0    0 -0.11067318519E+02 -0.35764787438E+02 -0.21954894960E+02  0.47787274518E+02  0.20000015836E+02 0.  0.
         12    1    1    2    0    0  0.11067318519E+02  0.35764787438E+02  0.21954894960E+02  0.43400725482E+02  0.00000000000E+00 0. -1.
         11    1    3    3    0    0 -0.57703891179E+01 -0.59062962687E+01 -0.14913712985E+01  0.83908232491E+01  0.51100000000E-03 0. -1.
        -11    1    3    3    0    0 -0.82946527225E+01 -0.11363146124E+02 -0.44687345230E+01  0.14761163305E+02  0.51100000000E-03 0.  1.
        -12    1    3    3    0    0  0.29977233218E+01 -0.18495345045E+02 -0.15994789138E+02  0.24635287963E+02  0.00000000000E+00 0.  1.
</event>
<event>
 7    1  0.4450624E-010  0.4778727E+02  0.7816164E-02  0.1312668E+00
        -11   -1    0    0    0    0  0.00000000000E+00  0.00000000000E+00  0.45593999997E+02  0.45594000000E+02  0.51100000000E-03 0.  1.
         11   -1    0    0    0    0 -0.00000000000E+00 -0.00000000000E+00 -0.45593999997E+02  0.45594000000E+02  0.51100000000E-03 0. -1.
    9900012    2    1    2    0    0 -0.32743776311E+01 -0.43154322868E+02  0.32567033071E+01  0.47787271348E+02  0.20000001385E+02 0.  0.
         12    1    1    2    0    0  0.32743776311E+01  0.43154322868E+02 -0.32567033071E+01  0.43400728652E+02  0.00000000000E+00 0. -1.
         11    1    3    3    0    0  0.19248246221E+00 -0.98259032866E+01 -0.12134313705E+00  0.98285374962E+01  0.51100000000E-03 0. -1.
        -11    1    3    3    0    0 -0.97964612628E+01 -0.12181483560E+02  0.27594295279E-01  0.15632017039E+02  0.51100000000E-03 0.  1.
         12    1    3    3    0    0  0.63296011695E+01 -0.21146936021E+02  0.33504521489E+01  0.22326716813E+02  0.00000000000E+00 0. -1.
</event>
<event>
 7    1  0.4450624E-010  0.4778727E+02  0.7816164E-02  0.1312668E+00
        -11   -1    0    0    0    0  0.00000000000E+00  0.00000000000E+00  0.45593999997E+02  0.45594000000E+02  0.51100000000E-03 0.  1.
         11   -1    0    0    0    0 -0.00000000000E+00 -0.00000000000E+00 -0.45593999997E+02  0.45594000000E+02  0.51100000000E-03 0. -1.
    9900012    2    1    2    0    0  0.26945138791E+02  0.15990591877E+02  0.30031383478E+02  0.47787268133E+02  0.19999986724E+02 0.  0.
         12    1    1    2    0    0 -0.26945138791E+02 -0.15990591877E+02 -0.30031383478E+02  0.43400731867E+02  0.00000000000E+00 0. -1.
         11    1    3    3    0    0  0.17703073642E+00 -0.29639835492E-01  0.16521826343E+01  0.16619043654E+01  0.51100000000E-03 0. -1.
        -11    1    3    3    0    0  0.55474940686E+01  0.57612028395E+01  0.19256141127E+02  0.20851022036E+02  0.51100000000E-03 0.  1.
        -12    1    3    3    0    0  0.21220613986E+02  0.10259028873E+02  0.91230597169E+01  0.25274341731E+02  0.00000000000E+00 0.  1.
</event>
<event>
 7    1  0.4450624E-010  0.4778727E+02  0.7816164E-02  0.1312668E+00
        -11   -1    0    0    0    0  0.00000000000E+00  0.00000000000E+00  0.45593999997E+02  0.45594000000E+02  0.51100000000E-03 0. -1.
         11   -1    0    0    0    0 -0.00000000000E+00 -0.00000000000E+00 -0.45593999997E+02  0.45594000000E+02  0.51100000000E-03 0.  1.
    9900012    2    1    2    0    0  0.24976200385E+02 -0.16755932831E+02 -0.31289796911E+02  0.47787271188E+02  0.20000000654E+02 0.  0.
         12    1    1    2    0    0 -0.24976200385E+02  0.16755932831E+02  0.31289796911E+02  0.43400728812E+02  0.00000000000E+00 0. -1.
         11    1    3    3    0    0  0.16261203293E+01  0.12914878299E-01  0.25345152512E+01  0.30113455363E+01  0.51100000000E-03 0. -1.
        -11    1    3    3    0    0  0.87770448389E+01 -0.29784046016E+01 -0.10232548490E+02  0.13806247098E+02  0.51100000000E-03 0.  1.
         12    1    3    3    0    0  0.14573035217E+02 -0.13790443107E+02 -0.23591763672E+02  0.30969678553E+02  0.00000000000E+00 0. -1.
</event>
<event>
 7    1  0.4450624E-010  0.4778727E+02  0.7816164E-02  0.1312668E+00
        -11   -1    0    0    0    0  0.00000000000E+00  0.00000000000E+00  0.45593999997E+02  0.45594000000E+02  0.51100000000E-03 0.  1.
         11   -1    0    0    0    0 -0.00000000000E+00 -0.00000000000E+00 -0.45593999997E+02  0.45594000000E+02  0.51100000000E-03 0. -1.
    9900012    2    1    2    0    0 -0.15350895480E+01  0.31656815137E+02  0.29649839008E+02  0.47787269618E+02  0.19999993495E+02 0.  0.
         12    1    1    2    0    0  0.15350895480E+01 -0.31656815137E+02 -0.29649839008E+02  0.43400730382E+02  0.00000000000E+00 0. -1.
         11    1    3    3    0    0  0.39596405197E+01  0.41359532514E+01  0.41205338556E+00  0.57406141306E+01  0.51100000000E-03 0. -1.
        -11    1    3    3    0    0 -0.48289388939E+01  0.12753284529E+02  0.69596936252E+01  0.15310200937E+02  0.51100000000E-03 0.  1.
         12    1    3    3    0    0 -0.66579117381E+00  0.14767577356E+02  0.22278091997E+02  0.26736454550E+02  0.00000000000E+00 0. -1.
</event>
<event>
 7    1  0.4450624E-010  0.4778727E+02  0.7816164E-02  0.1312668E+00
        -11   -1    0    0    0    0  0.00000000000E+00  0.00000000000E+00  0.45593999997E+02  0.45594000000E+02  0.51100000000E-03 0. -1.
         11   -1    0    0    0    0 -0.00000000000E+00 -0.00000000000E+00 -0.45593999997E+02  0.45594000000E+02  0.51100000000E-03 0.  1.
    9900012    2    1    2    0    0 -0.40719455850E+02 -0.14815055328E+02  0.24623863872E+01  0.47787270792E+02  0.19999998847E+02 0.  0.
         12    1    1    2    0    0  0.40719455850E+02  0.14815055328E+02 -0.24623863872E+01  0.43400729208E+02  0.00000000000E+00 0. -1.
         11    1    3    3    0    0 -0.77601776475E+00  0.27447552127E+00 -0.21713370430E+01  0.23221208406E+01  0.51100000000E-03 0. -1.
        -11    1    3    3    0    0 -0.81491651882E+01 -0.72319414859E+01  0.64544846108E+01  0.12663737315E+02  0.51100000000E-03 0.  1.
        -12    1    3    3    0    0 -0.31794272897E+02 -0.78575893638E+01 -0.18207611806E+01  0.32801412636E+02  0.00000000000E+00 0.  1.
</event>
<event>
 7    1  0.4450624E-010  0.4778727E+02  0.7816164E-02  0.1312668E+00
        -11   -1    0    0    0    0  0.00000000000E+00  0.00000000000E+00  0.45593999997E+02  0.45594000000E+02  0.51100000000E-03 0.  1.
         11   -1    0    0    0    0 -0.00000000000E+00 -0.00000000000E+00 -0.45593999997E+02  0.45594000000E+02  0.51100000000E-03 0. -1.
    9900012    2    1    2    0    0  0.40719136309E+02 -0.12356914801E+02 -0.85370922859E+01  0.47787270170E+02  0.19999996012E+02 0.  0.
         12    1    1    2    0    0 -0.40719136309E+02  0.12356914801E+02  0.85370922859E+01  0.43400729830E+02  0.00000000000E+00 0. -1.
         11    1    3    3    0    0 -0.52681526324E+00  0.16730905613E+01  0.78181944768E+00  0.19204187715E+01  0.51100000000E-03 0. -1.
        -11    1    3    3    0    0  0.87988926459E+01 -0.12997511765E+01  0.21916122869E+01  0.91604055365E+01  0.51100000000E-03 0.  1.
        -12    1    3    3    0    0  0.32447058926E+02 -0.12730254186E+02 -0.11510524020E+02  0.36706445862E+02  0.00000000000E+00 0.  1.
</event>
<event>
 7    1  0.4450624E-010  0.4778727E+02  0.7816164E-02  0.1312668E+00
        -11   -1    0    0    0    0  0.00000000000E+00  0.00000000000E+00  0.45593999997E+02  0.45594000000E+02  0.51100000000E-03 0. -1.
         11   -1    0    0    0    0 -0.00000000000E+00 -0.00000000000E+00 -0.45593999997E+02  0.45594000000E+02  0.51100000000E-03 0.  1.
    9900012    2    1    2    0    0  0.11989846774E+02  0.30887760291E+02 -0.28032357405E+02  0.47787271629E+02  0.20000002666E+02 0.  0.
         12    1    1    2    0    0 -0.11989846774E+02 -0.30887760291E+02  0.28032357405E+02  0.43400728371E+02  0.00000000000E+00 0. -1.
         11    1    3    3    0    0  0.94312043312E+01  0.28182286323E+02 -0.16027784288E+02  0.33765052154E+02  0.51100000000E-03 0.  1.
        -11    1    3    3    0    0 -0.16621591159E+01  0.13360348373E+01 -0.70760325440E+01  0.73903990987E+01  0.51100000000E-03 0. -1.
        -12    1    3    3    0    0  0.42208015582E+01  0.13694391308E+01 -0.49285405735E+01  0.66318203769E+01  0.00000000000E+00 0.  1.
</event>
<event>
 7    1  0.4450624E-010  0.4778728E+02  0.7816164E-02  0.1312668E+00
        -11   -1    0    0    0    0  0.00000000000E+00  0.00000000000E+00  0.45593999997E+02  0.45594000000E+02  0.51100000000E-03 0.  1.
         11   -1    0    0    0    0 -0.00000000000E+00 -0.00000000000E+00 -0.45593999997E+02  0.45594000000E+02  0.51100000000E-03 0. -1.
    9900012    2    1    2    0    0  0.40063280695E+02 -0.22500456402E+01  0.16537625943E+02  0.47787282987E+02  0.20000054450E+02 0.  0.
         12    1    1    2    0    0 -0.40063280695E+02  0.22500456402E+01 -0.16537625943E+02  0.43400717013E+02  0.00000000000E+00 0. -1.
         11    1    3    3    0    0  0.63145460195E+01 -0.28970506640E+01  0.31143721901E+01  0.76135214179E+01  0.51100000000E-03 0. -1.
        -11    1    3    3    0    0  0.27237238065E+01  0.30988428910E+01  0.74030960657E+01  0.84751006045E+01  0.51100000000E-03 0.  1.
        -12    1    3    3    0    0  0.31025010869E+02 -0.24518378672E+01  0.60201576875E+01  0.31698660964E+02  0.00000000000E+00 0.  1.
</event>
<event>
 7    1  0.4450624E-010  0.4778727E+02  0.7816164E-02  0.1312668E+00
        -11   -1    0    0    0    0  0.00000000000E+00  0.00000000000E+00  0.45593999997E+02  0.45594000000E+02  0.51100000000E-03 0.  1.
         11   -1    0    0    0    0 -0.00000000000E+00 -0.00000000000E+00 -0.45593999997E+02  0.45594000000E+02  0.51100000000E-03 0. -1.
    9900012    2    1    2    0    0 -0.36409314874E+02 -0.22847447874E+02  0.59982929259E+01  0.47787267265E+02  0.19999982767E+02 0.  0.
         12    1    1    2    0    0  0.36409314874E+02  0.22847447874E+02 -0.59982929259E+01  0.43400732735E+02  0.00000000000E+00 0. -1.
         11    1    3    3    0    0 -0.11133108557E+02  0.65714453232E+00  0.47162471939E+01  0.12108713100E+02  0.51100000000E-03 0. -1.
        -11    1    3    3    0    0 -0.19859358785E+02 -0.15517494085E+02  0.42997266557E+01  0.25567056999E+02  0.51100000000E-03 0.  1.
        -12    1    3    3    0    0 -0.54168475321E+01 -0.79870983214E+01 -0.30176809238E+01  0.10111497166E+02  0.00000000000E+00 0.  1.
</event>
<event>
 7    1  0.4450624E-010  0.4778727E+02  0.7816164E-02  0.1312668E+00
        -11   -1    0    0    0    0  0.00000000000E+00  0.00000000000E+00  0.45593999997E+02  0.45594000000E+02  0.51100000000E-03 0.  1.
         11   -1    0    0    0    0 -0.00000000000E+00 -0.00000000000E+00 -0.45593999997E+02  0.45594000000E+02  0.51100000000E-03 0. -1.
    9900012    2    1    2    0    0 -0.48285006817E+01 -0.13495541306E+02  0.40965587707E+02  0.47787269244E+02  0.19999991793E+02 0.  0.
         12    1    1    2    0    0  0.48285006817E+01  0.13495541306E+02 -0.40965587707E+02  0.43400730756E+02  0.00000000000E+00 0. -1.
         11    1    3    3    0    0  0.32832523781E+01 -0.10072852451E+02  0.82670531293E+01  0.13438239110E+02  0.51100000000E-03 0. -1.
        -11    1    3    3    0    0 -0.18742081539E+01  0.11207958187E+01  0.33193851988E+01  0.39733056553E+01  0.51100000000E-03 0.  1.
        -12    1    3    3    0    0 -0.62375449059E+01 -0.45434846738E+01  0.29379149379E+02  0.30375724479E+02  0.00000000000E+00 0.  1.
</event>
<event>
 7    1  0.4450624E-010  0.4778727E+02  0.7816164E-02  0.1312668E+00
        -11   -1    0    0    0    0  0.00000000000E+00  0.00000000000E+00  0.45593999997E+02  0.45594000000E+02  0.51100000000E-03 0.  1.
         11   -1    0    0    0    0 -0.00000000000E+00 -0.00000000000E+00 -0.45593999997E+02  0.45594000000E+02  0.51100000000E-03 0. -1.
    9900012    2    1    2    0    0 -0.27068238192E+02  0.83857691922E+01 -0.32872670352E+02  0.47787273049E+02  0.20000009139E+02 0.  0.
         12    1    1    2    0    0  0.27068238192E+02 -0.83857691922E+01  0.32872670352E+02  0.43400726951E+02  0.00000000000E+00 0. -1.
         11    1    3    3    0    0 -0.67541190390E+01  0.52497256488E+01 -0.18524354734E+02  0.20404153056E+02  0.51100000000E-03 0. -1.
        -11    1    3    3    0    0  0.12166216422E+01  0.95352616329E+00 -0.17786708079E+01  0.23564911348E+01  0.51100000000E-03 0.  1.
        -12    1    3    3    0    0 -0.21530740796E+02  0.21825173802E+01 -0.12569644811E+02  0.25026628858E+02  0.00000000000E+00 0.  1.
</event>
<event>
 7    1  0.4450624E-010  0.4778727E+02  0.7816164E-02  0.1312668E+00
        -11   -1    0    0    0    0  0.00000000000E+00  0.00000000000E+00  0.45593999997E+02  0.45594000000E+02  0.51100000000E-03 0.  1.
         11   -1    0    0    0    0 -0.00000000000E+00 -0.00000000000E+00 -0.45593999997E+02  0.45594000000E+02  0.51100000000E-03 0. -1.
    9900012    2    1    2    0    0 -0.18412640738E+02 -0.22543090389E+02  0.32193279717E+02  0.47787268184E+02  0.19999986958E+02 0.  0.
         12    1    1    2    0    0  0.18412640738E+02  0.22543090389E+02 -0.32193279717E+02  0.43400731816E+02  0.00000000000E+00 0. -1.
         11    1    3    3    0    0 -0.74448616618E+01 -0.42406129822E+01  0.28957651732E+01  0.90440156915E+01  0.51100000000E-03 0. -1.
        -11    1    3    3    0    0 -0.79437737466E+01 -0.18314707471E+01  0.63418705624E+01  0.10328463048E+02  0.51100000000E-03 0.  1.
        -12    1    3    3    0    0 -0.30240053299E+01 -0.16471006660E+02  0.22955643981E+02  0.28414789445E+02  0.00000000000E+00 0.  1.
</event>
<event>
 7    1  0.4450624E-010  0.4778728E+02  0.7816164E-02  0.1312668E+00
        -11   -1    0    0    0    0  0.00000000000E+00  0.00000000000E+00  0.45593999997E+02  0.45594000000E+02  0.51100000000E-03 0.  1.
         11   -1    0    0    0    0 -0.00000000000E+00 -0.00000000000E+00 -0.45593999997E+02  0.45594000000E+02  0.51100000000E-03 0. -1.
    9900012    2    1    2    0    0 -0.98499999591E+01 -0.59611925962E+01  0.41845718343E+02  0.47787280421E+02  0.20000042750E+02 0.  0.
         12    1    1    2    0    0  0.98499999591E+01  0.59611925962E+01 -0.41845718343E+02  0.43400719579E+02  0.00000000000E+00 0. -1.
         11    1    3    3    0    0 -0.95124992585E+01 -0.19130895284E+00  0.10192980994E+02  0.13943496802E+02  0.51100000000E-03 0.  1.
        -11    1    3    3    0    0 -0.13401807449E+01 -0.62459059057E+01  0.83436213710E+01  0.10508255938E+02  0.51100000000E-03 0. -1.
        -12    1    3    3    0    0  0.10026800444E+01  0.47602226230E+00  0.23309115978E+02  0.23335527681E+02  0.00000000000E+00 0.  1.
</event>
<event>
 7    1  0.4450624E-010  0.4778726E+02  0.7816164E-02  0.1312668E+00
        -11   -1    0    0    0    0  0.00000000000E+00  0.00000000000E+00  0.45593999997E+02  0.45594000000E+02  0.51100000000E-03 0.  1.
         11   -1    0    0    0    0 -0.00000000000E+00 -0.00000000000E+00 -0.45593999997E+02  0.45594000000E+02  0.51100000000E-03 0. -1.
    9900012    2    1    2    0    0 -0.18903504346E+02 -0.32559508322E+02  0.21590738272E+02  0.47787262243E+02  0.19999959873E+02 0.  0.
         12    1    1    2    0    0  0.18903504346E+02  0.32559508322E+02 -0.21590738272E+02  0.43400737757E+02  0.00000000000E+00 0. -1.
         11    1    3    3    0    0 -0.44951198358E+01 -0.83190585227E+01  0.11919820080E+01  0.95306693580E+01  0.51100000000E-03 0.  1.
        -11    1    3    3    0    0  0.16493294884E+01  0.85673261951E+00 -0.42463011498E+00  0.19064599493E+01  0.51100000000E-03 0. -1.
         12    1    3    3    0    0 -0.16057713998E+02 -0.25097182418E+02  0.20823386379E+02  0.36350132936E+02  0.00000000000E+00 0. -1.
</event>
<event>
 7    1  0.4450624E-010  0.4778727E+02  0.7816164E-02  0.1312668E+00
        -11   -1    0    0    0    0  0.00000000000E+00  0.00000000000E+00  0.45593999997E+02  0.45594000000E+02  0.51100000000E-03 0. -1.
         11   -1    0    0    0    0 -0.00000000000E+00 -0.00000000000E+00 -0.45593999997E+02  0.45594000000E+02  0.51100000000E-03 0.  1.
    9900012    2    1    2    0    0 -0.36172194413E+02 -0.13147975260E+02 -0.20058071826E+02  0.47787272501E+02  0.20000006639E+02 0.  0.
         12    1    1    2    0    0  0.36172194413E+02  0.13147975260E+02  0.20058071826E+02  0.43400727499E+02  0.00000000000E+00 0. -1.
         11    1    3    3    0    0 -0.41160341555E+01 -0.17966629866E+01 -0.76440457258E+01  0.88657301096E+01  0.51100000000E-03 0. -1.
        -11    1    3    3    0    0 -0.73394725541E+01 -0.60373918010E+01 -0.95590791624E+01  0.13479389891E+02  0.51100000000E-03 0.  1.
        -12    1    3    3    0    0 -0.24716687704E+02 -0.53139204720E+01 -0.28549469376E+01  0.25442152500E+02  0.00000000000E+00 0.  1.
</event>
<event>
 7    1  0.4450624E-010  0.4778727E+02  0.7816164E-02  0.1312668E+00
        -11   -1    0    0    0    0  0.00000000000E+00  0.00000000000E+00  0.45593999997E+02  0.45594000000E+02  0.51100000000E-03 0.  1.
         11   -1    0    0    0    0 -0.00000000000E+00 -0.00000000000E+00 -0.45593999997E+02  0.45594000000E+02  0.51100000000E-03 0. -1.
    9900012    2    1    2    0    0  0.29848454876E+02 -0.15236204528E+02  0.27578098107E+02  0.47787266342E+02  0.19999978558E+02 0.  0.
         12    1    1    2    0    0 -0.29848454876E+02  0.15236204528E+02 -0.27578098107E+02  0.43400733658E+02  0.00000000000E+00 0. -1.
         11    1    3    3    0    0  0.23407451491E+02 -0.11641234749E+02  0.97392791302E+01  0.27897682520E+02  0.51100000000E-03 0. -1.
        -11    1    3    3    0    0  0.85420810742E+00 -0.28788568015E+01  0.44958388104E+01  0.54064826685E+01  0.51100000000E-03 0.  1.
         12    1    3    3    0    0  0.55867952775E+01 -0.71611297701E+00  0.13342980167E+02  0.14483101153E+02  0.00000000000E+00 0. -1.
</event>
<event>
 7    1  0.4450624E-010  0.4778727E+02  0.7816164E-02  0.1312668E+00
        -11   -1    0    0    0    0  0.00000000000E+00  0.00000000000E+00  0.45593999997E+02  0.45594000000E+02  0.51100000000E-03 0.  1.
         11   -1    0    0    0    0 -0.00000000000E+00 -0.00000000000E+00 -0.45593999997E+02  0.45594000000E+02  0.51100000000E-03 0. -1.
    9900012    2    1    2    0    0  0.13441820216E+02 -0.37159066362E+02  0.17948386920E+02  0.47787270321E+02  0.19999996702E+02 0.  0.
         12    1    1    2    0    0 -0.13441820216E+02  0.37159066362E+02 -0.17948386920E+02  0.43400729679E+02  0.00000000000E+00 0. -1.
         11    1    3    3    0    0  0.11177119720E+02 -0.16149433572E+02  0.78243233703E+01  0.21141245148E+02  0.51100000000E-03 0. -1.
        -11    1    3    3    0    0  0.59557219291E+01 -0.19768793309E+02  0.93986295494E+01  0.22685018189E+02  0.51100000000E-03 0.  1.
         12    1    3    3    0    0 -0.36910214330E+01 -0.12408394811E+01  0.72543400004E+00  0.39610069837E+01  0.00000000000E+00 0. -1.
</event>
<event>
 7    1  0.4450624E-010  0.4778728E+02  0.7816164E-02  0.1312668E+00
        -11   -1    0    0    0    0  0.00000000000E+00  0.00000000000E+00  0.45593999997E+02  0.45594000000E+02  0.51100000000E-03 0.  1.
         11   -1    0    0    0    0 -0.00000000000E+00 -0.00000000000E+00 -0.45593999997E+02  0.45594000000E+02  0.51100000000E-03 0. -1.
    9900012    2    1    2    0    0 -0.30197015880E+02 -0.23435516375E+02  0.20555752163E+02  0.47787284075E+02  0.20000059410E+02 0.  0.
         12    1    1    2    0    0  0.30197015880E+02  0.23435516375E+02 -0.20555752163E+02  0.43400715925E+02  0.00000000000E+00 0. -1.
         11    1    3    3    0    0 -0.91610284126E+01 -0.86032661583E+01 -0.80090715299E+00  0.12592937810E+02  0.51100000000E-03 0. -1.
        -11    1    3    3    0    0 -0.43311941629E+01 -0.90177955970E+01  0.53781295063E+01  0.11357999716E+02  0.51100000000E-03 0.  1.
        -12    1    3    3    0    0 -0.16704793305E+02 -0.58144546199E+01  0.15978529810E+02  0.23836346548E+02  0.00000000000E+00 0.  1.
</event>
<event>
 7    1  0.4450624E-010  0.4778727E+02  0.7816164E-02  0.1312668E+00
        -11   -1    0    0    0    0  0.00000000000E+00  0.00000000000E+00  0.45593999997E+02  0.45594000000E+02  0.51100000000E-03 0. -1.
         11   -1    0    0    0    0 -0.00000000000E+00 -0.00000000000E+00 -0.45593999997E+02  0.45594000000E+02  0.51100000000E-03 0.  1.
    9900012    2    1    2    0    0  0.35070341136E+02  0.24524658986E+02 -0.72273927542E+01  0.47787274985E+02  0.20000017967E+02 0.  0.
         12    1    1    2    0    0 -0.35070341136E+02 -0.24524658986E+02  0.72273927542E+01  0.43400725015E+02  0.00000000000E+00 0. -1.
         11    1    3    3    0    0  0.66598221677E+01  0.16642893942E+01  0.20743733121E+01  0.71712004150E+01  0.51100000000E-03 0. -1.
        -11    1    3    3    0    0  0.22189671574E+02  0.16457123005E+02  0.13341058005E+00  0.27626730187E+02  0.51100000000E-03 0.  1.
         12    1    3    3    0    0  0.62208473945E+01  0.64032465864E+01 -0.94351766464E+01  0.12989344383E+02  0.00000000000E+00 0. -1.
</event>
<event>
 7    1  0.4450624E-010  0.4778727E+02  0.7816164E-02  0.1312668E+00
        -11   -1    0    0    0    0  0.00000000000E+00  0.00000000000E+00  0.45593999997E+02  0.45594000000E+02  0.51100000000E-03 0. -1.
         11   -1    0    0    0    0 -0.00000000000E+00 -0.00000000000E+00 -0.45593999997E+02  0.45594000000E+02  0.51100000000E-03 0.  1.
    9900012    2    1    2    0    0  0.55490040730E+01 -0.42988690428E+02 -0.21919832923E+01  0.47787265656E+02  0.19999975430E+02 0.  0.
         12    1    1    2    0    0 -0.55490040730E+01  0.42988690428E+02  0.21919832923E+01  0.43400734344E+02  0.00000000000E+00 0. -1.
         11    1    3    3    0    0  0.50061836797E+01 -0.68472016478E+01 -0.28535373993E+01  0.89492302122E+01  0.51100000000E-03 0. -1.
        -11    1    3    3    0    0  0.39347019955E+01 -0.25429766796E+02 -0.50663015233E+01  0.26226367085E+02  0.51100000000E-03 0.  1.
        -12    1    3    3    0    0 -0.33918816022E+01 -0.10711721984E+02  0.57278556303E+01  0.12611668358E+02  0.00000000000E+00 0.  1.
</event>
<event>
 7    1  0.4450624E-010  0.4778727E+02  0.7816164E-02  0.1312668E+00
        -11   -1    0    0    0    0  0.00000000000E+00  0.00000000000E+00  0.45593999997E+02  0.45594000000E+02  0.51100000000E-03 0. -1.
         11   -1    0    0    0    0 -0.00000000000E+00 -0.00000000000E+00 -0.45593999997E+02  0.45594000000E+02  0.51100000000E-03 0.  1.
    9900012    2    1    2    0    0 -0.16999435672E+02  0.39565949319E+02 -0.54016786762E+01  0.47787270845E+02  0.19999999091E+02 0.  0.
         12    1    1    2    0    0  0.16999435672E+02 -0.39565949319E+02  0.54016786762E+01  0.43400729155E+02  0.00000000000E+00 0. -1.
         11    1    3    3    0    0 -0.16848432991E+01  0.40616910896E+01  0.34730367826E+01  0.56033932759E+01  0.51100000000E-03 0. -1.
        -11    1    3    3    0    0 -0.12633814416E+02  0.30805345271E+02 -0.18897872245E+01  0.33348970899E+02  0.51100000000E-03 0.  1.
        -12    1    3    3    0    0 -0.26807779565E+01  0.46989129582E+01 -0.69849282342E+01  0.88349066706E+01  0.00000000000E+00 0.  1.
</event>
<event>
 7    1  0.4450624E-010  0.4778727E+02  0.7816164E-02  0.1312668E+00
        -11   -1    0    0    0    0  0.00000000000E+00  0.00000000000E+00  0.45593999997E+02  0.45594000000E+02  0.51100000000E-03 0.  1.
         11   -1    0    0    0    0 -0.00000000000E+00 -0.00000000000E+00 -0.45593999997E+02  0.45594000000E+02  0.51100000000E-03 0. -1.
    9900012    2    1    2    0    0  0.20331890955E+02  0.36465703340E+02  0.11852846614E+02  0.47787270942E+02  0.19999999533E+02 0.  0.
         12    1    1    2    0    0 -0.20331890955E+02 -0.36465703340E+02 -0.11852846614E+02  0.43400729058E+02  0.00000000000E+00 0. -1.
         11    1    3    3    0    0 -0.47771203543E+00  0.11476205302E+02  0.25373527332E+01  0.11763063210E+02  0.51100000000E-03 0. -1.
        -11    1    3    3    0    0  0.13920322572E+01  0.49739671598E+01 -0.24993341248E+01  0.57380113664E+01  0.51100000000E-03 0.  1.
        -12    1    3    3    0    0  0.19417570733E+02  0.20015530879E+02  0.11814828005E+02  0.30286196366E+02  0.00000000000E+00 0.  1.
</event>
<event>
 7    1  0.4450624E-010  0.4778726E+02  0.7816164E-02  0.1312668E+00
        -11   -1    0    0    0    0  0.00000000000E+00  0.00000000000E+00  0.45593999997E+02  0.45594000000E+02  0.51100000000E-03 0. -1.
         11   -1    0    0    0    0 -0.00000000000E+00 -0.00000000000E+00 -0.45593999997E+02  0.45594000000E+02  0.51100000000E-03 0.  1.
    9900012    2    1    2    0    0  0.10876890229E+02  0.11079776540E+02 -0.40528455118E+02  0.47787264251E+02  0.19999969028E+02 0.  0.
         12    1    1    2    0    0 -0.10876890229E+02 -0.11079776540E+02  0.40528455118E+02  0.43400735749E+02  0.00000000000E+00 0. -1.
         11    1    3    3    0    0 -0.22056760466E+01 -0.86280469861E+00 -0.29347367441E+00  0.23865384617E+01  0.51100000000E-03 0. -1.
        -11    1    3    3    0    0  0.53537856659E+01  0.26948661205E+00 -0.20598679487E+02  0.21284765464E+02  0.51100000000E-03 0.  1.
        -12    1    3    3    0    0  0.77287806093E+01  0.11673094627E+02 -0.19636301957E+02  0.24115960326E+02  0.00000000000E+00 0.  1.
</event>
<event>
 7    1  0.4450624E-010  0.4778727E+02  0.7816164E-02  0.1312668E+00
        -11   -1    0    0    0    0  0.00000000000E+00  0.00000000000E+00  0.45593999997E+02  0.45594000000E+02  0.51100000000E-03 0. -1.
         11   -1    0    0    0    0 -0.00000000000E+00 -0.00000000000E+00 -0.45593999997E+02  0.45594000000E+02  0.51100000000E-03 0.  1.
    9900012    2    1    2    0    0 -0.85926022915E+01  0.89744651698E+01 -0.41584248037E+02  0.47787268162E+02  0.19999986858E+02 0.  0.
         12    1    1    2    0    0  0.85926022915E+01 -0.89744651698E+01  0.41584248037E+02  0.43400731838E+02  0.00000000000E+00 0. -1.
         11    1    3    3    0    0 -0.11478719007E+00  0.30657553528E+01 -0.96389872636E+00  0.32157632062E+01  0.51100000000E-03 0. -1.
        -11    1    3    3    0    0 -0.18588093229E+01 -0.46966733043E+01 -0.64922311159E+01  0.82257508685E+01  0.51100000000E-03 0.  1.
        -12    1    3    3    0    0 -0.66190057785E+01  0.10605383121E+02 -0.34128118195E+02  0.36345754087E+02  0.00000000000E+00 0.  1.
</event>
<event>
 7    1  0.4450624E-010  0.4778727E+02  0.7816164E-02  0.1312668E+00
        -11   -1    0    0    0    0  0.00000000000E+00  0.00000000000E+00  0.45593999997E+02  0.45594000000E+02  0.51100000000E-03 0.  1.
         11   -1    0    0    0    0 -0.00000000000E+00 -0.00000000000E+00 -0.45593999997E+02  0.45594000000E+02  0.51100000000E-03 0. -1.
    9900012    2    1    2    0    0  0.34778974348E+01 -0.17376671818E+02  0.39617906653E+02  0.47787273951E+02  0.20000013253E+02 0.  0.
         12    1    1    2    0    0 -0.34778974348E+01  0.17376671818E+02 -0.39617906653E+02  0.43400726049E+02  0.00000000000E+00 0. -1.
         11    1    3    3    0    0  0.36060990382E+01 -0.15741116300E+01  0.28431342752E+01  0.48543990838E+01  0.51100000000E-03 0. -1.
        -11    1    3    3    0    0  0.75468521097E+01 -0.59199079324E+01  0.14532758706E+02  0.17412678213E+02  0.51100000000E-03 0.  1.
        -12    1    3    3    0    0 -0.76750537131E+01 -0.98826522555E+01  0.22242013672E+02  0.25520196654E+02  0.00000000000E+00 0.  1.
</event>
<event>
 7    1  0.4450624E-010  0.4778727E+02  0.7816164E-02  0.1312668E+00
        -11   -1    0    0    0    0  0.00000000000E+00  0.00000000000E+00  0.45593999997E+02  0.45594000000E+02  0.51100000000E-03 0.  1.
         11   -1    0    0    0    0 -0.00000000000E+00 -0.00000000000E+00 -0.45593999997E+02  0.45594000000E+02  0.51100000000E-03 0. -1.
    9900012    2    1    2    0    0 -0.25897836933E+02 -0.28077855500E+02 -0.20604840870E+02  0.47787269654E+02  0.19999993659E+02 0.  0.
         12    1    1    2    0    0  0.25897836933E+02  0.28077855500E+02  0.20604840870E+02  0.43400730346E+02  0.00000000000E+00 0. -1.
         11    1    3    3    0    0 -0.10559135351E+01 -0.76282859412E+01 -0.90142494282E+01  0.11855901181E+02  0.51100000000E-03 0. -1.
        -11    1    3    3    0    0 -0.54400098034E+00 -0.93762325611E-01  0.15291571856E+01  0.16257461055E+01  0.51100000000E-03 0.  1.
        -12    1    3    3    0    0 -0.24297922418E+02 -0.20355807233E+02 -0.13119748628E+02  0.34305622367E+02  0.00000000000E+00 0.  1.
</event>
<event>
 7    1  0.4450624E-010  0.4778727E+02  0.7816164E-02  0.1312668E+00
        -11   -1    0    0    0    0  0.00000000000E+00  0.00000000000E+00  0.45593999997E+02  0.45594000000E+02  0.51100000000E-03 0. -1.
         11   -1    0    0    0    0 -0.00000000000E+00 -0.00000000000E+00 -0.45593999997E+02  0.45594000000E+02  0.51100000000E-03 0.  1.
    9900012    2    1    2    0    0 -0.14975257676E+02 -0.22905648428E+02 -0.33685258568E+02  0.47787265938E+02  0.19999976717E+02 0.  0.
         12    1    1    2    0    0  0.14975257676E+02  0.22905648428E+02  0.33685258568E+02  0.43400734062E+02  0.00000000000E+00 0. -1.
         11    1    3    3    0    0 -0.87572177436E+01 -0.62466449144E+01 -0.91644819225E+01  0.14131424715E+02  0.51100000000E-03 0. -1.
        -11    1    3    3    0    0 -0.45991140945E+01 -0.14375399205E+02 -0.83587495515E+01  0.17253192374E+02  0.51100000000E-03 0.  1.
         12    1    3    3    0    0 -0.16189258376E+01 -0.22836043087E+01 -0.16162027094E+02  0.16402648850E+02  0.00000000000E+00 0. -1.
</event>
<event>
 7    1  0.4450624E-010  0.4778727E+02  0.7816164E-02  0.1312668E+00
        -11   -1    0    0    0    0  0.00000000000E+00  0.00000000000E+00  0.45593999997E+02  0.45594000000E+02  0.51100000000E-03 0. -1.
         11   -1    0    0    0    0 -0.00000000000E+00 -0.00000000000E+00 -0.45593999997E+02  0.45594000000E+02  0.51100000000E-03 0.  1.
    9900012    2    1    2    0    0 -0.38682233289E+02  0.19034895370E+02  0.49980546504E+01  0.47787274611E+02  0.20000016263E+02 0.  0.
         12    1    1    2    0    0  0.38682233289E+02 -0.19034895370E+02 -0.49980546504E+01  0.43400725389E+02  0.00000000000E+00 0. -1.
         11    1    3    3    0    0 -0.22476111505E+02  0.71206773866E+01 -0.22558735264E+01  0.23684775711E+02  0.51100000000E-03 0. -1.
        -11    1    3    3    0    0 -0.10182873068E+02  0.95343979532E+01 -0.55084700032E+00  0.13960626094E+02  0.51100000000E-03 0.  1.
         12    1    3    3    0    0 -0.60232487153E+01  0.23798200307E+01  0.78047751771E+01  0.10141872807E+02  0.00000000000E+00 0. -1.
</event>
<event>
 7    1  0.4450624E-010  0.4778728E+02  0.7816164E-02  0.1312668E+00
        -11   -1    0    0    0    0  0.00000000000E+00  0.00000000000E+00  0.45593999997E+02  0.45594000000E+02  0.51100000000E-03 0. -1.
         11   -1    0    0    0    0 -0.00000000000E+00 -0.00000000000E+00 -0.45593999997E+02  0.45594000000E+02  0.51100000000E-03 0.  1.
    9900012    2    1    2    0    0 -0.22409332904E+02 -0.24150477849E+02 -0.28252407386E+02  0.47787282211E+02  0.20000050912E+02 0.  0.
         12    1    1    2    0    0  0.22409332904E+02  0.24150477849E+02  0.28252407386E+02  0.43400717789E+02  0.00000000000E+00 0. -1.
         11    1    3    3    0    0 -0.45990856653E+00  0.18170682093E+01 -0.55150344619E+01  0.58248483365E+01  0.51100000000E-03 0. -1.
        -11    1    3    3    0    0 -0.87790489978E+01 -0.52779484991E+01 -0.10045681988E+02  0.14347270421E+02  0.51100000000E-03 0.  1.
         12    1    3    3    0    0 -0.13170375339E+02 -0.20689597559E+02 -0.12691690936E+02  0.27615163453E+02  0.00000000000E+00 0. -1.
</event>
<event>
 7    1  0.4450624E-010  0.4778727E+02  0.7816164E-02  0.1312668E+00
        -11   -1    0    0    0    0  0.00000000000E+00  0.00000000000E+00  0.45593999997E+02  0.45594000000E+02  0.51100000000E-03 0. -1.
         11   -1    0    0    0    0 -0.00000000000E+00 -0.00000000000E+00 -0.45593999997E+02  0.45594000000E+02  0.51100000000E-03 0.  1.
    9900012    2    1    2    0    0 -0.30834231499E+02 -0.24698577993E+02  0.17968129259E+02  0.47787271249E+02  0.20000000934E+02 0.  0.
         12    1    1    2    0    0  0.30834231499E+02  0.24698577993E+02 -0.17968129259E+02  0.43400728751E+02  0.00000000000E+00 0. -1.
         11    1    3    3    0    0 -0.56104606410E+01 -0.12134013760E+02 -0.13245196883E+01  0.13433760129E+02  0.51100000000E-03 0. -1.
        -11    1    3    3    0    0 -0.16275526881E+02 -0.88636864900E+01  0.10653421182E+02  0.21376461274E+02  0.51100000000E-03 0.  1.
         12    1    3    3    0    0 -0.89482439767E+01 -0.37008777430E+01  0.86392277649E+01  0.12977049846E+02  0.00000000000E+00 0. -1.
</event>
<event>
 7    1  0.4450624E-010  0.4778727E+02  0.7816164E-02  0.1312668E+00
        -11   -1    0    0    0    0  0.00000000000E+00  0.00000000000E+00  0.45593999997E+02  0.45594000000E+02  0.51100000000E-03 0. -1.
         11   -1    0    0    0    0 -0.00000000000E+00 -0.00000000000E+00 -0.45593999997E+02  0.45594000000E+02  0.51100000000E-03 0.  1.
    9900012    2    1    2    0    0  0.55733194561E+01  0.41300726556E+02 -0.12116589913E+02  0.47787266655E+02  0.19999979985E+02 0.  0.
         12    1    1    2    0    0 -0.55733194561E+01 -0.41300726556E+02  0.12116589913E+02  0.43400733345E+02  0.00000000000E+00 0. -1.
         11    1    3    3    0    0 -0.42773427186E+00  0.30701962913E+02 -0.13150777883E+02  0.33402641251E+02  0.51100000000E-03 0. -1.
        -11    1    3    3    0    0  0.66028124888E+01  0.66851869625E+01 -0.17320017273E+01  0.95545113810E+01  0.51100000000E-03 0.  1.
        -12    1    3    3    0    0 -0.60175876087E+00  0.39135766801E+01  0.27661896967E+01  0.48301140230E+01  0.00000000000E+00 0.  1.
</event>
<event>
 7    1  0.4450624E-010  0.4778727E+02  0.7816164E-02  0.1312668E+00
        -11   -1    0    0    0    0  0.00000000000E+00  0.00000000000E+00  0.45593999997E+02  0.45594000000E+02  0.51100000000E-03 0.  1.
         11   -1    0    0    0    0 -0.00000000000E+00 -0.00000000000E+00 -0.45593999997E+02  0.45594000000E+02  0.51100000000E-03 0. -1.
    9900012    2    1    2    0    0  0.21941390170E+02  0.29886722730E+02  0.22560639309E+02  0.47787271387E+02  0.20000001561E+02 0.  0.
         12    1    1    2    0    0 -0.21941390170E+02 -0.29886722730E+02 -0.22560639309E+02  0.43400728613E+02  0.00000000000E+00 0. -1.
         11    1    3    3    0    0  0.35125250869E+00  0.33250411611E+01  0.27160199305E+01  0.43076724077E+01  0.51100000000E-03 0. -1.
        -11    1    3    3    0    0  0.13424081616E+02  0.26776009663E+02  0.12367778443E+02  0.32405595267E+02  0.51100000000E-03 0.  1.
         12    1    3    3    0    0  0.81660560449E+01 -0.21432809377E+00  0.74768409347E+01  0.11074003712E+02  0.00000000000E+00 0. -1.
</event>
<event>
 7    1  0.4450624E-010  0.4778727E+02  0.7816164E-02  0.1312668E+00
        -11   -1    0    0    0    0  0.00000000000E+00  0.00000000000E+00  0.45593999997E+02  0.45594000000E+02  0.51100000000E-03 0.  1.
         11   -1    0    0    0    0 -0.00000000000E+00 -0.00000000000E+00 -0.45593999997E+02  0.45594000000E+02  0.51100000000E-03 0. -1.
    9900012    2    1    2    0    0 -0.20657620353E+02  0.37774023212E+02 -0.54780618719E+01  0.47787271087E+02  0.20000000196E+02 0.  0.
         12    1    1    2    0    0  0.20657620353E+02 -0.37774023212E+02  0.54780618719E+01  0.43400728913E+02  0.00000000000E+00 0. -1.
         11    1    3    3    0    0 -0.68983933474E+01  0.43833966019E+01 -0.42895576934E+01  0.92305093040E+01  0.51100000000E-03 0.  1.
        -11    1    3    3    0    0 -0.98483403205E+01  0.90073481764E+01  0.25285649186E+01  0.13583658161E+02  0.51100000000E-03 0. -1.
        -12    1    3    3    0    0 -0.39108866851E+01  0.24383278434E+02 -0.37170690971E+01  0.24973103622E+02  0.00000000000E+00 0.  1.
</event>
<event>
 7    1  0.4450624E-010  0.4778727E+02  0.7816164E-02  0.1312668E+00
        -11   -1    0    0    0    0  0.00000000000E+00  0.00000000000E+00  0.45593999997E+02  0.45594000000E+02  0.51100000000E-03 0.  1.
         11   -1    0    0    0    0 -0.00000000000E+00 -0.00000000000E+00 -0.45593999997E+02  0.45594000000E+02  0.51100000000E-03 0. -1.
    9900012    2    1    2    0    0  0.27782586358E+02  0.83460602690E+00  0.33332489257E+02  0.47787268301E+02  0.19999987493E+02 0.  0.
         12    1    1    2    0    0 -0.27782586358E+02 -0.83460602690E+00 -0.33332489257E+02  0.43400731699E+02  0.00000000000E+00 0. -1.
         11    1    3    3    0    0  0.54958014786E+01  0.24404158810E+01  0.14276427361E+02  0.15491153670E+02  0.51100000000E-03 0. -1.
        -11    1    3    3    0    0  0.84514730374E+01 -0.33691887186E+01  0.53922095033E+00  0.91142519505E+01  0.51100000000E-03 0.  1.
         12    1    3    3    0    0  0.13835311842E+02  0.17633788644E+01  0.18516840945E+02  0.23181862681E+02  0.00000000000E+00 0. -1.
</event>
<event>
 7    1  0.4450624E-010  0.4778728E+02  0.7816164E-02  0.1312668E+00
        -11   -1    0    0    0    0  0.00000000000E+00  0.00000000000E+00  0.45593999997E+02  0.45594000000E+02  0.51100000000E-03 0. -1.
         11   -1    0    0    0    0 -0.00000000000E+00 -0.00000000000E+00 -0.45593999997E+02  0.45594000000E+02  0.51100000000E-03 0.  1.
    9900012    2    1    2    0    0 -0.94576865845E+00 -0.42953743238E+02  0.61403418271E+01  0.47787281869E+02  0.20000049355E+02 0.  0.
         12    1    1    2    0    0  0.94576865845E+00  0.42953743238E+02 -0.61403418271E+01  0.43400718131E+02  0.00000000000E+00 0. -1.
         11    1    3    3    0    0 -0.48938187976E+01 -0.77299710341E+01  0.35067404546E+01  0.97979152624E+01  0.51100000000E-03 0. -1.
        -11    1    3    3    0    0 -0.21746427597E+01 -0.29068465417E+02  0.10809189317E+01  0.29169729838E+02  0.51100000000E-03 0.  1.
         12    1    3    3    0    0  0.61226928988E+01 -0.61553067865E+01  0.15526824408E+01  0.88196367687E+01  0.00000000000E+00 0. -1.
</event>
<event>
 7    1  0.4450624E-010  0.4778727E+02  0.7816164E-02  0.1312668E+00
        -11   -1    0    0    0    0  0.00000000000E+00  0.00000000000E+00  0.45593999997E+02  0.45594000000E+02  0.51100000000E-03 0. -1.
         11   -1    0    0    0    0 -0.00000000000E+00 -0.00000000000E+00 -0.45593999997E+02  0.45594000000E+02  0.51100000000E-03 0.  1.
    9900012    2    1    2    0    0  0.29363181386E+02  0.19979175992E+02 -0.24945130392E+02  0.47787269307E+02  0.19999992080E+02 0.  0.
         12    1    1    2    0    0 -0.29363181386E+02 -0.19979175992E+02  0.24945130392E+02  0.43400730693E+02  0.00000000000E+00 0. -1.
         11    1    3    3    0    0  0.47260950758E+01  0.50818717523E+01 -0.13410529082E+02  0.15099790915E+02  0.51100000000E-03 0. -1.
        -11    1    3    3    0    0  0.79674920618E+01  0.57264507586E+00 -0.60886927226E+01  0.10043954971E+02  0.51100000000E-03 0.  1.
        -12    1    3    3    0    0  0.16669594248E+02  0.14324659164E+02 -0.54459085872E+01  0.22643523420E+02  0.00000000000E+00 0.  1.
</event>
<event>
 7    1  0.4450624E-010  0.4778727E+02  0.7816164E-02  0.1312668E+00
        -11   -1    0    0    0    0  0.00000000000E+00  0.00000000000E+00  0.45593999997E+02  0.45594000000E+02  0.51100000000E-03 0.  1.
         11   -1    0    0    0    0 -0.00000000000E+00 -0.00000000000E+00 -0.45593999997E+02  0.45594000000E+02  0.51100000000E-03 0. -1.
    9900012    2    1    2    0    0 -0.36369000869E+02  0.22192574252E+01  0.23579518788E+02  0.47787273808E+02  0.20000012599E+02 0.  0.
         12    1    1    2    0    0  0.36369000869E+02 -0.22192574252E+01 -0.23579518788E+02  0.43400726192E+02  0.00000000000E+00 0. -1.
         11    1    3    3    0    0  0.70838576093E-01 -0.20848911721E+01  0.14967491374E+01  0.25674983047E+01  0.51100000000E-03 0. -1.
        -11    1    3    3    0    0 -0.18975903206E+02 -0.38683634023E+01  0.64977060016E+01  0.20427171156E+02  0.51100000000E-03 0.  1.
        -12    1    3    3    0    0 -0.17463936239E+02  0.81725119996E+01  0.15585063649E+02  0.24792604347E+02  0.00000000000E+00 0.  1.
</event>
<event>
 7    1  0.4450624E-010  0.4778729E+02  0.7816164E-02  0.1312668E+00
        -11   -1    0    0    0    0  0.00000000000E+00  0.00000000000E+00  0.45593999997E+02  0.45594000000E+02  0.51100000000E-03 0.  1.
         11   -1    0    0    0    0 -0.00000000000E+00 -0.00000000000E+00 -0.45593999997E+02  0.45594000000E+02  0.51100000000E-03 0. -1.
    9900012    2    1    2    0    0  0.15259110789E+02  0.25721888165E+02  0.31451008644E+02  0.47787286440E+02  0.20000070193E+02 0.  0.
         12    1    1    2    0    0 -0.15259110789E+02 -0.25721888165E+02 -0.31451008644E+02  0.43400713560E+02  0.00000000000E+00 0. -1.
         11    1    3    3    0    0  0.14647442883E+01  0.67825677264E+01  0.95538721463E+01  0.11807843751E+02  0.51100000000E-03 0. -1.
        -11    1    3    3    0    0  0.15769876353E+02  0.20168268373E+02  0.17520464521E+02  0.31022809780E+02  0.51100000000E-03 0.  1.
        -12    1    3    3    0    0 -0.19755098524E+01 -0.12289479346E+01  0.43766719764E+01  0.49566329088E+01  0.00000000000E+00 0.  1.
</event>
<event>
 7    1  0.4450624E-010  0.4778727E+02  0.7816164E-02  0.1312668E+00
        -11   -1    0    0    0    0  0.00000000000E+00  0.00000000000E+00  0.45593999997E+02  0.45594000000E+02  0.51100000000E-03 0.  1.
         11   -1    0    0    0    0 -0.00000000000E+00 -0.00000000000E+00 -0.45593999997E+02  0.45594000000E+02  0.51100000000E-03 0. -1.
    9900012    2    1    2    0    0 -0.14625479341E+02 -0.11798791068E+02  0.39121697548E+02  0.47787270332E+02  0.19999996754E+02 0.  0.
         12    1    1    2    0    0  0.14625479341E+02  0.11798791068E+02 -0.39121697548E+02  0.43400729668E+02  0.00000000000E+00 0. -1.
         11    1    3    3    0    0 -0.86726295213E+01  0.99305787948E+00  0.13661417428E+02  0.16212186563E+02  0.51100000000E-03 0. -1.
        -11    1    3    3    0    0  0.29695553594E+01  0.12955398230E+00  0.40952666412E+01  0.50602620871E+01  0.51100000000E-03 0.  1.
        -12    1    3    3    0    0 -0.89224051794E+01 -0.12921402930E+02  0.21365013479E+02  0.26514821682E+02  0.00000000000E+00 0.  1.
</event>
<event>
 7    1  0.4450624E-010  0.4778728E+02  0.7816164E-02  0.1312668E+00
        -11   -1    0    0    0    0  0.00000000000E+00  0.00000000000E+00  0.45593999997E+02  0.45594000000E+02  0.51100000000E-03 0.  1.
         11   -1    0    0    0    0 -0.00000000000E+00 -0.00000000000E+00 -0.45593999997E+02  0.45594000000E+02  0.51100000000E-03 0. -1.
    9900012    2    1    2    0    0  0.21802332626E+02 -0.66815994947E+01  0.36927458252E+02  0.47787278201E+02  0.20000032628E+02 0.  0.
         12    1    1    2    0    0 -0.21802332626E+02  0.66815994947E+01 -0.36927458252E+02  0.43400721799E+02  0.00000000000E+00 0. -1.
         11    1    3    3    0    0  0.25629111229E+01 -0.45207075608E+01  0.59059299003E+01  0.78667222223E+01  0.51100000000E-03 0. -1.
        -11    1    3    3    0    0  0.82846968265E+00 -0.61950902818E+01  0.69276769201E+01  0.93304990962E+01  0.51100000000E-03 0.  1.
        -12    1    3    3    0    0  0.18410951820E+02  0.40341983479E+01  0.24093851432E+02  0.30590056882E+02  0.00000000000E+00 0.  1.
</event>
<event>
 7    1  0.4450624E-010  0.4778727E+02  0.7816164E-02  0.1312668E+00
        -11   -1    0    0    0    0  0.00000000000E+00  0.00000000000E+00  0.45593999997E+02  0.45594000000E+02  0.51100000000E-03 0.  1.
         11   -1    0    0    0    0 -0.00000000000E+00 -0.00000000000E+00 -0.45593999997E+02  0.45594000000E+02  0.51100000000E-03 0. -1.
    9900012    2    1    2    0    0 -0.12194258863E+02 -0.28935420709E+02  0.29961055417E+02  0.47787270024E+02  0.19999995346E+02 0.  0.
         12    1    1    2    0    0  0.12194258863E+02  0.28935420709E+02 -0.29961055417E+02  0.43400729976E+02  0.00000000000E+00 0. -1.
         11    1    3    3    0    0 -0.11859839645E+02 -0.11413810292E+02  0.14920170378E+02  0.22215812975E+02  0.51100000000E-03 0. -1.
        -11    1    3    3    0    0 -0.10061512739E+01 -0.16460066487E+02  0.16713581925E+02  0.23479564522E+02  0.51100000000E-03 0.  1.
        -12    1    3    3    0    0  0.67173205575E+00 -0.10615439301E+01 -0.16726968859E+01  0.20918925265E+01  0.00000000000E+00 0.  1.
</event>
<event>
 7    1  0.4450624E-010  0.4778727E+02  0.7816164E-02  0.1312668E+00
        -11   -1    0    0    0    0  0.00000000000E+00  0.00000000000E+00  0.45593999997E+02  0.45594000000E+02  0.51100000000E-03 0. -1.
         11   -1    0    0    0    0 -0.00000000000E+00 -0.00000000000E+00 -0.45593999997E+02  0.45594000000E+02  0.51100000000E-03 0.  1.
    9900012    2    1    2    0    0  0.34310370410E+02 -0.26577388646E+02 -0.25349520682E+00  0.47787269998E+02  0.19999995227E+02 0.  0.
         12    1    1    2    0    0 -0.34310370410E+02  0.26577388646E+02  0.25349520682E+00  0.43400730002E+02  0.00000000000E+00 0. -1.
         11    1    3    3    0    0  0.10768288037E+02 -0.79603604818E+00  0.52033702181E+01  0.11986023632E+02  0.51100000000E-03 0.  1.
        -11    1    3    3    0    0  0.10557448895E+01 -0.31559943768E+01  0.45578757061E+00  0.33589641779E+01  0.51100000000E-03 0. -1.
        -12    1    3    3    0    0  0.22486337484E+02 -0.22625358221E+02 -0.59126529955E+01  0.32442282187E+02  0.00000000000E+00 0.  1.
</event>
<event>
 7    1  0.4450624E-010  0.4778727E+02  0.7816164E-02  0.1312668E+00
        -11   -1    0    0    0    0  0.00000000000E+00  0.00000000000E+00  0.45593999997E+02  0.45594000000E+02  0.51100000000E-03 0.  1.
         11   -1    0    0    0    0 -0.00000000000E+00 -0.00000000000E+00 -0.45593999997E+02  0.45594000000E+02  0.51100000000E-03 0. -1.
    9900012    2    1    2    0    0 -0.16282046038E+02  0.39845626498E+02 -0.55537407034E+01  0.47787274085E+02  0.20000013862E+02 0.  0.
         12    1    1    2    0    0  0.16282046038E+02 -0.39845626498E+02  0.55537407034E+01  0.43400725915E+02  0.00000000000E+00 0. -1.
         11    1    3    3    0    0 -0.13480633475E+02  0.22259343181E+02  0.57981207180E+01  0.26661283575E+02  0.51100000000E-03 0. -1.
        -11    1    3    3    0    0 -0.85386293751E+00  0.51390614840E+01 -0.30219911410E+01  0.60225796441E+01  0.51100000000E-03 0.  1.
         12    1    3    3    0    0 -0.19475496258E+01  0.12447221833E+02 -0.83298702805E+01  0.15103410866E+02  0.00000000000E+00 0. -1.
</event>
<event>
 7    1  0.4450624E-010  0.4778727E+02  0.7816164E-02  0.1312668E+00
        -11   -1    0    0    0    0  0.00000000000E+00  0.00000000000E+00  0.45593999997E+02  0.45594000000E+02  0.51100000000E-03 0.  1.
         11   -1    0    0    0    0 -0.00000000000E+00 -0.00000000000E+00 -0.45593999997E+02  0.45594000000E+02  0.51100000000E-03 0. -1.
    9900012    2    1    2    0    0 -0.11480836429E+02 -0.27604734247E+02  0.31460963389E+02  0.47787272180E+02  0.20000005178E+02 0.  0.
         12    1    1    2    0    0  0.11480836429E+02  0.27604734247E+02 -0.31460963389E+02  0.43400727820E+02  0.00000000000E+00 0. -1.
         11    1    3    3    0    0 -0.67612642975E+00  0.14227062429E+01  0.37461586095E+01  0.40638583379E+01  0.51100000000E-03 0. -1.
        -11    1    3    3    0    0 -0.65765584007E+01 -0.50799790822E+01  0.12591442351E+02  0.15086475023E+02  0.51100000000E-03 0.  1.
        -12    1    3    3    0    0 -0.42281515986E+01 -0.23947461408E+02  0.15123362428E+02  0.28636938819E+02  0.00000000000E+00 0.  1.
</event>
<event>
 7    1  0.4450624E-010  0.4778727E+02  0.7816164E-02  0.1312668E+00
        -11   -1    0    0    0    0  0.00000000000E+00  0.00000000000E+00  0.45593999997E+02  0.45594000000E+02  0.51100000000E-03 0.  1.
         11   -1    0    0    0    0 -0.00000000000E+00 -0.00000000000E+00 -0.45593999997E+02  0.45594000000E+02  0.51100000000E-03 0. -1.
    9900012    2    1    2    0    0  0.40318673661E+02 -0.10235597969E+02  0.12379830095E+02  0.47787272992E+02  0.20000008882E+02 0.  0.
         12    1    1    2    0    0 -0.40318673661E+02  0.10235597969E+02 -0.12379830095E+02  0.43400727008E+02  0.00000000000E+00 0. -1.
         11    1    3    3    0    0  0.18653586300E+02 -0.63786144137E+01 -0.14914862952E+00  0.19714594829E+02  0.51100000000E-03 0. -1.
        -11    1    3    3    0    0  0.22232314871E+02 -0.19100767854E+01  0.91196572158E+01  0.24105857501E+02  0.51100000000E-03 0.  1.
        -12    1    3    3    0    0 -0.56722751000E+00 -0.19469067699E+01  0.34093215088E+01  0.39668206626E+01  0.00000000000E+00 0.  1.
</event>
<event>
 7    1  0.4450624E-010  0.4778727E+02  0.7816164E-02  0.1312668E+00
        -11   -1    0    0    0    0  0.00000000000E+00  0.00000000000E+00  0.45593999997E+02  0.45594000000E+02  0.51100000000E-03 0. -1.
         11   -1    0    0    0    0 -0.00000000000E+00 -0.00000000000E+00 -0.45593999997E+02  0.45594000000E+02  0.51100000000E-03 0.  1.
    9900012    2    1    2    0    0 -0.61094798042E+01 -0.47056849275E+01 -0.42710117035E+02  0.47787270614E+02  0.19999998038E+02 0.  0.
         12    1    1    2    0    0  0.61094798042E+01  0.47056849275E+01  0.42710117035E+02  0.43400729386E+02  0.00000000000E+00 0. -1.
         11    1    3    3    0    0 -0.17249108066E+01  0.38608721722E+01 -0.15209041553E+02  0.15785962005E+02  0.51100000000E-03 0. -1.
        -11    1    3    3    0    0 -0.42094316707E+01 -0.17003218016E+01 -0.23740622536E+02  0.24170799902E+02  0.51100000000E-03 0.  1.
         12    1    3    3    0    0 -0.17513732689E+00 -0.68662352981E+01 -0.37604529456E+01  0.78305087068E+01  0.00000000000E+00 0. -1.
</event>
<event>
 7    1  0.4450624E-010  0.4778727E+02  0.7816164E-02  0.1312668E+00
        -11   -1    0    0    0    0  0.00000000000E+00  0.00000000000E+00  0.45593999997E+02  0.45594000000E+02  0.51100000000E-03 0.  1.
         11   -1    0    0    0    0 -0.00000000000E+00 -0.00000000000E+00 -0.45593999997E+02  0.45594000000E+02  0.51100000000E-03 0. -1.
    9900012    2    1    2    0    0  0.22375415253E+02  0.12273597204E+02  0.35104462385E+02  0.47787266418E+02  0.19999978908E+02 0.  0.
         12    1    1    2    0    0 -0.22375415253E+02 -0.12273597204E+02 -0.35104462385E+02  0.43400733582E+02  0.00000000000E+00 0. -1.
         11    1    3    3    0    0  0.13780178443E+01 -0.23572274952E+01  0.55457633843E+01  0.61815003372E+01  0.51100000000E-03 0. -1.
        -11    1    3    3    0    0  0.10449684164E+01  0.64039229910E+01  0.24050464451E+01  0.69200026973E+01  0.51100000000E-03 0.  1.
        -12    1    3    3    0    0  0.19952428992E+02  0.82269017080E+01  0.27153652556E+02  0.34685763384E+02  0.00000000000E+00 0.  1.
</event>
<event>
 7    1  0.4450624E-010  0.4778727E+02  0.7816164E-02  0.1312668E+00
        -11   -1    0    0    0    0  0.00000000000E+00  0.00000000000E+00  0.45593999997E+02  0.45594000000E+02  0.51100000000E-03 0.  1.
         11   -1    0    0    0    0 -0.00000000000E+00 -0.00000000000E+00 -0.45593999997E+02  0.45594000000E+02  0.51100000000E-03 0. -1.
    9900012    2    1    2    0    0  0.46987173272E+01  0.42257711760E+02 -0.87081325414E+01  0.47787265904E+02  0.19999976563E+02 0.  0.
         12    1    1    2    0    0 -0.46987173272E+01 -0.42257711760E+02  0.87081325414E+01  0.43400734096E+02  0.00000000000E+00 0. -1.
         11    1    3    3    0    0  0.93805791618E+01  0.12109132352E+02 -0.62534968779E+01  0.16544865523E+02  0.51100000000E-03 0. -1.
        -11    1    3    3    0    0 -0.79037204780E+00  0.11267234145E+02 -0.38007732369E+01  0.11917261879E+02  0.51100000000E-03 0.  1.
        -12    1    3    3    0    0 -0.38914897867E+01  0.18881345264E+02  0.13461375735E+01  0.19325138501E+02  0.00000000000E+00 0.  1.
</event>
<event>
 7    1  0.4450624E-010  0.4778727E+02  0.7816164E-02  0.1312668E+00
        -11   -1    0    0    0    0  0.00000000000E+00  0.00000000000E+00  0.45593999997E+02  0.45594000000E+02  0.51100000000E-03 0.  1.
         11   -1    0    0    0    0 -0.00000000000E+00 -0.00000000000E+00 -0.45593999997E+02  0.45594000000E+02  0.51100000000E-03 0. -1.
    9900012    2    1    2    0    0 -0.66228228653E+00  0.25248866590E+02  0.35294182870E+02  0.47787271592E+02  0.20000002498E+02 0.  0.
         12    1    1    2    0    0  0.66228228653E+00 -0.25248866590E+02 -0.35294182870E+02  0.43400728408E+02  0.00000000000E+00 0. -1.
         11    1    3    3    0    0 -0.19243851073E+00  0.15564506984E+02  0.10348379793E+02  0.18691706044E+02  0.51100000000E-03 0. -1.
        -11    1    3    3    0    0 -0.25041587421E+01  0.89115705304E+01  0.86959527488E+01  0.12700649385E+02  0.51100000000E-03 0.  1.
         12    1    3    3    0    0  0.20343149663E+01  0.77278907569E+00  0.16249850328E+02  0.16394916164E+02  0.00000000000E+00 0. -1.
</event>
<event>
 7    1  0.4450624E-010  0.4778727E+02  0.7816164E-02  0.1312668E+00
        -11   -1    0    0    0    0  0.00000000000E+00  0.00000000000E+00  0.45593999997E+02  0.45594000000E+02  0.51100000000E-03 0.  1.
         11   -1    0    0    0    0 -0.00000000000E+00 -0.00000000000E+00 -0.45593999997E+02  0.45594000000E+02  0.51100000000E-03 0. -1.
    9900012    2    1    2    0    0  0.27415596911E+02  0.32721532707E+02  0.78300420915E+01  0.47787271713E+02  0.20000003048E+02 0.  0.
         12    1    1    2    0    0 -0.27415596911E+02 -0.32721532707E+02 -0.78300420915E+01  0.43400728287E+02  0.00000000000E+00 0. -1.
         11    1    3    3    0    0  0.12594928111E+02  0.60374760940E+01  0.67486496093E+01  0.15512175976E+02  0.51100000000E-03 0. -1.
        -11    1    3    3    0    0 -0.13025816033E+01  0.18183567202E+01  0.13983687344E+01  0.26379111763E+01  0.51100000000E-03 0.  1.
         12    1    3    3    0    0  0.16123250404E+02  0.24865699893E+02 -0.31697625227E+00  0.29637184561E+02  0.00000000000E+00 0. -1.
</event>
<event>
 7    1  0.4450624E-010  0.4778727E+02  0.7816164E-02  0.1312668E+00
        -11   -1    0    0    0    0  0.00000000000E+00  0.00000000000E+00  0.45593999997E+02  0.45594000000E+02  0.51100000000E-03 0.  1.
         11   -1    0    0    0    0 -0.00000000000E+00 -0.00000000000E+00 -0.45593999997E+02  0.45594000000E+02  0.51100000000E-03 0. -1.
    9900012    2    1    2    0    0  0.73155320517E+01  0.35833175997E+02  0.23368560479E+02  0.47787272700E+02  0.20000007550E+02 0.  0.
         12    1    1    2    0    0 -0.73155320517E+01 -0.35833175997E+02 -0.23368560479E+02  0.43400727300E+02  0.00000000000E+00 0. -1.
         11    1    3    3    0    0  0.26481045846E+01  0.60019415594E+01  0.70753380628E+01  0.96486356205E+01  0.51100000000E-03 0.  1.
        -11    1    3    3    0    0  0.26531432096E+01  0.13072094834E+01 -0.25401006627E+01  0.38987276337E+01  0.51100000000E-03 0. -1.
         12    1    3    3    0    0  0.20142842575E+01  0.28524024955E+02  0.18833323079E+02  0.34239909446E+02  0.00000000000E+00 0. -1.
</event>
<event>
 7    1  0.4450624E-010  0.4778727E+02  0.7816164E-02  0.1312668E+00
        -11   -1    0    0    0    0  0.00000000000E+00  0.00000000000E+00  0.45593999997E+02  0.45594000000E+02  0.51100000000E-03 0.  1.
         11   -1    0    0    0    0 -0.00000000000E+00 -0.00000000000E+00 -0.45593999997E+02  0.45594000000E+02  0.51100000000E-03 0. -1.
    9900012    2    1    2    0    0 -0.49271036062E+01  0.14318919335E+02  0.40673276382E+02  0.47787271752E+02  0.20000003225E+02 0.  0.
         12    1    1    2    0    0  0.49271036062E+01 -0.14318919335E+02 -0.40673276382E+02  0.43400728248E+02  0.00000000000E+00 0. -1.
         11    1    3    3    0    0 -0.10691425062E+02  0.12144138693E+02  0.18444594309E+02  0.24535479085E+02  0.51100000000E-03 0.  1.
        -11    1    3    3    0    0  0.32292356483E+01  0.88259214924E+00  0.69968998638E+01  0.77565159536E+01  0.51100000000E-03 0. -1.
        -12    1    3    3    0    0  0.25350858077E+01  0.12921884924E+01  0.15231782209E+02  0.15495276713E+02  0.00000000000E+00 0.  1.
</event>
<event>
 7    1  0.4450624E-010  0.4778727E+02  0.7816164E-02  0.1312668E+00
        -11   -1    0    0    0    0  0.00000000000E+00  0.00000000000E+00  0.45593999997E+02  0.45594000000E+02  0.51100000000E-03 0.  1.
         11   -1    0    0    0    0 -0.00000000000E+00 -0.00000000000E+00 -0.45593999997E+02  0.45594000000E+02  0.51100000000E-03 0. -1.
    9900012    2    1    2    0    0  0.40728532018E+02  0.14119624552E+02  0.50444435173E+01  0.47787268114E+02  0.19999986640E+02 0.  0.
         12    1    1    2    0    0 -0.40728532018E+02 -0.14119624552E+02 -0.50444435173E+01  0.43400731886E+02  0.00000000000E+00 0. -1.
         11    1    3    3    0    0  0.65108925560E+01  0.78539857081E+01 -0.63366434288E+00  0.10221464872E+02  0.51100000000E-03 0. -1.
        -11    1    3    3    0    0  0.14961158610E+02  0.90583937559E+01  0.45669148538E+01  0.18076157665E+02  0.51100000000E-03 0.  1.
         12    1    3    3    0    0  0.19256480852E+02 -0.27927549123E+01  0.11111930064E+01  0.19489645577E+02  0.00000000000E+00 0. -1.
</event>
<event>
 7    1  0.4450624E-010  0.4778727E+02  0.7816164E-02  0.1312668E+00
        -11   -1    0    0    0    0  0.00000000000E+00  0.00000000000E+00  0.45593999997E+02  0.45594000000E+02  0.51100000000E-03 0.  1.
         11   -1    0    0    0    0 -0.00000000000E+00 -0.00000000000E+00 -0.45593999997E+02  0.45594000000E+02  0.51100000000E-03 0. -1.
    9900012    2    1    2    0    0  0.24559444797E+02  0.76652276173E+01  0.34952845081E+02  0.47787269333E+02  0.19999992197E+02 0.  0.
         12    1    1    2    0    0 -0.24559444797E+02 -0.76652276173E+01 -0.34952845081E+02  0.43400730667E+02  0.00000000000E+00 0. -1.
         11    1    3    3    0    0  0.81325086617E+01  0.68155791672E+00  0.91633285723E+01  0.12270648276E+02  0.51100000000E-03 0.  1.
        -11    1    3    3    0    0  0.35289003116E+00  0.41031749666E+00  0.15130550094E+02  0.15140225831E+02  0.51100000000E-03 0. -1.
         12    1    3    3    0    0  0.16074046104E+02  0.65733522039E+01  0.10658966415E+02  0.20376395226E+02  0.00000000000E+00 0. -1.
</event>
<event>
 7    1  0.4450624E-010  0.4778727E+02  0.7816164E-02  0.1312668E+00
        -11   -1    0    0    0    0  0.00000000000E+00  0.00000000000E+00  0.45593999997E+02  0.45594000000E+02  0.51100000000E-03 0. -1.
         11   -1    0    0    0    0 -0.00000000000E+00 -0.00000000000E+00 -0.45593999997E+02  0.45594000000E+02  0.51100000000E-03 0.  1.
    9900012    2    1    2    0    0 -0.36614492814E+02  0.17049800904E+02 -0.15884150633E+02  0.47787273782E+02  0.20000012482E+02 0.  0.
         12    1    1    2    0    0  0.36614492814E+02 -0.17049800904E+02  0.15884150633E+02  0.43400726218E+02  0.00000000000E+00 0. -1.
         11    1    3    3    0    0 -0.92736464967E+01  0.23744141485E+00  0.23926320434E+01  0.95802706709E+01  0.51100000000E-03 0. -1.
        -11    1    3    3    0    0 -0.96141353710E+01  0.90620139966E+01 -0.29808967049E+01  0.13543907931E+02  0.51100000000E-03 0.  1.
         12    1    3    3    0    0 -0.17726710946E+02  0.77503454927E+01 -0.15295885972E+02  0.24663095181E+02  0.00000000000E+00 0. -1.
</event>
<event>
 7    1  0.4450624E-010  0.4778727E+02  0.7816164E-02  0.1312668E+00
        -11   -1    0    0    0    0  0.00000000000E+00  0.00000000000E+00  0.45593999997E+02  0.45594000000E+02  0.51100000000E-03 0. -1.
         11   -1    0    0    0    0 -0.00000000000E+00 -0.00000000000E+00 -0.45593999997E+02  0.45594000000E+02  0.51100000000E-03 0.  1.
    9900012    2    1    2    0    0  0.22087811744E+02  0.35382670894E+02  0.11992431903E+02  0.47787271317E+02  0.20000001244E+02 0.  0.
         12    1    1    2    0    0 -0.22087811744E+02 -0.35382670894E+02 -0.11992431903E+02  0.43400728683E+02  0.00000000000E+00 0. -1.
         11    1    3    3    0    0 -0.13955994769E+01  0.38587369638E+01  0.26153245439E+00  0.41116843680E+01  0.51100000000E-03 0. -1.
        -11    1    3    3    0    0  0.60178308940E+01  0.19138361418E+02  0.20157795625E+01  0.20163197513E+02  0.51100000000E-03 0.  1.
         12    1    3    3    0    0  0.17465580327E+02  0.12385572512E+02  0.97151198864E+01  0.23512389437E+02  0.00000000000E+00 0. -1.
</event>
<event>
 7    1  0.4450624E-010  0.4778727E+02  0.7816164E-02  0.1312668E+00
        -11   -1    0    0    0    0  0.00000000000E+00  0.00000000000E+00  0.45593999997E+02  0.45594000000E+02  0.51100000000E-03 0.  1.
         11   -1    0    0    0    0 -0.00000000000E+00 -0.00000000000E+00 -0.45593999997E+02  0.45594000000E+02  0.51100000000E-03 0. -1.
    9900012    2    1    2    0    0 -0.25739027082E+02 -0.34361712630E+02  0.63560016110E+01  0.47787267674E+02  0.19999984632E+02 0.  0.
         12    1    1    2    0    0  0.25739027082E+02  0.34361712630E+02 -0.63560016110E+01  0.43400732326E+02  0.00000000000E+00 0. -1.
         11    1    3    3    0    0 -0.47912762448E+01 -0.77001724916E+01  0.45640354615E+01  0.10152802786E+02  0.51100000000E-03 0. -1.
        -11    1    3    3    0    0 -0.20314105136E+02 -0.25155315120E+02  0.62095630439E+01  0.32924328690E+02  0.51100000000E-03 0.  1.
         12    1    3    3    0    0 -0.63364570074E+00 -0.15062250186E+01 -0.44175968944E+01  0.47101361978E+01  0.00000000000E+00 0. -1.
</event>
<event>
 7    1  0.4450624E-010  0.4778728E+02  0.7816164E-02  0.1312668E+00
        -11   -1    0    0    0    0  0.00000000000E+00  0.00000000000E+00  0.45593999997E+02  0.45594000000E+02  0.51100000000E-03 0.  1.
         11   -1    0    0    0    0 -0.00000000000E+00 -0.00000000000E+00 -0.45593999997E+02  0.45594000000E+02  0.51100000000E-03 0. -1.
    9900012    2    1    2    0    0  0.32702799205E+01 -0.33966903049E+02  0.26817488617E+02  0.47787275015E+02  0.20000018103E+02 0.  0.
         12    1    1    2    0    0 -0.32702799205E+01  0.33966903049E+02 -0.26817488617E+02  0.43400724985E+02  0.00000000000E+00 0. -1.
         11    1    3    3    0    0  0.83273222918E+00  0.79338293303E-01 -0.12756306328E+01  0.15254413469E+01  0.51100000000E-03 0. -1.
        -11    1    3    3    0    0  0.42474435343E+00 -0.53885988773E+01 -0.86154894726E+00  0.54735429546E+01  0.51100000000E-03 0.  1.
        -12    1    3    3    0    0  0.20128033379E+01 -0.28657642465E+02  0.28954668197E+02  0.40788290713E+02  0.00000000000E+00 0.  1.
</event>
<event>
 7    1  0.4450624E-010  0.4778727E+02  0.7816164E-02  0.1312668E+00
        -11   -1    0    0    0    0  0.00000000000E+00  0.00000000000E+00  0.45593999997E+02  0.45594000000E+02  0.51100000000E-03 0.  1.
         11   -1    0    0    0    0 -0.00000000000E+00 -0.00000000000E+00 -0.45593999997E+02  0.45594000000E+02  0.51100000000E-03 0. -1.
    9900012    2    1    2    0    0  0.22183954442E+02  0.36872889400E+02  0.56467087431E+01  0.47787272736E+02  0.20000007714E+02 0.  0.
         12    1    1    2    0    0 -0.22183954442E+02 -0.36872889400E+02 -0.56467087431E+01  0.43400727264E+02  0.00000000000E+00 0. -1.
         11    1    3    3    0    0  0.12560748140E+02  0.25379699129E+02 -0.32499990211E+01  0.28503754412E+02  0.51100000000E-03 0. -1.
        -11    1    3    3    0    0 -0.10798782596E+01  0.27837900961E+01  0.24339402179E+00  0.29958079488E+01  0.51100000000E-03 0.  1.
        -12    1    3    3    0    0  0.10703084562E+02  0.87094001748E+01  0.86533137425E+01  0.16287710375E+02  0.00000000000E+00 0.  1.
</event>
<event>
 7    1  0.4450624E-010  0.4778727E+02  0.7816164E-02  0.1312668E+00
        -11   -1    0    0    0    0  0.00000000000E+00  0.00000000000E+00  0.45593999997E+02  0.45594000000E+02  0.51100000000E-03 0.  1.
         11   -1    0    0    0    0 -0.00000000000E+00 -0.00000000000E+00 -0.45593999997E+02  0.45594000000E+02  0.51100000000E-03 0. -1.
    9900012    2    1    2    0    0  0.42097398118E+02  0.10069245036E+02  0.31689831949E+01  0.47787273297E+02  0.20000010270E+02 0.  0.
         12    1    1    2    0    0 -0.42097398118E+02 -0.10069245036E+02 -0.31689831949E+01  0.43400726703E+02  0.00000000000E+00 0. -1.
         11    1    3    3    0    0  0.17682263976E+01  0.45763712267E+01  0.23458540390E+01  0.54380906236E+01  0.51100000000E-03 0. -1.
        -11    1    3    3    0    0  0.12172852640E+02  0.34678365400E+01  0.53828570233E+01  0.13754249585E+02  0.51100000000E-03 0.  1.
        -12    1    3    3    0    0  0.28156319080E+02  0.20250372692E+01 -0.45597278674E+01  0.28594933088E+02  0.00000000000E+00 0.  1.
</event>
<event>
 7    1  0.4450624E-010  0.4778728E+02  0.7816164E-02  0.1312668E+00
        -11   -1    0    0    0    0  0.00000000000E+00  0.00000000000E+00  0.45593999997E+02  0.45594000000E+02  0.51100000000E-03 0.  1.
         11   -1    0    0    0    0 -0.00000000000E+00 -0.00000000000E+00 -0.45593999997E+02  0.45594000000E+02  0.51100000000E-03 0. -1.
    9900012    2    1    2    0    0 -0.15449155594E+01  0.10026360992E+02  0.42198437008E+02  0.47787276910E+02  0.20000026742E+02 0.  0.
         12    1    1    2    0    0  0.15449155594E+01 -0.10026360992E+02 -0.42198437008E+02  0.43400723090E+02  0.00000000000E+00 0. -1.
         11    1    3    3    0    0 -0.60265476498E+01  0.36212098724E+01  0.21333559365E+02  0.22462261529E+02  0.51100000000E-03 0. -1.
        -11    1    3    3    0    0  0.45762267504E+01  0.28460426701E+01  0.21080205098E+02  0.21758144622E+02  0.51100000000E-03 0.  1.
         12    1    3    3    0    0 -0.94594660041E-01  0.35591084491E+01 -0.21532745472E+00  0.35668707595E+01  0.00000000000E+00 0. -1.
</event>
<event>
 7    1  0.4450624E-010  0.4778729E+02  0.7816164E-02  0.1312668E+00
        -11   -1    0    0    0    0  0.00000000000E+00  0.00000000000E+00  0.45593999997E+02  0.45594000000E+02  0.51100000000E-03 0. -1.
         11   -1    0    0    0    0 -0.00000000000E+00 -0.00000000000E+00 -0.45593999997E+02  0.45594000000E+02  0.51100000000E-03 0.  1.
    9900012    2    1    2    0    0  0.28475336550E+02  0.19431076747E+01 -0.32695581211E+02  0.47787291598E+02  0.20000093711E+02 0.  0.
         12    1    1    2    0    0 -0.28475336550E+02 -0.19431076747E+01  0.32695581211E+02  0.43400708402E+02  0.00000000000E+00 0. -1.
         11    1    3    3    0    0  0.63913932884E+01  0.41008581298E+01 -0.14313714353E+02  0.16203375093E+02  0.51100000000E-03 0. -1.
        -11    1    3    3    0    0  0.77468395575E+01 -0.50178788663E+01 -0.13130008781E+02  0.16049603182E+02  0.51100000000E-03 0.  1.
         12    1    3    3    0    0  0.14337103704E+02  0.28601284111E+01 -0.52518580769E+01  0.15534313323E+02  0.00000000000E+00 0. -1.
</event>
<event>
 7    1  0.4450624E-010  0.4778727E+02  0.7816164E-02  0.1312668E+00
        -11   -1    0    0    0    0  0.00000000000E+00  0.00000000000E+00  0.45593999997E+02  0.45594000000E+02  0.51100000000E-03 0. -1.
         11   -1    0    0    0    0 -0.00000000000E+00 -0.00000000000E+00 -0.45593999997E+02  0.45594000000E+02  0.51100000000E-03 0.  1.
    9900012    2    1    2    0    0 -0.71391560600E+01 -0.83433436953E+00 -0.42801397251E+02  0.47787271093E+02  0.20000000219E+02 0.  0.
         12    1    1    2    0    0  0.71391560600E+01  0.83433436953E+00  0.42801397251E+02  0.43400728907E+02  0.00000000000E+00 0. -1.
         11    1    3    3    0    0 -0.34908293534E+00  0.22059806709E+01 -0.52730568681E+00  0.22948335810E+01  0.51100000000E-03 0. -1.
        -11    1    3    3    0    0 -0.52030197003E+01 -0.52832696334E+01 -0.72828104313E+01  0.10393444090E+02  0.51100000000E-03 0.  1.
        -12    1    3    3    0    0 -0.15870534244E+01  0.22429545930E+01 -0.34991281133E+02  0.35098993421E+02  0.00000000000E+00 0.  1.
</event>
<event>
 7    1  0.4450624E-010  0.4778725E+02  0.7816164E-02  0.1312668E+00
        -11   -1    0    0    0    0  0.00000000000E+00  0.00000000000E+00  0.45593999997E+02  0.45594000000E+02  0.51100000000E-03 0.  1.
         11   -1    0    0    0    0 -0.00000000000E+00 -0.00000000000E+00 -0.45593999997E+02  0.45594000000E+02  0.51100000000E-03 0. -1.
    9900012    2    1    2    0    0  0.15927512246E+02 -0.32671125596E+02  0.23717854950E+02  0.47787254183E+02  0.19999923123E+02 0.  0.
         12    1    1    2    0    0 -0.15927512246E+02  0.32671125596E+02 -0.23717854950E+02  0.43400745817E+02  0.00000000000E+00 0. -1.
         11    1    3    3    0    0  0.20431421524E+01 -0.13124547205E+02  0.14822239230E+02  0.19902938106E+02  0.51100000000E-03 0. -1.
        -11    1    3    3    0    0  0.43319381373E+00  0.13797425960E+01 -0.53129526869E-01  0.14471245694E+01  0.51100000000E-03 0.  1.
        -12    1    3    3    0    0  0.13451176280E+02 -0.20926320987E+02  0.89487452471E+01  0.26437191508E+02  0.00000000000E+00 0.  1.
</event>
<event>
 7    1  0.4450624E-010  0.4778728E+02  0.7816164E-02  0.1312668E+00
        -11   -1    0    0    0    0  0.00000000000E+00  0.00000000000E+00  0.45593999997E+02  0.45594000000E+02  0.51100000000E-03 0.  1.
         11   -1    0    0    0    0 -0.00000000000E+00 -0.00000000000E+00 -0.45593999997E+02  0.45594000000E+02  0.51100000000E-03 0. -1.
    9900012    2    1    2    0    0  0.82080577747E+01  0.39260509403E+01  0.42436265362E+02  0.47787277583E+02  0.20000029812E+02 0.  0.
         12    1    1    2    0    0 -0.82080577747E+01 -0.39260509403E+01 -0.42436265362E+02  0.43400722417E+02  0.00000000000E+00 0. -1.
         11    1    3    3    0    0  0.29852986658E+01 -0.36918817238E-01  0.17465154443E+00  0.29906311284E+01  0.51100000000E-03 0. -1.
        -11    1    3    3    0    0  0.12137322480E+00  0.77095080495E+01  0.30276883111E+02  0.31243253623E+02  0.51100000000E-03 0.  1.
        -12    1    3    3    0    0  0.51013858841E+01 -0.37465382920E+01  0.11984730707E+02  0.13553392831E+02  0.00000000000E+00 0.  1.
</event>
<event>
 7    1  0.4450624E-010  0.4778727E+02  0.7816164E-02  0.1312668E+00
        -11   -1    0    0    0    0  0.00000000000E+00  0.00000000000E+00  0.45593999997E+02  0.45594000000E+02  0.51100000000E-03 0. -1.
         11   -1    0    0    0    0 -0.00000000000E+00 -0.00000000000E+00 -0.45593999997E+02  0.45594000000E+02  0.51100000000E-03 0.  1.
    9900012    2    1    2    0    0  0.84658281398E+01 -0.27361653710E+02 -0.32608176970E+02  0.47787267919E+02  0.19999985749E+02 0.  0.
         12    1    1    2    0    0 -0.84658281398E+01  0.27361653710E+02  0.32608176970E+02  0.43400732081E+02  0.00000000000E+00 0. -1.
         11    1    3    3    0    0  0.40492516058E+01 -0.11359767496E+02 -0.57990161976E+01  0.13381679463E+02  0.51100000000E-03 0. -1.
        -11    1    3    3    0    0 -0.17667630011E+01 -0.65426157052E+01 -0.18774579545E+01  0.70322201616E+01  0.51100000000E-03 0.  1.
        -12    1    3    3    0    0  0.61833395351E+01 -0.94592705092E+01 -0.24931702818E+02  0.27373368294E+02  0.00000000000E+00 0.  1.
</event>
<event>
 7    1  0.4450624E-010  0.4778727E+02  0.7816164E-02  0.1312668E+00
        -11   -1    0    0    0    0  0.00000000000E+00  0.00000000000E+00  0.45593999997E+02  0.45594000000E+02  0.51100000000E-03 0.  1.
         11   -1    0    0    0    0 -0.00000000000E+00 -0.00000000000E+00 -0.45593999997E+02  0.45594000000E+02  0.51100000000E-03 0. -1.
    9900012    2    1    2    0    0 -0.37872954764E+02  0.19446236162E+02  0.84324647314E+01  0.47787271148E+02  0.20000000472E+02 0.  0.
         12    1    1    2    0    0  0.37872954764E+02 -0.19446236162E+02 -0.84324647314E+01  0.43400728852E+02  0.00000000000E+00 0. -1.
         11    1    3    3    0    0 -0.75607431717E+01 -0.12141330868E+00  0.21898677037E+01  0.78724265205E+01  0.51100000000E-03 0. -1.
        -11    1    3    3    0    0 -0.12657295721E+02  0.82471336387E-01  0.49441796539E+01  0.13588923769E+02  0.51100000000E-03 0.  1.
        -12    1    3    3    0    0 -0.17654915871E+02  0.19485178135E+02  0.12984173738E+01  0.26325920858E+02  0.00000000000E+00 0.  1.
</event>
<event>
 7    1  0.4450624E-010  0.4778728E+02  0.7816164E-02  0.1312668E+00
        -11   -1    0    0    0    0  0.00000000000E+00  0.00000000000E+00  0.45593999997E+02  0.45594000000E+02  0.51100000000E-03 0.  1.
         11   -1    0    0    0    0 -0.00000000000E+00 -0.00000000000E+00 -0.45593999997E+02  0.45594000000E+02  0.51100000000E-03 0. -1.
    9900012    2    1    2    0    0 -0.97490843039E+01  0.26206242415E+02  0.33193531466E+02  0.47787282063E+02  0.20000050239E+02 0.  0.
         12    1    1    2    0    0  0.97490843039E+01 -0.26206242415E+02 -0.33193531466E+02  0.43400717937E+02  0.00000000000E+00 0. -1.
         11    1    3    3    0    0  0.14723726420E+00  0.18505014540E+01  0.52426723625E+01  0.55616228032E+01  0.51100000000E-03 0. -1.
        -11    1    3    3    0    0  0.20031624144E+01  0.69281724586E+01  0.16965997214E+02  0.18435218876E+02  0.51100000000E-03 0.  1.
         12    1    3    3    0    0 -0.11899483982E+02  0.17427568502E+02  0.10984861889E+02  0.23790440384E+02  0.00000000000E+00 0. -1.
</event>
<event>
 7    1  0.4450624E-010  0.4778729E+02  0.7816164E-02  0.1312668E+00
        -11   -1    0    0    0    0  0.00000000000E+00  0.00000000000E+00  0.45593999997E+02  0.45594000000E+02  0.51100000000E-03 0.  1.
         11   -1    0    0    0    0 -0.00000000000E+00 -0.00000000000E+00 -0.45593999997E+02  0.45594000000E+02  0.51100000000E-03 0. -1.
    9900012    2    1    2    0    0 -0.15946511240E+02 -0.22112536701E+02  0.33769312959E+02  0.47787285745E+02  0.20000067026E+02 0.  0.
         12    1    1    2    0    0  0.15946511240E+02  0.22112536701E+02 -0.33769312959E+02  0.43400714255E+02  0.00000000000E+00 0. -1.
         11    1    3    3    0    0 -0.86742779202E+01 -0.10347412226E+02  0.15514205201E+02  0.20567027021E+02  0.51100000000E-03 0.  1.
        -11    1    3    3    0    0 -0.37403488429E+01 -0.14132770504E+02  0.93542124893E+01  0.17355883819E+02  0.51100000000E-03 0. -1.
         12    1    3    3    0    0 -0.35318844771E+01  0.23676460282E+01  0.89008952688E+01  0.98643749047E+01  0.00000000000E+00 0. -1.
</event>
<event>
 7    1  0.4450624E-010  0.4778727E+02  0.7816164E-02  0.1312668E+00
        -11   -1    0    0    0    0  0.00000000000E+00  0.00000000000E+00  0.45593999997E+02  0.45594000000E+02  0.51100000000E-03 0. -1.
         11   -1    0    0    0    0 -0.00000000000E+00 -0.00000000000E+00 -0.45593999997E+02  0.45594000000E+02  0.51100000000E-03 0.  1.
    9900012    2    1    2    0    0  0.71400316545E+01 -0.41538741044E+02 -0.10352587608E+02  0.47787272705E+02  0.20000007571E+02 0.  0.
         12    1    1    2    0    0 -0.71400316545E+01  0.41538741044E+02  0.10352587608E+02  0.43400727295E+02  0.00000000000E+00 0. -1.
         11    1    3    3    0    0  0.80418904373E+01 -0.12594149702E+02 -0.74204863827E+01  0.16683771364E+02  0.51100000000E-03 0. -1.
        -11    1    3    3    0    0  0.32559950940E+01 -0.69067631435E+01  0.24885871950E+01  0.80310614280E+01  0.51100000000E-03 0.  1.
        -12    1    3    3    0    0 -0.41578538768E+01 -0.22037828199E+02 -0.54206884199E+01  0.23072439913E+02  0.00000000000E+00 0.  1.
</event>
<event>
 7    1  0.4450624E-010  0.4778728E+02  0.7816164E-02  0.1312668E+00
        -11   -1    0    0    0    0  0.00000000000E+00  0.00000000000E+00  0.45593999997E+02  0.45594000000E+02  0.51100000000E-03 0. -1.
         11   -1    0    0    0    0 -0.00000000000E+00 -0.00000000000E+00 -0.45593999997E+02  0.45594000000E+02  0.51100000000E-03 0.  1.
    9900012    2    1    2    0    0 -0.22551327330E+02  0.31392550862E+02 -0.19737484583E+02  0.47787275217E+02  0.20000019025E+02 0.  0.
         12    1    1    2    0    0  0.22551327330E+02 -0.31392550862E+02  0.19737484583E+02  0.43400724783E+02  0.00000000000E+00 0. -1.
         11    1    3    3    0    0 -0.53213889185E+00  0.98434307129E+01 -0.80914397582E+01  0.12753340646E+02  0.51100000000E-03 0.  1.
        -11    1    3    3    0    0 -0.19830580472E+01  0.14578837342E+01  0.23433296648E+01  0.33984023276E+01  0.51100000000E-03 0. -1.
        -12    1    3    3    0    0 -0.20036130391E+02  0.20091236415E+02 -0.13989374490E+02  0.31635532244E+02  0.00000000000E+00 0.  1.
</event>
<event>
 7    1  0.4450624E-010  0.4778728E+02  0.7816164E-02  0.1312668E+00
        -11   -1    0    0    0    0  0.00000000000E+00  0.00000000000E+00  0.45593999997E+02  0.45594000000E+02  0.51100000000E-03 0.  1.
         11   -1    0    0    0    0 -0.00000000000E+00 -0.00000000000E+00 -0.45593999997E+02  0.45594000000E+02  0.51100000000E-03 0. -1.
    9900012    2    1    2    0    0 -0.28436636996E+02 -0.97797178908E+01  0.31294359321E+02  0.47787284211E+02  0.20000060030E+02 0.  0.
         12    1    1    2    0    0  0.28436636996E+02  0.97797178908E+01 -0.31294359321E+02  0.43400715789E+02  0.00000000000E+00 0. -1.
         11    1    3    3    0    0 -0.75627128658E+01  0.23334371650E+01  0.98211069616E+01  0.12613234998E+02  0.51100000000E-03 0. -1.
        -11    1    3    3    0    0 -0.25857647738E+01 -0.34086149574E+01  0.12142258279E+02  0.12873976533E+02  0.51100000000E-03 0.  1.
         12    1    3    3    0    0 -0.18288159357E+02 -0.87045400984E+01  0.93309940803E+01  0.22300072680E+02  0.00000000000E+00 0. -1.
</event>
<event>
 7    1  0.4450624E-010  0.4778727E+02  0.7816164E-02  0.1312668E+00
        -11   -1    0    0    0    0  0.00000000000E+00  0.00000000000E+00  0.45593999997E+02  0.45594000000E+02  0.51100000000E-03 0.  1.
         11   -1    0    0    0    0 -0.00000000000E+00 -0.00000000000E+00 -0.45593999997E+02  0.45594000000E+02  0.51100000000E-03 0. -1.
    9900012    2    1    2    0    0  0.41445943986E+02  0.91401036428E+01  0.90727915764E+01  0.47787270577E+02  0.19999997868E+02 0.  0.
         12    1    1    2    0    0 -0.41445943986E+02 -0.91401036428E+01 -0.90727915764E+01  0.43400729423E+02  0.00000000000E+00 0. -1.
         11    1    3    3    0    0  0.82405666940E+01 -0.70475802274E+00  0.67033054245E+00  0.82977687727E+01  0.51100000000E-03 0. -1.
        -11    1    3    3    0    0  0.21675675165E+02  0.68294121609E+01 -0.30878479903E+01  0.22934920314E+02  0.51100000000E-03 0.  1.
        -12    1    3    3    0    0  0.11529702126E+02  0.30154495046E+01  0.11490309024E+02  0.16554581490E+02  0.00000000000E+00 0.  1.
</event>
<event>
 7    1  0.4450624E-010  0.4778726E+02  0.7816164E-02  0.1312668E+00
        -11   -1    0    0    0    0  0.00000000000E+00  0.00000000000E+00  0.45593999997E+02  0.45594000000E+02  0.51100000000E-03 0. -1.
         11   -1    0    0    0    0 -0.00000000000E+00 -0.00000000000E+00 -0.45593999997E+02  0.45594000000E+02  0.51100000000E-03 0.  1.
    9900012    2    1    2    0    0  0.26660800938E+02 -0.34149623859E+02  0.25746440553E+01  0.47787263735E+02  0.19999966672E+02 0.  0.
         12    1    1    2    0    0 -0.26660800938E+02  0.34149623859E+02 -0.25746440553E+01  0.43400736265E+02  0.00000000000E+00 0. -1.
         11    1    3    3    0    0  0.14573746595E+02 -0.12248269491E+02  0.36021550414E+01  0.19374976556E+02  0.51100000000E-03 0.  1.
        -11    1    3    3    0    0  0.38065443434E+01 -0.47844256996E+00  0.32761870813E+01  0.50450063611E+01  0.51100000000E-03 0. -1.
        -12    1    3    3    0    0  0.82805099998E+01 -0.21422911798E+02 -0.43036980674E+01  0.23367280818E+02  0.00000000000E+00 0.  1.
</event>
<event>
 7    1  0.4450624E-010  0.4778727E+02  0.7816164E-02  0.1312668E+00
        -11   -1    0    0    0    0  0.00000000000E+00  0.00000000000E+00  0.45593999997E+02  0.45594000000E+02  0.51100000000E-03 0.  1.
         11   -1    0    0    0    0 -0.00000000000E+00 -0.00000000000E+00 -0.45593999997E+02  0.45594000000E+02  0.51100000000E-03 0. -1.
    9900012    2    1    2    0    0 -0.99161346958E+01 -0.13117575728E+01  0.42232368500E+02  0.47787269772E+02  0.19999994199E+02 0.  0.
         12    1    1    2    0    0  0.99161346958E+01  0.13117575728E+01 -0.42232368500E+02  0.43400730228E+02  0.00000000000E+00 0. -1.
         11    1    3    3    0    0  0.36820041303E+00  0.22234351717E+01  0.11498766670E+00  0.22566474983E+01  0.51100000000E-03 0. -1.
        -11    1    3    3    0    0 -0.78467557067E+01  0.21210500586E+01  0.10291886978E+02  0.13114624139E+02  0.51100000000E-03 0.  1.
        -12    1    3    3    0    0 -0.24375794021E+01 -0.56562428032E+01  0.31825493854E+02  0.32415998135E+02  0.00000000000E+00 0.  1.
</event>
<event>
 7    1  0.4450624E-010  0.4778727E+02  0.7816164E-02  0.1312668E+00
        -11   -1    0    0    0    0  0.00000000000E+00  0.00000000000E+00  0.45593999997E+02  0.45594000000E+02  0.51100000000E-03 0.  1.
         11   -1    0    0    0    0 -0.00000000000E+00 -0.00000000000E+00 -0.45593999997E+02  0.45594000000E+02  0.51100000000E-03 0. -1.
    9900012    2    1    2    0    0  0.38052392223E+02  0.16930553736E+02  0.12206359097E+02  0.47787269522E+02  0.19999993056E+02 0.  0.
         12    1    1    2    0    0 -0.38052392223E+02 -0.16930553736E+02 -0.12206359097E+02  0.43400730478E+02  0.00000000000E+00 0. -1.
         11    1    3    3    0    0  0.63550529189E+01  0.66049900770E+01 -0.24424765589E+01  0.94856883526E+01  0.51100000000E-03 0. -1.
        -11    1    3    3    0    0  0.13467617896E+02  0.10617974523E+02  0.74983848927E+01  0.18717475551E+02  0.51100000000E-03 0.  1.
         12    1    3    3    0    0  0.18229721408E+02 -0.29241086419E+00  0.71504507632E+01  0.19584105618E+02  0.00000000000E+00 0. -1.
</event>
<event>
 7    1  0.4450624E-010  0.4778727E+02  0.7816164E-02  0.1312668E+00
        -11   -1    0    0    0    0  0.00000000000E+00  0.00000000000E+00  0.45593999997E+02  0.45594000000E+02  0.51100000000E-03 0.  1.
         11   -1    0    0    0    0 -0.00000000000E+00 -0.00000000000E+00 -0.45593999997E+02  0.45594000000E+02  0.51100000000E-03 0. -1.
    9900012    2    1    2    0    0 -0.12375615270E+02 -0.12401488376E+02  0.39707311197E+02  0.47787270401E+02  0.19999997067E+02 0.  0.
         12    1    1    2    0    0  0.12375615270E+02  0.12401488376E+02 -0.39707311197E+02  0.43400729599E+02  0.00000000000E+00 0. -1.
         11    1    3    3    0    0 -0.38302203464E+01  0.19870412683E+01  0.16589464556E+02  0.17141448464E+02  0.51100000000E-03 0. -1.
        -11    1    3    3    0    0 -0.30422724804E+01 -0.13118359451E+00  0.10168945991E+02  0.10615088026E+02  0.51100000000E-03 0.  1.
        -12    1    3    3    0    0 -0.55031224431E+01 -0.14257346050E+02  0.12948900650E+02  0.20030733912E+02  0.00000000000E+00 0.  1.
</event>
<event>
 7    1  0.4450624E-010  0.4778727E+02  0.7816164E-02  0.1312668E+00
        -11   -1    0    0    0    0  0.00000000000E+00  0.00000000000E+00  0.45593999997E+02  0.45594000000E+02  0.51100000000E-03 0.  1.
         11   -1    0    0    0    0 -0.00000000000E+00 -0.00000000000E+00 -0.45593999997E+02  0.45594000000E+02  0.51100000000E-03 0. -1.
    9900012    2    1    2    0    0  0.25857166473E+02  0.14685188666E+02  0.31612896500E+02  0.47787273632E+02  0.20000011799E+02 0.  0.
         12    1    1    2    0    0 -0.25857166473E+02 -0.14685188666E+02 -0.31612896500E+02  0.43400726368E+02  0.00000000000E+00 0. -1.
         11    1    3    3    0    0  0.36489339462E+01  0.52283306024E+01  0.11861282960E+02  0.13466261305E+02  0.51100000000E-03 0. -1.
        -11    1    3    3    0    0  0.65605026498E+01  0.93051935109E+01  0.38696368750E+01  0.12025011896E+02  0.51100000000E-03 0.  1.
         12    1    3    3    0    0  0.15647729877E+02  0.15166455240E+00  0.15881976665E+02  0.22296000431E+02  0.00000000000E+00 0. -1.
</event>
<event>
 7    1  0.4450624E-010  0.4778727E+02  0.7816164E-02  0.1312668E+00
        -11   -1    0    0    0    0  0.00000000000E+00  0.00000000000E+00  0.45593999997E+02  0.45594000000E+02  0.51100000000E-03 0.  1.
         11   -1    0    0    0    0 -0.00000000000E+00 -0.00000000000E+00 -0.45593999997E+02  0.45594000000E+02  0.51100000000E-03 0. -1.
    9900012    2    1    2    0    0  0.24494325416E+02 -0.17181010269E+00  0.35827667846E+02  0.47787270979E+02  0.19999999700E+02 0.  0.
         12    1    1    2    0    0 -0.24494325416E+02  0.17181010269E+00 -0.35827667846E+02  0.43400729021E+02  0.00000000000E+00 0. -1.
         11    1    3    3    0    0  0.14423634720E+02 -0.24911612279E+01  0.13701212693E+02  0.20049198296E+02  0.51100000000E-03 0. -1.
        -11    1    3    3    0    0  0.76880547580E+01  0.33719703939E+01  0.37785341819E+01  0.92061767919E+01  0.51100000000E-03 0.  1.
         12    1    3    3    0    0  0.23826359378E+01 -0.10526192687E+01  0.18347920971E+02  0.18531895891E+02  0.00000000000E+00 0. -1.
</event>
<event>
 7    1  0.4450624E-010  0.4778727E+02  0.7816164E-02  0.1312668E+00
        -11   -1    0    0    0    0  0.00000000000E+00  0.00000000000E+00  0.45593999997E+02  0.45594000000E+02  0.51100000000E-03 0.  1.
         11   -1    0    0    0    0 -0.00000000000E+00 -0.00000000000E+00 -0.45593999997E+02  0.45594000000E+02  0.51100000000E-03 0. -1.
    9900012    2    1    2    0    0  0.14629596565E+02 -0.14536776443E+02  0.38187435727E+02  0.47787271752E+02  0.20000003227E+02 0.  0.
         12    1    1    2    0    0 -0.14629596565E+02  0.14536776443E+02 -0.38187435727E+02  0.43400728248E+02  0.00000000000E+00 0. -1.
         11    1    3    3    0    0  0.19905237834E+01 -0.86869610232E+01  0.63354683600E+01  0.10934515826E+02  0.51100000000E-03 0. -1.
        -11    1    3    3    0    0  0.36673702580E+01 -0.32643624437E+01  0.15555995677E+01  0.51502967924E+01  0.51100000000E-03 0.  1.
        -12    1    3    3    0    0  0.89717025234E+01 -0.25854529761E+01  0.30296367800E+02  0.31702459134E+02  0.00000000000E+00 0.  1.
</event>
<event>
 7    1  0.4450624E-010  0.4778727E+02  0.7816164E-02  0.1312668E+00
        -11   -1    0    0    0    0  0.00000000000E+00  0.00000000000E+00  0.45593999997E+02  0.45594000000E+02  0.51100000000E-03 0.  1.
         11   -1    0    0    0    0 -0.00000000000E+00 -0.00000000000E+00 -0.45593999997E+02  0.45594000000E+02  0.51100000000E-03 0. -1.
    9900012    2    1    2    0    0  0.15387417160E+02 -0.39828400925E+02 -0.77813132257E+01  0.47787274630E+02  0.20000016350E+02 0.  0.
         12    1    1    2    0    0 -0.15387417160E+02  0.39828400925E+02  0.77813132257E+01  0.43400725370E+02  0.00000000000E+00 0. -1.
         11    1    3    3    0    0  0.13395633016E+02 -0.27873249535E+02 -0.10048224027E+02  0.32516577770E+02  0.51100000000E-03 0.  1.
        -11    1    3    3    0    0  0.49751935679E+01 -0.66494616491E+01 -0.99624258245E+00  0.83642328283E+01  0.51100000000E-03 0. -1.
        -12    1    3    3    0    0 -0.29834094239E+01 -0.53056897412E+01  0.32631533838E+01  0.69064640321E+01  0.00000000000E+00 0.  1.
</event>
<event>
 7    1  0.4450624E-010  0.4778727E+02  0.7816164E-02  0.1312668E+00
        -11   -1    0    0    0    0  0.00000000000E+00  0.00000000000E+00  0.45593999997E+02  0.45594000000E+02  0.51100000000E-03 0. -1.
         11   -1    0    0    0    0 -0.00000000000E+00 -0.00000000000E+00 -0.45593999997E+02  0.45594000000E+02  0.51100000000E-03 0.  1.
    9900012    2    1    2    0    0 -0.62473858990E+00  0.43271883873E+02  0.32829058956E+01  0.47787266097E+02  0.19999977441E+02 0.  0.
         12    1    1    2    0    0  0.62473858990E+00 -0.43271883873E+02 -0.32829058956E+01  0.43400733903E+02  0.00000000000E+00 0. -1.
         11    1    3    3    0    0 -0.83452820431E+00  0.45117276463E+01 -0.10728444606E+01  0.47120185882E+01  0.51100000000E-03 0. -1.
        -11    1    3    3    0    0 -0.49558665999E+01  0.14563565915E+02  0.91128687842E+01  0.17880224933E+02  0.51100000000E-03 0.  1.
        -12    1    3    3    0    0  0.51656562143E+01  0.24196590312E+02 -0.47571184280E+01  0.25195022575E+02  0.00000000000E+00 0.  1.
</event>
<event>
 7    1  0.4450624E-010  0.4778727E+02  0.7816164E-02  0.1312668E+00
        -11   -1    0    0    0    0  0.00000000000E+00  0.00000000000E+00  0.45593999997E+02  0.45594000000E+02  0.51100000000E-03 0.  1.
         11   -1    0    0    0    0 -0.00000000000E+00 -0.00000000000E+00 -0.45593999997E+02  0.45594000000E+02  0.51100000000E-03 0. -1.
    9900012    2    1    2    0    0 -0.42319838370E+02 -0.80543691546E+01  0.52708288321E+01  0.47787271679E+02  0.20000002895E+02 0.  0.
         12    1    1    2    0    0  0.42319838370E+02  0.80543691546E+01 -0.52708288321E+01  0.43400728321E+02  0.00000000000E+00 0. -1.
         11    1    3    3    0    0 -0.10907547882E+02 -0.34589210767E+01  0.19259498258E+01  0.11603793293E+02  0.51100000000E-03 0. -1.
        -11    1    3    3    0    0 -0.16599646633E+02 -0.77064707372E+01  0.85200818600E+01  0.20187366216E+02  0.51100000000E-03 0.  1.
         12    1    3    3    0    0 -0.14812643856E+02  0.31110226593E+01 -0.51752028537E+01  0.15996112170E+02  0.00000000000E+00 0. -1.
</event>
<event>
 7    1  0.4450624E-010  0.4778727E+02  0.7816164E-02  0.1312668E+00
        -11   -1    0    0    0    0  0.00000000000E+00  0.00000000000E+00  0.45593999997E+02  0.45594000000E+02  0.51100000000E-03 0. -1.
         11   -1    0    0    0    0 -0.00000000000E+00 -0.00000000000E+00 -0.45593999997E+02  0.45594000000E+02  0.51100000000E-03 0.  1.
    9900012    2    1    2    0    0  0.20317269767E+02 -0.34183767241E+02 -0.17386820966E+02  0.47787274926E+02  0.20000017699E+02 0.  0.
         12    1    1    2    0    0 -0.20317269767E+02  0.34183767241E+02  0.17386820966E+02  0.43400725074E+02  0.00000000000E+00 0. -1.
         11    1    3    3    0    0  0.52220692419E+01 -0.16021385488E+01 -0.54390057480E+01  0.77084135128E+01  0.51100000000E-03 0. -1.
        -11    1    3    3    0    0  0.14957450170E+02 -0.28094856927E+02 -0.56203018712E+01  0.32320799723E+02  0.51100000000E-03 0.  1.
         12    1    3    3    0    0  0.13775035539E+00 -0.44867717651E+01 -0.63275133470E+01  0.77580616902E+01  0.00000000000E+00 0. -1.
</event>
<event>
 7    1  0.4450624E-010  0.4778727E+02  0.7816164E-02  0.1312668E+00
        -11   -1    0    0    0    0  0.00000000000E+00  0.00000000000E+00  0.45593999997E+02  0.45594000000E+02  0.51100000000E-03 0. -1.
         11   -1    0    0    0    0 -0.00000000000E+00 -0.00000000000E+00 -0.45593999997E+02  0.45594000000E+02  0.51100000000E-03 0.  1.
    9900012    2    1    2    0    0  0.40225874977E+02 -0.15485894723E+02  0.50684361124E+01  0.47787274226E+02  0.20000014507E+02 0.  0.
         12    1    1    2    0    0 -0.40225874977E+02  0.15485894723E+02 -0.50684361124E+01  0.43400725774E+02  0.00000000000E+00 0. -1.
         11    1    3    3    0    0  0.54106967473E+01 -0.81774807064E+00 -0.42848545769E+01  0.69501316681E+01  0.51100000000E-03 0. -1.
        -11    1    3    3    0    0  0.20781581890E+02 -0.10988261293E+02 -0.12362485132E+00  0.23508111695E+02  0.51100000000E-03 0.  1.
         12    1    3    3    0    0  0.14033596340E+02 -0.36798853595E+01  0.94769155406E+01  0.17329030863E+02  0.00000000000E+00 0. -1.
</event>
<event>
 7    1  0.4450624E-010  0.4778727E+02  0.7816164E-02  0.1312668E+00
        -11   -1    0    0    0    0  0.00000000000E+00  0.00000000000E+00  0.45593999997E+02  0.45594000000E+02  0.51100000000E-03 0. -1.
         11   -1    0    0    0    0 -0.00000000000E+00 -0.00000000000E+00 -0.45593999997E+02  0.45594000000E+02  0.51100000000E-03 0.  1.
    9900012    2    1    2    0    0  0.21551820960E+02 -0.36012568411E+02 -0.11056106373E+02  0.47787267767E+02  0.19999985056E+02 0.  0.
         12    1    1    2    0    0 -0.21551820960E+02  0.36012568411E+02  0.11056106373E+02  0.43400732233E+02  0.00000000000E+00 0. -1.
         11    1    3    3    0    0 -0.34953480676E+00  0.94082173685E+00 -0.85628845084E+00  0.13192991677E+01  0.51100000000E-03 0. -1.
        -11    1    3    3    0    0 -0.17914280264E+01 -0.64501447516E+01 -0.19561666717E+01  0.69742504973E+01  0.51100000000E-03 0.  1.
        -12    1    3    3    0    0  0.23692783793E+02 -0.30503245396E+02 -0.82436512507E+01  0.39493718102E+02  0.00000000000E+00 0.  1.
</event>
<event>
 7    1  0.4450624E-010  0.4778727E+02  0.7816164E-02  0.1312668E+00
        -11   -1    0    0    0    0  0.00000000000E+00  0.00000000000E+00  0.45593999997E+02  0.45594000000E+02  0.51100000000E-03 0.  1.
         11   -1    0    0    0    0 -0.00000000000E+00 -0.00000000000E+00 -0.45593999997E+02  0.45594000000E+02  0.51100000000E-03 0. -1.
    9900012    2    1    2    0    0 -0.47496112168E+01  0.43003758325E+02  0.34265539748E+01  0.47787270641E+02  0.19999998159E+02 0.  0.
         12    1    1    2    0    0  0.47496112168E+01 -0.43003758325E+02 -0.34265539748E+01  0.43400729359E+02  0.00000000000E+00 0. -1.
         11    1    3    3    0    0 -0.91806256362E-01  0.12816149911E+02 -0.79743272867E+01  0.15094768063E+02  0.51100000000E-03 0. -1.
        -11    1    3    3    0    0 -0.19890504109E+01  0.64170467089E+01  0.26554730164E+01  0.72240118496E+01  0.51100000000E-03 0.  1.
         12    1    3    3    0    0 -0.26687545495E+01  0.23770561705E+02  0.87454082451E+01  0.25468490728E+02  0.00000000000E+00 0. -1.
</event>
<event>
 7    1  0.4450624E-010  0.4778727E+02  0.7816164E-02  0.1312668E+00
        -11   -1    0    0    0    0  0.00000000000E+00  0.00000000000E+00  0.45593999997E+02  0.45594000000E+02  0.51100000000E-03 0. -1.
         11   -1    0    0    0    0 -0.00000000000E+00 -0.00000000000E+00 -0.45593999997E+02  0.45594000000E+02  0.51100000000E-03 0.  1.
    9900012    2    1    2    0    0 -0.12951529233E+02  0.28935851965E+02 -0.29641145157E+02  0.47787272764E+02  0.20000007839E+02 0.  0.
         12    1    1    2    0    0  0.12951529233E+02 -0.28935851965E+02  0.29641145157E+02  0.43400727236E+02  0.00000000000E+00 0. -1.
         11    1    3    3    0    0  0.68384067066E+00  0.10810504061E+02 -0.56951495183E+01  0.12238029433E+02  0.51100000000E-03 0. -1.
        -11    1    3    3    0    0 -0.92387373215E+01  0.18543606127E+02 -0.23140940631E+02  0.31059985979E+02  0.51100000000E-03 0.  1.
        -12    1    3    3    0    0 -0.43966325818E+01 -0.41825822256E+00 -0.80505500753E+00  0.44892573512E+01  0.00000000000E+00 0.  1.
</event>
<event>
 7    1  0.4450624E-010  0.4778727E+02  0.7816164E-02  0.1312668E+00
        -11   -1    0    0    0    0  0.00000000000E+00  0.00000000000E+00  0.45593999997E+02  0.45594000000E+02  0.51100000000E-03 0.  1.
         11   -1    0    0    0    0 -0.00000000000E+00 -0.00000000000E+00 -0.45593999997E+02  0.45594000000E+02  0.51100000000E-03 0. -1.
    9900012    2    1    2    0    0  0.27587483062E+02 -0.33487527928E+02 -0.10674811986E+01  0.47787271152E+02  0.20000000491E+02 0.  0.
         12    1    1    2    0    0 -0.27587483062E+02  0.33487527928E+02  0.10674811986E+01  0.43400728848E+02  0.00000000000E+00 0. -1.
         11    1    3    3    0    0  0.71150169348E+01 -0.13481787237E+02  0.60899335993E+01  0.16415521454E+02  0.51100000000E-03 0. -1.
        -11    1    3    3    0    0  0.90769272709E+00  0.99147348683E+00  0.83205073703E+00  0.15808967240E+01  0.51100000000E-03 0.  1.
        -12    1    3    3    0    0  0.19564773400E+02 -0.20997214177E+02 -0.79894655349E+01  0.29790852974E+02  0.00000000000E+00 0.  1.
</event>
<event>
 7    1  0.4450624E-010  0.4778727E+02  0.7816164E-02  0.1312668E+00
        -11   -1    0    0    0    0  0.00000000000E+00  0.00000000000E+00  0.45593999997E+02  0.45594000000E+02  0.51100000000E-03 0. -1.
         11   -1    0    0    0    0 -0.00000000000E+00 -0.00000000000E+00 -0.45593999997E+02  0.45594000000E+02  0.51100000000E-03 0.  1.
    9900012    2    1    2    0    0 -0.12377724734E+02 -0.39679135349E+02  0.12489256912E+02  0.47787269708E+02  0.19999993906E+02 0.  0.
         12    1    1    2    0    0  0.12377724734E+02  0.39679135349E+02 -0.12489256912E+02  0.43400730292E+02  0.00000000000E+00 0. -1.
         11    1    3    3    0    0  0.35593320314E+01 -0.46912907634E+01  0.12866401687E+01  0.60276443758E+01  0.51100000000E-03 0. -1.
        -11    1    3    3    0    0 -0.34916503897E+01 -0.18247633324E+02  0.94026142472E+01  0.20822509439E+02  0.51100000000E-03 0.  1.
         12    1    3    3    0    0 -0.12445406376E+02 -0.16740211262E+02  0.18000024964E+01  0.20937115893E+02  0.00000000000E+00 0. -1.
</event>
<event>
 7    1  0.4450624E-010  0.4778727E+02  0.7816164E-02  0.1312668E+00
        -11   -1    0    0    0    0  0.00000000000E+00  0.00000000000E+00  0.45593999997E+02  0.45594000000E+02  0.51100000000E-03 0.  1.
         11   -1    0    0    0    0 -0.00000000000E+00 -0.00000000000E+00 -0.45593999997E+02  0.45594000000E+02  0.51100000000E-03 0. -1.
    9900012    2    1    2    0    0 -0.15650973080E+02  0.34307469652E+02  0.21486462048E+02  0.47787268628E+02  0.19999988983E+02 0.  0.
         12    1    1    2    0    0  0.15650973080E+02 -0.34307469652E+02 -0.21486462048E+02  0.43400731372E+02  0.00000000000E+00 0. -1.
         11    1    3    3    0    0 -0.74422763719E+01  0.11731261118E+02 -0.12724984330E+01  0.13950957585E+02  0.51100000000E-03 0. -1.
        -11    1    3    3    0    0 -0.26671199304E+01  0.11192628829E+02  0.64524364545E+01  0.13191755201E+02  0.51100000000E-03 0.  1.
        -12    1    3    3    0    0 -0.55415767775E+01  0.11383579705E+02  0.16306524026E+02  0.20644555841E+02  0.00000000000E+00 0.  1.
</event>
<event>
 7    1  0.4450624E-010  0.4778727E+02  0.7816164E-02  0.1312668E+00
        -11   -1    0    0    0    0  0.00000000000E+00  0.00000000000E+00  0.45593999997E+02  0.45594000000E+02  0.51100000000E-03 0. -1.
         11   -1    0    0    0    0 -0.00000000000E+00 -0.00000000000E+00 -0.45593999997E+02  0.45594000000E+02  0.51100000000E-03 0.  1.
    9900012    2    1    2    0    0  0.28117737581E+01 -0.19076023956E+02  0.38882159708E+02  0.47787272987E+02  0.20000008858E+02 0.  0.
         12    1    1    2    0    0 -0.28117737581E+01  0.19076023956E+02 -0.38882159708E+02  0.43400727013E+02  0.00000000000E+00 0. -1.
         11    1    3    3    0    0  0.93464575452E+00 -0.11758595236E+01  0.66311459085E+01  0.67991399917E+01  0.51100000000E-03 0. -1.
        -11    1    3    3    0    0 -0.60066887812E+01 -0.14430032334E+02  0.14792545314E+02  0.21520351773E+02  0.51100000000E-03 0.  1.
        -12    1    3    3    0    0  0.78838167849E+01 -0.34701320983E+01  0.17458468485E+02  0.19467781223E+02  0.00000000000E+00 0.  1.
</event>
<event>
 7    1  0.4450624E-010  0.4778727E+02  0.7816164E-02  0.1312668E+00
        -11   -1    0    0    0    0  0.00000000000E+00  0.00000000000E+00  0.45593999997E+02  0.45594000000E+02  0.51100000000E-03 0. -1.
         11   -1    0    0    0    0 -0.00000000000E+00 -0.00000000000E+00 -0.45593999997E+02  0.45594000000E+02  0.51100000000E-03 0.  1.
    9900012    2    1    2    0    0  0.23606761224E+02  0.36391097964E+02  0.14255145573E+01  0.47787270994E+02  0.19999999769E+02 0.  0.
         12    1    1    2    0    0 -0.23606761224E+02 -0.36391097964E+02 -0.14255145573E+01  0.43400729006E+02  0.00000000000E+00 0. -1.
         11    1    3    3    0    0  0.59834362041E+01  0.67332735953E+01 -0.12927620705E+01  0.90999844038E+01  0.51100000000E-03 0. -1.
        -11    1    3    3    0    0  0.98765786172E+01  0.28177526438E+02  0.54283233488E+01  0.30347759324E+02  0.51100000000E-03 0.  1.
         12    1    3    3    0    0  0.77467464028E+01  0.14802979310E+01 -0.27100467210E+01  0.83395272662E+01  0.00000000000E+00 0. -1.
</event>
<event>
 7    1  0.4450624E-010  0.4778727E+02  0.7816164E-02  0.1312668E+00
        -11   -1    0    0    0    0  0.00000000000E+00  0.00000000000E+00  0.45593999997E+02  0.45594000000E+02  0.51100000000E-03 0. -1.
         11   -1    0    0    0    0 -0.00000000000E+00 -0.00000000000E+00 -0.45593999997E+02  0.45594000000E+02  0.51100000000E-03 0.  1.
    9900012    2    1    2    0    0  0.34982102691E+02  0.24695405248E+02 -0.70720028847E+01  0.47787265284E+02  0.19999973736E+02 0.  0.
         12    1    1    2    0    0 -0.34982102691E+02 -0.24695405248E+02  0.70720028847E+01  0.43400734716E+02  0.00000000000E+00 0. -1.
         11    1    3    3    0    0  0.35958138676E+01  0.24411008822E+01  0.33992997047E+01  0.55176162997E+01  0.51100000000E-03 0. -1.
        -11    1    3    3    0    0  0.23582178732E+02  0.18449815294E+02 -0.17952874073E+01  0.29995631270E+02  0.51100000000E-03 0.  1.
        -12    1    3    3    0    0  0.78041100915E+01  0.38044890725E+01 -0.86760151821E+01  0.12274017715E+02  0.00000000000E+00 0.  1.
</event>
<event>
 7    1  0.4450624E-010  0.4778727E+02  0.7816164E-02  0.1312668E+00
        -11   -1    0    0    0    0  0.00000000000E+00  0.00000000000E+00  0.45593999997E+02  0.45594000000E+02  0.51100000000E-03 0.  1.
         11   -1    0    0    0    0 -0.00000000000E+00 -0.00000000000E+00 -0.45593999997E+02  0.45594000000E+02  0.51100000000E-03 0. -1.
    9900012    2    1    2    0    0 -0.18225476455E+02 -0.49547554893E+01  0.39075637385E+02  0.47787273842E+02  0.20000012756E+02 0.  0.
         12    1    1    2    0    0  0.18225476455E+02  0.49547554893E+01 -0.39075637385E+02  0.43400726158E+02  0.00000000000E+00 0. -1.
         11    1    3    3    0    0 -0.70730732997E+01 -0.25177529475E+01  0.62348171637E+01  0.97591183584E+01  0.51100000000E-03 0. -1.
        -11    1    3    3    0    0 -0.19713228000E+01  0.56890216307E+01  0.59054740869E+01  0.84336057027E+01  0.51100000000E-03 0.  1.
        -12    1    3    3    0    0 -0.91810803551E+01 -0.81260241725E+01  0.26935346135E+02  0.29594549781E+02  0.00000000000E+00 0.  1.
</event>
<event>
 7    1  0.4450624E-010  0.4778727E+02  0.7816164E-02  0.1312668E+00
        -11   -1    0    0    0    0  0.00000000000E+00  0.00000000000E+00  0.45593999997E+02  0.45594000000E+02  0.51100000000E-03 0.  1.
         11   -1    0    0    0    0 -0.00000000000E+00 -0.00000000000E+00 -0.45593999997E+02  0.45594000000E+02  0.51100000000E-03 0. -1.
    9900012    2    1    2    0    0  0.40237305026E+02  0.13981575209E+02  0.83125393610E+01  0.47787268765E+02  0.19999989608E+02 0.  0.
         12    1    1    2    0    0 -0.40237305026E+02 -0.13981575209E+02 -0.83125393610E+01  0.43400731235E+02  0.00000000000E+00 0. -1.
         11    1    3    3    0    0  0.61281779836E+01  0.52256854918E+01  0.24877652059E+01  0.84291951122E+01  0.51100000000E-03 0. -1.
        -11    1    3    3    0    0  0.31204654216E+02  0.74733457596E+01 -0.70767666652E+00  0.32094892866E+02  0.51100000000E-03 0.  1.
         12    1    3    3    0    0  0.29044728267E+01  0.12825439572E+01  0.65324508216E+01  0.72631807866E+01  0.00000000000E+00 0. -1.
</event>
<event>
 7    1  0.4450624E-010  0.4778727E+02  0.7816164E-02  0.1312668E+00
        -11   -1    0    0    0    0  0.00000000000E+00  0.00000000000E+00  0.45593999997E+02  0.45594000000E+02  0.51100000000E-03 0.  1.
         11   -1    0    0    0    0 -0.00000000000E+00 -0.00000000000E+00 -0.45593999997E+02  0.45594000000E+02  0.51100000000E-03 0. -1.
    9900012    2    1    2    0    0 -0.27051137378E+02  0.16545159117E+02  0.29633039235E+02  0.47787270306E+02  0.19999996634E+02 0.  0.
         12    1    1    2    0    0  0.27051137378E+02 -0.16545159117E+02 -0.29633039235E+02  0.43400729694E+02  0.00000000000E+00 0. -1.
         11    1    3    3    0    0 -0.17458977594E+02  0.38362614501E+01  0.14381160749E+02  0.22942331732E+02  0.51100000000E-03 0. -1.
        -11    1    3    3    0    0 -0.37481082995E+01  0.15696460307E+01  0.10736744301E+02  0.11479973124E+02  0.51100000000E-03 0.  1.
         12    1    3    3    0    0 -0.58440514843E+01  0.11139251636E+02  0.45151341847E+01  0.13364965450E+02  0.00000000000E+00 0. -1.
</event>
<event>
 7    1  0.4450624E-010  0.4778726E+02  0.7816164E-02  0.1312668E+00
        -11   -1    0    0    0    0  0.00000000000E+00  0.00000000000E+00  0.45593999997E+02  0.45594000000E+02  0.51100000000E-03 0.  1.
         11   -1    0    0    0    0 -0.00000000000E+00 -0.00000000000E+00 -0.45593999997E+02  0.45594000000E+02  0.51100000000E-03 0. -1.
    9900012    2    1    2    0    0  0.97593580584E+01  0.15105183603E+02  0.39499526867E+02  0.47787259637E+02  0.19999947987E+02 0.  0.
         12    1    1    2    0    0 -0.97593580584E+01 -0.15105183603E+02 -0.39499526867E+02  0.43400740363E+02  0.00000000000E+00 0. -1.
         11    1    3    3    0    0  0.21579441086E+01  0.36059682558E+01  0.93278389799E+00  0.43046272660E+01  0.51100000000E-03 0. -1.
        -11    1    3    3    0    0  0.43624587982E+01  0.61797064751E+01  0.43960302074E+01  0.87489942697E+01  0.51100000000E-03 0.  1.
        -12    1    3    3    0    0  0.32389551516E+01  0.53195088720E+01  0.34170712761E+02  0.34733638101E+02  0.00000000000E+00 0.  1.
</event>
<event>
 7    1  0.4450624E-010  0.4778727E+02  0.7816164E-02  0.1312668E+00
        -11   -1    0    0    0    0  0.00000000000E+00  0.00000000000E+00  0.45593999997E+02  0.45594000000E+02  0.51100000000E-03 0.  1.
         11   -1    0    0    0    0 -0.00000000000E+00 -0.00000000000E+00 -0.45593999997E+02  0.45594000000E+02  0.51100000000E-03 0. -1.
    9900012    2    1    2    0    0  0.28011051376E+01 -0.45590118689E+01  0.43069621049E+02  0.47787273779E+02  0.20000012466E+02 0.  0.
         12    1    1    2    0    0 -0.28011051376E+01  0.45590118689E+01 -0.43069621049E+02  0.43400726221E+02  0.00000000000E+00 0. -1.
         11    1    3    3    0    0 -0.23973142884E+01 -0.54063235432E+01  0.15098036988E+02  0.16214998341E+02  0.51100000000E-03 0. -1.
        -11    1    3    3    0    0  0.94180407702E-01 -0.92649470502E-02  0.26051966778E+02  0.26052138666E+02  0.51100000000E-03 0.  1.
         12    1    3    3    0    0  0.51042390184E+01  0.85657662136E+00  0.19196172833E+01  0.55201367718E+01  0.00000000000E+00 0. -1.
</event>
<event>
 7    1  0.4450624E-010  0.4778727E+02  0.7816164E-02  0.1312668E+00
        -11   -1    0    0    0    0  0.00000000000E+00  0.00000000000E+00  0.45593999997E+02  0.45594000000E+02  0.51100000000E-03 0.  1.
         11   -1    0    0    0    0 -0.00000000000E+00 -0.00000000000E+00 -0.45593999997E+02  0.45594000000E+02  0.51100000000E-03 0. -1.
    9900012    2    1    2    0    0  0.13770198951E+01  0.26268548582E+01  0.43299268562E+02  0.47787271801E+02  0.20000003449E+02 0.  0.
         12    1    1    2    0    0 -0.13770198951E+01 -0.26268548582E+01 -0.43299268562E+02  0.43400728199E+02  0.00000000000E+00 0. -1.
         11    1    3    3    0    0  0.22875821128E+01  0.57026950346E+01  0.12139308514E+02  0.13605755181E+02  0.51100000000E-03 0. -1.
        -11    1    3    3    0    0 -0.46243913021E+01  0.30299761331E+01  0.66348823465E+01  0.86364005405E+01  0.51100000000E-03 0.  1.
         12    1    3    3    0    0  0.37138290844E+01 -0.61058163095E+01  0.24525077701E+02  0.25545116080E+02  0.00000000000E+00 0. -1.
</event>
<event>
 7    1  0.4450624E-010  0.4778727E+02  0.7816164E-02  0.1312668E+00
        -11   -1    0    0    0    0  0.00000000000E+00  0.00000000000E+00  0.45593999997E+02  0.45594000000E+02  0.51100000000E-03 0.  1.
         11   -1    0    0    0    0 -0.00000000000E+00 -0.00000000000E+00 -0.45593999997E+02  0.45594000000E+02  0.51100000000E-03 0. -1.
    9900012    2    1    2    0    0  0.33868160245E+02  0.24508171464E+02 -0.11658490301E+02  0.47787272552E+02  0.20000006875E+02 0.  0.
         12    1    1    2    0    0 -0.33868160245E+02 -0.24508171464E+02  0.11658490301E+02  0.43400727448E+02  0.00000000000E+00 0. -1.
         11    1    3    3    0    0  0.37349328710E+01  0.49809563681E+01  0.18712637257E+01  0.65008674871E+01  0.51100000000E-03 0. -1.
        -11    1    3    3    0    0  0.53810298567E+01  0.86482397412E+01  0.15892163922E+01  0.10308886552E+02  0.51100000000E-03 0.  1.
        -12    1    3    3    0    0  0.24752197517E+02  0.10878975355E+02 -0.15118970419E+02  0.30977518513E+02  0.00000000000E+00 0.  1.
</event>
<event>
 7    1  0.4450624E-010  0.4778727E+02  0.7816164E-02  0.1312668E+00
        -11   -1    0    0    0    0  0.00000000000E+00  0.00000000000E+00  0.45593999997E+02  0.45594000000E+02  0.51100000000E-03 0.  1.
         11   -1    0    0    0    0 -0.00000000000E+00 -0.00000000000E+00 -0.45593999997E+02  0.45594000000E+02  0.51100000000E-03 0. -1.
    9900012    2    1    2    0    0  0.22033786729E+02 -0.19351420592E+02  0.31994652630E+02  0.47787273814E+02  0.20000012627E+02 0.  0.
         12    1    1    2    0    0 -0.22033786729E+02  0.19351420592E+02 -0.31994652630E+02  0.43400726186E+02  0.00000000000E+00 0. -1.
         11    1    3    3    0    0  0.37194444203E+01  0.53001175813E+00 -0.12131288787E+01  0.39480199084E+01  0.51100000000E-03 0. -1.
        -11    1    3    3    0    0  0.15279957376E+01 -0.58211640149E+01  0.35959266235E+01  0.70108066587E+01  0.51100000000E-03 0.  1.
        -12    1    3    3    0    0  0.16786346571E+02 -0.14060268335E+02  0.29611854885E+02  0.36828447247E+02  0.00000000000E+00 0.  1.
</event>
<event>
 7    1  0.4450624E-010  0.4778728E+02  0.7816164E-02  0.1312668E+00
        -11   -1    0    0    0    0  0.00000000000E+00  0.00000000000E+00  0.45593999997E+02  0.45594000000E+02  0.51100000000E-03 0.  1.
         11   -1    0    0    0    0 -0.00000000000E+00 -0.00000000000E+00 -0.45593999997E+02  0.45594000000E+02  0.51100000000E-03 0. -1.
    9900012    2    1    2    0    0 -0.12543992781E+02 -0.24448315355E+02  0.33593912739E+02  0.47787275908E+02  0.20000022175E+02 0.  0.
         12    1    1    2    0    0  0.12543992781E+02  0.24448315355E+02 -0.33593912739E+02  0.43400724092E+02  0.00000000000E+00 0. -1.
         11    1    3    3    0    0 -0.18913179585E+01 -0.36114173022E+01  0.26018397406E+01  0.48362163773E+01  0.51100000000E-03 0. -1.
        -11    1    3    3    0    0 -0.73685457824E+01  0.73264402007E+00  0.46378595418E+01  0.87373895185E+01  0.51100000000E-03 0.  1.
        -12    1    3    3    0    0 -0.32841290402E+01 -0.21569542073E+02  0.26354213457E+02  0.34213670012E+02  0.00000000000E+00 0.  1.
</event>
<event>
 7    1  0.4450624E-010  0.4778727E+02  0.7816164E-02  0.1312668E+00
        -11   -1    0    0    0    0  0.00000000000E+00  0.00000000000E+00  0.45593999997E+02  0.45594000000E+02  0.51100000000E-03 0. -1.
         11   -1    0    0    0    0 -0.00000000000E+00 -0.00000000000E+00 -0.45593999997E+02  0.45594000000E+02  0.51100000000E-03 0.  1.
    9900012    2    1    2    0    0  0.13570869167E+02 -0.22978147069E+02  0.34226587726E+02  0.47787273739E+02  0.20000012285E+02 0.  0.
         12    1    1    2    0    0 -0.13570869167E+02  0.22978147069E+02 -0.34226587726E+02  0.43400726261E+02  0.00000000000E+00 0. -1.
         11    1    3    3    0    0 -0.24422647752E+00 -0.23132111049E+01 -0.54927459273E+00  0.23900408003E+01  0.51100000000E-03 0. -1.
        -11    1    3    3    0    0  0.11933789752E+02 -0.62771727964E+01  0.10397074212E+02  0.17026960639E+02  0.51100000000E-03 0.  1.
         12    1    3    3    0    0  0.18813058921E+01 -0.14387763167E+02  0.24378788106E+02  0.28370272300E+02  0.00000000000E+00 0. -1.
</event>
<event>
 7    1  0.4450624E-010  0.4778727E+02  0.7816164E-02  0.1312668E+00
        -11   -1    0    0    0    0  0.00000000000E+00  0.00000000000E+00  0.45593999997E+02  0.45594000000E+02  0.51100000000E-03 0.  1.
         11   -1    0    0    0    0 -0.00000000000E+00 -0.00000000000E+00 -0.45593999997E+02  0.45594000000E+02  0.51100000000E-03 0. -1.
    9900012    2    1    2    0    0  0.22952977724E+02 -0.16395665721E+02  0.32984333167E+02  0.47787271028E+02  0.19999999925E+02 0.  0.
         12    1    1    2    0    0 -0.22952977724E+02  0.16395665721E+02 -0.32984333167E+02  0.43400728972E+02  0.00000000000E+00 0. -1.
         11    1    3    3    0    0  0.19108470340E+00  0.16608396451E+01  0.10572397840E+01  0.19780439612E+01  0.51100000000E-03 0. -1.
        -11    1    3    3    0    0  0.91687175884E+01 -0.10287089847E+02  0.25296305128E+02  0.28806121800E+02  0.51100000000E-03 0.  1.
        -12    1    3    3    0    0  0.13593175432E+02 -0.77694155195E+01  0.66307882543E+01  0.17003105267E+02  0.00000000000E+00 0.  1.
</event>
<event>
 7    1  0.4450624E-010  0.4778728E+02  0.7816164E-02  0.1312668E+00
        -11   -1    0    0    0    0  0.00000000000E+00  0.00000000000E+00  0.45593999997E+02  0.45594000000E+02  0.51100000000E-03 0. -1.
         11   -1    0    0    0    0 -0.00000000000E+00 -0.00000000000E+00 -0.45593999997E+02  0.45594000000E+02  0.51100000000E-03 0.  1.
    9900012    2    1    2    0    0 -0.12377753811E+02 -0.29827199081E+02 -0.28995728891E+02  0.47787275486E+02  0.20000020250E+02 0.  0.
         12    1    1    2    0    0  0.12377753811E+02  0.29827199081E+02  0.28995728891E+02  0.43400724514E+02  0.00000000000E+00 0. -1.
         11    1    3    3    0    0  0.47244406433E+00  0.14632807390E+01 -0.16017018288E+01  0.22203249592E+01  0.51100000000E-03 0. -1.
        -11    1    3    3    0    0  0.87925631846E+00 -0.33463897249E+01 -0.84275581312E+01  0.91101675166E+01  0.51100000000E-03 0.  1.
         12    1    3    3    0    0 -0.13729454194E+02 -0.27944090095E+02 -0.18966468931E+02  0.36456783010E+02  0.00000000000E+00 0. -1.
</event>
<event>
 7    1  0.4450624E-010  0.4778727E+02  0.7816164E-02  0.1312668E+00
        -11   -1    0    0    0    0  0.00000000000E+00  0.00000000000E+00  0.45593999997E+02  0.45594000000E+02  0.51100000000E-03 0. -1.
         11   -1    0    0    0    0 -0.00000000000E+00 -0.00000000000E+00 -0.45593999997E+02  0.45594000000E+02  0.51100000000E-03 0.  1.
    9900012    2    1    2    0    0  0.38509777633E+02 -0.12936490933E+02 -0.15273098432E+02  0.47787270666E+02  0.19999998274E+02 0.  0.
         12    1    1    2    0    0 -0.38509777633E+02  0.12936490933E+02  0.15273098432E+02  0.43400729334E+02  0.00000000000E+00 0. -1.
         11    1    3    3    0    0  0.46791853019E+01 -0.65314614267E+01 -0.66713548270E-01  0.80348748849E+01  0.51100000000E-03 0. -1.
        -11    1    3    3    0    0  0.23643366187E+02 -0.10315949691E+02 -0.10068611441E+02  0.27691235424E+02  0.51100000000E-03 0.  1.
        -12    1    3    3    0    0  0.10187226145E+02  0.39109201849E+01 -0.51377734430E+01  0.12061160357E+02  0.00000000000E+00 0.  1.
</event>
<event>
 7    1  0.4450624E-010  0.4778727E+02  0.7816164E-02  0.1312668E+00
        -11   -1    0    0    0    0  0.00000000000E+00  0.00000000000E+00  0.45593999997E+02  0.45594000000E+02  0.51100000000E-03 0.  1.
         11   -1    0    0    0    0 -0.00000000000E+00 -0.00000000000E+00 -0.45593999997E+02  0.45594000000E+02  0.51100000000E-03 0. -1.
    9900012    2    1    2    0    0  0.11202257164E+01 -0.55337315399E+01  0.43031920454E+02  0.47787271108E+02  0.20000000291E+02 0.  0.
         12    1    1    2    0    0 -0.11202257164E+01  0.55337315399E+01 -0.43031920454E+02  0.43400728892E+02  0.00000000000E+00 0. -1.
         11    1    3    3    0    0  0.85958085719E+01  0.14633413467E+01  0.16791812306E+02  0.18920736077E+02  0.51100000000E-03 0. -1.
        -11    1    3    3    0    0 -0.77053342498E+00 -0.85869368233E+00  0.11436856623E+02  0.11494901751E+02  0.51100000000E-03 0.  1.
         12    1    3    3    0    0 -0.67050494305E+01 -0.61383792042E+01  0.14803251525E+02  0.17371633281E+02  0.00000000000E+00 0. -1.
</event>
<event>
 7    1  0.4450624E-010  0.4778727E+02  0.7816164E-02  0.1312668E+00
        -11   -1    0    0    0    0  0.00000000000E+00  0.00000000000E+00  0.45593999997E+02  0.45594000000E+02  0.51100000000E-03 0.  1.
         11   -1    0    0    0    0 -0.00000000000E+00 -0.00000000000E+00 -0.45593999997E+02  0.45594000000E+02  0.51100000000E-03 0. -1.
    9900012    2    1    2    0    0  0.14776354783E+02  0.19463075912E+02  0.35867414512E+02  0.47787269495E+02  0.19999992934E+02 0.  0.
         12    1    1    2    0    0 -0.14776354783E+02 -0.19463075912E+02 -0.35867414512E+02  0.43400730505E+02  0.00000000000E+00 0. -1.
         11    1    3    3    0    0 -0.21319665608E+01  0.41140180546E+01  0.12982156968E+01  0.48120463658E+01  0.51100000000E-03 0. -1.
        -11    1    3    3    0    0  0.11770729216E+02  0.15318406277E+02  0.31611118411E+02  0.37046814230E+02  0.51100000000E-03 0.  1.
         12    1    3    3    0    0  0.51375921279E+01  0.30651579763E-01  0.29580804043E+01  0.59284088986E+01  0.00000000000E+00 0. -1.
</event>
<event>
 7    1  0.4450624E-010  0.4778728E+02  0.7816164E-02  0.1312668E+00
        -11   -1    0    0    0    0  0.00000000000E+00  0.00000000000E+00  0.45593999997E+02  0.45594000000E+02  0.51100000000E-03 0.  1.
         11   -1    0    0    0    0 -0.00000000000E+00 -0.00000000000E+00 -0.45593999997E+02  0.45594000000E+02  0.51100000000E-03 0. -1.
    9900012    2    1    2    0    0  0.21201965826E+02 -0.11991016117E+02  0.35920955887E+02  0.47787275418E+02  0.20000019941E+02 0.  0.
         12    1    1    2    0    0 -0.21201965826E+02  0.11991016117E+02 -0.35920955887E+02  0.43400724582E+02  0.00000000000E+00 0. -1.
         11    1    3    3    0    0  0.48023938778E+01 -0.52048722759E+00  0.10270525803E+02  0.11349783894E+02  0.51100000000E-03 0. -1.
        -11    1    3    3    0    0  0.15114771539E+02 -0.97109496900E+00  0.17040042577E+02  0.22798298082E+02  0.51100000000E-03 0.  1.
         12    1    3    3    0    0  0.12848004089E+01 -0.10499433920E+02  0.86103875065E+01  0.13639193442E+02  0.00000000000E+00 0. -1.
</event>
<event>
 7    1  0.4450624E-010  0.4778727E+02  0.7816164E-02  0.1312668E+00
        -11   -1    0    0    0    0  0.00000000000E+00  0.00000000000E+00  0.45593999997E+02  0.45594000000E+02  0.51100000000E-03 0. -1.
         11   -1    0    0    0    0 -0.00000000000E+00 -0.00000000000E+00 -0.45593999997E+02  0.45594000000E+02  0.51100000000E-03 0.  1.
    9900012    2    1    2    0    0  0.63737925210E+01 -0.64597400643E+01 -0.42441366819E+02  0.47787273160E+02  0.20000009645E+02 0.  0.
         12    1    1    2    0    0 -0.63737925210E+01  0.64597400643E+01  0.42441366819E+02  0.43400726840E+02  0.00000000000E+00 0. -1.
         11    1    3    3    0    0 -0.42334862024E+01  0.11002368371E+01 -0.12395405674E+02  0.13144542921E+02  0.51100000000E-03 0. -1.
        -11    1    3    3    0    0  0.48653300753E+00 -0.60846437778E+01 -0.17018666690E+02  0.18080227333E+02  0.51100000000E-03 0.  1.
        -12    1    3    3    0    0  0.10120745716E+02 -0.14753331236E+01 -0.13027294456E+02  0.16562502906E+02  0.00000000000E+00 0.  1.
</event>
<event>
 7    1  0.4450624E-010  0.4778727E+02  0.7816164E-02  0.1312668E+00
        -11   -1    0    0    0    0  0.00000000000E+00  0.00000000000E+00  0.45593999997E+02  0.45594000000E+02  0.51100000000E-03 0. -1.
         11   -1    0    0    0    0 -0.00000000000E+00 -0.00000000000E+00 -0.45593999997E+02  0.45594000000E+02  0.51100000000E-03 0.  1.
    9900012    2    1    2    0    0  0.28725445966E+02  0.20003532685E+02  0.25657952725E+02  0.47787273003E+02  0.20000008930E+02 0.  0.
         12    1    1    2    0    0 -0.28725445966E+02 -0.20003532685E+02 -0.25657952725E+02  0.43400726997E+02  0.00000000000E+00 0. -1.
         11    1    3    3    0    0  0.16066867857E+02  0.65058807581E+01  0.79872545012E+01  0.19085779049E+02  0.51100000000E-03 0. -1.
        -11    1    3    3    0    0  0.62930192040E+01  0.37249139798E+01 -0.25308819957E+00  0.73171803829E+01  0.51100000000E-03 0.  1.
         12    1    3    3    0    0  0.63655589053E+01  0.97727379466E+01  0.17923786424E+02  0.21384313571E+02  0.00000000000E+00 0. -1.
</event>
<event>
 7    1  0.4450624E-010  0.4778727E+02  0.7816164E-02  0.1312668E+00
        -11   -1    0    0    0    0  0.00000000000E+00  0.00000000000E+00  0.45593999997E+02  0.45594000000E+02  0.51100000000E-03 0. -1.
         11   -1    0    0    0    0 -0.00000000000E+00 -0.00000000000E+00 -0.45593999997E+02  0.45594000000E+02  0.51100000000E-03 0.  1.
    9900012    2    1    2    0    0  0.98299361589E+01 -0.27608508573E+02 -0.32011966611E+02  0.47787269628E+02  0.19999993542E+02 0.  0.
         12    1    1    2    0    0 -0.98299361589E+01  0.27608508573E+02  0.32011966611E+02  0.43400730372E+02  0.00000000000E+00 0. -1.
         11    1    3    3    0    0 -0.56759533820E+00 -0.47986651778E+01 -0.86182406328E+01  0.98804566606E+01  0.51100000000E-03 0. -1.
        -11    1    3    3    0    0  0.78960891137E+01 -0.12723993821E+01 -0.46870391638E+01  0.92701434651E+01  0.51100000000E-03 0.  1.
        -12    1    3    3    0    0  0.25014423834E+01 -0.21537444013E+02 -0.18706686814E+02  0.28636669502E+02  0.00000000000E+00 0.  1.
</event>
<event>
 7    1  0.4450624E-010  0.4778728E+02  0.7816164E-02  0.1312668E+00
        -11   -1    0    0    0    0  0.00000000000E+00  0.00000000000E+00  0.45593999997E+02  0.45594000000E+02  0.51100000000E-03 0.  1.
         11   -1    0    0    0    0 -0.00000000000E+00 -0.00000000000E+00 -0.45593999997E+02  0.45594000000E+02  0.51100000000E-03 0. -1.
    9900012    2    1    2    0    0 -0.42720646172E+02 -0.21062001475E+01  0.73575179549E+01  0.47787276977E+02  0.20000027050E+02 0.  0.
         12    1    1    2    0    0  0.42720646172E+02  0.21062001475E+01 -0.73575179549E+01  0.43400723023E+02  0.00000000000E+00 0. -1.
         11    1    3    3    0    0 -0.22350085786E+02 -0.56464744827E+00  0.78253473980E+01  0.23687153133E+02  0.51100000000E-03 0. -1.
        -11    1    3    3    0    0 -0.18460304187E+02 -0.16575317589E+01  0.42441903503E+01  0.19014294470E+02  0.51100000000E-03 0.  1.
         12    1    3    3    0    0 -0.19102561998E+01  0.11597905974E+00 -0.47120197935E+01  0.50858293744E+01  0.00000000000E+00 0. -1.
</event>
<event>
 7    1  0.4450624E-010  0.4778728E+02  0.7816164E-02  0.1312668E+00
        -11   -1    0    0    0    0  0.00000000000E+00  0.00000000000E+00  0.45593999997E+02  0.45594000000E+02  0.51100000000E-03 0. -1.
         11   -1    0    0    0    0 -0.00000000000E+00 -0.00000000000E+00 -0.45593999997E+02  0.45594000000E+02  0.51100000000E-03 0.  1.
    9900012    2    1    2    0    0 -0.22648129273E+02  0.35114831271E+02 -0.11731721807E+02  0.47787280751E+02  0.20000044257E+02 0.  0.
         12    1    1    2    0    0  0.22648129273E+02 -0.35114831271E+02  0.11731721807E+02  0.43400719249E+02  0.00000000000E+00 0. -1.
         11    1    3    3    0    0 -0.58671213249E+01  0.25329627445E+01 -0.10355118626E-01  0.63905493031E+01  0.51100000000E-03 0. -1.
        -11    1    3    3    0    0 -0.74687848901E+01  0.10484847701E+02  0.30549104779E+01  0.13230542594E+02  0.51100000000E-03 0.  1.
        -12    1    3    3    0    0 -0.93122230579E+01  0.22097020825E+02 -0.14776277167E+02  0.28166188854E+02  0.00000000000E+00 0.  1.
</event>
<event>
 7    1  0.4450624E-010  0.4778728E+02  0.7816164E-02  0.1312668E+00
        -11   -1    0    0    0    0  0.00000000000E+00  0.00000000000E+00  0.45593999997E+02  0.45594000000E+02  0.51100000000E-03 0.  1.
         11   -1    0    0    0    0 -0.00000000000E+00 -0.00000000000E+00 -0.45593999997E+02  0.45594000000E+02  0.51100000000E-03 0. -1.
    9900012    2    1    2    0    0 -0.27287095850E+02 -0.25542433518E+02  0.22059489841E+02  0.47787278785E+02  0.20000035293E+02 0.  0.
         12    1    1    2    0    0  0.27287095850E+02  0.25542433518E+02 -0.22059489841E+02  0.43400721215E+02  0.00000000000E+00 0. -1.
         11    1    3    3    0    0 -0.47782412501E+01 -0.62100056855E+00 -0.34208148226E+00  0.48305539178E+01  0.51100000000E-03 0. -1.
        -11    1    3    3    0    0 -0.12962924378E+02 -0.11274580367E+02  0.30898713198E+01  0.17455683198E+02  0.51100000000E-03 0.  1.
         12    1    3    3    0    0 -0.95459302216E+01 -0.13646852583E+02  0.19311700003E+02  0.25501041669E+02  0.00000000000E+00 0. -1.
</event>
<event>
 7    1  0.4450624E-010  0.4778725E+02  0.7816164E-02  0.1312668E+00
        -11   -1    0    0    0    0  0.00000000000E+00  0.00000000000E+00  0.45593999997E+02  0.45594000000E+02  0.51100000000E-03 0. -1.
         11   -1    0    0    0    0 -0.00000000000E+00 -0.00000000000E+00 -0.45593999997E+02  0.45594000000E+02  0.51100000000E-03 0.  1.
    9900012    2    1    2    0    0 -0.91318820654E+01 -0.10953731714E+02 -0.40990851528E+02  0.47787246349E+02  0.19999887403E+02 0.  0.
         12    1    1    2    0    0  0.91318820654E+01  0.10953731714E+02  0.40990851528E+02  0.43400753651E+02  0.00000000000E+00 0. -1.
         11    1    3    3    0    0 -0.11318973508E+01 -0.78751110353E+01 -0.12671737042E+02  0.14962335558E+02  0.51100000000E-03 0.  1.
        -11    1    3    3    0    0  0.28589462708E+01 -0.39297029171E+01 -0.14096001064E+02  0.14910177230E+02  0.51100000000E-03 0. -1.
         12    1    3    3    0    0 -0.10858930985E+02  0.85108223880E+00 -0.14223113423E+02  0.17914733561E+02  0.00000000000E+00 0. -1.
</event>
<event>
 7    1  0.4450624E-010  0.4778727E+02  0.7816164E-02  0.1312668E+00
        -11   -1    0    0    0    0  0.00000000000E+00  0.00000000000E+00  0.45593999997E+02  0.45594000000E+02  0.51100000000E-03 0.  1.
         11   -1    0    0    0    0 -0.00000000000E+00 -0.00000000000E+00 -0.45593999997E+02  0.45594000000E+02  0.51100000000E-03 0. -1.
    9900012    2    1    2    0    0 -0.25380887379E+01  0.64845510670E+01  0.42838442954E+02  0.47787268535E+02  0.19999988556E+02 0.  0.
         12    1    1    2    0    0  0.25380887379E+01 -0.64845510670E+01 -0.42838442954E+02  0.43400731465E+02  0.00000000000E+00 0. -1.
         11    1    3    3    0    0 -0.42864062848E+01  0.58066862229E+01  0.19953801893E+02  0.21218979570E+02  0.51100000000E-03 0.  1.
        -11    1    3    3    0    0  0.22360101380E+01  0.12435658168E+01  0.24581514760E+02  0.24714308921E+02  0.51100000000E-03 0. -1.
         12    1    3    3    0    0 -0.48769259105E+00 -0.56570097267E+00 -0.16968736988E+01  0.18539800440E+01  0.00000000000E+00 0. -1.
</event>
<event>
 7    1  0.4450624E-010  0.4778727E+02  0.7816164E-02  0.1312668E+00
        -11   -1    0    0    0    0  0.00000000000E+00  0.00000000000E+00  0.45593999997E+02  0.45594000000E+02  0.51100000000E-03 0.  1.
         11   -1    0    0    0    0 -0.00000000000E+00 -0.00000000000E+00 -0.45593999997E+02  0.45594000000E+02  0.51100000000E-03 0. -1.
    9900012    2    1    2    0    0  0.17542041490E+02 -0.71147600162E+01  0.39054836334E+02  0.47787271079E+02  0.20000000159E+02 0.  0.
         12    1    1    2    0    0 -0.17542041490E+02  0.71147600162E+01 -0.39054836334E+02  0.43400728921E+02  0.00000000000E+00 0. -1.
         11    1    3    3    0    0  0.22374672332E+01 -0.27442335909E+00 -0.60658331697E+00  0.23344188530E+01  0.51100000000E-03 0. -1.
        -11    1    3    3    0    0 -0.16270251862E+01 -0.33804158452E+01  0.14152105703E+02  0.14640919314E+02  0.51100000000E-03 0.  1.
         12    1    3    3    0    0  0.16931599443E+02 -0.34599208119E+01  0.25509313948E+02  0.30811932913E+02  0.00000000000E+00 0. -1.
</event>
<event>
 7    1  0.4450624E-010  0.4778728E+02  0.7816164E-02  0.1312668E+00
        -11   -1    0    0    0    0  0.00000000000E+00  0.00000000000E+00  0.45593999997E+02  0.45594000000E+02  0.51100000000E-03 0.  1.
         11   -1    0    0    0    0 -0.00000000000E+00 -0.00000000000E+00 -0.45593999997E+02  0.45594000000E+02  0.51100000000E-03 0. -1.
    9900012    2    1    2    0    0  0.18106065913E+02  0.18199106411E+02  0.34994074688E+02  0.47787281570E+02  0.20000047991E+02 0.  0.
         12    1    1    2    0    0 -0.18106065913E+02 -0.18199106411E+02 -0.34994074688E+02  0.43400718430E+02  0.00000000000E+00 0. -1.
         11    1    3    3    0    0  0.70762668774E+01  0.49275869411E+01  0.13288990143E+01  0.87247142551E+01  0.51100000000E-03 0. -1.
        -11    1    3    3    0    0  0.65069054799E+01  0.35790428981E+01  0.65056478575E+01  0.98728324861E+01  0.51100000000E-03 0.  1.
        -12    1    3    3    0    0  0.45228935557E+01  0.96924765715E+01  0.27159527816E+02  0.29189734829E+02  0.00000000000E+00 0.  1.
</event>
<event>
 7    1  0.4450624E-010  0.4778727E+02  0.7816164E-02  0.1312668E+00
        -11   -1    0    0    0    0  0.00000000000E+00  0.00000000000E+00  0.45593999997E+02  0.45594000000E+02  0.51100000000E-03 0.  1.
         11   -1    0    0    0    0 -0.00000000000E+00 -0.00000000000E+00 -0.45593999997E+02  0.45594000000E+02  0.51100000000E-03 0. -1.
    9900012    2    1    2    0    0  0.33159483726E+02 -0.15028189114E+02  0.23626797567E+02  0.47787269681E+02  0.19999993782E+02 0.  0.
         12    1    1    2    0    0 -0.33159483726E+02  0.15028189114E+02 -0.23626797567E+02  0.43400730319E+02  0.00000000000E+00 0. -1.
         11    1    3    3    0    0  0.71114259025E+00 -0.46708287933E+00 -0.12486123503E+01  0.15109345659E+01  0.51100000000E-03 0. -1.
        -11    1    3    3    0    0  0.25375252137E+02 -0.17945240241E+02  0.18485716077E+02  0.36161537128E+02  0.51100000000E-03 0.  1.
        -12    1    3    3    0    0  0.70730889988E+01  0.33841340058E+01  0.63896938396E+01  0.10114797987E+02  0.00000000000E+00 0.  1.
</event>
<event>
 7    1  0.4450624E-010  0.4778728E+02  0.7816164E-02  0.1312668E+00
        -11   -1    0    0    0    0  0.00000000000E+00  0.00000000000E+00  0.45593999997E+02  0.45594000000E+02  0.51100000000E-03 0.  1.
         11   -1    0    0    0    0 -0.00000000000E+00 -0.00000000000E+00 -0.45593999997E+02  0.45594000000E+02  0.51100000000E-03 0. -1.
    9900012    2    1    2    0    0  0.21757018864E+02 -0.36746995181E+00  0.37551564819E+02  0.47787275071E+02  0.20000018360E+02 0.  0.
         12    1    1    2    0    0 -0.21757018864E+02  0.36746995181E+00 -0.37551564819E+02  0.43400724929E+02  0.00000000000E+00 0. -1.
         11    1    3    3    0    0  0.10867920855E+02  0.25413807735E+01  0.21181498211E+02  0.23942142483E+02  0.51100000000E-03 0. -1.
        -11    1    3    3    0    0  0.47604298743E+01 -0.29852113186E+01  0.16786389368E+02  0.17701865649E+02  0.51100000000E-03 0.  1.
         12    1    3    3    0    0  0.61286681346E+01  0.76360593272E-01 -0.41632276015E+00  0.61432669391E+01  0.00000000000E+00 0. -1.
</event>
<event>
 7    1  0.4450624E-010  0.4778727E+02  0.7816164E-02  0.1312668E+00
        -11   -1    0    0    0    0  0.00000000000E+00  0.00000000000E+00  0.45593999997E+02  0.45594000000E+02  0.51100000000E-03 0.  1.
         11   -1    0    0    0    0 -0.00000000000E+00 -0.00000000000E+00 -0.45593999997E+02  0.45594000000E+02  0.51100000000E-03 0. -1.
    9900012    2    1    2    0    0 -0.53249030459E+01 -0.34977205519E+02  0.25136910510E+02  0.47787265348E+02  0.19999974028E+02 0.  0.
         12    1    1    2    0    0  0.53249030459E+01  0.34977205519E+02 -0.25136910510E+02  0.43400734652E+02  0.00000000000E+00 0. -1.
         11    1    3    3    0    0  0.14682513911E+01 -0.63571903961E+01 -0.10991039557E+01  0.66164689712E+01  0.51100000000E-03 0. -1.
        -11    1    3    3    0    0 -0.24104932807E+01 -0.37475409328E+00  0.10275799871E+00  0.24416138012E+01  0.51100000000E-03 0.  1.
        -12    1    3    3    0    0 -0.43826611562E+01 -0.28245261029E+02  0.26133256467E+02  0.38729182576E+02  0.00000000000E+00 0.  1.
</event>
<event>
 7    1  0.4450624E-010  0.4778727E+02  0.7816164E-02  0.1312668E+00
        -11   -1    0    0    0    0  0.00000000000E+00  0.00000000000E+00  0.45593999997E+02  0.45594000000E+02  0.51100000000E-03 0.  1.
         11   -1    0    0    0    0 -0.00000000000E+00 -0.00000000000E+00 -0.45593999997E+02  0.45594000000E+02  0.51100000000E-03 0. -1.
    9900012    2    1    2    0    0 -0.19685409677E+02 -0.37714743496E+01  0.38495242529E+02  0.47787273390E+02  0.20000010694E+02 0.  0.
         12    1    1    2    0    0  0.19685409677E+02  0.37714743496E+01 -0.38495242529E+02  0.43400726610E+02  0.00000000000E+00 0. -1.
         11    1    3    3    0    0 -0.28813161356E+01 -0.36727021205E+01  0.38036740810E+01  0.60215164465E+01  0.51100000000E-03 0. -1.
        -11    1    3    3    0    0 -0.11288260956E+02 -0.13429313089E+01  0.34257874528E+02  0.36094740161E+02  0.51100000000E-03 0.  1.
         12    1    3    3    0    0 -0.55158325854E+01  0.12441590798E+01  0.43369392007E+00  0.56710167820E+01  0.00000000000E+00 0. -1.
</event>
<event>
 7    1  0.4450624E-010  0.4778727E+02  0.7816164E-02  0.1312668E+00
        -11   -1    0    0    0    0  0.00000000000E+00  0.00000000000E+00  0.45593999997E+02  0.45594000000E+02  0.51100000000E-03 0.  1.
         11   -1    0    0    0    0 -0.00000000000E+00 -0.00000000000E+00 -0.45593999997E+02  0.45594000000E+02  0.51100000000E-03 0. -1.
    9900012    2    1    2    0    0  0.24683547839E+02  0.25679336084E+02  0.24797524961E+02  0.47787273280E+02  0.20000010193E+02 0.  0.
         12    1    1    2    0    0 -0.24683547839E+02 -0.25679336084E+02 -0.24797524961E+02  0.43400726720E+02  0.00000000000E+00 0. -1.
         11    1    3    3    0    0  0.95072196097E+01  0.59513831227E+01  0.10456391498E+02  0.15334350629E+02  0.51100000000E-03 0. -1.
        -11    1    3    3    0    0  0.31608557823E+01  0.15245260891E+02  0.11396426581E+02  0.19294753898E+02  0.51100000000E-03 0.  1.
         12    1    3    3    0    0  0.12015472447E+02  0.44826920702E+01  0.29447068818E+01  0.13158168753E+02  0.00000000000E+00 0. -1.
</event>
<event>
 7    1  0.4450624E-010  0.4778727E+02  0.7816164E-02  0.1312668E+00
        -11   -1    0    0    0    0  0.00000000000E+00  0.00000000000E+00  0.45593999997E+02  0.45594000000E+02  0.51100000000E-03 0.  1.
         11   -1    0    0    0    0 -0.00000000000E+00 -0.00000000000E+00 -0.45593999997E+02  0.45594000000E+02  0.51100000000E-03 0. -1.
    9900012    2    1    2    0    0  0.19285671804E+02  0.64298999772E+01  0.38345045051E+02  0.47787271543E+02  0.20000002272E+02 0.  0.
         12    1    1    2    0    0 -0.19285671804E+02 -0.64298999772E+01 -0.38345045051E+02  0.43400728457E+02  0.00000000000E+00 0. -1.
         11    1    3    3    0    0  0.53495856029E+01  0.87902330921E+01  0.16551974887E+02  0.19489847020E+02  0.51100000000E-03 0. -1.
        -11    1    3    3    0    0  0.38823796344E+01 -0.87977163502E+00  0.16232359128E+02  0.16713358515E+02  0.51100000000E-03 0.  1.
         12    1    3    3    0    0  0.10053706567E+02 -0.14805614799E+01  0.55607110365E+01  0.11584066008E+02  0.00000000000E+00 0. -1.
</event>
<event>
 7    1  0.4450624E-010  0.4778727E+02  0.7816164E-02  0.1312668E+00
        -11   -1    0    0    0    0  0.00000000000E+00  0.00000000000E+00  0.45593999997E+02  0.45594000000E+02  0.51100000000E-03 0. -1.
         11   -1    0    0    0    0 -0.00000000000E+00 -0.00000000000E+00 -0.45593999997E+02  0.45594000000E+02  0.51100000000E-03 0.  1.
    9900012    2    1    2    0    0 -0.21154349073E+00 -0.33383330919E+02 -0.27733232073E+02  0.47787266192E+02  0.19999977875E+02 0.  0.
         12    1    1    2    0    0  0.21154349073E+00  0.33383330919E+02  0.27733232073E+02  0.43400733808E+02  0.00000000000E+00 0. -1.
         11    1    3    3    0    0  0.62323651556E+01 -0.29139600948E+02 -0.20816052991E+02  0.36349233571E+02  0.51100000000E-03 0. -1.
        -11    1    3    3    0    0 -0.11280595232E+01 -0.35407721614E+01 -0.33005677436E+01  0.49702448106E+01  0.51100000000E-03 0.  1.
         12    1    3    3    0    0 -0.53158491231E+01 -0.70295780955E+00 -0.36166113383E+01  0.64677878099E+01  0.00000000000E+00 0. -1.
</event>
<event>
 7    1  0.4450624E-010  0.4778727E+02  0.7816164E-02  0.1312668E+00
        -11   -1    0    0    0    0  0.00000000000E+00  0.00000000000E+00  0.45593999997E+02  0.45594000000E+02  0.51100000000E-03 0. -1.
         11   -1    0    0    0    0 -0.00000000000E+00 -0.00000000000E+00 -0.45593999997E+02  0.45594000000E+02  0.51100000000E-03 0.  1.
    9900012    2    1    2    0    0 -0.62041002425E+01  0.42938384608E+02  0.11948755621E+01  0.47787268899E+02  0.19999990217E+02 0.  0.
         12    1    1    2    0    0  0.62041002425E+01 -0.42938384608E+02 -0.11948755621E+01  0.43400731101E+02  0.00000000000E+00 0. -1.
         11    1    3    3    0    0 -0.35111742159E+01  0.92455414525E+01 -0.21182900263E+01  0.10114125470E+02  0.51100000000E-03 0.  1.
        -11    1    3    3    0    0 -0.63898954033E+01  0.15988609038E+02 -0.47643810467E+01  0.17865209465E+02  0.51100000000E-03 0. -1.
         12    1    3    3    0    0  0.36969693767E+01  0.17704234117E+02  0.80775466352E+01  0.19807933963E+02  0.00000000000E+00 0. -1.
</event>
<event>
 7    1  0.4450624E-010  0.4778727E+02  0.7816164E-02  0.1312668E+00
        -11   -1    0    0    0    0  0.00000000000E+00  0.00000000000E+00  0.45593999997E+02  0.45594000000E+02  0.51100000000E-03 0. -1.
         11   -1    0    0    0    0 -0.00000000000E+00 -0.00000000000E+00 -0.45593999997E+02  0.45594000000E+02  0.51100000000E-03 0.  1.
    9900012    2    1    2    0    0  0.12601665522E+02  0.29573655653E+02 -0.29158534854E+02  0.47787271464E+02  0.20000001914E+02 0.  0.
         12    1    1    2    0    0 -0.12601665522E+02 -0.29573655653E+02  0.29158534854E+02  0.43400728536E+02  0.00000000000E+00 0. -1.
         11    1    3    3    0    0  0.12025425284E+02  0.84006725927E+01 -0.10815079362E+02  0.18224930593E+02  0.51100000000E-03 0. -1.
        -11    1    3    3    0    0  0.44194639296E+01  0.55539805519E+01 -0.56856822060E+01  0.90942478416E+01  0.51100000000E-03 0.  1.
        -12    1    3    3    0    0 -0.38432236912E+01  0.15619002508E+02 -0.12657773286E+02  0.20468093029E+02  0.00000000000E+00 0.  1.
</event>
<event>
 7    1  0.4450624E-010  0.4778722E+02  0.7816164E-02  0.1312668E+00
        -11   -1    0    0    0    0  0.00000000000E+00  0.00000000000E+00  0.45593999997E+02  0.45594000000E+02  0.51100000000E-03 0.  1.
         11   -1    0    0    0    0 -0.00000000000E+00 -0.00000000000E+00 -0.45593999997E+02  0.45594000000E+02  0.51100000000E-03 0. -1.
    9900012    2    1    2    0    0  0.29463471816E+02  0.33838638968E+01  0.31687239105E+02  0.47787218574E+02  0.19999760765E+02 0.  0.
         12    1    1    2    0    0 -0.29463471816E+02 -0.33838638968E+01 -0.31687239105E+02  0.43400781426E+02  0.00000000000E+00 0. -1.
         11    1    3    3    0    0 -0.24173083314E+00  0.94442572656E+00 -0.16094089681E+01  0.18816405705E+01  0.51100000000E-03 0. -1.
        -11    1    3    3    0    0  0.75892142577E+01  0.72579128404E+00  0.26455013440E+01  0.80697970024E+01  0.51100000000E-03 0.  1.
        -12    1    3    3    0    0  0.22115988391E+02  0.17136468862E+01  0.30651146729E+02  0.37835781001E+02  0.00000000000E+00 0.  1.
</event>
<event>
 7    1  0.4450624E-010  0.4778729E+02  0.7816164E-02  0.1312668E+00
        -11   -1    0    0    0    0  0.00000000000E+00  0.00000000000E+00  0.45593999997E+02  0.45594000000E+02  0.51100000000E-03 0. -1.
         11   -1    0    0    0    0 -0.00000000000E+00 -0.00000000000E+00 -0.45593999997E+02  0.45594000000E+02  0.51100000000E-03 0.  1.
    9900012    2    1    2    0    0 -0.91891562301E+01 -0.40783471446E+02 -0.11657169662E+02  0.47787288716E+02  0.20000080573E+02 0.  0.
         12    1    1    2    0    0  0.91891562301E+01  0.40783471446E+02  0.11657169662E+02  0.43400711284E+02  0.00000000000E+00 0. -1.
         11    1    3    3    0    0 -0.43793774290E+01 -0.20777954803E+02  0.14925515996E+01  0.21286851881E+02  0.51100000000E-03 0. -1.
        -11    1    3    3    0    0 -0.52598442396E+00 -0.10608734141E+02 -0.11733202650E+01  0.10686373585E+02  0.51100000000E-03 0.  1.
        -12    1    3    3    0    0 -0.42837943772E+01 -0.93967825016E+01 -0.11976400997E+02  0.15814063250E+02  0.00000000000E+00 0.  1.
</event>
<event>
 7    1  0.4450624E-010  0.4778728E+02  0.7816164E-02  0.1312668E+00
        -11   -1    0    0    0    0  0.00000000000E+00  0.00000000000E+00  0.45593999997E+02  0.45594000000E+02  0.51100000000E-03 0. -1.
         11   -1    0    0    0    0 -0.00000000000E+00 -0.00000000000E+00 -0.45593999997E+02  0.45594000000E+02  0.51100000000E-03 0.  1.
    9900012    2    1    2    0    0 -0.25017422549E+02 -0.25264459814E+02 -0.24888915593E+02  0.47787280189E+02  0.20000041695E+02 0.  0.
         12    1    1    2    0    0  0.25017422549E+02  0.25264459814E+02  0.24888915593E+02  0.43400719811E+02  0.00000000000E+00 0. -1.
         11    1    3    3    0    0  0.24009140836E+01 -0.47243807358E+00  0.31179468782E+00  0.24667392158E+01  0.51100000000E-03 0. -1.
        -11    1    3    3    0    0 -0.71361665646E+01 -0.82944669128E+01 -0.11222775346E+02  0.15673982944E+02  0.51100000000E-03 0.  1.
         12    1    3    3    0    0 -0.20282170068E+02 -0.16497554827E+02 -0.13977934935E+02  0.29646558030E+02  0.00000000000E+00 0. -1.
</event>
<event>
 7    1  0.4450624E-010  0.4778726E+02  0.7816164E-02  0.1312668E+00
        -11   -1    0    0    0    0  0.00000000000E+00  0.00000000000E+00  0.45593999997E+02  0.45594000000E+02  0.51100000000E-03 0.  1.
         11   -1    0    0    0    0 -0.00000000000E+00 -0.00000000000E+00 -0.45593999997E+02  0.45594000000E+02  0.51100000000E-03 0. -1.
    9900012    2    1    2    0    0  0.43328024673E+01  0.16483002093E+02  0.39914430457E+02  0.47787259293E+02  0.19999946420E+02 0.  0.
         12    1    1    2    0    0 -0.43328024673E+01 -0.16483002093E+02 -0.39914430457E+02  0.43400740707E+02  0.00000000000E+00 0. -1.
         11    1    3    3    0    0  0.51204066297E+01  0.13207375622E+02  0.12727249701E+02  0.19043009744E+02  0.51100000000E-03 0. -1.
        -11    1    3    3    0    0 -0.22498281872E+01  0.21042304743E+01  0.24493874333E+01  0.39356081894E+01  0.51100000000E-03 0.  1.
        -12    1    3    3    0    0  0.14622240248E+01  0.11713959972E+01  0.24737793322E+02  0.24808641360E+02  0.00000000000E+00 0.  1.
</event>
<event>
 7    1  0.4450624E-010  0.4778726E+02  0.7816164E-02  0.1312668E+00
        -11   -1    0    0    0    0  0.00000000000E+00  0.00000000000E+00  0.45593999997E+02  0.45594000000E+02  0.51100000000E-03 0.  1.
         11   -1    0    0    0    0 -0.00000000000E+00 -0.00000000000E+00 -0.45593999997E+02  0.45594000000E+02  0.51100000000E-03 0. -1.
    9900012    2    1    2    0    0  0.26375720106E+02  0.13539886482E+02  0.31695695776E+02  0.47787259594E+02  0.19999947795E+02 0.  0.
         12    1    1    2    0    0 -0.26375720106E+02 -0.13539886482E+02 -0.31695695776E+02  0.43400740406E+02  0.00000000000E+00 0. -1.
         11    1    3    3    0    0  0.31274607742E+01  0.89350219814E+01  0.11003359419E+02  0.14515148896E+02  0.51100000000E-03 0. -1.
        -11    1    3    3    0    0  0.11057092403E+02  0.67474995634E+01  0.66757004191E+01  0.14572337463E+02  0.51100000000E-03 0.  1.
        -12    1    3    3    0    0  0.12191166928E+02 -0.21426350625E+01  0.14016635937E+02  0.18699773236E+02  0.00000000000E+00 0.  1.
</event>
<event>
 7    1  0.4450624E-010  0.4778727E+02  0.7816164E-02  0.1312668E+00
        -11   -1    0    0    0    0  0.00000000000E+00  0.00000000000E+00  0.45593999997E+02  0.45594000000E+02  0.51100000000E-03 0.  1.
         11   -1    0    0    0    0 -0.00000000000E+00 -0.00000000000E+00 -0.45593999997E+02  0.45594000000E+02  0.51100000000E-03 0. -1.
    9900012    2    1    2    0    0  0.17951043942E+02 -0.23462860105E+02  0.31794305971E+02  0.47787266422E+02  0.19999978925E+02 0.  0.
         12    1    1    2    0    0 -0.17951043942E+02  0.23462860105E+02 -0.31794305971E+02  0.43400733578E+02  0.00000000000E+00 0. -1.
         11    1    3    3    0    0  0.22447513448E+01 -0.12070544781E+01 -0.25651728899E+01  0.36160754043E+01  0.51100000000E-03 0. -1.
        -11    1    3    3    0    0  0.36935267121E+01 -0.65349589914E+01  0.13324627610E+02  0.15293578057E+02  0.51100000000E-03 0.  1.
        -12    1    3    3    0    0  0.12012765885E+02 -0.15720846636E+02  0.21034851251E+02  0.28877612961E+02  0.00000000000E+00 0.  1.
</event>
<event>
 7    1  0.4450624E-010  0.4778727E+02  0.7816164E-02  0.1312668E+00
        -11   -1    0    0    0    0  0.00000000000E+00  0.00000000000E+00  0.45593999997E+02  0.45594000000E+02  0.51100000000E-03 0. -1.
         11   -1    0    0    0    0 -0.00000000000E+00 -0.00000000000E+00 -0.45593999997E+02  0.45594000000E+02  0.51100000000E-03 0.  1.
    9900012    2    1    2    0    0 -0.30233040745E+02  0.20173422026E+02 -0.23719603107E+02  0.47787270968E+02  0.19999999653E+02 0.  0.
         12    1    1    2    0    0  0.30233040745E+02 -0.20173422026E+02  0.23719603107E+02  0.43400729032E+02  0.00000000000E+00 0. -1.
         11    1    3    3    0    0 -0.35014993925E+01  0.63626090748E+01 -0.33569312789E+01  0.80007674699E+01  0.51100000000E-03 0. -1.
        -11    1    3    3    0    0 -0.39038064166E+01 -0.35871019180E+01 -0.47228412245E+01  0.71001573364E+01  0.51100000000E-03 0.  1.
        -12    1    3    3    0    0 -0.22827734936E+02  0.17397914870E+02 -0.15639830603E+02  0.32686346162E+02  0.00000000000E+00 0.  1.
</event>
<event>
 7    1  0.4450624E-010  0.4778725E+02  0.7816164E-02  0.1312668E+00
        -11   -1    0    0    0    0  0.00000000000E+00  0.00000000000E+00  0.45593999997E+02  0.45594000000E+02  0.51100000000E-03 0.  1.
         11   -1    0    0    0    0 -0.00000000000E+00 -0.00000000000E+00 -0.45593999997E+02  0.45594000000E+02  0.51100000000E-03 0. -1.
    9900012    2    1    2    0    0  0.28201469407E+02 -0.29940867588E+02  0.13850875921E+02  0.47787248941E+02  0.19999899224E+02 0.  0.
         12    1    1    2    0    0 -0.28201469407E+02  0.29940867588E+02 -0.13850875921E+02  0.43400751059E+02  0.00000000000E+00 0. -1.
         11    1    3    3    0    0  0.65634935831E+01  0.21089041349E+00  0.26121213500E+01  0.70673262972E+01  0.51100000000E-03 0. -1.
        -11    1    3    3    0    0  0.14665142435E+02 -0.10441570569E+02  0.73953172814E+01  0.19462361535E+02  0.51100000000E-03 0.  1.
        -12    1    3    3    0    0  0.69728333895E+01 -0.19710187432E+02  0.38434372896E+01  0.21257561109E+02  0.00000000000E+00 0.  1.
</event>
<event>
 7    1  0.4450624E-010  0.4778727E+02  0.7816164E-02  0.1312668E+00
        -11   -1    0    0    0    0  0.00000000000E+00  0.00000000000E+00  0.45593999997E+02  0.45594000000E+02  0.51100000000E-03 0.  1.
         11   -1    0    0    0    0 -0.00000000000E+00 -0.00000000000E+00 -0.45593999997E+02  0.45594000000E+02  0.51100000000E-03 0. -1.
    9900012    2    1    2    0    0 -0.71806203293E+01 -0.34021289347E+02  0.25973333656E+02  0.47787268458E+02  0.19999988207E+02 0.  0.
         12    1    1    2    0    0  0.71806203293E+01  0.34021289347E+02 -0.25973333656E+02  0.43400731542E+02  0.00000000000E+00 0. -1.
         11    1    3    3    0    0 -0.38617274323E+00 -0.65077473446E-01 -0.15125221119E+01  0.15623981136E+01  0.51100000000E-03 0. -1.
        -11    1    3    3    0    0 -0.16091945137E+01 -0.10019741183E+01 -0.11866700449E+01  0.22364358192E+01  0.51100000000E-03 0.  1.
        -12    1    3    3    0    0 -0.51852530724E+01 -0.32954237756E+02  0.28672525813E+02  0.43988434525E+02  0.00000000000E+00 0.  1.
</event>
<event>
 7    1  0.4450624E-010  0.4778727E+02  0.7816164E-02  0.1312668E+00
        -11   -1    0    0    0    0  0.00000000000E+00  0.00000000000E+00  0.45593999997E+02  0.45594000000E+02  0.51100000000E-03 0.  1.
         11   -1    0    0    0    0 -0.00000000000E+00 -0.00000000000E+00 -0.45593999997E+02  0.45594000000E+02  0.51100000000E-03 0. -1.
    9900012    2    1    2    0    0 -0.28096826002E+02  0.21103543164E+02  0.25472180378E+02  0.47787272602E+02  0.20000007102E+02 0.  0.
         12    1    1    2    0    0  0.28096826002E+02 -0.21103543164E+02 -0.25472180378E+02  0.43400727398E+02  0.00000000000E+00 0. -1.
         11    1    3    3    0    0 -0.11390614512E+02  0.15238645683E+01  0.69404906510E+01  0.13425299733E+02  0.51100000000E-03 0. -1.
        -11    1    3    3    0    0 -0.11047286309E+02  0.50188438675E+01  0.33720310665E+01  0.12593725515E+02  0.51100000000E-03 0.  1.
        -12    1    3    3    0    0 -0.56589251810E+01  0.14560834728E+02  0.15159658661E+02  0.21768247355E+02  0.00000000000E+00 0.  1.
</event>
<event>
 7    1  0.4450624E-010  0.4778727E+02  0.7816164E-02  0.1312668E+00
        -11   -1    0    0    0    0  0.00000000000E+00  0.00000000000E+00  0.45593999997E+02  0.45594000000E+02  0.51100000000E-03 0. -1.
         11   -1    0    0    0    0 -0.00000000000E+00 -0.00000000000E+00 -0.45593999997E+02  0.45594000000E+02  0.51100000000E-03 0.  1.
    9900012    2    1    2    0    0  0.39946724108E+02 -0.53161855289E+01 -0.16112745325E+02  0.47787272386E+02  0.20000006118E+02 0.  0.
         12    1    1    2    0    0 -0.39946724108E+02  0.53161855289E+01  0.16112745325E+02  0.43400727614E+02  0.00000000000E+00 0. -1.
         11    1    3    3    0    0  0.91953889767E+01 -0.30874104066E+01  0.76250881776E+00  0.97297842428E+01  0.51100000000E-03 0. -1.
        -11    1    3    3    0    0  0.16069386063E+02 -0.37349163498E+01 -0.12211332576E+01  0.16542851486E+02  0.51100000000E-03 0.  1.
        -12    1    3    3    0    0  0.14681949067E+02  0.15061412275E+01 -0.15654120885E+02  0.21514636657E+02  0.00000000000E+00 0.  1.
</event>
<event>
 7    1  0.4450624E-010  0.4778727E+02  0.7816164E-02  0.1312668E+00
        -11   -1    0    0    0    0  0.00000000000E+00  0.00000000000E+00  0.45593999997E+02  0.45594000000E+02  0.51100000000E-03 0.  1.
         11   -1    0    0    0    0 -0.00000000000E+00 -0.00000000000E+00 -0.45593999997E+02  0.45594000000E+02  0.51100000000E-03 0. -1.
    9900012    2    1    2    0    0 -0.48271132101E+01  0.13336839383E+02  0.41017689778E+02  0.47787272109E+02  0.20000004856E+02 0.  0.
         12    1    1    2    0    0  0.48271132101E+01 -0.13336839383E+02 -0.41017689778E+02  0.43400727891E+02  0.00000000000E+00 0. -1.
         11    1    3    3    0    0 -0.52064697463E+01  0.48541146629E+00  0.27306568217E+01  0.58991048855E+01  0.51100000000E-03 0.  1.
        -11    1    3    3    0    0 -0.60595629065E+00  0.27557438354E+01  0.25065228163E+02  0.25223540002E+02  0.51100000000E-03 0. -1.
         12    1    3    3    0    0  0.98531282686E+00  0.10095684082E+02  0.13221804794E+02  0.16664627222E+02  0.00000000000E+00 0. -1.
</event>
<event>
 7    1  0.4450624E-010  0.4778729E+02  0.7816164E-02  0.1312668E+00
        -11   -1    0    0    0    0  0.00000000000E+00  0.00000000000E+00  0.45593999997E+02  0.45594000000E+02  0.51100000000E-03 0.  1.
         11   -1    0    0    0    0 -0.00000000000E+00 -0.00000000000E+00 -0.45593999997E+02  0.45594000000E+02  0.51100000000E-03 0. -1.
    9900012    2    1    2    0    0 -0.40244880285E+02 -0.74449802323E+01  0.14441044523E+02  0.47787287025E+02  0.20000072862E+02 0.  0.
         12    1    1    2    0    0  0.40244880285E+02  0.74449802323E+01 -0.14441044523E+02  0.43400712975E+02  0.00000000000E+00 0. -1.
         11    1    3    3    0    0  0.61052275739E+00 -0.47381629115E+00  0.43074667636E+01  0.43762438341E+01  0.51100000000E-03 0. -1.
        -11    1    3    3    0    0 -0.10202859642E+02  0.17285594535E+01  0.25509673106E+01  0.10658034394E+02  0.51100000000E-03 0.  1.
        -12    1    3    3    0    0 -0.30652543400E+02 -0.86997233947E+01  0.75826104486E+01  0.32753008797E+02  0.00000000000E+00 0.  1.
</event>
<event>
 7    1  0.4450624E-010  0.4778727E+02  0.7816164E-02  0.1312668E+00
        -11   -1    0    0    0    0  0.00000000000E+00  0.00000000000E+00  0.45593999997E+02  0.45594000000E+02  0.51100000000E-03 0.  1.
         11   -1    0    0    0    0 -0.00000000000E+00 -0.00000000000E+00 -0.45593999997E+02  0.45594000000E+02  0.51100000000E-03 0. -1.
    9900012    2    1    2    0    0 -0.10224589465E+02 -0.14692420602E+01  0.42153556463E+02  0.47787271614E+02  0.20000002597E+02 0.  0.
         12    1    1    2    0    0  0.10224589465E+02  0.14692420602E+01 -0.42153556463E+02  0.43400728386E+02  0.00000000000E+00 0. -1.
         11    1    3    3    0    0  0.99412532201E+00 -0.40262232803E+01  0.41818256196E+01  0.58895182173E+01  0.51100000000E-03 0. -1.
        -11    1    3    3    0    0 -0.57674995899E+01  0.63537956620E+00  0.31553325341E+01  0.66048378007E+01  0.51100000000E-03 0.  1.
        -12    1    3    3    0    0 -0.54512151967E+01  0.19216016539E+01  0.34816398309E+02  0.35292915596E+02  0.00000000000E+00 0.  1.
</event>
<event>
 7    1  0.4450624E-010  0.4778728E+02  0.7816164E-02  0.1312668E+00
        -11   -1    0    0    0    0  0.00000000000E+00  0.00000000000E+00  0.45593999997E+02  0.45594000000E+02  0.51100000000E-03 0. -1.
         11   -1    0    0    0    0 -0.00000000000E+00 -0.00000000000E+00 -0.45593999997E+02  0.45594000000E+02  0.51100000000E-03 0.  1.
    9900012    2    1    2    0    0  0.32154532512E+02 -0.16164564340E+02 -0.24257267755E+02  0.47787284104E+02  0.20000059543E+02 0.  0.
         12    1    1    2    0    0 -0.32154532512E+02  0.16164564340E+02  0.24257267755E+02  0.43400715896E+02  0.00000000000E+00 0. -1.
         11    1    3    3    0    0  0.53843843133E+01 -0.16326383763E+01 -0.86948182980E+00  0.56932505139E+01  0.51100000000E-03 0. -1.
        -11    1    3    3    0    0  0.26594863658E+02 -0.17507102255E+02 -0.22488438866E+02  0.38980960548E+02  0.51100000000E-03 0.  1.
         12    1    3    3    0    0  0.17528454087E+00  0.29751762910E+01 -0.89934705916E+00  0.31130730421E+01  0.00000000000E+00 0. -1.
</event>
<event>
 7    1  0.4450624E-010  0.4778726E+02  0.7816164E-02  0.1312668E+00
        -11   -1    0    0    0    0  0.00000000000E+00  0.00000000000E+00  0.45593999997E+02  0.45594000000E+02  0.51100000000E-03 0.  1.
         11   -1    0    0    0    0 -0.00000000000E+00 -0.00000000000E+00 -0.45593999997E+02  0.45594000000E+02  0.51100000000E-03 0. -1.
    9900012    2    1    2    0    0 -0.36630193899E+02  0.74006992369E+01  0.22069949823E+02  0.47787261072E+02  0.19999954531E+02 0.  0.
         12    1    1    2    0    0  0.36630193899E+02 -0.74006992369E+01 -0.22069949823E+02  0.43400738928E+02  0.00000000000E+00 0. -1.
         11    1    3    3    0    0 -0.20347825980E+02  0.50304584326E+01  0.38921833053E+01  0.21318738830E+02  0.51100000000E-03 0. -1.
        -11    1    3    3    0    0 -0.17002048942E+02  0.39244118552E+01  0.17175784544E+02  0.24484244967E+02  0.51100000000E-03 0.  1.
        -12    1    3    3    0    0  0.71968102232E+00 -0.15541710508E+01  0.10019819740E+01  0.19842772753E+01  0.00000000000E+00 0.  1.
</event>
<event>
 7    1  0.4450624E-010  0.4778727E+02  0.7816164E-02  0.1312668E+00
        -11   -1    0    0    0    0  0.00000000000E+00  0.00000000000E+00  0.45593999997E+02  0.45594000000E+02  0.51100000000E-03 0. -1.
         11   -1    0    0    0    0 -0.00000000000E+00 -0.00000000000E+00 -0.45593999997E+02  0.45594000000E+02  0.51100000000E-03 0.  1.
    9900012    2    1    2    0    0  0.79915895147E+01  0.30964118837E+02  0.29342482185E+02  0.47787269371E+02  0.19999992370E+02 0.  0.
         12    1    1    2    0    0 -0.79915895147E+01 -0.30964118837E+02 -0.29342482185E+02  0.43400730629E+02  0.00000000000E+00 0. -1.
         11    1    3    3    0    0 -0.14945840665E+01  0.20318346551E+01 -0.78980009724E+00  0.26430887333E+01  0.51100000000E-03 0. -1.
        -11    1    3    3    0    0  0.21617431447E+01  0.19009913805E+02  0.10138615653E+02  0.21652747722E+02  0.51100000000E-03 0.  1.
        -12    1    3    3    0    0  0.73244304366E+01  0.99223703770E+01  0.19993666630E+02  0.23491432915E+02  0.00000000000E+00 0.  1.
</event>
<event>
 7    1  0.4450624E-010  0.4778722E+02  0.7816164E-02  0.1312668E+00
        -11   -1    0    0    0    0  0.00000000000E+00  0.00000000000E+00  0.45593999997E+02  0.45594000000E+02  0.51100000000E-03 0. -1.
         11   -1    0    0    0    0 -0.00000000000E+00 -0.00000000000E+00 -0.45593999997E+02  0.45594000000E+02  0.51100000000E-03 0.  1.
    9900012    2    1    2    0    0 -0.34258758573E+02  0.26623528687E+02  0.10735973860E+01  0.47787223162E+02  0.19999781686E+02 0.  0.
         12    1    1    2    0    0  0.34258758573E+02 -0.26623528687E+02 -0.10735973860E+01  0.43400776838E+02  0.00000000000E+00 0. -1.
         11    1    3    3    0    0 -0.33089267949E+00 -0.56342552388E+00  0.21128354452E+01  0.22115632856E+01  0.51100000000E-03 0. -1.
        -11    1    3    3    0    0 -0.18102491912E+01  0.39879250599E+01 -0.38840651672E+01  0.58537604070E+01  0.51100000000E-03 0.  1.
        -12    1    3    3    0    0 -0.32117616703E+02  0.23199029151E+02  0.28448271080E+01  0.39721899470E+02  0.00000000000E+00 0.  1.
</event>
<event>
 7    1  0.4450624E-010  0.4778728E+02  0.7816164E-02  0.1312668E+00
        -11   -1    0    0    0    0  0.00000000000E+00  0.00000000000E+00  0.45593999997E+02  0.45594000000E+02  0.51100000000E-03 0. -1.
         11   -1    0    0    0    0 -0.00000000000E+00 -0.00000000000E+00 -0.45593999997E+02  0.45594000000E+02  0.51100000000E-03 0.  1.
    9900012    2    1    2    0    0 -0.25478316103E+02  0.35070159320E+02 -0.21359132031E+01  0.47787276603E+02  0.20000025344E+02 0.  0.
         12    1    1    2    0    0  0.25478316103E+02 -0.35070159320E+02  0.21359132031E+01  0.43400723397E+02  0.00000000000E+00 0. -1.
         11    1    3    3    0    0 -0.13719888122E+02  0.12485135391E+02 -0.67783222994E+01  0.19749926310E+02  0.51100000000E-03 0.  1.
        -11    1    3    3    0    0 -0.35543674427E+01  0.13994285102E+02 -0.17557772429E+01  0.14544974989E+02  0.51100000000E-03 0. -1.
        -12    1    3    3    0    0 -0.82040605383E+01  0.85907388272E+01  0.63981863393E+01  0.13492375304E+02  0.00000000000E+00 0.  1.
</event>
<event>
 7    1  0.4450624E-010  0.4778727E+02  0.7816164E-02  0.1312668E+00
        -11   -1    0    0    0    0  0.00000000000E+00  0.00000000000E+00  0.45593999997E+02  0.45594000000E+02  0.51100000000E-03 0.  1.
         11   -1    0    0    0    0 -0.00000000000E+00 -0.00000000000E+00 -0.45593999997E+02  0.45594000000E+02  0.51100000000E-03 0. -1.
    9900012    2    1    2    0    0 -0.40423042349E+02 -0.15774028609E+02 -0.88377407868E+00  0.47787269730E+02  0.19999994009E+02 0.  0.
         12    1    1    2    0    0  0.40423042349E+02  0.15774028609E+02  0.88377407868E+00  0.43400730270E+02  0.00000000000E+00 0. -1.
         11    1    3    3    0    0 -0.21015851506E+02 -0.80452776760E+01 -0.91421254085E+01  0.24289317912E+02  0.51100000000E-03 0. -1.
        -11    1    3    3    0    0 -0.64471864380E+00  0.92114257988E+00  0.12499800432E+01  0.16812543388E+01  0.51100000000E-03 0.  1.
        -12    1    3    3    0    0 -0.18762472200E+02 -0.86498935132E+01  0.70083712866E+01  0.21816697480E+02  0.00000000000E+00 0.  1.
</event>
<event>
 7    1  0.4450624E-010  0.4778727E+02  0.7816164E-02  0.1312668E+00
        -11   -1    0    0    0    0  0.00000000000E+00  0.00000000000E+00  0.45593999997E+02  0.45594000000E+02  0.51100000000E-03 0.  1.
         11   -1    0    0    0    0 -0.00000000000E+00 -0.00000000000E+00 -0.45593999997E+02  0.45594000000E+02  0.51100000000E-03 0. -1.
    9900012    2    1    2    0    0  0.12889564327E+02 -0.15586113609E+02  0.38399940597E+02  0.47787271391E+02  0.20000001579E+02 0.  0.
         12    1    1    2    0    0 -0.12889564327E+02  0.15586113609E+02 -0.38399940597E+02  0.43400728609E+02  0.00000000000E+00 0. -1.
         11    1    3    3    0    0  0.29882686789E+01  0.20198919619E+01  0.14551627706E+02  0.14991983938E+02  0.51100000000E-03 0. -1.
        -11    1    3    3    0    0  0.30287005790E+01  0.56419956590E+00  0.34975413162E+01  0.46609166338E+01  0.51100000000E-03 0.  1.
        -12    1    3    3    0    0  0.68725950687E+01 -0.18170205137E+02  0.20350771574E+02  0.28134370819E+02  0.00000000000E+00 0.  1.
</event>
<event>
 7    1  0.4450624E-010  0.4778727E+02  0.7816164E-02  0.1312668E+00
        -11   -1    0    0    0    0  0.00000000000E+00  0.00000000000E+00  0.45593999997E+02  0.45594000000E+02  0.51100000000E-03 0.  1.
         11   -1    0    0    0    0 -0.00000000000E+00 -0.00000000000E+00 -0.45593999997E+02  0.45594000000E+02  0.51100000000E-03 0. -1.
    9900012    2    1    2    0    0  0.31509061679E+02  0.18014873077E+02  0.23796355908E+02  0.47787272190E+02  0.20000005225E+02 0.  0.
         12    1    1    2    0    0 -0.31509061679E+02 -0.18014873077E+02 -0.23796355908E+02  0.43400727810E+02  0.00000000000E+00 0. -1.
         11    1    3    3    0    0  0.13069629827E+02  0.16616639333E+02  0.74723516163E+01  0.22422398745E+02  0.51100000000E-03 0. -1.
        -11    1    3    3    0    0  0.42039498257E+00 -0.10786574278E+01  0.51842691037E+00  0.12684638388E+01  0.51100000000E-03 0.  1.
        -12    1    3    3    0    0  0.18019036869E+02  0.24768911726E+01  0.15805577381E+02  0.24096409607E+02  0.00000000000E+00 0.  1.
</event>
<event>
 7    1  0.4450624E-010  0.4778727E+02  0.7816164E-02  0.1312668E+00
        -11   -1    0    0    0    0  0.00000000000E+00  0.00000000000E+00  0.45593999997E+02  0.45594000000E+02  0.51100000000E-03 0. -1.
         11   -1    0    0    0    0 -0.00000000000E+00 -0.00000000000E+00 -0.45593999997E+02  0.45594000000E+02  0.51100000000E-03 0.  1.
    9900012    2    1    2    0    0 -0.41760474102E+02  0.10541167917E+02 -0.53450500709E+01  0.47787274447E+02  0.20000015515E+02 0.  0.
         12    1    1    2    0    0  0.41760474102E+02 -0.10541167917E+02  0.53450500709E+01  0.43400725553E+02  0.00000000000E+00 0. -1.
         11    1    3    3    0    0 -0.54443065125E+01 -0.18127302223E+01  0.36921410602E+01  0.68233694118E+01  0.51100000000E-03 0. -1.
        -11    1    3    3    0    0 -0.69631196986E+01 -0.18894107279E+01 -0.46274846418E+00  0.72297334140E+01  0.51100000000E-03 0.  1.
        -12    1    3    3    0    0 -0.29353047891E+02  0.14243308867E+02 -0.85744426669E+01  0.33734171621E+02  0.00000000000E+00 0.  1.
</event>
<event>
 7    1  0.4450624E-010  0.4778727E+02  0.7816164E-02  0.1312668E+00
        -11   -1    0    0    0    0  0.00000000000E+00  0.00000000000E+00  0.45593999997E+02  0.45594000000E+02  0.51100000000E-03 0.  1.
         11   -1    0    0    0    0 -0.00000000000E+00 -0.00000000000E+00 -0.45593999997E+02  0.45594000000E+02  0.51100000000E-03 0. -1.
    9900012    2    1    2    0    0 -0.29821350953E+02 -0.30645367884E+02 -0.74277708445E+01  0.47787270454E+02  0.19999997307E+02 0.  0.
         12    1    1    2    0    0  0.29821350953E+02  0.30645367884E+02  0.74277708445E+01  0.43400729546E+02  0.00000000000E+00 0. -1.
         11    1    3    3    0    0 -0.11985965487E+02 -0.15823345848E+02 -0.72996036029E+01  0.21150079326E+02  0.51100000000E-03 0. -1.
        -11    1    3    3    0    0  0.12714369100E+01 -0.23867722217E+01 -0.25435474217E+01  0.37125284109E+01  0.51100000000E-03 0.  1.
        -12    1    3    3    0    0 -0.19106822376E+02 -0.12435249814E+02  0.24153801801E+01  0.22924662717E+02  0.00000000000E+00 0.  1.
</event>
<event>
 7    1  0.4450624E-010  0.4778728E+02  0.7816164E-02  0.1312668E+00
        -11   -1    0    0    0    0  0.00000000000E+00  0.00000000000E+00  0.45593999997E+02  0.45594000000E+02  0.51100000000E-03 0.  1.
         11   -1    0    0    0    0 -0.00000000000E+00 -0.00000000000E+00 -0.45593999997E+02  0.45594000000E+02  0.51100000000E-03 0. -1.
    9900012    2    1    2    0    0  0.12451719371E+01  0.19868191620E+02  0.38565876363E+02  0.47787282136E+02  0.20000050573E+02 0.  0.
         12    1    1    2    0    0 -0.12451719371E+01 -0.19868191620E+02 -0.38565876363E+02  0.43400717864E+02  0.00000000000E+00 0. -1.
         11    1    3    3    0    0 -0.81987049746E+00 -0.28075504307E+01  0.89797691642E+01  0.94440871214E+01  0.51100000000E-03 0. -1.
        -11    1    3    3    0    0 -0.50103121799E-01  0.83317229867E+01  0.17816291320E+02  0.19668257546E+02  0.51100000000E-03 0.  1.
        -12    1    3    3    0    0  0.21151455564E+01  0.14344019064E+02  0.11769815879E+02  0.18674937469E+02  0.00000000000E+00 0.  1.
</event>
<event>
 7    1  0.4450624E-010  0.4778727E+02  0.7816164E-02  0.1312668E+00
        -11   -1    0    0    0    0  0.00000000000E+00  0.00000000000E+00  0.45593999997E+02  0.45594000000E+02  0.51100000000E-03 0. -1.
         11   -1    0    0    0    0 -0.00000000000E+00 -0.00000000000E+00 -0.45593999997E+02  0.45594000000E+02  0.51100000000E-03 0.  1.
    9900012    2    1    2    0    0 -0.42732805431E+01 -0.41359196072E+02 -0.12441032178E+02  0.47787270651E+02  0.19999998207E+02 0.  0.
         12    1    1    2    0    0  0.42732805431E+01  0.41359196072E+02  0.12441032178E+02  0.43400729349E+02  0.00000000000E+00 0. -1.
         11    1    3    3    0    0  0.53443967185E+01 -0.12975027789E+02 -0.41509977593E+01  0.14633683920E+02  0.51100000000E-03 0. -1.
        -11    1    3    3    0    0  0.11895344164E+01 -0.14167702599E+02 -0.43248345036E+01  0.14860786749E+02  0.51100000000E-03 0.  1.
        -12    1    3    3    0    0 -0.10807211678E+02 -0.14216465685E+02 -0.39651999154E+01  0.18292799982E+02  0.00000000000E+00 0.  1.
</event>
<event>
 7    1  0.4450624E-010  0.4778727E+02  0.7816164E-02  0.1312668E+00
        -11   -1    0    0    0    0  0.00000000000E+00  0.00000000000E+00  0.45593999997E+02  0.45594000000E+02  0.51100000000E-03 0. -1.
         11   -1    0    0    0    0 -0.00000000000E+00 -0.00000000000E+00 -0.45593999997E+02  0.45594000000E+02  0.51100000000E-03 0.  1.
    9900012    2    1    2    0    0 -0.16298418587E+02  0.28092169717E+02 -0.28789140521E+02  0.47787273511E+02  0.20000011246E+02 0.  0.
         12    1    1    2    0    0  0.16298418587E+02 -0.28092169717E+02  0.28789140521E+02  0.43400726489E+02  0.00000000000E+00 0. -1.
         11    1    3    3    0    0 -0.58733809135E+01  0.15684262467E+02 -0.19485680879E+02  0.25694054800E+02  0.51100000000E-03 0. -1.
        -11    1    3    3    0    0 -0.69474541309E+01  0.32496820533E+01 -0.96058798690E+01  0.12292293548E+02  0.51100000000E-03 0.  1.
         12    1    3    3    0    0 -0.34775835425E+01  0.91582251975E+01  0.30242022724E+00  0.98009251633E+01  0.00000000000E+00 0. -1.
</event>
<event>
 7    1  0.4450624E-010  0.4778727E+02  0.7816164E-02  0.1312668E+00
        -11   -1    0    0    0    0  0.00000000000E+00  0.00000000000E+00  0.45593999997E+02  0.45594000000E+02  0.51100000000E-03 0.  1.
         11   -1    0    0    0    0 -0.00000000000E+00 -0.00000000000E+00 -0.45593999997E+02  0.45594000000E+02  0.51100000000E-03 0. -1.
    9900012    2    1    2    0    0  0.58830694689E+01 -0.42789449067E+02 -0.42515692314E+01  0.47787270757E+02  0.19999998691E+02 0.  0.
         12    1    1    2    0    0 -0.58830694689E+01  0.42789449067E+02  0.42515692314E+01  0.43400729243E+02  0.00000000000E+00 0. -1.
         11    1    3    3    0    0  0.39864818946E+01 -0.83514321903E+01 -0.97923237470E+00  0.93057699215E+01  0.51100000000E-03 0. -1.
        -11    1    3    3    0    0 -0.30716412683E+01 -0.24412836254E+02 -0.86317208692E+01  0.26075432105E+02  0.51100000000E-03 0.  1.
        -12    1    3    3    0    0  0.49682288425E+01 -0.10025180623E+02  0.53593840125E+01  0.12406068730E+02  0.00000000000E+00 0.  1.
</event>
<event>
 7    1  0.4450624E-010  0.4778727E+02  0.7816164E-02  0.1312668E+00
        -11   -1    0    0    0    0  0.00000000000E+00  0.00000000000E+00  0.45593999997E+02  0.45594000000E+02  0.51100000000E-03 0. -1.
         11   -1    0    0    0    0 -0.00000000000E+00 -0.00000000000E+00 -0.45593999997E+02  0.45594000000E+02  0.51100000000E-03 0.  1.
    9900012    2    1    2    0    0  0.16940942747E+02 -0.36368167945E+02 -0.16552466809E+02  0.47787270302E+02  0.19999996617E+02 0.  0.
         12    1    1    2    0    0 -0.16940942747E+02  0.36368167945E+02  0.16552466809E+02  0.43400729698E+02  0.00000000000E+00 0. -1.
         11    1    3    3    0    0  0.56551341309E+01 -0.12419302826E+02 -0.42988722020E+00  0.13653000696E+02  0.51100000000E-03 0. -1.
        -11    1    3    3    0    0 -0.14273081151E+01 -0.74132738791E+01  0.34796083974E+00  0.75574410397E+01  0.51100000000E-03 0.  1.
        -12    1    3    3    0    0  0.12713116731E+02 -0.16535591240E+02 -0.16470540428E+02  0.26576828567E+02  0.00000000000E+00 0.  1.
</event>
<event>
 7    1  0.4450624E-010  0.4778726E+02  0.7816164E-02  0.1312668E+00
        -11   -1    0    0    0    0  0.00000000000E+00  0.00000000000E+00  0.45593999997E+02  0.45594000000E+02  0.51100000000E-03 0. -1.
         11   -1    0    0    0    0 -0.00000000000E+00 -0.00000000000E+00 -0.45593999997E+02  0.45594000000E+02  0.51100000000E-03 0.  1.
    9900012    2    1    2    0    0 -0.40927121854E+02 -0.87911071374E+01  0.11459103616E+02  0.47787263559E+02  0.19999965869E+02 0.  0.
         12    1    1    2    0    0  0.40927121854E+02  0.87911071374E+01 -0.11459103616E+02  0.43400736441E+02  0.00000000000E+00 0. -1.
         11    1    3    3    0    0 -0.24509167689E+02 -0.77253221886E+01  0.29061411463E+01  0.25861661979E+02  0.51100000000E-03 0. -1.
        -11    1    3    3    0    0 -0.12683971487E+02 -0.77394661607E+00  0.11516416678E+02  0.17149634964E+02  0.51100000000E-03 0.  1.
         12    1    3    3    0    0 -0.37339826788E+01 -0.29183833274E+00 -0.29634542089E+01  0.47759666149E+01  0.00000000000E+00 0. -1.
</event>
<event>
 7    1  0.4450624E-010  0.4778727E+02  0.7816164E-02  0.1312668E+00
        -11   -1    0    0    0    0  0.00000000000E+00  0.00000000000E+00  0.45593999997E+02  0.45594000000E+02  0.51100000000E-03 0. -1.
         11   -1    0    0    0    0 -0.00000000000E+00 -0.00000000000E+00 -0.45593999997E+02  0.45594000000E+02  0.51100000000E-03 0.  1.
    9900012    2    1    2    0    0  0.12306378539E+02  0.29066209381E+02 -0.29788117240E+02  0.47787269486E+02  0.19999992893E+02 0.  0.
         12    1    1    2    0    0 -0.12306378539E+02 -0.29066209381E+02  0.29788117240E+02  0.43400730514E+02  0.00000000000E+00 0. -1.
         11    1    3    3    0    0 -0.15598245649E+01  0.32237504791E+01 -0.64850873134E+01  0.74082371417E+01  0.51100000000E-03 0. -1.
        -11    1    3    3    0    0  0.46157367973E+01 -0.17260999776E+00 -0.67738709543E+01  0.81987894448E+01  0.51100000000E-03 0.  1.
        -12    1    3    3    0    0  0.92504663066E+01  0.26015068899E+02 -0.16529158972E+02  0.32180242899E+02  0.00000000000E+00 0.  1.
</event>
<event>
 7    1  0.5186535E-010  0.4778727E+02  0.7816164E-02  0.1312668E+00
        -11   -1    0    0    0    0  0.00000000000E+00  0.00000000000E+00  0.45593999997E+02  0.45594000000E+02  0.51100000000E-03 0.  1.
         11   -1    0    0    0    0 -0.00000000000E+00 -0.00000000000E+00 -0.45593999997E+02  0.45594000000E+02  0.51100000000E-03 0. -1.
    9900012    2    1    2    0    0  0.10870427171E+02  0.36553100612E+02  0.20720232388E+02  0.47787269805E+02  0.19999994350E+02 0.  0.
         12    1    1    2    0    0 -0.10870427171E+02 -0.36553100612E+02 -0.20720232388E+02  0.43400730195E+02  0.00000000000E+00 0. -1.
         11    1    3    3    0    0  0.20913619527E+01  0.78439710668E+00 -0.21266076697E+01  0.30840775087E+01  0.51100000000E-03 0. -1.
        -11    1    3    3    0    0  0.55588335013E+01  0.49701807468E+01  0.45435886040E+01  0.87319828340E+01  0.51100000000E-03 0.  1.
        -12    1    3    3    0    0  0.32202317172E+01  0.30798522758E+02  0.18303251454E+02  0.35971209462E+02  0.00000000000E+00 0.  1.
</event>
<event>
 7    1  0.4450624E-010  0.4778727E+02  0.7816164E-02  0.1312668E+00
        -11   -1    0    0    0    0  0.00000000000E+00  0.00000000000E+00  0.45593999997E+02  0.45594000000E+02  0.51100000000E-03 0.  1.
         11   -1    0    0    0    0 -0.00000000000E+00 -0.00000000000E+00 -0.45593999997E+02  0.45594000000E+02  0.51100000000E-03 0. -1.
    9900012    2    1    2    0    0 -0.80055890642E+01  0.49735125643E+01  0.42365055973E+02  0.47787271307E+02  0.20000001196E+02 0.  0.
         12    1    1    2    0    0  0.80055890642E+01 -0.49735125643E+01 -0.42365055973E+02  0.43400728693E+02  0.00000000000E+00 0. -1.
         11    1    3    3    0    0 -0.25653716681E+01 -0.29898849175E+01  0.63795324360E+01  0.74979315800E+01  0.51100000000E-03 0. -1.
        -11    1    3    3    0    0 -0.35357904267E+01 -0.21261086166E+01  0.16364455966E+01  0.44384801726E+01  0.51100000000E-03 0.  1.
        -12    1    3    3    0    0 -0.19044269693E+01  0.10089506098E+02  0.34349077941E+02  0.35850859554E+02  0.00000000000E+00 0.  1.
</event>
<event>
 7    1  0.4450624E-010  0.4778727E+02  0.7816164E-02  0.1312668E+00
        -11   -1    0    0    0    0  0.00000000000E+00  0.00000000000E+00  0.45593999997E+02  0.45594000000E+02  0.51100000000E-03 0.  1.
         11   -1    0    0    0    0 -0.00000000000E+00 -0.00000000000E+00 -0.45593999997E+02  0.45594000000E+02  0.51100000000E-03 0. -1.
    9900012    2    1    2    0    0  0.91939163786E+00 -0.21543328782E+02  0.37665138238E+02  0.47787274954E+02  0.20000017827E+02 0.  0.
         12    1    1    2    0    0 -0.91939163786E+00  0.21543328782E+02 -0.37665138238E+02  0.43400725046E+02  0.00000000000E+00 0. -1.
         11    1    3    3    0    0  0.45342439902E+01 -0.41143229948E+01  0.23271289226E+01  0.65500039353E+01  0.51100000000E-03 0. -1.
        -11    1    3    3    0    0  0.42022954258E+01 -0.76585786847E+01  0.14996787803E+02  0.17355597339E+02  0.51100000000E-03 0.  1.
        -12    1    3    3    0    0 -0.78171477781E+01 -0.97704271023E+01  0.20341221513E+02  0.23881673680E+02  0.00000000000E+00 0.  1.
</event>
<event>
 7    1  0.4450624E-010  0.4778727E+02  0.7816164E-02  0.1312668E+00
        -11   -1    0    0    0    0  0.00000000000E+00  0.00000000000E+00  0.45593999997E+02  0.45594000000E+02  0.51100000000E-03 0.  1.
         11   -1    0    0    0    0 -0.00000000000E+00 -0.00000000000E+00 -0.45593999997E+02  0.45594000000E+02  0.51100000000E-03 0. -1.
    9900012    2    1    2    0    0  0.33017549335E+02 -0.23918842299E+02  0.14877954415E+02  0.47787272949E+02  0.20000008682E+02 0.  0.
         12    1    1    2    0    0 -0.33017549335E+02  0.23918842299E+02 -0.14877954415E+02  0.43400727051E+02  0.00000000000E+00 0. -1.
         11    1    3    3    0    0  0.84838370549E+01 -0.22945002668E+01  0.97585551206E+01  0.13132768975E+02  0.51100000000E-03 0. -1.
        -11    1    3    3    0    0  0.13280441843E+02 -0.84126356851E+01  0.69794006263E+01  0.17200424648E+02  0.51100000000E-03 0.  1.
         12    1    3    3    0    0  0.11253270437E+02 -0.13211706347E+02 -0.18600013320E+01  0.17454079325E+02  0.00000000000E+00 0. -1.
</event>
<event>
 7    1  0.4450624E-010  0.4778727E+02  0.7816164E-02  0.1312668E+00
        -11   -1    0    0    0    0  0.00000000000E+00  0.00000000000E+00  0.45593999997E+02  0.45594000000E+02  0.51100000000E-03 0.  1.
         11   -1    0    0    0    0 -0.00000000000E+00 -0.00000000000E+00 -0.45593999997E+02  0.45594000000E+02  0.51100000000E-03 0. -1.
    9900012    2    1    2    0    0  0.32427467017E+02 -0.27587655095E+02  0.84263926013E+01  0.47787269326E+02  0.19999992165E+02 0.  0.
         12    1    1    2    0    0 -0.32427467017E+02  0.27587655095E+02 -0.84263926013E+01  0.43400730674E+02  0.00000000000E+00 0. -1.
         11    1    3    3    0    0  0.27026772074E+02 -0.12628974312E+02  0.10066184596E+02  0.31484368717E+02  0.51100000000E-03 0. -1.
        -11    1    3    3    0    0  0.28740652971E+01 -0.38406360510E+01 -0.87190183210E+00  0.48755460899E+01  0.51100000000E-03 0.  1.
         12    1    3    3    0    0  0.25266296462E+01 -0.11118044731E+02 -0.76789016251E+00  0.11427354520E+02  0.00000000000E+00 0. -1.
</event>
<event>
 7    1  0.4450624E-010  0.4778728E+02  0.7816164E-02  0.1312668E+00
        -11   -1    0    0    0    0  0.00000000000E+00  0.00000000000E+00  0.45593999997E+02  0.45594000000E+02  0.51100000000E-03 0.  1.
         11   -1    0    0    0    0 -0.00000000000E+00 -0.00000000000E+00 -0.45593999997E+02  0.45594000000E+02  0.51100000000E-03 0. -1.
    9900012    2    1    2    0    0  0.14608200766E+02  0.40857818047E+02 -0.92828882992E+00  0.47787279437E+02  0.20000038267E+02 0.  0.
         12    1    1    2    0    0 -0.14608200766E+02 -0.40857818047E+02  0.92828882992E+00  0.43400720563E+02  0.00000000000E+00 0. -1.
         11    1    3    3    0    0  0.30995298171E+01  0.16780484016E+02  0.34753382983E+01  0.17414640549E+02  0.51100000000E-03 0. -1.
        -11    1    3    3    0    0  0.49152684763E+01  0.74945499073E+01  0.49349014368E+01  0.10231392621E+02  0.51100000000E-03 0.  1.
         12    1    3    3    0    0  0.65934024730E+01  0.16582784124E+02 -0.93385285650E+01  0.20141246268E+02  0.00000000000E+00 0. -1.
</event>
<event>
 7    1  0.4450624E-010  0.4778727E+02  0.7816164E-02  0.1312668E+00
        -11   -1    0    0    0    0  0.00000000000E+00  0.00000000000E+00  0.45593999997E+02  0.45594000000E+02  0.51100000000E-03 0. -1.
         11   -1    0    0    0    0 -0.00000000000E+00 -0.00000000000E+00 -0.45593999997E+02  0.45594000000E+02  0.51100000000E-03 0.  1.
    9900012    2    1    2    0    0 -0.41310202857E+02 -0.62111412412E+01 -0.11769115935E+02  0.47787271602E+02  0.20000002541E+02 0.  0.
         12    1    1    2    0    0  0.41310202857E+02  0.62111412412E+01  0.11769115935E+02  0.43400728398E+02  0.00000000000E+00 0. -1.
         11    1    3    3    0    0 -0.22915064566E+02 -0.18541741894E+01 -0.29708648596E+01  0.23181116977E+02  0.51100000000E-03 0. -1.
        -11    1    3    3    0    0 -0.18365881492E+02  0.25187059765E+00 -0.68767614956E+01  0.19612722674E+02  0.51100000000E-03 0.  1.
        -12    1    3    3    0    0 -0.29256798530E-01 -0.46088376495E+01 -0.19214895801E+01  0.49934319507E+01  0.00000000000E+00 0.  1.
</event>
<event>
 7    1  0.4450624E-010  0.4778727E+02  0.7816164E-02  0.1312668E+00
        -11   -1    0    0    0    0  0.00000000000E+00  0.00000000000E+00  0.45593999997E+02  0.45594000000E+02  0.51100000000E-03 0. -1.
         11   -1    0    0    0    0 -0.00000000000E+00 -0.00000000000E+00 -0.45593999997E+02  0.45594000000E+02  0.51100000000E-03 0.  1.
    9900012    2    1    2    0    0  0.29099897153E+02  0.17240077129E+02 -0.27195571649E+02  0.47787269695E+02  0.19999993845E+02 0.  0.
         12    1    1    2    0    0 -0.29099897153E+02 -0.17240077129E+02  0.27195571649E+02  0.43400730305E+02  0.00000000000E+00 0. -1.
         11    1    3    3    0    0  0.13110953515E+02  0.99504522383E+01 -0.92960864717E+01  0.18903063926E+02  0.51100000000E-03 0. -1.
        -11    1    3    3    0    0  0.89962045966E+01  0.11427441539E+02 -0.11386013228E+02  0.18470501205E+02  0.51100000000E-03 0.  1.
         12    1    3    3    0    0  0.69927390414E+01 -0.41378166484E+01 -0.65134719490E+01  0.10413704564E+02  0.00000000000E+00 0. -1.
</event>
<event>
 7    1  0.4450624E-010  0.4778726E+02  0.7816164E-02  0.1312668E+00
        -11   -1    0    0    0    0  0.00000000000E+00  0.00000000000E+00  0.45593999997E+02  0.45594000000E+02  0.51100000000E-03 0.  1.
         11   -1    0    0    0    0 -0.00000000000E+00 -0.00000000000E+00 -0.45593999997E+02  0.45594000000E+02  0.51100000000E-03 0. -1.
    9900012    2    1    2    0    0 -0.94272693063E+01  0.33685708793E+02  0.25690922343E+02  0.47787264128E+02  0.19999968464E+02 0.  0.
         12    1    1    2    0    0  0.94272693063E+01 -0.33685708793E+02 -0.25690922343E+02  0.43400735872E+02  0.00000000000E+00 0. -1.
         11    1    3    3    0    0 -0.68235731720E+00 -0.17723009025E+01  0.15321426143E+01  0.24401072208E+01  0.51100000000E-03 0. -1.
        -11    1    3    3    0    0 -0.90631269449E+01  0.13664572291E+02  0.81969034014E+01  0.18331667451E+02  0.51100000000E-03 0.  1.
        -12    1    3    3    0    0  0.31821495580E+00  0.21793437404E+02  0.15961876327E+02  0.27015489456E+02  0.00000000000E+00 0.  1.
</event>
<event>
 7    1  0.4450624E-010  0.4778729E+02  0.7816164E-02  0.1312668E+00
        -11   -1    0    0    0    0  0.00000000000E+00  0.00000000000E+00  0.45593999997E+02  0.45594000000E+02  0.51100000000E-03 0. -1.
         11   -1    0    0    0    0 -0.00000000000E+00 -0.00000000000E+00 -0.45593999997E+02  0.45594000000E+02  0.51100000000E-03 0.  1.
    9900012    2    1    2    0    0 -0.12150745099E+02  0.39249215455E+02 -0.13981433812E+02  0.47787285585E+02  0.20000066297E+02 0.  0.
         12    1    1    2    0    0  0.12150745099E+02 -0.39249215455E+02  0.13981433812E+02  0.43400714415E+02  0.00000000000E+00 0. -1.
         11    1    3    3    0    0 -0.64315817544E+01  0.16545164838E+02 -0.24738808418E+01  0.17922829299E+02  0.51100000000E-03 0. -1.
        -11    1    3    3    0    0 -0.47223753388E+01  0.58587731979E+01  0.25042127326E+01  0.79307713304E+01  0.51100000000E-03 0.  1.
         12    1    3    3    0    0 -0.99678800613E+00  0.16845277419E+02 -0.14011765703E+02  0.21933684956E+02  0.00000000000E+00 0. -1.
</event>
<event>
 7    1  0.4450624E-010  0.4778729E+02  0.7816164E-02  0.1312668E+00
        -11   -1    0    0    0    0  0.00000000000E+00  0.00000000000E+00  0.45593999997E+02  0.45594000000E+02  0.51100000000E-03 0.  1.
         11   -1    0    0    0    0 -0.00000000000E+00 -0.00000000000E+00 -0.45593999997E+02  0.45594000000E+02  0.51100000000E-03 0. -1.
    9900012    2    1    2    0    0  0.30840207861E+02  0.21065203556E+02  0.22107916883E+02  0.47787294813E+02  0.20000108372E+02 0.  0.
         12    1    1    2    0    0 -0.30840207861E+02 -0.21065203556E+02 -0.22107916883E+02  0.43400705187E+02  0.00000000000E+00 0. -1.
         11    1    3    3    0    0  0.76068004470E+01  0.25496354104E+01  0.10291607101E+02  0.13049185061E+02  0.51100000000E-03 0. -1.
        -11    1    3    3    0    0  0.17980197856E+02  0.62797212893E+01  0.92679643444E+01  0.21180594367E+02  0.51100000000E-03 0.  1.
        -12    1    3    3    0    0  0.52532095584E+01  0.12235846856E+02  0.25483454377E+01  0.13557515385E+02  0.00000000000E+00 0.  1.
</event>
<event>
 7    1  0.4450624E-010  0.4778727E+02  0.7816164E-02  0.1312668E+00
        -11   -1    0    0    0    0  0.00000000000E+00  0.00000000000E+00  0.45593999997E+02  0.45594000000E+02  0.51100000000E-03 0. -1.
         11   -1    0    0    0    0 -0.00000000000E+00 -0.00000000000E+00 -0.45593999997E+02  0.45594000000E+02  0.51100000000E-03 0.  1.
    9900012    2    1    2    0    0  0.16875155585E+02 -0.25770251359E+02 -0.30573628067E+02  0.47787268851E+02  0.19999989998E+02 0.  0.
         12    1    1    2    0    0 -0.16875155585E+02  0.25770251359E+02  0.30573628067E+02  0.43400731149E+02  0.00000000000E+00 0. -1.
         11    1    3    3    0    0  0.35245528924E+01 -0.55493436251E+01 -0.29240873369E+01  0.71949965099E+01  0.51100000000E-03 0. -1.
        -11    1    3    3    0    0  0.13845050082E+02 -0.61885519766E+01 -0.18090788392E+02  0.23606359572E+02  0.51100000000E-03 0.  1.
         12    1    3    3    0    0 -0.49444739014E+00 -0.14032355758E+02 -0.95587523380E+01  0.16985912769E+02  0.00000000000E+00 0. -1.
</event>
<event>
 7    1  0.4450624E-010  0.4778727E+02  0.7816164E-02  0.1312668E+00
        -11   -1    0    0    0    0  0.00000000000E+00  0.00000000000E+00  0.45593999997E+02  0.45594000000E+02  0.51100000000E-03 0.  1.
         11   -1    0    0    0    0 -0.00000000000E+00 -0.00000000000E+00 -0.45593999997E+02  0.45594000000E+02  0.51100000000E-03 0. -1.
    9900012    2    1    2    0    0 -0.10432002652E+02 -0.41989426662E+02  0.34182776026E+01  0.47787271290E+02  0.20000001122E+02 0.  0.
         12    1    1    2    0    0  0.10432002652E+02  0.41989426662E+02 -0.34182776026E+01  0.43400728710E+02  0.00000000000E+00 0. -1.
         11    1    3    3    0    0 -0.20579401340E+01 -0.21744706574E+02  0.62586317767E+00  0.21850837205E+02  0.51100000000E-03 0. -1.
        -11    1    3    3    0    0 -0.10992251904E+02 -0.18881522343E+02 -0.36124186688E-01  0.21848175968E+02  0.51100000000E-03 0.  1.
         12    1    3    3    0    0  0.26181893860E+01 -0.13631977447E+01  0.28285386116E+01  0.40882581168E+01  0.00000000000E+00 0. -1.
</event>
<event>
 7    1  0.4450624E-010  0.4778727E+02  0.7816164E-02  0.1312668E+00
        -11   -1    0    0    0    0  0.00000000000E+00  0.00000000000E+00  0.45593999997E+02  0.45594000000E+02  0.51100000000E-03 0.  1.
         11   -1    0    0    0    0 -0.00000000000E+00 -0.00000000000E+00 -0.45593999997E+02  0.45594000000E+02  0.51100000000E-03 0. -1.
    9900012    2    1    2    0    0  0.25308805234E+02 -0.44076715743E+01  0.34980857163E+02  0.47787267760E+02  0.19999985024E+02 0.  0.
         12    1    1    2    0    0 -0.25308805234E+02  0.44076715743E+01 -0.34980857163E+02  0.43400732240E+02  0.00000000000E+00 0. -1.
         11    1    3    3    0    0  0.55344462496E+01 -0.25741486300E+01 -0.70057784133E+00  0.61438706067E+01  0.51100000000E-03 0. -1.
        -11    1    3    3    0    0  0.35930665411E+01 -0.27764221859E+01  0.39781432295E+01  0.60369090716E+01  0.51100000000E-03 0.  1.
        -12    1    3    3    0    0  0.16181292444E+02  0.94289924160E+00  0.31703291775E+02  0.35606488082E+02  0.00000000000E+00 0.  1.
</event>
<event>
 7    1  0.4450624E-010  0.4778727E+02  0.7816164E-02  0.1312668E+00
        -11   -1    0    0    0    0  0.00000000000E+00  0.00000000000E+00  0.45593999997E+02  0.45594000000E+02  0.51100000000E-03 0.  1.
         11   -1    0    0    0    0 -0.00000000000E+00 -0.00000000000E+00 -0.45593999997E+02  0.45594000000E+02  0.51100000000E-03 0. -1.
    9900012    2    1    2    0    0 -0.41379621510E+02 -0.12970123611E+02  0.17680124609E+01  0.47787273614E+02  0.20000011714E+02 0.  0.
         12    1    1    2    0    0  0.41379621510E+02  0.12970123611E+02 -0.17680124609E+01  0.43400726386E+02  0.00000000000E+00 0. -1.
         11    1    3    3    0    0 -0.13222369863E+02 -0.74264766299E+00 -0.10892299580E+01  0.13287927322E+02  0.51100000000E-03 0. -1.
        -11    1    3    3    0    0  0.18495089300E+01  0.25527376068E+00 -0.68569092542E-01  0.18683013559E+01  0.51100000000E-03 0.  1.
        -12    1    3    3    0    0 -0.30006760577E+02 -0.12482749708E+02  0.29258115114E+01  0.32631044936E+02  0.00000000000E+00 0.  1.
</event>
<event>
 7    1  0.4450624E-010  0.4778727E+02  0.7816164E-02  0.1312668E+00
        -11   -1    0    0    0    0  0.00000000000E+00  0.00000000000E+00  0.45593999997E+02  0.45594000000E+02  0.51100000000E-03 0. -1.
         11   -1    0    0    0    0 -0.00000000000E+00 -0.00000000000E+00 -0.45593999997E+02  0.45594000000E+02  0.51100000000E-03 0.  1.
    9900012    2    1    2    0    0  0.21667793740E+02  0.17165925003E+02 -0.33458348041E+02  0.47787270509E+02  0.19999997557E+02 0.  0.
         12    1    1    2    0    0 -0.21667793740E+02 -0.17165925003E+02  0.33458348041E+02  0.43400729491E+02  0.00000000000E+00 0. -1.
         11    1    3    3    0    0  0.45260212829E+01 -0.76690712620E-01  0.20069077649E+00  0.45311176510E+01  0.51100000000E-03 0.  1.
        -11    1    3    3    0    0 -0.17238342669E+01  0.17564699911E+01 -0.52764102069E+01  0.58221384681E+01  0.51100000000E-03 0. -1.
        -12    1    3    3    0    0  0.18865606724E+02  0.15486145724E+02 -0.28382628610E+02  0.37434014389E+02  0.00000000000E+00 0.  1.
</event>
<event>
 7    1  0.4450624E-010  0.4778727E+02  0.7816164E-02  0.1312668E+00
        -11   -1    0    0    0    0  0.00000000000E+00  0.00000000000E+00  0.45593999997E+02  0.45594000000E+02  0.51100000000E-03 0. -1.
         11   -1    0    0    0    0 -0.00000000000E+00 -0.00000000000E+00 -0.45593999997E+02  0.45594000000E+02  0.51100000000E-03 0.  1.
    9900012    2    1    2    0    0  0.27165219806E+02  0.29673946599E+02 -0.16282843665E+02  0.47787271070E+02  0.20000000116E+02 0.  0.
         12    1    1    2    0    0 -0.27165219806E+02 -0.29673946599E+02  0.16282843665E+02  0.43400728930E+02  0.00000000000E+00 0. -1.
         11    1    3    3    0    0  0.78421727418E+00  0.59773041309E+01 -0.40396208452E+01  0.72568380333E+01  0.51100000000E-03 0. -1.
        -11    1    3    3    0    0  0.19369507547E+02  0.11207606486E+02 -0.13529387685E+02  0.26150193062E+02  0.51100000000E-03 0.  1.
         12    1    3    3    0    0  0.70114949841E+01  0.12489035982E+02  0.12861648653E+01  0.14380239975E+02  0.00000000000E+00 0. -1.
</event>
<event>
 7    1  0.4450624E-010  0.4778726E+02  0.7816164E-02  0.1312668E+00
        -11   -1    0    0    0    0  0.00000000000E+00  0.00000000000E+00  0.45593999997E+02  0.45594000000E+02  0.51100000000E-03 0. -1.
         11   -1    0    0    0    0 -0.00000000000E+00 -0.00000000000E+00 -0.45593999997E+02  0.45594000000E+02  0.51100000000E-03 0.  1.
    9900012    2    1    2    0    0 -0.41558014149E+02  0.39535439217E+01 -0.11871185488E+02  0.47787261591E+02  0.19999956898E+02 0.  0.
         12    1    1    2    0    0  0.41558014149E+02 -0.39535439217E+01  0.11871185488E+02  0.43400738409E+02  0.00000000000E+00 0. -1.
         11    1    3    3    0    0 -0.22979956654E+02 -0.14222563093E+01 -0.10703451874E+02  0.25390256066E+02  0.51100000000E-03 0. -1.
        -11    1    3    3    0    0 -0.14851486135E+02  0.40979931086E+00 -0.42669393933E+01  0.15457727774E+02  0.51100000000E-03 0.  1.
        -12    1    3    3    0    0 -0.37265713603E+01  0.49660009201E+01  0.30992057793E+01  0.69392777509E+01  0.00000000000E+00 0.  1.
</event>
<event>
 7    1  0.4450624E-010  0.4778727E+02  0.7816164E-02  0.1312668E+00
        -11   -1    0    0    0    0  0.00000000000E+00  0.00000000000E+00  0.45593999997E+02  0.45594000000E+02  0.51100000000E-03 0. -1.
         11   -1    0    0    0    0 -0.00000000000E+00 -0.00000000000E+00 -0.45593999997E+02  0.45594000000E+02  0.51100000000E-03 0.  1.
    9900012    2    1    2    0    0 -0.36654244381E+02  0.34560282906E+01 -0.22981409398E+02  0.47787274884E+02  0.20000017505E+02 0.  0.
         12    1    1    2    0    0  0.36654244381E+02 -0.34560282906E+01  0.22981409398E+02  0.43400725116E+02  0.00000000000E+00 0. -1.
         11    1    3    3    0    0 -0.21799568656E+02 -0.18937649287E+01 -0.65538777981E+01  0.22842085142E+02  0.51100000000E-03 0. -1.
        -11    1    3    3    0    0 -0.16093519289E+02  0.34053145441E+01 -0.14049622663E+02  0.21633063294E+02  0.51100000000E-03 0.  1.
         12    1    3    3    0    0  0.12388435637E+01  0.19444786752E+01 -0.23779089368E+01  0.33121264476E+01  0.00000000000E+00 0. -1.
</event>
<event>
 7    1  0.4450624E-010  0.4778726E+02  0.7816164E-02  0.1312668E+00
        -11   -1    0    0    0    0  0.00000000000E+00  0.00000000000E+00  0.45593999997E+02  0.45594000000E+02  0.51100000000E-03 0.  1.
         11   -1    0    0    0    0 -0.00000000000E+00 -0.00000000000E+00 -0.45593999997E+02  0.45594000000E+02  0.51100000000E-03 0. -1.
    9900012    2    1    2    0    0  0.28283435456E+02  0.25785998962E+02  0.20463464603E+02  0.47787264439E+02  0.19999969882E+02 0.  0.
         12    1    1    2    0    0 -0.28283435456E+02 -0.25785998962E+02 -0.20463464603E+02  0.43400735561E+02  0.00000000000E+00 0. -1.
         11    1    3    3    0    0  0.12965180415E+02  0.74757655429E+01  0.44024572337E+01  0.15600147550E+02  0.51100000000E-03 0. -1.
        -11    1    3    3    0    0  0.42271102103E+01 -0.88066877388E+00 -0.73095605452E+00  0.43793076204E+01  0.51100000000E-03 0.  1.
        -12    1    3    3    0    0  0.11091144831E+02  0.19190902193E+02  0.16791963424E+02  0.27807809268E+02  0.00000000000E+00 0.  1.
</event>
<event>
 7    1  0.4450624E-010  0.4778727E+02  0.7816164E-02  0.1312668E+00
        -11   -1    0    0    0    0  0.00000000000E+00  0.00000000000E+00  0.45593999997E+02  0.45594000000E+02  0.51100000000E-03 0.  1.
         11   -1    0    0    0    0 -0.00000000000E+00 -0.00000000000E+00 -0.45593999997E+02  0.45594000000E+02  0.51100000000E-03 0. -1.
    9900012    2    1    2    0    0 -0.14142738767E+02  0.16417283240E+02  0.37604244737E+02  0.47787268773E+02  0.19999989642E+02 0.  0.
         12    1    1    2    0    0  0.14142738767E+02 -0.16417283240E+02 -0.37604244737E+02  0.43400731227E+02  0.00000000000E+00 0. -1.
         11    1    3    3    0    0 -0.13976393489E+00 -0.88012328851E-01  0.59916848146E+01  0.59939609029E+01  0.51100000000E-03 0. -1.
        -11    1    3    3    0    0 -0.15745052895E+02  0.98701201613E+01  0.15209902080E+02  0.24013893566E+02  0.51100000000E-03 0.  1.
        -12    1    3    3    0    0  0.17420780636E+01  0.66351754078E+01  0.16402657843E+02  0.17779414304E+02  0.00000000000E+00 0.  1.
</event>
<event>
 7    1  0.4450624E-010  0.4778727E+02  0.7816164E-02  0.1312668E+00
        -11   -1    0    0    0    0  0.00000000000E+00  0.00000000000E+00  0.45593999997E+02  0.45594000000E+02  0.51100000000E-03 0. -1.
         11   -1    0    0    0    0 -0.00000000000E+00 -0.00000000000E+00 -0.45593999997E+02  0.45594000000E+02  0.51100000000E-03 0.  1.
    9900012    2    1    2    0    0 -0.27462814515E+02  0.29772224458E+02  0.15589491471E+02  0.47787265276E+02  0.19999973701E+02 0.  0.
         12    1    1    2    0    0  0.27462814515E+02 -0.29772224458E+02 -0.15589491471E+02  0.43400734724E+02  0.00000000000E+00 0. -1.
         11    1    3    3    0    0  0.22708067157E+01  0.59908417084E+00  0.24706114358E+00  0.23614623549E+01  0.51100000000E-03 0. -1.
        -11    1    3    3    0    0 -0.86923677503E+01  0.96378460626E+01  0.23213534614E+00  0.12980724976E+02  0.51100000000E-03 0.  1.
         12    1    3    3    0    0 -0.21041253480E+02  0.19535294224E+02  0.15110294981E+02  0.32445077945E+02  0.00000000000E+00 0. -1.
</event>
<event>
 7    1  0.4450624E-010  0.4778727E+02  0.7816164E-02  0.1312668E+00
        -11   -1    0    0    0    0  0.00000000000E+00  0.00000000000E+00  0.45593999997E+02  0.45594000000E+02  0.51100000000E-03 0. -1.
         11   -1    0    0    0    0 -0.00000000000E+00 -0.00000000000E+00 -0.45593999997E+02  0.45594000000E+02  0.51100000000E-03 0.  1.
    9900012    2    1    2    0    0 -0.35335289025E+01  0.17464875480E+02 -0.39574180212E+02  0.47787269114E+02  0.19999991196E+02 0.  0.
         12    1    1    2    0    0  0.35335289025E+01 -0.17464875480E+02  0.39574180212E+02  0.43400730886E+02  0.00000000000E+00 0. -1.
         11    1    3    3    0    0 -0.41164472240E+01 -0.50560584997E+00 -0.33183274231E+01  0.53115037580E+01  0.51100000000E-03 0. -1.
        -11    1    3    3    0    0 -0.52489843365E+01  0.66849878947E+01 -0.88581770307E+01  0.12276326824E+02  0.51100000000E-03 0.  1.
        -12    1    3    3    0    0  0.58319026580E+01  0.11285493436E+02 -0.27397675758E+02  0.30199438532E+02  0.00000000000E+00 0.  1.
</event>
<event>
 7    1  0.4450624E-010  0.4778725E+02  0.7816164E-02  0.1312668E+00
        -11   -1    0    0    0    0  0.00000000000E+00  0.00000000000E+00  0.45593999997E+02  0.45594000000E+02  0.51100000000E-03 0.  1.
         11   -1    0    0    0    0 -0.00000000000E+00 -0.00000000000E+00 -0.45593999997E+02  0.45594000000E+02  0.51100000000E-03 0. -1.
    9900012    2    1    2    0    0  0.26948356810E+02  0.13971861585E+02  0.31019323855E+02  0.47787247664E+02  0.19999893397E+02 0.  0.
         12    1    1    2    0    0 -0.26948356810E+02 -0.13971861585E+02 -0.31019323855E+02  0.43400752336E+02  0.00000000000E+00 0. -1.
         11    1    3    3    0    0  0.74290841352E+01  0.11210608477E+02  0.11553748540E+02  0.17730147747E+02  0.51100000000E-03 0. -1.
        -11    1    3    3    0    0  0.22269229259E+01  0.17110329951E+00  0.98545904518E+01  0.10104524496E+02  0.51100000000E-03 0.  1.
         12    1    3    3    0    0  0.17292349749E+02  0.25901498078E+01  0.96109848630E+01  0.19952575421E+02  0.00000000000E+00 0. -1.
</event>
<event>
 7    1  0.4450624E-010  0.4778727E+02  0.7816164E-02  0.1312668E+00
        -11   -1    0    0    0    0  0.00000000000E+00  0.00000000000E+00  0.45593999997E+02  0.45594000000E+02  0.51100000000E-03 0.  1.
         11   -1    0    0    0    0 -0.00000000000E+00 -0.00000000000E+00 -0.45593999997E+02  0.45594000000E+02  0.51100000000E-03 0. -1.
    9900012    2    1    2    0    0  0.82000891168E+00 -0.30629385724E+02  0.30737459580E+02  0.47787272980E+02  0.20000008827E+02 0.  0.
         12    1    1    2    0    0 -0.82000891168E+00  0.30629385724E+02 -0.30737459580E+02  0.43400727020E+02  0.00000000000E+00 0. -1.
         11    1    3    3    0    0  0.57653919483E+01 -0.19001109825E+02  0.13332055482E+02  0.23917057146E+02  0.51100000000E-03 0. -1.
        -11    1    3    3    0    0  0.19607002067E+01 -0.40938838712E+01  0.10762317344E+02  0.11680398337E+02  0.51100000000E-03 0.  1.
        -12    1    3    3    0    0 -0.69060832433E+01 -0.75343920273E+01  0.66430867537E+01  0.12189817497E+02  0.00000000000E+00 0.  1.
</event>
<event>
 7    1  0.4450624E-010  0.4778727E+02  0.7816164E-02  0.1312668E+00
        -11   -1    0    0    0    0  0.00000000000E+00  0.00000000000E+00  0.45593999997E+02  0.45594000000E+02  0.51100000000E-03 0.  1.
         11   -1    0    0    0    0 -0.00000000000E+00 -0.00000000000E+00 -0.45593999997E+02  0.45594000000E+02  0.51100000000E-03 0. -1.
    9900012    2    1    2    0    0 -0.18233717918E+02 -0.26739041790E+02  0.28916754527E+02  0.47787268239E+02  0.19999987211E+02 0.  0.
         12    1    1    2    0    0  0.18233717918E+02  0.26739041790E+02 -0.28916754527E+02  0.43400731761E+02  0.00000000000E+00 0. -1.
         11    1    3    3    0    0 -0.90234012010E+01 -0.93063259196E+01  0.19191097638E+02  0.23158749970E+02  0.51100000000E-03 0. -1.
        -11    1    3    3    0    0 -0.89854055136E+01 -0.53892941787E+01  0.57019985117E+01  0.11928738042E+02  0.51100000000E-03 0.  1.
         12    1    3    3    0    0 -0.22491120359E+00 -0.12043421691E+02  0.40236583777E+01  0.12699780228E+02  0.00000000000E+00 0. -1.
</event>
<event>
 7    1  0.4450624E-010  0.4778727E+02  0.7816164E-02  0.1312668E+00
        -11   -1    0    0    0    0  0.00000000000E+00  0.00000000000E+00  0.45593999997E+02  0.45594000000E+02  0.51100000000E-03 0. -1.
         11   -1    0    0    0    0 -0.00000000000E+00 -0.00000000000E+00 -0.45593999997E+02  0.45594000000E+02  0.51100000000E-03 0.  1.
    9900012    2    1    2    0    0  0.41739638580E+02 -0.10157411251E+02  0.61849092533E+01  0.47787268041E+02  0.19999986306E+02 0.  0.
         12    1    1    2    0    0 -0.41739638580E+02  0.10157411251E+02 -0.61849092533E+01  0.43400731959E+02  0.00000000000E+00 0. -1.
         11    1    3    3    0    0  0.11106932918E+02 -0.13845531140E+01 -0.99122968816E+00  0.11236702485E+02  0.51100000000E-03 0. -1.
        -11    1    3    3    0    0  0.25952086380E+02 -0.10570093368E+00  0.59362696318E+01  0.26622570454E+02  0.51100000000E-03 0.  1.
         12    1    3    3    0    0  0.46806192820E+01 -0.86671572034E+01  0.12398693097E+01  0.99279951026E+01  0.00000000000E+00 0. -1.
</event>
<event>
 7    1  0.4450624E-010  0.4778727E+02  0.7816164E-02  0.1312668E+00
        -11   -1    0    0    0    0  0.00000000000E+00  0.00000000000E+00  0.45593999997E+02  0.45594000000E+02  0.51100000000E-03 0.  1.
         11   -1    0    0    0    0 -0.00000000000E+00 -0.00000000000E+00 -0.45593999997E+02  0.45594000000E+02  0.51100000000E-03 0. -1.
    9900012    2    1    2    0    0 -0.81824808592E+01 -0.93542435505E+01  0.41583271845E+02  0.47787270020E+02  0.19999995331E+02 0.  0.
         12    1    1    2    0    0  0.81824808592E+01  0.93542435505E+01 -0.41583271845E+02  0.43400729980E+02  0.00000000000E+00 0. -1.
         11    1    3    3    0    0 -0.36569238709E+01  0.25180144218E+01  0.13675053893E+02  0.14377781055E+02  0.51100000000E-03 0. -1.
        -11    1    3    3    0    0  0.34487235868E+01  0.64991285637E+00  0.48851731752E+01  0.60150642816E+01  0.51100000000E-03 0.  1.
        -12    1    3    3    0    0 -0.79742805751E+01 -0.12522170829E+02  0.23023044777E+02  0.27394424684E+02  0.00000000000E+00 0.  1.
</event>
<event>
 7    1  0.4450624E-010  0.4778724E+02  0.7816164E-02  0.1312668E+00
        -11   -1    0    0    0    0  0.00000000000E+00  0.00000000000E+00  0.45593999997E+02  0.45594000000E+02  0.51100000000E-03 0. -1.
         11   -1    0    0    0    0 -0.00000000000E+00 -0.00000000000E+00 -0.45593999997E+02  0.45594000000E+02  0.51100000000E-03 0.  1.
    9900012    2    1    2    0    0  0.18830968219E+02 -0.36751488659E+02 -0.13354733081E+02  0.47787237583E+02  0.19999847434E+02 0.  0.
         12    1    1    2    0    0 -0.18830968219E+02  0.36751488659E+02  0.13354733081E+02  0.43400762417E+02  0.00000000000E+00 0. -1.
         11    1    3    3    0    0  0.14725485766E+01 -0.79637373411E+01  0.23609514864E+01  0.84358522943E+01  0.51100000000E-03 0. -1.
        -11    1    3    3    0    0  0.11339001845E+02 -0.25631840470E+02 -0.81664095505E+01  0.29193397438E+02  0.51100000000E-03 0.  1.
        -12    1    3    3    0    0  0.60194177973E+01 -0.31559108477E+01 -0.75492750169E+01  0.10157987851E+02  0.00000000000E+00 0.  1.
</event>
<event>
 7    1  0.4450624E-010  0.4778727E+02  0.7816164E-02  0.1312668E+00
        -11   -1    0    0    0    0  0.00000000000E+00  0.00000000000E+00  0.45593999997E+02  0.45594000000E+02  0.51100000000E-03 0.  1.
         11   -1    0    0    0    0 -0.00000000000E+00 -0.00000000000E+00 -0.45593999997E+02  0.45594000000E+02  0.51100000000E-03 0. -1.
    9900012    2    1    2    0    0 -0.37060669784E+02  0.22256158243E+02  0.38461979833E+01  0.47787273468E+02  0.20000011050E+02 0.  0.
         12    1    1    2    0    0  0.37060669784E+02 -0.22256158243E+02 -0.38461979833E+01  0.43400726532E+02  0.00000000000E+00 0. -1.
         11    1    3    3    0    0 -0.11881666084E+02  0.30435711941E+00  0.42227092146E+01  0.12613401427E+02  0.51100000000E-03 0. -1.
        -11    1    3    3    0    0 -0.15481251103E+02  0.67584905467E+01  0.19311897107E+01  0.17002229976E+02  0.51100000000E-03 0.  1.
        -12    1    3    3    0    0 -0.96977525971E+01  0.15193310577E+02 -0.23077009420E+01  0.18171642066E+02  0.00000000000E+00 0.  1.
</event>
<event>
 7    1  0.4450624E-010  0.4778728E+02  0.7816164E-02  0.1312668E+00
        -11   -1    0    0    0    0  0.00000000000E+00  0.00000000000E+00  0.45593999997E+02  0.45594000000E+02  0.51100000000E-03 0. -1.
         11   -1    0    0    0    0 -0.00000000000E+00 -0.00000000000E+00 -0.45593999997E+02  0.45594000000E+02  0.51100000000E-03 0.  1.
    9900012    2    1    2    0    0  0.13844972964E+02  0.25500627080E+02 -0.32274717728E+02  0.47787278091E+02  0.20000032128E+02 0.  0.
         12    1    1    2    0    0 -0.13844972964E+02 -0.25500627080E+02  0.32274717728E+02  0.43400721909E+02  0.00000000000E+00 0. -1.
         11    1    3    3    0    0  0.17787567361E+02  0.14796259295E+02 -0.19679507644E+02  0.30374493628E+02  0.51100000000E-03 0. -1.
        -11    1    3    3    0    0 -0.26872486715E-01  0.78705821447E+00  0.14375037939E+00  0.80052932251E+00  0.51100000000E-03 0.  1.
        -12    1    3    3    0    0 -0.39157219104E+01  0.99173095698E+01 -0.12738960463E+02  0.16612255141E+02  0.00000000000E+00 0.  1.
</event>
<event>
 7    1  0.4450624E-010  0.4778727E+02  0.7816164E-02  0.1312668E+00
        -11   -1    0    0    0    0  0.00000000000E+00  0.00000000000E+00  0.45593999997E+02  0.45594000000E+02  0.51100000000E-03 0.  1.
         11   -1    0    0    0    0 -0.00000000000E+00 -0.00000000000E+00 -0.45593999997E+02  0.45594000000E+02  0.51100000000E-03 0. -1.
    9900012    2    1    2    0    0 -0.29685919999E+01  0.46340176838E+01  0.43050395980E+02  0.47787271292E+02  0.20000001127E+02 0.  0.
         12    1    1    2    0    0  0.29685919999E+01 -0.46340176838E+01 -0.43050395980E+02  0.43400728708E+02  0.00000000000E+00 0. -1.
         11    1    3    3    0    0 -0.13835355922E-01  0.33624647075E+01  0.14477581044E+02  0.14862930851E+02  0.51100000000E-03 0. -1.
        -11    1    3    3    0    0 -0.33224835187E+01  0.82812160721E+01  0.19572585532E+02  0.21510544880E+02  0.51100000000E-03 0.  1.
         12    1    3    3    0    0  0.36772687475E+00 -0.70096630958E+01  0.90002294044E+01  0.11413795561E+02  0.00000000000E+00 0. -1.
</event>
<event>
 7    1  0.4450624E-010  0.4778727E+02  0.7816164E-02  0.1312668E+00
        -11   -1    0    0    0    0  0.00000000000E+00  0.00000000000E+00  0.45593999997E+02  0.45594000000E+02  0.51100000000E-03 0.  1.
         11   -1    0    0    0    0 -0.00000000000E+00 -0.00000000000E+00 -0.45593999997E+02  0.45594000000E+02  0.51100000000E-03 0. -1.
    9900012    2    1    2    0    0 -0.10515802139E+02  0.27525547113E+02  0.31865117416E+02  0.47787267905E+02  0.19999985685E+02 0.  0.
         12    1    1    2    0    0  0.10515802139E+02 -0.27525547113E+02 -0.31865117416E+02  0.43400732095E+02  0.00000000000E+00 0. -1.
         11    1    3    3    0    0 -0.12825391839E+01  0.14427225988E+01 -0.34167337383E+00  0.19603816493E+01  0.51100000000E-03 0. -1.
        -11    1    3    3    0    0 -0.11203050989E+01  0.17759060545E+02  0.28550713674E+02  0.33641976258E+02  0.51100000000E-03 0.  1.
         12    1    3    3    0    0 -0.81129578562E+01  0.83237639685E+01  0.36560771157E+01  0.12184909998E+02  0.00000000000E+00 0. -1.
</event>
<event>
 7    1  0.4450624E-010  0.4778725E+02  0.7816164E-02  0.1312668E+00
        -11   -1    0    0    0    0  0.00000000000E+00  0.00000000000E+00  0.45593999997E+02  0.45594000000E+02  0.51100000000E-03 0. -1.
         11   -1    0    0    0    0 -0.00000000000E+00 -0.00000000000E+00 -0.45593999997E+02  0.45594000000E+02  0.51100000000E-03 0.  1.
    9900012    2    1    2    0    0 -0.14050509960E+02  0.32069264434E+02 -0.25647038493E+02  0.47787249604E+02  0.19999902245E+02 0.  0.
         12    1    1    2    0    0  0.14050509960E+02 -0.32069264434E+02  0.25647038493E+02  0.43400750396E+02  0.00000000000E+00 0. -1.
         11    1    3    3    0    0 -0.17844945808E+01  0.85762911886E+01 -0.97842709805E+00  0.88144490076E+01  0.51100000000E-03 0. -1.
        -11    1    3    3    0    0 -0.95972521544E+01  0.44987706972E+01 -0.58712583781E+01  0.12116842076E+02  0.51100000000E-03 0.  1.
        -12    1    3    3    0    0 -0.26687632249E+01  0.18994202548E+02 -0.18797353017E+02  0.26855958520E+02  0.00000000000E+00 0.  1.
</event>
<event>
 7    1  0.4450624E-010  0.4778727E+02  0.7816164E-02  0.1312668E+00
        -11   -1    0    0    0    0  0.00000000000E+00  0.00000000000E+00  0.45593999997E+02  0.45594000000E+02  0.51100000000E-03 0.  1.
         11   -1    0    0    0    0 -0.00000000000E+00 -0.00000000000E+00 -0.45593999997E+02  0.45594000000E+02  0.51100000000E-03 0. -1.
    9900012    2    1    2    0    0  0.60808527555E+00  0.97130333189E+01  0.42295514601E+02  0.47787270290E+02  0.19999996561E+02 0.  0.
         12    1    1    2    0    0 -0.60808527555E+00 -0.97130333189E+01 -0.42295514601E+02  0.43400729710E+02  0.00000000000E+00 0. -1.
         11    1    3    3    0    0  0.64625216713E+01  0.60688574287E+01  0.18633227260E+02  0.20634737101E+02  0.51100000000E-03 0. -1.
        -11    1    3    3    0    0 -0.18548437224E+01  0.28076136301E+01  0.22708614431E+02  0.22956574421E+02  0.51100000000E-03 0.  1.
         12    1    3    3    0    0 -0.39995926733E+01  0.83656226005E+00  0.95367291124E+00  0.41959587687E+01  0.00000000000E+00 0. -1.
</event>
<event>
 7    1  0.4450624E-010  0.4778727E+02  0.7816164E-02  0.1312668E+00
        -11   -1    0    0    0    0  0.00000000000E+00  0.00000000000E+00  0.45593999997E+02  0.45594000000E+02  0.51100000000E-03 0. -1.
         11   -1    0    0    0    0 -0.00000000000E+00 -0.00000000000E+00 -0.45593999997E+02  0.45594000000E+02  0.51100000000E-03 0.  1.
    9900012    2    1    2    0    0  0.16900421304E+01 -0.29762838679E+02 -0.31542675782E+02  0.47787271847E+02  0.20000003661E+02 0.  0.
         12    1    1    2    0    0 -0.16900421304E+01  0.29762838679E+02  0.31542675782E+02  0.43400728153E+02  0.00000000000E+00 0. -1.
         11    1    3    3    0    0 -0.36683441504E+01 -0.13050391262E+02 -0.35827350247E+01  0.14021606592E+02  0.51100000000E-03 0. -1.
        -11    1    3    3    0    0  0.38893427438E+00  0.43179381597E+00 -0.31417311840E+01  0.31950259565E+01  0.51100000000E-03 0.  1.
         12    1    3    3    0    0  0.49694520064E+01 -0.17144241234E+02 -0.24818209574E+02  0.30570639299E+02  0.00000000000E+00 0. -1.
</event>
<event>
 7    1  0.4450624E-010  0.4778728E+02  0.7816164E-02  0.1312668E+00
        -11   -1    0    0    0    0  0.00000000000E+00  0.00000000000E+00  0.45593999997E+02  0.45594000000E+02  0.51100000000E-03 0. -1.
         11   -1    0    0    0    0 -0.00000000000E+00 -0.00000000000E+00 -0.45593999997E+02  0.45594000000E+02  0.51100000000E-03 0.  1.
    9900012    2    1    2    0    0 -0.18809282668E+00  0.40807201946E+02  0.14776982342E+02  0.47787282071E+02  0.20000050276E+02 0.  0.
         12    1    1    2    0    0  0.18809282668E+00 -0.40807201946E+02 -0.14776982342E+02  0.43400717929E+02  0.00000000000E+00 0. -1.
         11    1    3    3    0    0 -0.44732805478E+01  0.12850573520E+02  0.99843694033E+01  0.16877058728E+02  0.51100000000E-03 0. -1.
        -11    1    3    3    0    0 -0.35851882636E+01  0.14462879231E+02  0.28163254119E+01  0.15164436673E+02  0.51100000000E-03 0.  1.
         12    1    3    3    0    0  0.78703759847E+01  0.13493749195E+02  0.19762875269E+01  0.15745786671E+02  0.00000000000E+00 0. -1.
</event>
<event>
 7    1  0.4450624E-010  0.4778728E+02  0.7816164E-02  0.1312668E+00
        -11   -1    0    0    0    0  0.00000000000E+00  0.00000000000E+00  0.45593999997E+02  0.45594000000E+02  0.51100000000E-03 0.  1.
         11   -1    0    0    0    0 -0.00000000000E+00 -0.00000000000E+00 -0.45593999997E+02  0.45594000000E+02  0.51100000000E-03 0. -1.
    9900012    2    1    2    0    0  0.35262668092E+02  0.80386946971E+01  0.23990549402E+02  0.47787276111E+02  0.20000023103E+02 0.  0.
         12    1    1    2    0    0 -0.35262668092E+02 -0.80386946971E+01 -0.23990549402E+02  0.43400723889E+02  0.00000000000E+00 0. -1.
         11    1    3    3    0    0  0.10451221897E+02  0.28578963026E+01  0.14750942196E+01  0.10934876023E+02  0.51100000000E-03 0. -1.
        -11    1    3    3    0    0  0.11700815663E+02 -0.48481081731E+01  0.95360254270E+01  0.15853990704E+02  0.51100000000E-03 0.  1.
         12    1    3    3    0    0  0.13110630532E+02  0.10028906568E+02  0.12979429756E+02  0.20998409385E+02  0.00000000000E+00 0. -1.
</event>
<event>
 7    1  0.4450624E-010  0.4778727E+02  0.7816164E-02  0.1312668E+00
        -11   -1    0    0    0    0  0.00000000000E+00  0.00000000000E+00  0.45593999997E+02  0.45594000000E+02  0.51100000000E-03 0.  1.
         11   -1    0    0    0    0 -0.00000000000E+00 -0.00000000000E+00 -0.45593999997E+02  0.45594000000E+02  0.51100000000E-03 0. -1.
    9900012    2    1    2    0    0 -0.21549835378E+02  0.24119394845E+02  0.28939294297E+02  0.47787269973E+02  0.19999995114E+02 0.  0.
         12    1    1    2    0    0  0.21549835378E+02 -0.24119394845E+02 -0.28939294297E+02  0.43400730027E+02  0.00000000000E+00 0. -1.
         11    1    3    3    0    0 -0.46237837071E+00  0.12170120973E+02  0.12573444219E+02  0.17504774721E+02  0.51100000000E-03 0. -1.
        -11    1    3    3    0    0 -0.76899013408E+01  0.87853232427E+01  0.66926875988E+01  0.13457657845E+02  0.51100000000E-03 0.  1.
         12    1    3    3    0    0 -0.13397555667E+02  0.31639506289E+01  0.96731624788E+01  0.16824837407E+02  0.00000000000E+00 0. -1.
</event>
<event>
 7    1  0.4450624E-010  0.4778727E+02  0.7816164E-02  0.1312668E+00
        -11   -1    0    0    0    0  0.00000000000E+00  0.00000000000E+00  0.45593999997E+02  0.45594000000E+02  0.51100000000E-03 0. -1.
         11   -1    0    0    0    0 -0.00000000000E+00 -0.00000000000E+00 -0.45593999997E+02  0.45594000000E+02  0.51100000000E-03 0.  1.
    9900012    2    1    2    0    0 -0.22815440737E+00  0.37623755572E+02 -0.21633869710E+02  0.47787270094E+02  0.19999995665E+02 0.  0.
         12    1    1    2    0    0  0.22815440737E+00 -0.37623755572E+02  0.21633869710E+02  0.43400729906E+02  0.00000000000E+00 0. -1.
         11    1    3    3    0    0  0.10633452020E+01  0.33430398771E+01  0.24955956276E+01  0.43051848318E+01  0.51100000000E-03 0. -1.
        -11    1    3    3    0    0  0.15242382203E+01  0.11678815825E+02 -0.24349304998E+01  0.12026925127E+02  0.51100000000E-03 0.  1.
        -12    1    3    3    0    0 -0.28157378297E+01  0.22601899870E+02 -0.21694534837E+02  0.31455160135E+02  0.00000000000E+00 0.  1.
</event>
<event>
 7    1  0.4450624E-010  0.4778728E+02  0.7816164E-02  0.1312668E+00
        -11   -1    0    0    0    0  0.00000000000E+00  0.00000000000E+00  0.45593999997E+02  0.45594000000E+02  0.51100000000E-03 0.  1.
         11   -1    0    0    0    0 -0.00000000000E+00 -0.00000000000E+00 -0.45593999997E+02  0.45594000000E+02  0.51100000000E-03 0. -1.
    9900012    2    1    2    0    0  0.89865935641E+01 -0.20460077720E+02  0.37205498383E+02  0.47787277033E+02  0.20000027303E+02 0.  0.
         12    1    1    2    0    0 -0.89865935641E+01  0.20460077720E+02 -0.37205498383E+02  0.43400722967E+02  0.00000000000E+00 0. -1.
         11    1    3    3    0    0 -0.36903170537E-01 -0.14491638687E+02  0.13628076192E+02  0.19893049405E+02  0.51100000000E-03 0. -1.
        -11    1    3    3    0    0  0.52122263633E+01 -0.87089572784E+01  0.17270708705E+02  0.20032239515E+02  0.51100000000E-03 0.  1.
         12    1    3    3    0    0  0.38112703714E+01  0.27405182454E+01  0.63067134849E+01  0.78619881123E+01  0.00000000000E+00 0. -1.
</event>
<event>
 7    1  0.4450624E-010  0.4778727E+02  0.7816164E-02  0.1312668E+00
        -11   -1    0    0    0    0  0.00000000000E+00  0.00000000000E+00  0.45593999997E+02  0.45594000000E+02  0.51100000000E-03 0.  1.
         11   -1    0    0    0    0 -0.00000000000E+00 -0.00000000000E+00 -0.45593999997E+02  0.45594000000E+02  0.51100000000E-03 0. -1.
    9900012    2    1    2    0    0  0.32025673815E+02  0.24764736624E+01  0.29186408676E+02  0.47787272396E+02  0.20000006164E+02 0.  0.
         12    1    1    2    0    0 -0.32025673815E+02 -0.24764736624E+01 -0.29186408676E+02  0.43400727604E+02  0.00000000000E+00 0. -1.
         11    1    3    3    0    0  0.14572328152E+02  0.19450236162E+01  0.11499475982E+02  0.18664774651E+02  0.51100000000E-03 0. -1.
        -11    1    3    3    0    0  0.12135684471E+02 -0.64995517673E+01  0.13785537556E+02  0.19482301115E+02  0.51100000000E-03 0.  1.
         12    1    3    3    0    0  0.53176611917E+01  0.70310018135E+01  0.39013951382E+01  0.96401966306E+01  0.00000000000E+00 0. -1.
</event>
<event>
 7    1  0.4450624E-010  0.4778730E+02  0.7816164E-02  0.1312668E+00
        -11   -1    0    0    0    0  0.00000000000E+00  0.00000000000E+00  0.45593999997E+02  0.45594000000E+02  0.51100000000E-03 0. -1.
         11   -1    0    0    0    0 -0.00000000000E+00 -0.00000000000E+00 -0.45593999997E+02  0.45594000000E+02  0.51100000000E-03 0.  1.
    9900012    2    1    2    0    0 -0.15226136813E+02 -0.33463571286E+02 -0.23064584356E+02  0.47787298427E+02  0.20000124850E+02 0.  0.
         12    1    1    2    0    0  0.15226136813E+02  0.33463571286E+02  0.23064584356E+02  0.43400701573E+02  0.00000000000E+00 0. -1.
         11    1    3    3    0    0 -0.35503063138E+01 -0.19788570178E+01  0.12979015093E+01  0.42667433257E+01  0.51100000000E-03 0. -1.
        -11    1    3    3    0    0  0.20670954390E+01 -0.99930918892E+01 -0.43308121297E+01  0.11085607923E+02  0.51100000000E-03 0.  1.
        -12    1    3    3    0    0 -0.13742925938E+02 -0.21491622379E+02 -0.20031673736E+02  0.32434947179E+02  0.00000000000E+00 0.  1.
</event>
<event>
 7    1  0.4450624E-010  0.4778727E+02  0.7816164E-02  0.1312668E+00
        -11   -1    0    0    0    0  0.00000000000E+00  0.00000000000E+00  0.45593999997E+02  0.45594000000E+02  0.51100000000E-03 0.  1.
         11   -1    0    0    0    0 -0.00000000000E+00 -0.00000000000E+00 -0.45593999997E+02  0.45594000000E+02  0.51100000000E-03 0. -1.
    9900012    2    1    2    0    0 -0.23158521013E+02  0.91453091889E+01  0.35548127764E+02  0.47787272319E+02  0.20000005812E+02 0.  0.
         12    1    1    2    0    0  0.23158521013E+02 -0.91453091889E+01 -0.35548127764E+02  0.43400727681E+02  0.00000000000E+00 0. -1.
         11    1    3    3    0    0  0.20968928921E+00 -0.13100930682E+01 -0.14469901106E+01  0.19631846798E+01  0.51100000000E-03 0. -1.
        -11    1    3    3    0    0 -0.64925590877E+01  0.48184725381E+01  0.59378630891E+01  0.10031411637E+02  0.51100000000E-03 0.  1.
        -12    1    3    3    0    0 -0.16875651215E+02  0.56369297191E+01  0.31057254786E+02  0.35792676002E+02  0.00000000000E+00 0.  1.
</event>
<event>
 7    1  0.4450624E-010  0.4778730E+02  0.7816164E-02  0.1312668E+00
        -11   -1    0    0    0    0  0.00000000000E+00  0.00000000000E+00  0.45593999997E+02  0.45594000000E+02  0.51100000000E-03 0. -1.
         11   -1    0    0    0    0 -0.00000000000E+00 -0.00000000000E+00 -0.45593999997E+02  0.45594000000E+02  0.51100000000E-03 0.  1.
    9900012    2    1    2    0    0 -0.32090786376E+01  0.22223502822E+02 -0.37140793940E+02  0.47787299109E+02  0.20000127955E+02 0.  0.
         12    1    1    2    0    0  0.32090786376E+01 -0.22223502822E+02  0.37140793940E+02  0.43400700891E+02  0.00000000000E+00 0. -1.
         11    1    3    3    0    0  0.42653604141E+00  0.27378230086E+01 -0.41915083704E+01  0.50245746588E+01  0.51100000000E-03 0. -1.
        -11    1    3    3    0    0  0.72915065045E+01  0.11613381399E+02 -0.18235910750E+02  0.22816334845E+02  0.51100000000E-03 0.  1.
        -12    1    3    3    0    0 -0.10927121184E+02  0.78722984142E+01 -0.14713374819E+02  0.19946389604E+02  0.00000000000E+00 0.  1.
</event>
<event>
 7    1  0.4450624E-010  0.4778728E+02  0.7816164E-02  0.1312668E+00
        -11   -1    0    0    0    0  0.00000000000E+00  0.00000000000E+00  0.45593999997E+02  0.45594000000E+02  0.51100000000E-03 0. -1.
         11   -1    0    0    0    0 -0.00000000000E+00 -0.00000000000E+00 -0.45593999997E+02  0.45594000000E+02  0.51100000000E-03 0.  1.
    9900012    2    1    2    0    0 -0.12782780537E+02  0.21874784582E+02 -0.35238000925E+02  0.47787281251E+02  0.20000046534E+02 0.  0.
         12    1    1    2    0    0  0.12782780537E+02 -0.21874784582E+02  0.35238000925E+02  0.43400718749E+02  0.00000000000E+00 0. -1.
         11    1    3    3    0    0  0.25711865595E+01 -0.22168607841E+00 -0.27753369260E+01  0.37898074298E+01  0.51100000000E-03 0. -1.
        -11    1    3    3    0    0 -0.85704814765E+01  0.18667696380E+02 -0.16608569312E+02  0.26415537393E+02  0.51100000000E-03 0.  1.
         12    1    3    3    0    0 -0.67834856200E+01  0.34287742798E+01 -0.15854094687E+02  0.17581936428E+02  0.00000000000E+00 0. -1.
</event>
<event>
 7    1  0.4450624E-010  0.4778726E+02  0.7816164E-02  0.1312668E+00
        -11   -1    0    0    0    0  0.00000000000E+00  0.00000000000E+00  0.45593999997E+02  0.45594000000E+02  0.51100000000E-03 0.  1.
         11   -1    0    0    0    0 -0.00000000000E+00 -0.00000000000E+00 -0.45593999997E+02  0.45594000000E+02  0.51100000000E-03 0. -1.
    9900012    2    1    2    0    0  0.36899054519E+02  0.21425498956E+02 -0.79392676347E+01  0.47787260369E+02  0.19999951326E+02 0.  0.
         12    1    1    2    0    0 -0.36899054519E+02 -0.21425498956E+02  0.79392676347E+01  0.43400739631E+02  0.00000000000E+00 0. -1.
         11    1    3    3    0    0  0.58358554533E+01  0.36993710879E+01 -0.83726951252E+01  0.10855624314E+02  0.51100000000E-03 0. -1.
        -11    1    3    3    0    0  0.57684136679E+01  0.14060170200E+01 -0.29672351889E+01  0.66374667632E+01  0.51100000000E-03 0.  1.
        -12    1    3    3    0    0  0.25294785398E+02  0.16320110848E+02  0.34006626794E+01  0.30294169292E+02  0.00000000000E+00 0.  1.
</event>
<event>
 7    1  0.4450624E-010  0.4778727E+02  0.7816164E-02  0.1312668E+00
        -11   -1    0    0    0    0  0.00000000000E+00  0.00000000000E+00  0.45593999997E+02  0.45594000000E+02  0.51100000000E-03 0.  1.
         11   -1    0    0    0    0 -0.00000000000E+00 -0.00000000000E+00 -0.45593999997E+02  0.45594000000E+02  0.51100000000E-03 0. -1.
    9900012    2    1    2    0    0  0.32667935461E+02  0.28553927984E+02 -0.10499565485E+01  0.47787271672E+02  0.20000002863E+02 0.  0.
         12    1    1    2    0    0 -0.32667935461E+02 -0.28553927984E+02  0.10499565485E+01  0.43400728328E+02  0.00000000000E+00 0. -1.
         11    1    3    3    0    0  0.21614707713E+02  0.12092022278E+02 -0.53811268934E+01  0.25345001858E+02  0.51100000000E-03 0. -1.
        -11    1    3    3    0    0  0.17235895289E+01 -0.10715339927E+01  0.11359058757E+01  0.23257747916E+01  0.51100000000E-03 0.  1.
         12    1    3    3    0    0  0.93296382194E+01  0.17533439699E+02  0.31952644692E+01  0.20116495023E+02  0.00000000000E+00 0. -1.
</event>
<event>
 7    1  0.4450624E-010  0.4778727E+02  0.7816164E-02  0.1312668E+00
        -11   -1    0    0    0    0  0.00000000000E+00  0.00000000000E+00  0.45593999997E+02  0.45594000000E+02  0.51100000000E-03 0.  1.
         11   -1    0    0    0    0 -0.00000000000E+00 -0.00000000000E+00 -0.45593999997E+02  0.45594000000E+02  0.51100000000E-03 0. -1.
    9900012    2    1    2    0    0  0.68822440445E+01  0.21752836283E+01  0.42796332122E+02  0.47787272067E+02  0.20000004664E+02 0.  0.
         12    1    1    2    0    0 -0.68822440445E+01 -0.21752836283E+01 -0.42796332122E+02  0.43400727933E+02  0.00000000000E+00 0. -1.
         11    1    3    3    0    0  0.40156746276E+01 -0.14412191129E+01  0.16160437862E+02  0.16714140941E+02  0.51100000000E-03 0. -1.
        -11    1    3    3    0    0  0.66831407053E+01 -0.96464770095E+00  0.23261808640E+02  0.24222028328E+02  0.51100000000E-03 0.  1.
         12    1    3    3    0    0 -0.38165712884E+01  0.45811504422E+01  0.33740856206E+01  0.68511027980E+01  0.00000000000E+00 0. -1.
</event>
<event>
 7    1  0.4450624E-010  0.4778727E+02  0.7816164E-02  0.1312668E+00
        -11   -1    0    0    0    0  0.00000000000E+00  0.00000000000E+00  0.45593999997E+02  0.45594000000E+02  0.51100000000E-03 0.  1.
         11   -1    0    0    0    0 -0.00000000000E+00 -0.00000000000E+00 -0.45593999997E+02  0.45594000000E+02  0.51100000000E-03 0. -1.
    9900012    2    1    2    0    0 -0.60281621740E+01  0.54276698913E+01  0.42635963250E+02  0.47787266113E+02  0.19999977518E+02 0.  0.
         12    1    1    2    0    0  0.60281621740E+01 -0.54276698913E+01 -0.42635963250E+02  0.43400733887E+02  0.00000000000E+00 0. -1.
         11    1    3    3    0    0  0.22659687754E+01 -0.41241850633E+00 -0.90812928135E+00  0.24757630275E+01  0.51100000000E-03 0. -1.
        -11    1    3    3    0    0 -0.26843653359E+01  0.12964439247E+01  0.33927100714E+01  0.45163111049E+01  0.51100000000E-03 0.  1.
        -12    1    3    3    0    0 -0.56097656135E+01  0.45436444730E+01  0.40151382460E+02  0.40795191981E+02  0.00000000000E+00 0.  1.
</event>
<event>
 7    1  0.4450624E-010  0.4778727E+02  0.7816164E-02  0.1312668E+00
        -11   -1    0    0    0    0  0.00000000000E+00  0.00000000000E+00  0.45593999997E+02  0.45594000000E+02  0.51100000000E-03 0.  1.
         11   -1    0    0    0    0 -0.00000000000E+00 -0.00000000000E+00 -0.45593999997E+02  0.45594000000E+02  0.51100000000E-03 0. -1.
    9900012    2    1    2    0    0 -0.16042498724E+02 -0.34422177356E+01  0.40179754990E+02  0.47787270291E+02  0.19999996563E+02 0.  0.
         12    1    1    2    0    0  0.16042498724E+02  0.34422177356E+01 -0.40179754990E+02  0.43400729709E+02  0.00000000000E+00 0. -1.
         11    1    3    3    0    0 -0.12058385755E+02 -0.69982270604E+01  0.22085482584E+02  0.26117970638E+02  0.51100000000E-03 0. -1.
        -11    1    3    3    0    0 -0.20358977795E+01  0.52873163627E-01 -0.92170116592E+00  0.22354437234E+01  0.51100000000E-03 0.  1.
        -12    1    3    3    0    0 -0.19482151891E+01  0.35031361612E+01  0.19015973572E+02  0.19433855930E+02  0.00000000000E+00 0.  1.
</event>
<event>
 7    1  0.4450624E-010  0.4778726E+02  0.7816164E-02  0.1312668E+00
        -11   -1    0    0    0    0  0.00000000000E+00  0.00000000000E+00  0.45593999997E+02  0.45594000000E+02  0.51100000000E-03 0.  1.
         11   -1    0    0    0    0 -0.00000000000E+00 -0.00000000000E+00 -0.45593999997E+02  0.45594000000E+02  0.51100000000E-03 0. -1.
    9900012    2    1    2    0    0 -0.58752277012E+00  0.20865615370E+02  0.38051346637E+02  0.47787261889E+02  0.19999958255E+02 0.  0.
         12    1    1    2    0    0  0.58752277012E+00 -0.20865615370E+02 -0.38051346637E+02  0.43400738111E+02  0.00000000000E+00 0. -1.
         11    1    3    3    0    0  0.40574091489E+01  0.96156144682E+01  0.98200271945E+01  0.14330231853E+02  0.51100000000E-03 0. -1.
        -11    1    3    3    0    0 -0.21703297333E+01  0.11499831686E+02  0.11045672644E+02  0.16092338064E+02  0.51100000000E-03 0.  1.
        -12    1    3    3    0    0 -0.24746021857E+01 -0.24983078428E+00  0.17185646798E+02  0.17364691971E+02  0.00000000000E+00 0.  1.
</event>
<event>
 7    1  0.4450624E-010  0.4778727E+02  0.7816164E-02  0.1312668E+00
        -11   -1    0    0    0    0  0.00000000000E+00  0.00000000000E+00  0.45593999997E+02  0.45594000000E+02  0.51100000000E-03 0.  1.
         11   -1    0    0    0    0 -0.00000000000E+00 -0.00000000000E+00 -0.45593999997E+02  0.45594000000E+02  0.51100000000E-03 0. -1.
    9900012    2    1    2    0    0 -0.79097368281E+01 -0.27725142328E+02  0.32440347777E+02  0.47787267084E+02  0.19999981941E+02 0.  0.
         12    1    1    2    0    0  0.79097368281E+01  0.27725142328E+02 -0.32440347777E+02  0.43400732916E+02  0.00000000000E+00 0. -1.
         11    1    3    3    0    0 -0.89560967063E+01 -0.58615139316E+01  0.71007606358E+01  0.12844836147E+02  0.51100000000E-03 0. -1.
        -11    1    3    3    0    0 -0.10298357322E+01 -0.32546344694E+00 -0.54107984176E+00  0.12079965840E+01  0.51100000000E-03 0.  1.
        -12    1    3    3    0    0  0.20761956105E+01 -0.21538164950E+02  0.25880666983E+02  0.33734434352E+02  0.00000000000E+00 0.  1.
</event>
<event>
 7    1  0.4450624E-010  0.4778733E+02  0.7816164E-02  0.1312667E+00
        -11   -1    0    0    0    0  0.00000000000E+00  0.00000000000E+00  0.45593999997E+02  0.45594000000E+02  0.51100000000E-03 0.  1.
         11   -1    0    0    0    0 -0.00000000000E+00 -0.00000000000E+00 -0.45593999997E+02  0.45594000000E+02  0.51100000000E-03 0. -1.
    9900012    2    1    2    0    0 -0.70235224359E+00 -0.13467021834E+02  0.41252444637E+02  0.47787329910E+02  0.20000268388E+02 0.  0.
         12    1    1    2    0    0  0.70235224359E+00  0.13467021834E+02 -0.41252444637E+02  0.43400670090E+02  0.00000000000E+00 0. -1.
         11    1    3    3    0    0  0.19549834323E+01  0.26200453059E+01  0.13317791546E+02  0.13713138574E+02  0.51100000000E-03 0. -1.
        -11    1    3    3    0    0 -0.35464099817E+01 -0.19180457118E+01  0.12355371954E+02  0.12996581839E+02  0.51100000000E-03 0.  1.
         12    1    3    3    0    0  0.88907430586E+00 -0.14169021428E+02  0.15579281137E+02  0.21077609497E+02  0.00000000000E+00 0. -1.
</event>
<event>
 7    1  0.4450624E-010  0.4778727E+02  0.7816164E-02  0.1312668E+00
        -11   -1    0    0    0    0  0.00000000000E+00  0.00000000000E+00  0.45593999997E+02  0.45594000000E+02  0.51100000000E-03 0.  1.
         11   -1    0    0    0    0 -0.00000000000E+00 -0.00000000000E+00 -0.45593999997E+02  0.45594000000E+02  0.51100000000E-03 0. -1.
    9900012    2    1    2    0    0  0.28221246199E+02  0.29360779330E+02  0.15004303633E+02  0.47787271580E+02  0.20000002441E+02 0.  0.
         12    1    1    2    0    0 -0.28221246199E+02 -0.29360779330E+02 -0.15004303633E+02  0.43400728420E+02  0.00000000000E+00 0. -1.
         11    1    3    3    0    0  0.19018710934E+01  0.13009767653E+02  0.74842196321E+01  0.15128936241E+02  0.51100000000E-03 0. -1.
        -11    1    3    3    0    0  0.87960362003E+01  0.89825347953E+01  0.12157217771E+01  0.12630683429E+02  0.51100000000E-03 0.  1.
         12    1    3    3    0    0  0.17523338906E+02  0.73684768820E+01  0.63043622239E+01  0.20027651909E+02  0.00000000000E+00 0. -1.
</event>
<event>
 7    1  0.4450624E-010  0.4778727E+02  0.7816164E-02  0.1312668E+00
        -11   -1    0    0    0    0  0.00000000000E+00  0.00000000000E+00  0.45593999997E+02  0.45594000000E+02  0.51100000000E-03 0. -1.
         11   -1    0    0    0    0 -0.00000000000E+00 -0.00000000000E+00 -0.45593999997E+02  0.45594000000E+02  0.51100000000E-03 0.  1.
    9900012    2    1    2    0    0  0.12013769557E+02 -0.38525654560E+02 -0.15970817053E+02  0.47787265955E+02  0.19999976797E+02 0.  0.
         12    1    1    2    0    0 -0.12013769557E+02  0.38525654560E+02  0.15970817053E+02  0.43400734045E+02  0.00000000000E+00 0. -1.
         11    1    3    3    0    0  0.33605812404E+01 -0.92186673113E+00 -0.68930276736E+01  0.77238057533E+01  0.51100000000E-03 0. -1.
        -11    1    3    3    0    0  0.56163627805E+01 -0.14003078427E+02 -0.51749386890E+01  0.15950226550E+02  0.51100000000E-03 0.  1.
         12    1    3    3    0    0  0.30368255356E+01 -0.23600709402E+02 -0.39028506904E+01  0.24113233652E+02  0.00000000000E+00 0. -1.
</event>
<event>
 7    1  0.4450624E-010  0.4778727E+02  0.7816164E-02  0.1312668E+00
        -11   -1    0    0    0    0  0.00000000000E+00  0.00000000000E+00  0.45593999997E+02  0.45594000000E+02  0.51100000000E-03 0.  1.
         11   -1    0    0    0    0 -0.00000000000E+00 -0.00000000000E+00 -0.45593999997E+02  0.45594000000E+02  0.51100000000E-03 0. -1.
    9900012    2    1    2    0    0 -0.33217543497E+01 -0.14961179114E+01  0.43247552399E+02  0.47787271789E+02  0.20000003394E+02 0.  0.
         12    1    1    2    0    0  0.33217543497E+01  0.14961179114E+01 -0.43247552399E+02  0.43400728211E+02  0.00000000000E+00 0. -1.
         11    1    3    3    0    0  0.26054160787E+01 -0.12751488205E+01  0.62605626822E+01  0.68999161456E+01  0.51100000000E-03 0. -1.
        -11    1    3    3    0    0  0.11748270439E+01 -0.27537394236E+01  0.31300457103E+02  0.31443312716E+02  0.51100000000E-03 0.  1.
         12    1    3    3    0    0 -0.71019974722E+01  0.25327703327E+01  0.56865326136E+01  0.94440429276E+01  0.00000000000E+00 0. -1.
</event>
<event>
 7    1  0.4450624E-010  0.4778727E+02  0.7816164E-02  0.1312668E+00
        -11   -1    0    0    0    0  0.00000000000E+00  0.00000000000E+00  0.45593999997E+02  0.45594000000E+02  0.51100000000E-03 0.  1.
         11   -1    0    0    0    0 -0.00000000000E+00 -0.00000000000E+00 -0.45593999997E+02  0.45594000000E+02  0.51100000000E-03 0. -1.
    9900012    2    1    2    0    0 -0.52813224796E+01 -0.13457605758E+02  0.40922168358E+02  0.47787269788E+02  0.19999994270E+02 0.  0.
         12    1    1    2    0    0  0.52813224796E+01  0.13457605758E+02 -0.40922168358E+02  0.43400730212E+02  0.00000000000E+00 0. -1.
         11    1    3    3    0    0 -0.10788244856E+01 -0.17271506138E+01 -0.15115838134E+01  0.25360988544E+01  0.51100000000E-03 0. -1.
        -11    1    3    3    0    0  0.16214789271E+01  0.34534336929E+00  0.17291319101E+01  0.23954860420E+01  0.51100000000E-03 0.  1.
        -12    1    3    3    0    0 -0.58239769211E+01 -0.12075798513E+02  0.40704620261E+02  0.42855684891E+02  0.00000000000E+00 0.  1.
</event>
<event>
 7    1  0.4450624E-010  0.4778727E+02  0.7816164E-02  0.1312668E+00
        -11   -1    0    0    0    0  0.00000000000E+00  0.00000000000E+00  0.45593999997E+02  0.45594000000E+02  0.51100000000E-03 0. -1.
         11   -1    0    0    0    0 -0.00000000000E+00 -0.00000000000E+00 -0.45593999997E+02  0.45594000000E+02  0.51100000000E-03 0.  1.
    9900012    2    1    2    0    0  0.20811431148E+02 -0.38008619842E+02  0.24192488488E+01  0.47787267129E+02  0.19999982149E+02 0.  0.
         12    1    1    2    0    0 -0.20811431148E+02  0.38008619842E+02 -0.24192488488E+01  0.43400732871E+02  0.00000000000E+00 0. -1.
         11    1    3    3    0    0  0.21331260692E+02 -0.31943199176E+02  0.86381072736E+00  0.38420526096E+02  0.51100000000E-03 0. -1.
        -11    1    3    3    0    0  0.15483343349E+01 -0.54400373814E+01  0.33363091050E+01  0.65667575430E+01  0.51100000000E-03 0.  1.
         12    1    3    3    0    0 -0.20681638789E+01 -0.62538328496E+00 -0.17808709836E+01  0.27999834898E+01  0.00000000000E+00 0. -1.
</event>
<event>
 7    1  0.4450624E-010  0.4778727E+02  0.7816164E-02  0.1312668E+00
        -11   -1    0    0    0    0  0.00000000000E+00  0.00000000000E+00  0.45593999997E+02  0.45594000000E+02  0.51100000000E-03 0.  1.
         11   -1    0    0    0    0 -0.00000000000E+00 -0.00000000000E+00 -0.45593999997E+02  0.45594000000E+02  0.51100000000E-03 0. -1.
    9900012    2    1    2    0    0 -0.98201273965E+00  0.12477109536E+02  0.41556958531E+02  0.47787269433E+02  0.19999992651E+02 0.  0.
         12    1    1    2    0    0  0.98201273965E+00 -0.12477109536E+02 -0.41556958531E+02  0.43400730567E+02  0.00000000000E+00 0. -1.
         11    1    3    3    0    0  0.12177272772E+01  0.14642291366E+01  0.24571562289E+01  0.31087688368E+01  0.51100000000E-03 0.  1.
        -11    1    3    3    0    0  0.40364408281E+01 -0.28513825646E+01  0.37667995260E+01  0.62138567749E+01  0.51100000000E-03 0. -1.
        -12    1    3    3    0    0 -0.62361808449E+01  0.13864262964E+02  0.35333002776E+02  0.38464643821E+02  0.00000000000E+00 0.  1.
</event>
<event>
 7    1  0.4450624E-010  0.4778727E+02  0.7816164E-02  0.1312668E+00
        -11   -1    0    0    0    0  0.00000000000E+00  0.00000000000E+00  0.45593999997E+02  0.45594000000E+02  0.51100000000E-03 0.  1.
         11   -1    0    0    0    0 -0.00000000000E+00 -0.00000000000E+00 -0.45593999997E+02  0.45594000000E+02  0.51100000000E-03 0. -1.
    9900012    2    1    2    0    0 -0.21652979566E+02 -0.19249226628E+01  0.37564162686E+02  0.47787272245E+02  0.20000005476E+02 0.  0.
         12    1    1    2    0    0  0.21652979566E+02  0.19249226628E+01 -0.37564162686E+02  0.43400727755E+02  0.00000000000E+00 0. -1.
         11    1    3    3    0    0 -0.14534401738E+01  0.54568926008E-01  0.67791391468E+01  0.69334114214E+01  0.51100000000E-03 0.  1.
        -11    1    3    3    0    0 -0.44968366945E+01 -0.86314714168E+01  0.97773968430E+01  0.13795699633E+02  0.51100000000E-03 0. -1.
         12    1    3    3    0    0 -0.15702702698E+02  0.66519798280E+01  0.21007626696E+02  0.27058161191E+02  0.00000000000E+00 0. -1.
</event>
<event>
 7    1  0.4450624E-010  0.4778728E+02  0.7816164E-02  0.1312668E+00
        -11   -1    0    0    0    0  0.00000000000E+00  0.00000000000E+00  0.45593999997E+02  0.45594000000E+02  0.51100000000E-03 0.  1.
         11   -1    0    0    0    0 -0.00000000000E+00 -0.00000000000E+00 -0.45593999997E+02  0.45594000000E+02  0.51100000000E-03 0. -1.
    9900012    2    1    2    0    0 -0.57117502535E+01  0.27646016273E+02  0.32965080172E+02  0.47787276303E+02  0.20000023974E+02 0.  0.
         12    1    1    2    0    0  0.57117502535E+01 -0.27646016273E+02 -0.32965080172E+02  0.43400723697E+02  0.00000000000E+00 0. -1.
         11    1    3    3    0    0 -0.33821952524E+01  0.38360930526E+00  0.76910946727E+00  0.34896891636E+01  0.51100000000E-03 0. -1.
        -11    1    3    3    0    0 -0.78323449398E+01  0.13907089840E+02  0.17696032934E+02  0.23830701982E+02  0.51100000000E-03 0.  1.
         12    1    3    3    0    0  0.55027899388E+01  0.13355317128E+02  0.14499937770E+02  0.20466885157E+02  0.00000000000E+00 0. -1.
</event>
<event>
 7    1  0.4450624E-010  0.4778727E+02  0.7816164E-02  0.1312668E+00
        -11   -1    0    0    0    0  0.00000000000E+00  0.00000000000E+00  0.45593999997E+02  0.45594000000E+02  0.51100000000E-03 0.  1.
         11   -1    0    0    0    0 -0.00000000000E+00 -0.00000000000E+00 -0.45593999997E+02  0.45594000000E+02  0.51100000000E-03 0. -1.
    9900012    2    1    2    0    0  0.11806088635E+02  0.41012530602E+02  0.78874674150E+01  0.47787268008E+02  0.19999986155E+02 0.  0.
         12    1    1    2    0    0 -0.11806088635E+02 -0.41012530602E+02 -0.78874674150E+01  0.43400731992E+02  0.00000000000E+00 0. -1.
         11    1    3    3    0    0  0.83985579971E+01  0.11846848472E+02 -0.23014794446E+01  0.14703074612E+02  0.51100000000E-03 0. -1.
        -11    1    3    3    0    0  0.52109605620E+01  0.51981632408E+01  0.13995564355E+01  0.74922472953E+01  0.51100000000E-03 0.  1.
        -12    1    3    3    0    0 -0.18034299240E+01  0.23967518889E+02  0.87893904240E+01  0.25591946100E+02  0.00000000000E+00 0.  1.
</event>
<event>
 7    1  0.4450624E-010  0.4778727E+02  0.7816164E-02  0.1312668E+00
        -11   -1    0    0    0    0  0.00000000000E+00  0.00000000000E+00  0.45593999997E+02  0.45594000000E+02  0.51100000000E-03 0.  1.
         11   -1    0    0    0    0 -0.00000000000E+00 -0.00000000000E+00 -0.45593999997E+02  0.45594000000E+02  0.51100000000E-03 0. -1.
    9900012    2    1    2    0    0 -0.16386324142E+02  0.30642101990E+02  0.26003330799E+02  0.47787271367E+02  0.20000001469E+02 0.  0.
         12    1    1    2    0    0  0.16386324142E+02 -0.30642101990E+02 -0.26003330799E+02  0.43400728633E+02  0.00000000000E+00 0. -1.
         11    1    3    3    0    0 -0.77175288416E+00  0.20985866716E+00 -0.19888389269E+00  0.82413484230E+00  0.51100000000E-03 0. -1.
        -11    1    3    3    0    0 -0.10871270732E+02  0.57208987044E+01  0.27990307275E+01  0.12599515173E+02  0.51100000000E-03 0.  1.
        -12    1    3    3    0    0 -0.47433005260E+01  0.24711344618E+02  0.23403183964E+02  0.34363621351E+02  0.00000000000E+00 0.  1.
</event>
<event>
 7    1  0.4450624E-010  0.4778727E+02  0.7816164E-02  0.1312668E+00
        -11   -1    0    0    0    0  0.00000000000E+00  0.00000000000E+00  0.45593999997E+02  0.45594000000E+02  0.51100000000E-03 0.  1.
         11   -1    0    0    0    0 -0.00000000000E+00 -0.00000000000E+00 -0.45593999997E+02  0.45594000000E+02  0.51100000000E-03 0. -1.
    9900012    2    1    2    0    0 -0.20419056794E+02  0.12708421211E+02  0.36127293610E+02  0.47787271969E+02  0.20000004216E+02 0.  0.
         12    1    1    2    0    0  0.20419056794E+02 -0.12708421211E+02 -0.36127293610E+02  0.43400728031E+02  0.00000000000E+00 0. -1.
         11    1    3    3    0    0 -0.22475528274E+01  0.72641446318E+01  0.63474195544E+01  0.99050000608E+01  0.51100000000E-03 0. -1.
        -11    1    3    3    0    0 -0.10057181588E+02  0.72468798256E+01  0.25890709841E+02  0.28705278696E+02  0.51100000000E-03 0.  1.
         12    1    3    3    0    0 -0.81143223787E+01 -0.18026032464E+01  0.38891642147E+01  0.91769932123E+01  0.00000000000E+00 0. -1.
</event>
<event>
 7    1  0.4450624E-010  0.4778727E+02  0.7816164E-02  0.1312668E+00
        -11   -1    0    0    0    0  0.00000000000E+00  0.00000000000E+00  0.45593999997E+02  0.45594000000E+02  0.51100000000E-03 0. -1.
         11   -1    0    0    0    0 -0.00000000000E+00 -0.00000000000E+00 -0.45593999997E+02  0.45594000000E+02  0.51100000000E-03 0.  1.
    9900012    2    1    2    0    0 -0.25065547183E+02  0.16774108202E+02 -0.31208507773E+02  0.47787270525E+02  0.19999997630E+02 0.  0.
         12    1    1    2    0    0  0.25065547183E+02 -0.16774108202E+02  0.31208507773E+02  0.43400729475E+02  0.00000000000E+00 0. -1.
         11    1    3    3    0    0 -0.15353958414E+01 -0.74485869988E-01  0.10995456610E+01  0.18899707555E+01  0.51100000000E-03 0. -1.
        -11    1    3    3    0    0 -0.57625674553E+01  0.12329456658E+02 -0.18395922505E+02  0.22883021003E+02  0.51100000000E-03 0.  1.
        -12    1    3    3    0    0 -0.17767583886E+02  0.45191374142E+01 -0.13912130930E+02  0.23014278766E+02  0.00000000000E+00 0.  1.
</event>
<event>
 7    1  0.4450624E-010  0.4778727E+02  0.7816164E-02  0.1312668E+00
        -11   -1    0    0    0    0  0.00000000000E+00  0.00000000000E+00  0.45593999997E+02  0.45594000000E+02  0.51100000000E-03 0. -1.
         11   -1    0    0    0    0 -0.00000000000E+00 -0.00000000000E+00 -0.45593999997E+02  0.45594000000E+02  0.51100000000E-03 0.  1.
    9900012    2    1    2    0    0 -0.17474146174E+02 -0.39720039137E+02 -0.77178772091E+00  0.47787274777E+02  0.20000017020E+02 0.  0.
         12    1    1    2    0    0  0.17474146174E+02  0.39720039137E+02  0.77178772091E+00  0.43400725223E+02  0.00000000000E+00 0. -1.
         11    1    3    3    0    0 -0.12337360338E+02 -0.25359247515E+02 -0.46681987138E+01  0.28584855677E+02  0.51100000000E-03 0. -1.
        -11    1    3    3    0    0 -0.63740241369E+01 -0.53758169573E+01 -0.17482126163E+01  0.85196149719E+01  0.51100000000E-03 0.  1.
         12    1    3    3    0    0  0.12372383012E+01 -0.89849746654E+01  0.56446236092E+01  0.10682804128E+02  0.00000000000E+00 0. -1.
</event>
<event>
 7    1  0.4450624E-010  0.4778726E+02  0.7816164E-02  0.1312668E+00
        -11   -1    0    0    0    0  0.00000000000E+00  0.00000000000E+00  0.45593999997E+02  0.45594000000E+02  0.51100000000E-03 0.  1.
         11   -1    0    0    0    0 -0.00000000000E+00 -0.00000000000E+00 -0.45593999997E+02  0.45594000000E+02  0.51100000000E-03 0. -1.
    9900012    2    1    2    0    0 -0.19110945814E+02  0.76990300485E+01  0.38198436555E+02  0.47787264190E+02  0.19999968746E+02 0.  0.
         12    1    1    2    0    0  0.19110945814E+02 -0.76990300485E+01 -0.38198436555E+02  0.43400735810E+02  0.00000000000E+00 0. -1.
         11    1    3    3    0    0 -0.89178551949E+01  0.24376261090E+01  0.10275881419E+02  0.13822586644E+02  0.51100000000E-03 0. -1.
        -11    1    3    3    0    0 -0.21456309205E+01  0.87441095678E+01  0.74247897108E+01  0.11670076550E+02  0.51100000000E-03 0.  1.
        -12    1    3    3    0    0 -0.80474596991E+01 -0.34827056283E+01  0.20497765426E+02  0.22294600995E+02  0.00000000000E+00 0.  1.
</event>
<event>
 7    1  0.4450624E-010  0.4778727E+02  0.7816164E-02  0.1312668E+00
        -11   -1    0    0    0    0  0.00000000000E+00  0.00000000000E+00  0.45593999997E+02  0.45594000000E+02  0.51100000000E-03 0.  1.
         11   -1    0    0    0    0 -0.00000000000E+00 -0.00000000000E+00 -0.45593999997E+02  0.45594000000E+02  0.51100000000E-03 0. -1.
    9900012    2    1    2    0    0  0.40989221173E+02 -0.74911406419E+01  0.12140411278E+02  0.47787273894E+02  0.20000012994E+02 0.  0.
         12    1    1    2    0    0 -0.40989221173E+02  0.74911406419E+01 -0.12140411278E+02  0.43400726106E+02  0.00000000000E+00 0. -1.
         11    1    3    3    0    0  0.17857275075E+02 -0.20756949225E+01  0.79045323886E+01  0.19638544117E+02  0.51100000000E-03 0.  1.
        -11    1    3    3    0    0  0.61125418125E+01 -0.11826859556E+01  0.80741475251E+01  0.10195772261E+02  0.51100000000E-03 0. -1.
         12    1    3    3    0    0  0.17019404286E+02 -0.42327597639E+01 -0.38382686353E+01  0.17952957516E+02  0.00000000000E+00 0. -1.
</event>
<event>
 7    1  0.4450624E-010  0.4778727E+02  0.7816164E-02  0.1312668E+00
        -11   -1    0    0    0    0  0.00000000000E+00  0.00000000000E+00  0.45593999997E+02  0.45594000000E+02  0.51100000000E-03 0.  1.
         11   -1    0    0    0    0 -0.00000000000E+00 -0.00000000000E+00 -0.45593999997E+02  0.45594000000E+02  0.51100000000E-03 0. -1.
    9900012    2    1    2    0    0  0.12970596149E+02 -0.12438091110E+02  0.39505454398E+02  0.47787269567E+02  0.19999993264E+02 0.  0.
         12    1    1    2    0    0 -0.12970596149E+02  0.12438091110E+02 -0.39505454398E+02  0.43400730433E+02  0.00000000000E+00 0. -1.
         11    1    3    3    0    0  0.53253496311E+01 -0.88444320763E+01  0.18232219063E+02  0.20952258582E+02  0.51100000000E-03 0. -1.
        -11    1    3    3    0    0  0.32150236020E+01 -0.88599852491E+01  0.13323751706E+02  0.16320480237E+02  0.51100000000E-03 0.  1.
         12    1    3    3    0    0  0.44302229163E+01  0.52663262155E+01  0.79494836284E+01  0.10514530748E+02  0.00000000000E+00 0. -1.
</event>
<event>
 7    1  0.4450624E-010  0.4778728E+02  0.7816164E-02  0.1312668E+00
        -11   -1    0    0    0    0  0.00000000000E+00  0.00000000000E+00  0.45593999997E+02  0.45594000000E+02  0.51100000000E-03 0. -1.
         11   -1    0    0    0    0 -0.00000000000E+00 -0.00000000000E+00 -0.45593999997E+02  0.45594000000E+02  0.51100000000E-03 0.  1.
    9900012    2    1    2    0    0 -0.16831297163E+02 -0.19994945395E+02 -0.34648696645E+02  0.47787278983E+02  0.20000036197E+02 0.  0.
         12    1    1    2    0    0  0.16831297163E+02  0.19994945395E+02  0.34648696645E+02  0.43400721017E+02  0.00000000000E+00 0. -1.
         11    1    3    3    0    0 -0.62754698151E+01 -0.12307433637E+01 -0.40711348571E+01  0.75809227613E+01  0.51100000000E-03 0. -1.
        -11    1    3    3    0    0 -0.58598759973E+01 -0.11169529407E+01 -0.19986459780E+01  0.62912889444E+01  0.51100000000E-03 0.  1.
        -12    1    3    3    0    0 -0.46959513507E+01 -0.17647249091E+02 -0.28578915810E+02  0.33915067278E+02  0.00000000000E+00 0.  1.
</event>
<event>
 7    1  0.4450624E-010  0.4778730E+02  0.7816164E-02  0.1312668E+00
        -11   -1    0    0    0    0  0.00000000000E+00  0.00000000000E+00  0.45593999997E+02  0.45594000000E+02  0.51100000000E-03 0.  1.
         11   -1    0    0    0    0 -0.00000000000E+00 -0.00000000000E+00 -0.45593999997E+02  0.45594000000E+02  0.51100000000E-03 0. -1.
    9900012    2    1    2    0    0  0.12925531150E+00 -0.13069773809E+02  0.41385807596E+02  0.47787299952E+02  0.20000131799E+02 0.  0.
         12    1    1    2    0    0 -0.12925531150E+00  0.13069773809E+02 -0.41385807596E+02  0.43400700048E+02  0.00000000000E+00 0. -1.
         11    1    3    3    0    0  0.49452924869E+01 -0.25772306968E+00  0.49284357062E+01  0.69865454792E+01  0.51100000000E-03 0. -1.
        -11    1    3    3    0    0  0.15325285265E+00 -0.10753563639E+02  0.13703460509E+02  0.17419743039E+02  0.51100000000E-03 0.  1.
        -12    1    3    3    0    0 -0.49692900280E+01 -0.20584871003E+01  0.22753911380E+02  0.23381011433E+02  0.00000000000E+00 0.  1.
</event>
<event>
 7    1  0.4450624E-010  0.4778727E+02  0.7816164E-02  0.1312668E+00
        -11   -1    0    0    0    0  0.00000000000E+00  0.00000000000E+00  0.45593999997E+02  0.45594000000E+02  0.51100000000E-03 0.  1.
         11   -1    0    0    0    0 -0.00000000000E+00 -0.00000000000E+00 -0.45593999997E+02  0.45594000000E+02  0.51100000000E-03 0. -1.
    9900012    2    1    2    0    0  0.20442564826E+02 -0.29513595945E+02  0.24385905469E+02  0.47787272036E+02  0.20000004520E+02 0.  0.
         12    1    1    2    0    0 -0.20442564826E+02  0.29513595945E+02 -0.24385905469E+02  0.43400727964E+02  0.00000000000E+00 0. -1.
         11    1    3    3    0    0 -0.24343742738E+00 -0.58248684866E+01  0.90371608941E+01  0.10754470324E+02  0.51100000000E-03 0. -1.
        -11    1    3    3    0    0  0.11034878230E+02 -0.11222442606E+02  0.14245958984E+02  0.21228732963E+02  0.51100000000E-03 0.  1.
         12    1    3    3    0    0  0.96511240232E+01 -0.12466284853E+02  0.11027855912E+01  0.15804068748E+02  0.00000000000E+00 0. -1.
</event>
<event>
 7    1  0.4450624E-010  0.4778727E+02  0.7816164E-02  0.1312668E+00
        -11   -1    0    0    0    0  0.00000000000E+00  0.00000000000E+00  0.45593999997E+02  0.45594000000E+02  0.51100000000E-03 0.  1.
         11   -1    0    0    0    0 -0.00000000000E+00 -0.00000000000E+00 -0.45593999997E+02  0.45594000000E+02  0.51100000000E-03 0. -1.
    9900012    2    1    2    0    0  0.18202265946E+02 -0.11096521184E+02  0.37804338091E+02  0.47787271360E+02  0.20000001438E+02 0.  0.
         12    1    1    2    0    0 -0.18202265946E+02  0.11096521184E+02 -0.37804338091E+02  0.43400728640E+02  0.00000000000E+00 0. -1.
         11    1    3    3    0    0  0.72143317671E+01 -0.62745351026E+01  0.17373542562E+02  0.19830692247E+02  0.51100000000E-03 0.  1.
        -11    1    3    3    0    0  0.11129027060E+02 -0.93367432673E+01  0.14802910556E+02  0.20740206830E+02  0.51100000000E-03 0. -1.
         12    1    3    3    0    0 -0.14109288109E+00  0.45147571860E+01  0.56278849735E+01  0.72163722828E+01  0.00000000000E+00 0. -1.
</event>
<event>
 7    1  0.4450624E-010  0.4778728E+02  0.7816164E-02  0.1312668E+00
        -11   -1    0    0    0    0  0.00000000000E+00  0.00000000000E+00  0.45593999997E+02  0.45594000000E+02  0.51100000000E-03 0.  1.
         11   -1    0    0    0    0 -0.00000000000E+00 -0.00000000000E+00 -0.45593999997E+02  0.45594000000E+02  0.51100000000E-03 0. -1.
    9900012    2    1    2    0    0 -0.13070082276E+02 -0.40124480495E+02  0.10140109590E+02  0.47787276409E+02  0.20000024459E+02 0.  0.
         12    1    1    2    0    0  0.13070082276E+02  0.40124480495E+02 -0.10140109590E+02  0.43400723591E+02  0.00000000000E+00 0. -1.
         11    1    3    3    0    0 -0.12016794124E+01 -0.16671970417E+02 -0.36136474982E+01  0.17101376538E+02  0.51100000000E-03 0. -1.
        -11    1    3    3    0    0 -0.67878303704E+01 -0.86436353077E+01  0.21505679950E+01  0.11198750619E+02  0.51100000000E-03 0.  1.
        -12    1    3    3    0    0 -0.50805724929E+01 -0.14808874771E+02  0.11603189093E+02  0.19487149252E+02  0.00000000000E+00 0.  1.
</event>
<event>
 7    1  0.4450624E-010  0.4778727E+02  0.7816164E-02  0.1312668E+00
        -11   -1    0    0    0    0  0.00000000000E+00  0.00000000000E+00  0.45593999997E+02  0.45594000000E+02  0.51100000000E-03 0.  1.
         11   -1    0    0    0    0 -0.00000000000E+00 -0.00000000000E+00 -0.45593999997E+02  0.45594000000E+02  0.51100000000E-03 0. -1.
    9900012    2    1    2    0    0  0.33331450953E+02  0.27719081920E+02  0.20712579877E+01  0.47787271495E+02  0.20000002054E+02 0.  0.
         12    1    1    2    0    0 -0.33331450953E+02 -0.27719081920E+02 -0.20712579877E+01  0.43400728505E+02  0.00000000000E+00 0. -1.
         11    1    3    3    0    0  0.89585232573E+01  0.61319300074E+01  0.61627889797E+01  0.12483415912E+02  0.51100000000E-03 0. -1.
        -11    1    3    3    0    0  0.11043738727E+02  0.17507795052E+02  0.25809591950E+00  0.20701537779E+02  0.51100000000E-03 0.  1.
         12    1    3    3    0    0  0.13329188969E+02  0.40793568599E+01 -0.43496269115E+01  0.14602317803E+02  0.00000000000E+00 0. -1.
</event>
<event>
 7    1  0.4450624E-010  0.4778727E+02  0.7816164E-02  0.1312668E+00
        -11   -1    0    0    0    0  0.00000000000E+00  0.00000000000E+00  0.45593999997E+02  0.45594000000E+02  0.51100000000E-03 0. -1.
         11   -1    0    0    0    0 -0.00000000000E+00 -0.00000000000E+00 -0.45593999997E+02  0.45594000000E+02  0.51100000000E-03 0.  1.
    9900012    2    1    2    0    0  0.19267703597E+02  0.38851215772E+02  0.17210005280E+01  0.47787271761E+02  0.20000003268E+02 0.  0.
         12    1    1    2    0    0 -0.19267703597E+02 -0.38851215772E+02 -0.17210005280E+01  0.43400728239E+02  0.00000000000E+00 0. -1.
         11    1    3    3    0    0 -0.63071617481E+00  0.40159046508E+01  0.31380909457E-01  0.40652525235E+01  0.51100000000E-03 0. -1.
        -11    1    3    3    0    0 -0.30258530335E+01  0.67819860424E+01 -0.36369216750E+00  0.74352803252E+01  0.51100000000E-03 0.  1.
        -12    1    3    3    0    0  0.22924272805E+02  0.28053325079E+02  0.20533117860E+01  0.36286738912E+02  0.00000000000E+00 0.  1.
</event>
<event>
 7    1  0.4450624E-010  0.4778727E+02  0.7816164E-02  0.1312668E+00
        -11   -1    0    0    0    0  0.00000000000E+00  0.00000000000E+00  0.45593999997E+02  0.45594000000E+02  0.51100000000E-03 0.  1.
         11   -1    0    0    0    0 -0.00000000000E+00 -0.00000000000E+00 -0.45593999997E+02  0.45594000000E+02  0.51100000000E-03 0. -1.
    9900012    2    1    2    0    0  0.31817550586E+02  0.25886971682E+02  0.14182076006E+02  0.47787272956E+02  0.20000008714E+02 0.  0.
         12    1    1    2    0    0 -0.31817550586E+02 -0.25886971682E+02 -0.14182076006E+02  0.43400727044E+02  0.00000000000E+00 0. -1.
         11    1    3    3    0    0  0.13563795644E+02  0.28494112571E+01  0.31331461418E+01  0.14209584856E+02  0.51100000000E-03 0. -1.
        -11    1    3    3    0    0  0.16379056915E+02  0.12103910362E+02  0.51215215362E+01  0.21000193680E+02  0.51100000000E-03 0.  1.
        -12    1    3    3    0    0  0.18746980268E+01  0.10933650062E+02  0.59274083284E+01  0.12577494419E+02  0.00000000000E+00 0.  1.
</event>
<event>
 7    1  0.5830483E-010  0.4778727E+02  0.7816164E-02  0.1312668E+00
        -11   -1    0    0    0    0  0.00000000000E+00  0.00000000000E+00  0.45593999997E+02  0.45594000000E+02  0.51100000000E-03 0.  1.
         11   -1    0    0    0    0 -0.00000000000E+00 -0.00000000000E+00 -0.45593999997E+02  0.45594000000E+02  0.51100000000E-03 0. -1.
    9900012    2    1    2    0    0 -0.16237465024E+02  0.39324844831E+02  0.85746402844E+01  0.47787272502E+02  0.20000006645E+02 0.  0.
         12    1    1    2    0    0  0.16237465024E+02 -0.39324844831E+02 -0.85746402844E+01  0.43400727498E+02  0.00000000000E+00 0. -1.
         11    1    3    3    0    0  0.25805218648E+01  0.36858954301E+01  0.42882283701E+01  0.62156110747E+01  0.51100000000E-03 0. -1.
        -11    1    3    3    0    0 -0.40161035908E+01  0.83763892056E+01 -0.28941640628E+01  0.97298083260E+01  0.51100000000E-03 0.  1.
        -12    1    3    3    0    0 -0.14801883298E+02  0.27262560195E+02  0.71805759772E+01  0.31841853101E+02  0.00000000000E+00 0.  1.
</event>
<event>
 7    1  0.4450624E-010  0.4778726E+02  0.7816164E-02  0.1312668E+00
        -11   -1    0    0    0    0  0.00000000000E+00  0.00000000000E+00  0.45593999997E+02  0.45594000000E+02  0.51100000000E-03 0.  1.
         11   -1    0    0    0    0 -0.00000000000E+00 -0.00000000000E+00 -0.45593999997E+02  0.45594000000E+02  0.51100000000E-03 0. -1.
    9900012    2    1    2    0    0 -0.39331903874E+02  0.18300931828E+02 -0.13042676272E+01  0.47787264036E+02  0.19999968047E+02 0.  0.
         12    1    1    2    0    0  0.39331903874E+02 -0.18300931828E+02  0.13042676272E+01  0.43400735964E+02  0.00000000000E+00 0. -1.
         11    1    3    3    0    0 -0.14675422748E+02  0.36121759633E+00  0.28158868992E+01  0.14947499131E+02  0.51100000000E-03 0. -1.
        -11    1    3    3    0    0 -0.15961435246E+02  0.64266770976E+01  0.16831728917E+01  0.17288801719E+02  0.51100000000E-03 0.  1.
         12    1    3    3    0    0 -0.86950458807E+01  0.11513037134E+02 -0.58033274181E+01  0.15550963187E+02  0.00000000000E+00 0. -1.
</event>
<event>
 7    1  0.4450624E-010  0.4778727E+02  0.7816164E-02  0.1312668E+00
        -11   -1    0    0    0    0  0.00000000000E+00  0.00000000000E+00  0.45593999997E+02  0.45594000000E+02  0.51100000000E-03 0.  1.
         11   -1    0    0    0    0 -0.00000000000E+00 -0.00000000000E+00 -0.45593999997E+02  0.45594000000E+02  0.51100000000E-03 0. -1.
    9900012    2    1    2    0    0 -0.10619495100E+02 -0.25585869194E+02  0.33409768831E+02  0.47787273832E+02  0.20000012710E+02 0.  0.
         12    1    1    2    0    0  0.10619495100E+02  0.25585869194E+02 -0.33409768831E+02  0.43400726168E+02  0.00000000000E+00 0. -1.
         11    1    3    3    0    0 -0.33190548588E+01 -0.13036926304E+02  0.61424041379E+01  0.14788735628E+02  0.51100000000E-03 0.  1.
        -11    1    3    3    0    0  0.15730696992E+01  0.67790289584E+00  0.70805805939E+01  0.72848282356E+01  0.51100000000E-03 0. -1.
        -12    1    3    3    0    0 -0.88735099406E+01 -0.13226845786E+02  0.20186784099E+02  0.25713709969E+02  0.00000000000E+00 0.  1.
</event>
<event>
 7    1  0.4450624E-010  0.4778727E+02  0.7816164E-02  0.1312668E+00
        -11   -1    0    0    0    0  0.00000000000E+00  0.00000000000E+00  0.45593999997E+02  0.45594000000E+02  0.51100000000E-03 0. -1.
         11   -1    0    0    0    0 -0.00000000000E+00 -0.00000000000E+00 -0.45593999997E+02  0.45594000000E+02  0.51100000000E-03 0.  1.
    9900012    2    1    2    0    0 -0.36186156194E+02  0.16888411113E+02 -0.16999032232E+02  0.47787269282E+02  0.19999991965E+02 0.  0.
         12    1    1    2    0    0  0.36186156194E+02 -0.16888411113E+02  0.16999032232E+02  0.43400730718E+02  0.00000000000E+00 0. -1.
         11    1    3    3    0    0 -0.75127424811E+01  0.63116585902E+01 -0.98493260239E+01  0.13902789545E+02  0.51100000000E-03 0. -1.
        -11    1    3    3    0    0 -0.12102481849E+02  0.91699522375E+01  0.12828290888E+01  0.15238232892E+02  0.51100000000E-03 0.  1.
         12    1    3    3    0    0 -0.16570931864E+02  0.14068002856E+01 -0.84325352971E+01  0.18646246845E+02  0.00000000000E+00 0. -1.
</event>
<event>
 7    1  0.4450624E-010  0.4778728E+02  0.7816164E-02  0.1312668E+00
        -11   -1    0    0    0    0  0.00000000000E+00  0.00000000000E+00  0.45593999997E+02  0.45594000000E+02  0.51100000000E-03 0.  1.
         11   -1    0    0    0    0 -0.00000000000E+00 -0.00000000000E+00 -0.45593999997E+02  0.45594000000E+02  0.51100000000E-03 0. -1.
    9900012    2    1    2    0    0  0.48731844585E+01  0.32387977437E+02  0.28476195970E+02  0.47787277124E+02  0.20000027721E+02 0.  0.
         12    1    1    2    0    0 -0.48731844585E+01 -0.32387977437E+02 -0.28476195970E+02  0.43400722876E+02  0.00000000000E+00 0. -1.
         11    1    3    3    0    0  0.30229157432E+01  0.13936178466E+02  0.99557671344E+01  0.17391733361E+02  0.51100000000E-03 0. -1.
        -11    1    3    3    0    0 -0.34098261749E+01  0.13964756386E+02  0.18567131919E+02  0.23481476176E+02  0.51100000000E-03 0.  1.
         12    1    3    3    0    0  0.52600948902E+01  0.44870425851E+01 -0.46703083644E-01  0.69140675866E+01  0.00000000000E+00 0. -1.
</event>
<event>
 7    1  0.4450624E-010  0.4778727E+02  0.7816164E-02  0.1312668E+00
        -11   -1    0    0    0    0  0.00000000000E+00  0.00000000000E+00  0.45593999997E+02  0.45594000000E+02  0.51100000000E-03 0. -1.
         11   -1    0    0    0    0 -0.00000000000E+00 -0.00000000000E+00 -0.45593999997E+02  0.45594000000E+02  0.51100000000E-03 0.  1.
    9900012    2    1    2    0    0  0.19865539798E+02 -0.33555987346E+01 -0.38441168036E+02  0.47787272883E+02  0.20000008382E+02 0.  0.
         12    1    1    2    0    0 -0.19865539798E+02  0.33555987346E+01  0.38441168036E+02  0.43400727117E+02  0.00000000000E+00 0. -1.
         11    1    3    3    0    0  0.11210698637E+02  0.15163297475E+01 -0.12401053974E+02  0.16785861900E+02  0.51100000000E-03 0. -1.
        -11    1    3    3    0    0  0.43135230250E+01 -0.21767680070E+01 -0.39010422138E+00  0.48473685034E+01  0.51100000000E-03 0.  1.
        -12    1    3    3    0    0  0.43413181365E+01 -0.26951604751E+01 -0.25650009841E+02  0.26154042479E+02  0.00000000000E+00 0.  1.
</event>
<event>
 7    1  0.4450624E-010  0.4778727E+02  0.7816164E-02  0.1312668E+00
        -11   -1    0    0    0    0  0.00000000000E+00  0.00000000000E+00  0.45593999997E+02  0.45594000000E+02  0.51100000000E-03 0.  1.
         11   -1    0    0    0    0 -0.00000000000E+00 -0.00000000000E+00 -0.45593999997E+02  0.45594000000E+02  0.51100000000E-03 0. -1.
    9900012    2    1    2    0    0 -0.21520467217E+02  0.37651429690E+02  0.16918703511E+01  0.47787273137E+02  0.20000009541E+02 0.  0.
         12    1    1    2    0    0  0.21520467217E+02 -0.37651429690E+02 -0.16918703511E+01  0.43400726863E+02  0.00000000000E+00 0. -1.
         11    1    3    3    0    0  0.28185526912E+01  0.38924710781E+01  0.25286253048E+01  0.54304250810E+01  0.51100000000E-03 0. -1.
        -11    1    3    3    0    0 -0.27788153344E+01  0.77292751739E+01 -0.22884938920E+01  0.85264713646E+01  0.51100000000E-03 0.  1.
         12    1    3    3    0    0 -0.21560204573E+02  0.26029683438E+02  0.14517389383E+01  0.33830376692E+02  0.00000000000E+00 0. -1.
</event>
<event>
 7    1  0.4450624E-010  0.4778727E+02  0.7816164E-02  0.1312668E+00
        -11   -1    0    0    0    0  0.00000000000E+00  0.00000000000E+00  0.45593999997E+02  0.45594000000E+02  0.51100000000E-03 0. -1.
         11   -1    0    0    0    0 -0.00000000000E+00 -0.00000000000E+00 -0.45593999997E+02  0.45594000000E+02  0.51100000000E-03 0.  1.
    9900012    2    1    2    0    0  0.38931530159E+02 -0.16527419860E+02 -0.97367190054E+01  0.47787270228E+02  0.19999996278E+02 0.  0.
         12    1    1    2    0    0 -0.38931530159E+02  0.16527419860E+02  0.97367190054E+01  0.43400729772E+02  0.00000000000E+00 0. -1.
         11    1    3    3    0    0 -0.11698074171E+00 -0.20817725466E+01  0.17578448798E+01  0.27271744191E+01  0.51100000000E-03 0. -1.
        -11    1    3    3    0    0  0.28954282716E+02 -0.10059826785E+02 -0.23341983518E+01  0.30740837412E+02  0.51100000000E-03 0.  1.
         12    1    3    3    0    0  0.10094228184E+02 -0.43858205284E+01 -0.91603655334E+01  0.14319258397E+02  0.00000000000E+00 0. -1.
</event>
<event>
 7    1  0.4450624E-010  0.4778727E+02  0.7816164E-02  0.1312668E+00
        -11   -1    0    0    0    0  0.00000000000E+00  0.00000000000E+00  0.45593999997E+02  0.45594000000E+02  0.51100000000E-03 0. -1.
         11   -1    0    0    0    0 -0.00000000000E+00 -0.00000000000E+00 -0.45593999997E+02  0.45594000000E+02  0.51100000000E-03 0.  1.
    9900012    2    1    2    0    0  0.37820200007E+02 -0.73868508800E+01 -0.19967224814E+02  0.47787272341E+02  0.20000005913E+02 0.  0.
         12    1    1    2    0    0 -0.37820200007E+02  0.73868508800E+01  0.19967224814E+02  0.43400727659E+02  0.00000000000E+00 0. -1.
         11    1    3    3    0    0  0.12540685748E+02  0.60581401921E+01 -0.81404409835E+01  0.16131851762E+02  0.51100000000E-03 0. -1.
        -11    1    3    3    0    0  0.19875042257E+01 -0.15938493500E+01  0.74609258809E+00  0.26546531240E+01  0.51100000000E-03 0.  1.
        -12    1    3    3    0    0  0.23292010034E+02 -0.11851141722E+02 -0.12572876419E+02  0.29000767455E+02  0.00000000000E+00 0.  1.
</event>
<event>
 7    1  0.4450624E-010  0.4778728E+02  0.7816164E-02  0.1312668E+00
        -11   -1    0    0    0    0  0.00000000000E+00  0.00000000000E+00  0.45593999997E+02  0.45594000000E+02  0.51100000000E-03 0.  1.
         11   -1    0    0    0    0 -0.00000000000E+00 -0.00000000000E+00 -0.45593999997E+02  0.45594000000E+02  0.51100000000E-03 0. -1.
    9900012    2    1    2    0    0 -0.34970966274E+02 -0.20844415152E+02  0.15038751651E+02  0.47787283688E+02  0.20000057649E+02 0.  0.
         12    1    1    2    0    0  0.34970966274E+02  0.20844415152E+02 -0.15038751651E+02  0.43400716312E+02  0.00000000000E+00 0. -1.
         11    1    3    3    0    0 -0.95603830136E+01 -0.76900369255E+00  0.71597183433E+00  0.96179470769E+01  0.51100000000E-03 0. -1.
        -11    1    3    3    0    0 -0.19812743398E+02 -0.71326111885E+01  0.64715709640E+01  0.22029529598E+02  0.51100000000E-03 0.  1.
         12    1    3    3    0    0 -0.55978398622E+01 -0.12942800271E+02  0.78512088526E+01  0.16139807013E+02  0.00000000000E+00 0. -1.
</event>
<event>
 7    1  0.4450624E-010  0.4778727E+02  0.7816164E-02  0.1312668E+00
        -11   -1    0    0    0    0  0.00000000000E+00  0.00000000000E+00  0.45593999997E+02  0.45594000000E+02  0.51100000000E-03 0.  1.
         11   -1    0    0    0    0 -0.00000000000E+00 -0.00000000000E+00 -0.45593999997E+02  0.45594000000E+02  0.51100000000E-03 0. -1.
    9900012    2    1    2    0    0 -0.33150452193E+02  0.80389845895E+01  0.26833663444E+02  0.47787271346E+02  0.20000001376E+02 0.  0.
         12    1    1    2    0    0  0.33150452193E+02 -0.80389845895E+01 -0.26833663444E+02  0.43400728654E+02  0.00000000000E+00 0. -1.
         11    1    3    3    0    0 -0.30091329857E+01  0.34634979159E+01  0.77393469595E+01  0.89971212484E+01  0.51100000000E-03 0. -1.
        -11    1    3    3    0    0 -0.87155622726E+01  0.62386053987E+01  0.12158674397E+02  0.16208472673E+02  0.51100000000E-03 0.  1.
        -12    1    3    3    0    0 -0.21425756935E+02 -0.16631187251E+01  0.69356420878E+01  0.22581677425E+02  0.00000000000E+00 0.  1.
</event>
<event>
 7    1  0.4450624E-010  0.4778726E+02  0.7816164E-02  0.1312668E+00
        -11   -1    0    0    0    0  0.00000000000E+00  0.00000000000E+00  0.45593999997E+02  0.45594000000E+02  0.51100000000E-03 0.  1.
         11   -1    0    0    0    0 -0.00000000000E+00 -0.00000000000E+00 -0.45593999997E+02  0.45594000000E+02  0.51100000000E-03 0. -1.
    9900012    2    1    2    0    0 -0.54682826603E+00 -0.36155587763E+02  0.24002057723E+02  0.47787258963E+02  0.19999944916E+02 0.  0.
         12    1    1    2    0    0  0.54682826603E+00  0.36155587763E+02 -0.24002057723E+02  0.43400741037E+02  0.00000000000E+00 0. -1.
         11    1    3    3    0    0  0.17448970964E+01 -0.15251197969E+01  0.24631637826E+01  0.33819864507E+01  0.51100000000E-03 0. -1.
        -11    1    3    3    0    0  0.23008406959E+01 -0.86677218700E+01 -0.18543132809E+01  0.91576060369E+01  0.51100000000E-03 0.  1.
        -12    1    3    3    0    0 -0.45925660584E+01 -0.25962746096E+02  0.23393207222E+02  0.35247666475E+02  0.00000000000E+00 0.  1.
</event>
<event>
 7    1  0.4450624E-010  0.4778727E+02  0.7816164E-02  0.1312668E+00
        -11   -1    0    0    0    0  0.00000000000E+00  0.00000000000E+00  0.45593999997E+02  0.45594000000E+02  0.51100000000E-03 0. -1.
         11   -1    0    0    0    0 -0.00000000000E+00 -0.00000000000E+00 -0.45593999997E+02  0.45594000000E+02  0.51100000000E-03 0.  1.
    9900012    2    1    2    0    0 -0.40909642219E+02 -0.11732296365E+02 -0.85075180029E+01  0.47787268819E+02  0.19999989851E+02 0.  0.
         12    1    1    2    0    0  0.40909642219E+02  0.11732296365E+02  0.85075180029E+01  0.43400731181E+02  0.00000000000E+00 0. -1.
         11    1    3    3    0    0 -0.14688050979E+02 -0.88177542291E+01 -0.58706198673E+01  0.18109550217E+02  0.51100000000E-03 0. -1.
        -11    1    3    3    0    0  0.37844597634E+00  0.98065194567E-01 -0.28801102853E+01  0.29065226054E+01  0.51100000000E-03 0.  1.
        -12    1    3    3    0    0 -0.26600037217E+02 -0.30126073301E+01  0.24321214965E+00  0.26771195996E+02  0.00000000000E+00 0.  1.
</event>
<event>
 7    1  0.4450624E-010  0.4778727E+02  0.7816164E-02  0.1312668E+00
        -11   -1    0    0    0    0  0.00000000000E+00  0.00000000000E+00  0.45593999997E+02  0.45594000000E+02  0.51100000000E-03 0. -1.
         11   -1    0    0    0    0 -0.00000000000E+00 -0.00000000000E+00 -0.45593999997E+02  0.45594000000E+02  0.51100000000E-03 0.  1.
    9900012    2    1    2    0    0 -0.16913224592E+02 -0.12768176888E+02 -0.37875321304E+02  0.47787268773E+02  0.19999989645E+02 0.  0.
         12    1    1    2    0    0  0.16913224592E+02  0.12768176888E+02  0.37875321304E+02  0.43400731227E+02  0.00000000000E+00 0. -1.
         11    1    3    3    0    0 -0.82353544916E+01 -0.30828984662E+01 -0.19765381588E+02  0.21633206793E+02  0.51100000000E-03 0. -1.
        -11    1    3    3    0    0 -0.85881443367E+01 -0.24328323575E+00 -0.12509408030E+02  0.15175661416E+02  0.51100000000E-03 0.  1.
         12    1    3    3    0    0 -0.89725764028E-01 -0.94419951857E+01 -0.56005316853E+01  0.10978400565E+02  0.00000000000E+00 0. -1.
</event>
<event>
 7    1  0.4450624E-010  0.4778728E+02  0.7816164E-02  0.1312668E+00
        -11   -1    0    0    0    0  0.00000000000E+00  0.00000000000E+00  0.45593999997E+02  0.45594000000E+02  0.51100000000E-03 0. -1.
         11   -1    0    0    0    0 -0.00000000000E+00 -0.00000000000E+00 -0.45593999997E+02  0.45594000000E+02  0.51100000000E-03 0.  1.
    9900012    2    1    2    0    0 -0.25964518833E+02  0.34334857035E+02 -0.55303019133E+01  0.47787275524E+02  0.20000020422E+02 0.  0.
         12    1    1    2    0    0  0.25964518833E+02 -0.34334857035E+02  0.55303019133E+01  0.43400724476E+02  0.00000000000E+00 0. -1.
         11    1    3    3    0    0 -0.89012438818E+01  0.13950608264E+02  0.10857893127E+01  0.16584045112E+02  0.51100000000E-03 0. -1.
        -11    1    3    3    0    0 -0.16092094090E+02  0.96243855533E+01 -0.43337855467E+00  0.18755588679E+02  0.51100000000E-03 0.  1.
         12    1    3    3    0    0 -0.97118086131E+00  0.10759863218E+02 -0.61827126713E+01  0.12447641733E+02  0.00000000000E+00 0. -1.
</event>
<event>
 7    1  0.4450624E-010  0.4778727E+02  0.7816164E-02  0.1312668E+00
        -11   -1    0    0    0    0  0.00000000000E+00  0.00000000000E+00  0.45593999997E+02  0.45594000000E+02  0.51100000000E-03 0.  1.
         11   -1    0    0    0    0 -0.00000000000E+00 -0.00000000000E+00 -0.45593999997E+02  0.45594000000E+02  0.51100000000E-03 0. -1.
    9900012    2    1    2    0    0  0.12197258539E+02  0.17873627492E+02  0.37621580113E+02  0.47787274593E+02  0.20000016181E+02 0.  0.
         12    1    1    2    0    0 -0.12197258539E+02 -0.17873627492E+02 -0.37621580113E+02  0.43400725407E+02  0.00000000000E+00 0. -1.
         11    1    3    3    0    0  0.13613709003E+02  0.55091221354E+01  0.12846202374E+02  0.19511750696E+02  0.51100000000E-03 0.  1.
        -11    1    3    3    0    0  0.18399957242E+00  0.53723559080E+01  0.54194556058E+01  0.76332537734E+01  0.51100000000E-03 0. -1.
        -12    1    3    3    0    0 -0.16004500369E+01  0.69921494484E+01  0.19355922134E+02  0.20642270124E+02  0.00000000000E+00 0.  1.
</event>
<event>
 7    1  0.4450624E-010  0.4778727E+02  0.7816164E-02  0.1312668E+00
        -11   -1    0    0    0    0  0.00000000000E+00  0.00000000000E+00  0.45593999997E+02  0.45594000000E+02  0.51100000000E-03 0.  1.
         11   -1    0    0    0    0 -0.00000000000E+00 -0.00000000000E+00 -0.45593999997E+02  0.45594000000E+02  0.51100000000E-03 0. -1.
    9900012    2    1    2    0    0  0.13912147358E+02 -0.39614911951E+02  0.10987919074E+02  0.47787268917E+02  0.19999990299E+02 0.  0.
         12    1    1    2    0    0 -0.13912147358E+02  0.39614911951E+02 -0.10987919074E+02  0.43400731083E+02  0.00000000000E+00 0. -1.
         11    1    3    3    0    0 -0.24403517048E+01 -0.12223660679E+02  0.85623746334E+01  0.15122415695E+02  0.51100000000E-03 0. -1.
        -11    1    3    3    0    0  0.42712585653E+01 -0.10823906107E+02 -0.16698823714E+01  0.11755386023E+02  0.51100000000E-03 0.  1.
        -12    1    3    3    0    0  0.12081240498E+02 -0.16567345165E+02  0.40954268121E+01  0.20909467199E+02  0.00000000000E+00 0.  1.
</event>
<event>
 7    1  0.4450624E-010  0.4778729E+02  0.7816164E-02  0.1312668E+00
        -11   -1    0    0    0    0  0.00000000000E+00  0.00000000000E+00  0.45593999997E+02  0.45594000000E+02  0.51100000000E-03 0. -1.
         11   -1    0    0    0    0 -0.00000000000E+00 -0.00000000000E+00 -0.45593999997E+02  0.45594000000E+02  0.51100000000E-03 0.  1.
    9900012    2    1    2    0    0  0.25614130981E+01  0.42234054086E+02  0.96615316028E+01  0.47787293157E+02  0.20000100818E+02 0.  0.
         12    1    1    2    0    0 -0.25614130981E+01 -0.42234054086E+02 -0.96615316028E+01  0.43400706843E+02  0.00000000000E+00 0. -1.
         11    1    3    3    0    0 -0.19091464405E+01  0.23358055553E+01 -0.15626560102E+01  0.33974581367E+01  0.51100000000E-03 0. -1.
        -11    1    3    3    0    0 -0.26389628769E+01  0.17140745221E+02  0.11018190758E+02  0.20546771027E+02  0.51100000000E-03 0.  1.
        -12    1    3    3    0    0  0.71095224155E+01  0.22757503309E+02  0.20599685516E+00  0.23843063992E+02  0.00000000000E+00 0.  1.
</event>
<event>
 7    1  0.4450624E-010  0.4778730E+02  0.7816164E-02  0.1312668E+00
        -11   -1    0    0    0    0  0.00000000000E+00  0.00000000000E+00  0.45593999997E+02  0.45594000000E+02  0.51100000000E-03 0. -1.
         11   -1    0    0    0    0 -0.00000000000E+00 -0.00000000000E+00 -0.45593999997E+02  0.45594000000E+02  0.51100000000E-03 0.  1.
    9900012    2    1    2    0    0 -0.20278013721E+02  0.34307344999E+02 -0.17188059575E+02  0.47787295475E+02  0.20000111386E+02 0.  0.
         12    1    1    2    0    0  0.20278013721E+02 -0.34307344999E+02  0.17188059575E+02  0.43400704525E+02  0.00000000000E+00 0. -1.
         11    1    3    3    0    0 -0.15988664715E+02  0.16556724139E+02 -0.82512887977E+01  0.24450895294E+02  0.51100000000E-03 0. -1.
        -11    1    3    3    0    0 -0.59391051997E+01  0.13497973299E+02 -0.10932753602E+02  0.18357378771E+02  0.51100000000E-03 0.  1.
        -12    1    3    3    0    0  0.16497561929E+01  0.42526475604E+01  0.19959828241E+01  0.49790214102E+01  0.00000000000E+00 0.  1.
</event>
<event>
 7    1  0.4450624E-010  0.4778727E+02  0.7816164E-02  0.1312668E+00
        -11   -1    0    0    0    0  0.00000000000E+00  0.00000000000E+00  0.45593999997E+02  0.45594000000E+02  0.51100000000E-03 0. -1.
         11   -1    0    0    0    0 -0.00000000000E+00 -0.00000000000E+00 -0.45593999997E+02  0.45594000000E+02  0.51100000000E-03 0.  1.
    9900012    2    1    2    0    0  0.17029015983E+02 -0.36698825068E+02 -0.15710895532E+02  0.47787269762E+02  0.19999994153E+02 0.  0.
         12    1    1    2    0    0 -0.17029015983E+02  0.36698825068E+02  0.15710895532E+02  0.43400730238E+02  0.00000000000E+00 0. -1.
         11    1    3    3    0    0  0.49702278697E+01 -0.12148539757E+02 -0.10706205696E+01  0.13169525882E+02  0.51100000000E-03 0. -1.
        -11    1    3    3    0    0  0.13558071508E+02 -0.10285229600E+02 -0.83359173613E+01  0.18949796027E+02  0.51100000000E-03 0.  1.
         12    1    3    3    0    0 -0.14992833947E+01 -0.14265055711E+02 -0.63043576013E+01  0.15667947852E+02  0.00000000000E+00 0. -1.
</event>
<event>
 7    1  0.4450624E-010  0.4778727E+02  0.7816164E-02  0.1312668E+00
        -11   -1    0    0    0    0  0.00000000000E+00  0.00000000000E+00  0.45593999997E+02  0.45594000000E+02  0.51100000000E-03 0. -1.
         11   -1    0    0    0    0 -0.00000000000E+00 -0.00000000000E+00 -0.45593999997E+02  0.45594000000E+02  0.51100000000E-03 0.  1.
    9900012    2    1    2    0    0  0.14796203240E+02 -0.39582693378E+02 -0.98947693657E+01  0.47787266064E+02  0.19999977293E+02 0.  0.
         12    1    1    2    0    0 -0.14796203240E+02  0.39582693378E+02  0.98947693657E+01  0.43400733936E+02  0.00000000000E+00 0. -1.
         11    1    3    3    0    0  0.37737116440E+01 -0.73055093259E+01 -0.23894875522E+00  0.82260842964E+01  0.51100000000E-03 0. -1.
        -11    1    3    3    0    0  0.16781157080E+01 -0.27918727866E+02 -0.82118754846E+01  0.29149722764E+02  0.51100000000E-03 0.  1.
         12    1    3    3    0    0  0.93443758881E+01 -0.43584561859E+01 -0.14439451259E+01  0.10411459004E+02  0.00000000000E+00 0. -1.
</event>
<event>
 7    1  0.4450624E-010  0.4778727E+02  0.7816164E-02  0.1312668E+00
        -11   -1    0    0    0    0  0.00000000000E+00  0.00000000000E+00  0.45593999997E+02  0.45594000000E+02  0.51100000000E-03 0. -1.
         11   -1    0    0    0    0 -0.00000000000E+00 -0.00000000000E+00 -0.45593999997E+02  0.45594000000E+02  0.51100000000E-03 0.  1.
    9900012    2    1    2    0    0 -0.22646675007E+02 -0.34092286876E+02  0.14438392394E+02  0.47787273183E+02  0.20000009753E+02 0.  0.
         12    1    1    2    0    0  0.22646675007E+02  0.34092286876E+02 -0.14438392394E+02  0.43400726817E+02  0.00000000000E+00 0. -1.
         11    1    3    3    0    0 -0.10717219111E+01 -0.39876986692E+01  0.13566656744E+01  0.43463629099E+01  0.51100000000E-03 0. -1.
        -11    1    3    3    0    0 -0.18894610351E+02 -0.29572818662E+02  0.56791908648E+01  0.35550121140E+02  0.51100000000E-03 0.  1.
         12    1    3    3    0    0 -0.26803427450E+01 -0.53176954501E+00  0.74025358546E+01  0.78907891341E+01  0.00000000000E+00 0. -1.
</event>
<event>
 7    1  0.4450624E-010  0.4778727E+02  0.7816164E-02  0.1312668E+00
        -11   -1    0    0    0    0  0.00000000000E+00  0.00000000000E+00  0.45593999997E+02  0.45594000000E+02  0.51100000000E-03 0.  1.
         11   -1    0    0    0    0 -0.00000000000E+00 -0.00000000000E+00 -0.45593999997E+02  0.45594000000E+02  0.51100000000E-03 0. -1.
    9900012    2    1    2    0    0  0.30762375994E+01 -0.13518992412E+02  0.41126594399E+02  0.47787272351E+02  0.20000005958E+02 0.  0.
         12    1    1    2    0    0 -0.30762375994E+01  0.13518992412E+02 -0.41126594399E+02  0.43400727649E+02  0.00000000000E+00 0. -1.
         11    1    3    3    0    0  0.50641220900E+01 -0.21127098645E+01  0.69586881332E+01  0.88618404584E+01  0.51100000000E-03 0. -1.
        -11    1    3    3    0    0 -0.28808036930E+01  0.28294831695E+01  0.11011213396E+02  0.11728249044E+02  0.51100000000E-03 0.  1.
         12    1    3    3    0    0  0.89291920234E+00 -0.14235765717E+02  0.23156692870E+02  0.27197182849E+02  0.00000000000E+00 0. -1.
</event>
<event>
 7    1  0.4450624E-010  0.4778726E+02  0.7816164E-02  0.1312668E+00
        -11   -1    0    0    0    0  0.00000000000E+00  0.00000000000E+00  0.45593999997E+02  0.45594000000E+02  0.51100000000E-03 0. -1.
         11   -1    0    0    0    0 -0.00000000000E+00 -0.00000000000E+00 -0.45593999997E+02  0.45594000000E+02  0.51100000000E-03 0.  1.
    9900012    2    1    2    0    0 -0.16830895883E+02  0.39982201533E+02 -0.13298183263E+01  0.47787263688E+02  0.19999966459E+02 0.  0.
         12    1    1    2    0    0  0.16830895883E+02 -0.39982201533E+02  0.13298183263E+01  0.43400736312E+02  0.00000000000E+00 0. -1.
         11    1    3    3    0    0 -0.10457661440E+01  0.55397086092E+01  0.44995168500E+01  0.72130195097E+01  0.51100000000E-03 0. -1.
        -11    1    3    3    0    0 -0.97027415053E+01  0.69419296933E+01 -0.74284249179E+00  0.11953467941E+02  0.51100000000E-03 0.  1.
         12    1    3    3    0    0 -0.60823882338E+01  0.27500563230E+02 -0.50864926845E+01  0.28620776238E+02  0.00000000000E+00 0. -1.
</event>
<event>
 7    1  0.4450624E-010  0.4778728E+02  0.7816164E-02  0.1312668E+00
        -11   -1    0    0    0    0  0.00000000000E+00  0.00000000000E+00  0.45593999997E+02  0.45594000000E+02  0.51100000000E-03 0.  1.
         11   -1    0    0    0    0 -0.00000000000E+00 -0.00000000000E+00 -0.45593999997E+02  0.45594000000E+02  0.51100000000E-03 0. -1.
    9900012    2    1    2    0    0 -0.25369929060E+02 -0.46691225794E+01  0.34902555486E+02  0.47787281277E+02  0.20000046656E+02 0.  0.
         12    1    1    2    0    0  0.25369929060E+02  0.46691225794E+01 -0.34902555486E+02  0.43400718723E+02  0.00000000000E+00 0. -1.
         11    1    3    3    0    0 -0.13868735289E+02 -0.46021825992E+01  0.79712284123E+01  0.16645191073E+02  0.51100000000E-03 0. -1.
        -11    1    3    3    0    0 -0.33489008143E+01 -0.50356680936E+01  0.93377910384E+01  0.11125081193E+02  0.51100000000E-03 0.  1.
         12    1    3    3    0    0 -0.81522929562E+01  0.49687281134E+01  0.17593536036E+02  0.20017009011E+02  0.00000000000E+00 0. -1.
</event>
<event>
 7    1  0.4450624E-010  0.4778727E+02  0.7816164E-02  0.1312668E+00
        -11   -1    0    0    0    0  0.00000000000E+00  0.00000000000E+00  0.45593999997E+02  0.45594000000E+02  0.51100000000E-03 0.  1.
         11   -1    0    0    0    0 -0.00000000000E+00 -0.00000000000E+00 -0.45593999997E+02  0.45594000000E+02  0.51100000000E-03 0. -1.
    9900012    2    1    2    0    0  0.22358301592E+02 -0.29001803373E+02  0.23294307180E+02  0.47787274246E+02  0.20000014596E+02 0.  0.
         12    1    1    2    0    0 -0.22358301592E+02  0.29001803373E+02 -0.23294307180E+02  0.43400725754E+02  0.00000000000E+00 0. -1.
         11    1    3    3    0    0  0.12019673344E+02 -0.31489425493E+01  0.60249136352E+01  0.13808981535E+02  0.51100000000E-03 0. -1.
        -11    1    3    3    0    0  0.36828485691E+01 -0.15035612892E+01  0.29936717753E+01  0.49785681770E+01  0.51100000000E-03 0.  1.
        -12    1    3    3    0    0  0.66557796793E+01 -0.24349299535E+02  0.14275721770E+02  0.28999724533E+02  0.00000000000E+00 0.  1.
</event>
<event>
 7    1  0.4450624E-010  0.4778727E+02  0.7816164E-02  0.1312668E+00
        -11   -1    0    0    0    0  0.00000000000E+00  0.00000000000E+00  0.45593999997E+02  0.45594000000E+02  0.51100000000E-03 0. -1.
         11   -1    0    0    0    0 -0.00000000000E+00 -0.00000000000E+00 -0.45593999997E+02  0.45594000000E+02  0.51100000000E-03 0.  1.
    9900012    2    1    2    0    0  0.33517348440E+02  0.50548089921E+01 -0.27104603923E+02  0.47787270810E+02  0.19999998930E+02 0.  0.
         12    1    1    2    0    0 -0.33517348440E+02 -0.50548089921E+01  0.27104603923E+02  0.43400729190E+02  0.00000000000E+00 0. -1.
         11    1    3    3    0    0  0.47170883425E+01  0.49354866013E+01 -0.26649692060E+01  0.73288479008E+01  0.51100000000E-03 0. -1.
        -11    1    3    3    0    0  0.98739764354E+00  0.36325283420E+01 -0.94493526767E+00  0.38811234434E+01  0.51100000000E-03 0.  1.
        -12    1    3    3    0    0  0.27812862454E+02 -0.35132059513E+01 -0.23494699449E+02  0.36577299465E+02  0.00000000000E+00 0.  1.
</event>
<event>
 7    1  0.4450624E-010  0.4778727E+02  0.7816164E-02  0.1312668E+00
        -11   -1    0    0    0    0  0.00000000000E+00  0.00000000000E+00  0.45593999997E+02  0.45594000000E+02  0.51100000000E-03 0.  1.
         11   -1    0    0    0    0 -0.00000000000E+00 -0.00000000000E+00 -0.45593999997E+02  0.45594000000E+02  0.51100000000E-03 0. -1.
    9900012    2    1    2    0    0  0.28994241252E+02 -0.10939509240E+02  0.30385594976E+02  0.47787271086E+02  0.20000000191E+02 0.  0.
         12    1    1    2    0    0 -0.28994241252E+02  0.10939509240E+02 -0.30385594976E+02  0.43400728914E+02  0.00000000000E+00 0. -1.
         11    1    3    3    0    0  0.39990439450E+01 -0.84686333569E-01  0.85514818835E+01  0.94407291517E+01  0.51100000000E-03 0. -1.
        -11    1    3    3    0    0  0.38161689744E+01  0.13545437546E+01  0.10783287292E+02  0.11518559785E+02  0.51100000000E-03 0.  1.
         12    1    3    3    0    0  0.21179028332E+02 -0.12209366661E+02  0.11050825800E+02  0.26827982150E+02  0.00000000000E+00 0. -1.
</event>
<event>
 7    1  0.4450624E-010  0.4778727E+02  0.7816164E-02  0.1312668E+00
        -11   -1    0    0    0    0  0.00000000000E+00  0.00000000000E+00  0.45593999997E+02  0.45594000000E+02  0.51100000000E-03 0.  1.
         11   -1    0    0    0    0 -0.00000000000E+00 -0.00000000000E+00 -0.45593999997E+02  0.45594000000E+02  0.51100000000E-03 0. -1.
    9900012    2    1    2    0    0 -0.39969505822E+02 -0.12972885663E+02  0.10852022818E+02  0.47787267779E+02  0.19999985113E+02 0.  0.
         12    1    1    2    0    0  0.39969505822E+02  0.12972885663E+02 -0.10852022818E+02  0.43400732221E+02  0.00000000000E+00 0. -1.
         11    1    3    3    0    0 -0.13164244043E+02 -0.35042169686E+01 -0.30810584464E+01  0.13966738316E+02  0.51100000000E-03 0. -1.
        -11    1    3    3    0    0 -0.22361705276E+00  0.12904413976E+01  0.27401102110E+01  0.30370129760E+01  0.51100000000E-03 0.  1.
        -12    1    3    3    0    0 -0.26581644726E+02 -0.10759110092E+02  0.11192971054E+02  0.30783516487E+02  0.00000000000E+00 0.  1.
</event>
<event>
 7    1  0.4450624E-010  0.4778727E+02  0.7816164E-02  0.1312668E+00
        -11   -1    0    0    0    0  0.00000000000E+00  0.00000000000E+00  0.45593999997E+02  0.45594000000E+02  0.51100000000E-03 0.  1.
         11   -1    0    0    0    0 -0.00000000000E+00 -0.00000000000E+00 -0.45593999997E+02  0.45594000000E+02  0.51100000000E-03 0. -1.
    9900012    2    1    2    0    0 -0.23507430677E+02 -0.21565897299E+01  0.36419401182E+02  0.47787274675E+02  0.20000016554E+02 0.  0.
         12    1    1    2    0    0  0.23507430677E+02  0.21565897299E+01 -0.36419401182E+02  0.43400725325E+02  0.00000000000E+00 0. -1.
         11    1    3    3    0    0 -0.32910995152E+01  0.33984154575E+01  0.27769605431E+01  0.54856242817E+01  0.51100000000E-03 0. -1.
        -11    1    3    3    0    0 -0.52981864146E+01  0.49641563375E+01  0.11566227060E+02  0.13656179411E+02  0.51100000000E-03 0.  1.
        -12    1    3    3    0    0 -0.14918144747E+02 -0.10519161525E+02  0.22076213578E+02  0.28645470983E+02  0.00000000000E+00 0.  1.
</event>
<event>
 7    1  0.4450624E-010  0.4778727E+02  0.7816164E-02  0.1312668E+00
        -11   -1    0    0    0    0  0.00000000000E+00  0.00000000000E+00  0.45593999997E+02  0.45594000000E+02  0.51100000000E-03 0.  1.
         11   -1    0    0    0    0 -0.00000000000E+00 -0.00000000000E+00 -0.45593999997E+02  0.45594000000E+02  0.51100000000E-03 0. -1.
    9900012    2    1    2    0    0  0.24216152385E+02  0.24065516451E+02  0.26796503520E+02  0.47787265913E+02  0.19999976602E+02 0.  0.
         12    1    1    2    0    0 -0.24216152385E+02 -0.24065516451E+02 -0.26796503520E+02  0.43400734087E+02  0.00000000000E+00 0. -1.
         11    1    3    3    0    0  0.16833976436E+02  0.80072298973E+01  0.18685196708E+02  0.26393845297E+02  0.51100000000E-03 0. -1.
        -11    1    3    3    0    0  0.67826304375E+01  0.45195771226E+01  0.43724760411E+01  0.92492810537E+01  0.51100000000E-03 0.  1.
        -12    1    3    3    0    0  0.59954551147E+00  0.11538709431E+02  0.37388307709E+01  0.12144139562E+02  0.00000000000E+00 0.  1.
</event>
<event>
 7    1  0.4450624E-010  0.4778727E+02  0.7816164E-02  0.1312668E+00
        -11   -1    0    0    0    0  0.00000000000E+00  0.00000000000E+00  0.45593999997E+02  0.45594000000E+02  0.51100000000E-03 0.  1.
         11   -1    0    0    0    0 -0.00000000000E+00 -0.00000000000E+00 -0.45593999997E+02  0.45594000000E+02  0.51100000000E-03 0. -1.
    9900012    2    1    2    0    0 -0.15020890389E+01 -0.29486675650E+02  0.31810417637E+02  0.47787274400E+02  0.20000015300E+02 0.  0.
         12    1    1    2    0    0  0.15020890389E+01  0.29486675650E+02 -0.31810417637E+02  0.43400725600E+02  0.00000000000E+00 0. -1.
         11    1    3    3    0    0  0.56574743023E+00  0.14595160806E+00 -0.20408474105E+01  0.21228354719E+01  0.51100000000E-03 0. -1.
        -11    1    3    3    0    0 -0.36218830724E+01 -0.15043616994E+02  0.13240961472E+02  0.20365448932E+02  0.51100000000E-03 0.  1.
        -12    1    3    3    0    0  0.15540466033E+01 -0.14589010263E+02  0.20610303576E+02  0.25298989996E+02  0.00000000000E+00 0.  1.
</event>
<event>
 7    1  0.4450624E-010  0.4778727E+02  0.7816164E-02  0.1312668E+00
        -11   -1    0    0    0    0  0.00000000000E+00  0.00000000000E+00  0.45593999997E+02  0.45594000000E+02  0.51100000000E-03 0.  1.
         11   -1    0    0    0    0 -0.00000000000E+00 -0.00000000000E+00 -0.45593999997E+02  0.45594000000E+02  0.51100000000E-03 0. -1.
    9900012    2    1    2    0    0 -0.28799291631E+02  0.13578863710E+02  0.29493022916E+02  0.47787272600E+02  0.20000007092E+02 0.  0.
         12    1    1    2    0    0  0.28799291631E+02 -0.13578863710E+02 -0.29493022916E+02  0.43400727400E+02  0.00000000000E+00 0. -1.
         11    1    3    3    0    0 -0.95802257930E+01  0.99623293275E+01  0.15943717095E+02  0.21100493998E+02  0.51100000000E-03 0.  1.
        -11    1    3    3    0    0  0.51445234688E-02 -0.72264446475E+00  0.52553654429E+01  0.53048192889E+01  0.51100000000E-03 0. -1.
         12    1    3    3    0    0 -0.19224210361E+02  0.43391788477E+01  0.82939403787E+01  0.21381959314E+02  0.00000000000E+00 0. -1.
</event>
<event>
 7    1  0.4450624E-010  0.4778728E+02  0.7816164E-02  0.1312668E+00
        -11   -1    0    0    0    0  0.00000000000E+00  0.00000000000E+00  0.45593999997E+02  0.45594000000E+02  0.51100000000E-03 0. -1.
         11   -1    0    0    0    0 -0.00000000000E+00 -0.00000000000E+00 -0.45593999997E+02  0.45594000000E+02  0.51100000000E-03 0.  1.
    9900012    2    1    2    0    0 -0.24866768630E+01  0.37673377189E+02 -0.21404561747E+02  0.47787283713E+02  0.20000057761E+02 0.  0.
         12    1    1    2    0    0  0.24866768630E+01 -0.37673377189E+02  0.21404561747E+02  0.43400716287E+02  0.00000000000E+00 0. -1.
         11    1    3    3    0    0 -0.21610663673E+01  0.11505861682E+02  0.12748812979E+01  0.11776263562E+02  0.51100000000E-03 0. -1.
        -11    1    3    3    0    0 -0.80479825179E+00  0.53307489407E+00 -0.44463542165E+01  0.45499379280E+01  0.51100000000E-03 0.  1.
        -12    1    3    3    0    0  0.47918775605E+00  0.25634440613E+02 -0.18233088828E+02  0.31461082223E+02  0.00000000000E+00 0.  1.
</event>
<event>
 7    1  0.4450624E-010  0.4778727E+02  0.7816164E-02  0.1312668E+00
        -11   -1    0    0    0    0  0.00000000000E+00  0.00000000000E+00  0.45593999997E+02  0.45594000000E+02  0.51100000000E-03 0.  1.
         11   -1    0    0    0    0 -0.00000000000E+00 -0.00000000000E+00 -0.45593999997E+02  0.45594000000E+02  0.51100000000E-03 0. -1.
    9900012    2    1    2    0    0 -0.21106530838E+02  0.21678909282E+01  0.37860773708E+02  0.47787267508E+02  0.19999983877E+02 0.  0.
         12    1    1    2    0    0  0.21106530838E+02 -0.21678909282E+01 -0.37860773708E+02  0.43400732492E+02  0.00000000000E+00 0. -1.
         11    1    3    3    0    0 -0.82768091010E+01 -0.10903504349E+01  0.20015317655E+02  0.21686571284E+02  0.51100000000E-03 0. -1.
        -11    1    3    3    0    0 -0.14438809963E+02 -0.10150875047E+01  0.13277068435E+02  0.19641542258E+02  0.51100000000E-03 0.  1.
         12    1    3    3    0    0  0.16090882266E+01  0.42733288677E+01  0.45683876182E+01  0.64591539665E+01  0.00000000000E+00 0. -1.
</event>
<event>
 7    1  0.4450624E-010  0.4778727E+02  0.7816164E-02  0.1312668E+00
        -11   -1    0    0    0    0  0.00000000000E+00  0.00000000000E+00  0.45593999997E+02  0.45594000000E+02  0.51100000000E-03 0. -1.
         11   -1    0    0    0    0 -0.00000000000E+00 -0.00000000000E+00 -0.45593999997E+02  0.45594000000E+02  0.51100000000E-03 0.  1.
    9900012    2    1    2    0    0  0.36748311506E+02 -0.22708296392E+02 -0.41854380386E+01  0.47787274025E+02  0.20000013591E+02 0.  0.
         12    1    1    2    0    0 -0.36748311506E+02  0.22708296392E+02  0.41854380386E+01  0.43400725975E+02  0.00000000000E+00 0. -1.
         11    1    3    3    0    0  0.20518532372E+02 -0.10273573047E+02 -0.59809609566E+01  0.23713463857E+02  0.51100000000E-03 0. -1.
        -11    1    3    3    0    0  0.16137744836E+02 -0.11795219613E+02 -0.21240142308E+01  0.20101379326E+02  0.51100000000E-03 0.  1.
         12    1    3    3    0    0  0.92034297619E-01 -0.63950373242E+00  0.39195371489E+01  0.39724308423E+01  0.00000000000E+00 0. -1.
</event>
<event>
 7    1  0.4450624E-010  0.4778728E+02  0.7816164E-02  0.1312668E+00
        -11   -1    0    0    0    0  0.00000000000E+00  0.00000000000E+00  0.45593999997E+02  0.45594000000E+02  0.51100000000E-03 0.  1.
         11   -1    0    0    0    0 -0.00000000000E+00 -0.00000000000E+00 -0.45593999997E+02  0.45594000000E+02  0.51100000000E-03 0. -1.
    9900012    2    1    2    0    0 -0.76206325070E+01 -0.22570523038E+02  0.36278368624E+02  0.47787279038E+02  0.20000036445E+02 0.  0.
         12    1    1    2    0    0  0.76206325070E+01  0.22570523038E+02 -0.36278368624E+02  0.43400720962E+02  0.00000000000E+00 0. -1.
         11    1    3    3    0    0  0.21111452791E+01 -0.71760811018E+01  0.72022823334E+01  0.10383927265E+02  0.51100000000E-03 0. -1.
        -11    1    3    3    0    0 -0.45912528914E+01 -0.14682603088E+02  0.28224055983E+02  0.32144296118E+02  0.51100000000E-03 0.  1.
         12    1    3    3    0    0 -0.51405248946E+01 -0.71183884864E+00  0.85203030772E+00  0.52590556551E+01  0.00000000000E+00 0. -1.
</event>
<event>
 7    1  0.4450624E-010  0.4778727E+02  0.7816164E-02  0.1312668E+00
        -11   -1    0    0    0    0  0.00000000000E+00  0.00000000000E+00  0.45593999997E+02  0.45594000000E+02  0.51100000000E-03 0.  1.
         11   -1    0    0    0    0 -0.00000000000E+00 -0.00000000000E+00 -0.45593999997E+02  0.45594000000E+02  0.51100000000E-03 0. -1.
    9900012    2    1    2    0    0  0.30663997129E+02  0.29250966646E+02 -0.93660787183E+01  0.47787271893E+02  0.20000003870E+02 0.  0.
         12    1    1    2    0    0 -0.30663997129E+02 -0.29250966646E+02  0.93660787183E+01  0.43400728107E+02  0.00000000000E+00 0. -1.
         11    1    3    3    0    0  0.88783042302E+01  0.14415355759E+02 -0.62892993981E+01  0.18060510924E+02  0.51100000000E-03 0.  1.
        -11    1    3    3    0    0 -0.98208963746E-01  0.47005124953E+01  0.19528192817E+01  0.50909690755E+01  0.51100000000E-03 0. -1.
         12    1    3    3    0    0  0.21883901862E+02  0.10135098392E+02 -0.50295986019E+01  0.24635791893E+02  0.00000000000E+00 0. -1.
</event>
<event>
 7    1  0.4450624E-010  0.4778727E+02  0.7816164E-02  0.1312668E+00
        -11   -1    0    0    0    0  0.00000000000E+00  0.00000000000E+00  0.45593999997E+02  0.45594000000E+02  0.51100000000E-03 0.  1.
         11   -1    0    0    0    0 -0.00000000000E+00 -0.00000000000E+00 -0.45593999997E+02  0.45594000000E+02  0.51100000000E-03 0. -1.
    9900012    2    1    2    0    0  0.38019413963E+02  0.17638392163E+02  0.11270946236E+02  0.47787274831E+02  0.20000017263E+02 0.  0.
         12    1    1    2    0    0 -0.38019413963E+02 -0.17638392163E+02 -0.11270946236E+02  0.43400725169E+02  0.00000000000E+00 0. -1.
         11    1    3    3    0    0  0.81591973465E+01  0.42456455126E+01  0.47718378811E+01  0.10361874550E+02  0.51100000000E-03 0.  1.
        -11    1    3    3    0    0  0.29161013832E+02  0.12620977189E+02  0.96031744882E+00  0.31789558078E+02  0.51100000000E-03 0. -1.
         12    1    3    3    0    0  0.69920278389E+00  0.77176946159E+00  0.55387909063E+01  0.56358422032E+01  0.00000000000E+00 0. -1.
</event>
<event>
 7    1  0.4450624E-010  0.4778727E+02  0.7816164E-02  0.1312668E+00
        -11   -1    0    0    0    0  0.00000000000E+00  0.00000000000E+00  0.45593999997E+02  0.45594000000E+02  0.51100000000E-03 0.  1.
         11   -1    0    0    0    0 -0.00000000000E+00 -0.00000000000E+00 -0.45593999997E+02  0.45594000000E+02  0.51100000000E-03 0. -1.
    9900012    2    1    2    0    0  0.33808429381E+02 -0.26922705769E+02  0.39725600394E+01  0.47787271706E+02  0.20000003018E+02 0.  0.
         12    1    1    2    0    0 -0.33808429381E+02  0.26922705769E+02 -0.39725600394E+01  0.43400728294E+02  0.00000000000E+00 0. -1.
         11    1    3    3    0    0  0.13989994813E+02 -0.16787540996E+02 -0.16748790633E+01  0.21916813356E+02  0.51100000000E-03 0. -1.
        -11    1    3    3    0    0 -0.32384924792E+00 -0.41389366258E+01  0.17047249710E+01  0.44879574659E+01  0.51100000000E-03 0.  1.
         12    1    3    3    0    0  0.20142283817E+02 -0.59962281469E+01  0.39427141316E+01  0.21382500884E+02  0.00000000000E+00 0. -1.
</event>
<event>
 7    1  0.4450624E-010  0.4778727E+02  0.7816164E-02  0.1312668E+00
        -11   -1    0    0    0    0  0.00000000000E+00  0.00000000000E+00  0.45593999997E+02  0.45594000000E+02  0.51100000000E-03 0.  1.
         11   -1    0    0    0    0 -0.00000000000E+00 -0.00000000000E+00 -0.45593999997E+02  0.45594000000E+02  0.51100000000E-03 0. -1.
    9900012    2    1    2    0    0  0.26730001672E+02 -0.21099634331E+02  0.26906050737E+02  0.47787272765E+02  0.20000007843E+02 0.  0.
         12    1    1    2    0    0 -0.26730001672E+02  0.21099634331E+02 -0.26906050737E+02  0.43400727235E+02  0.00000000000E+00 0. -1.
         11    1    3    3    0    0  0.13385054155E+02 -0.99040953379E+01  0.13244171324E+02  0.21275780914E+02  0.51100000000E-03 0. -1.
        -11    1    3    3    0    0  0.14524947603E+02 -0.13308272108E+02  0.13854608955E+02  0.24083903315E+02  0.51100000000E-03 0.  1.
         12    1    3    3    0    0 -0.11800000860E+01  0.21127331148E+01 -0.19272954122E+00  0.24275885346E+01  0.00000000000E+00 0. -1.
</event>
<event>
 7    1  0.4450624E-010  0.4778727E+02  0.7816164E-02  0.1312668E+00
        -11   -1    0    0    0    0  0.00000000000E+00  0.00000000000E+00  0.45593999997E+02  0.45594000000E+02  0.51100000000E-03 0. -1.
         11   -1    0    0    0    0 -0.00000000000E+00 -0.00000000000E+00 -0.45593999997E+02  0.45594000000E+02  0.51100000000E-03 0.  1.
    9900012    2    1    2    0    0  0.17800301280E+02 -0.92371333521E+01 -0.38489577873E+02  0.47787274625E+02  0.20000016324E+02 0.  0.
         12    1    1    2    0    0 -0.17800301280E+02  0.92371333521E+01  0.38489577873E+02  0.43400725375E+02  0.00000000000E+00 0. -1.
         11    1    3    3    0    0 -0.17536070609E+01 -0.91852586771E+00 -0.68005474109E+01  0.70828153189E+01  0.51100000000E-03 0. -1.
        -11    1    3    3    0    0  0.72922480686E+01 -0.36757664770E+01 -0.24341452558E+02  0.25674782452E+02  0.51100000000E-03 0.  1.
         12    1    3    3    0    0  0.12261660272E+02 -0.46428410074E+01 -0.73475779049E+01  0.15029676854E+02  0.00000000000E+00 0. -1.
</event>
<event>
 7    1  0.4450624E-010  0.4778727E+02  0.7816164E-02  0.1312668E+00
        -11   -1    0    0    0    0  0.00000000000E+00  0.00000000000E+00  0.45593999997E+02  0.45594000000E+02  0.51100000000E-03 0.  1.
         11   -1    0    0    0    0 -0.00000000000E+00 -0.00000000000E+00 -0.45593999997E+02  0.45594000000E+02  0.51100000000E-03 0. -1.
    9900012    2    1    2    0    0 -0.27691460610E+02 -0.13897815855E+02  0.30391724069E+02  0.47787272262E+02  0.20000005552E+02 0.  0.
         12    1    1    2    0    0  0.27691460610E+02  0.13897815855E+02 -0.30391724069E+02  0.43400727738E+02  0.00000000000E+00 0. -1.
         11    1    3    3    0    0 -0.61431478059E+01 -0.31788617811E+01  0.33074471340E+01  0.76669833699E+01  0.51100000000E-03 0. -1.
        -11    1    3    3    0    0 -0.23251033448E+02 -0.10341853015E+02  0.28250908991E+02  0.38022076998E+02  0.51100000000E-03 0.  1.
         12    1    3    3    0    0  0.17027206432E+01 -0.37710105927E+00 -0.11666320560E+01  0.20982118939E+01  0.00000000000E+00 0. -1.
</event>
<event>
 7    1  0.4450624E-010  0.4778728E+02  0.7816164E-02  0.1312668E+00
        -11   -1    0    0    0    0  0.00000000000E+00  0.00000000000E+00  0.45593999997E+02  0.45594000000E+02  0.51100000000E-03 0. -1.
         11   -1    0    0    0    0 -0.00000000000E+00 -0.00000000000E+00 -0.45593999997E+02  0.45594000000E+02  0.51100000000E-03 0.  1.
    9900012    2    1    2    0    0  0.47809596623E+01  0.32904557867E+02 -0.27893639459E+02  0.47787278508E+02  0.20000034029E+02 0.  0.
         12    1    1    2    0    0 -0.47809596623E+01 -0.32904557867E+02  0.27893639459E+02  0.43400721492E+02  0.00000000000E+00 0. -1.
         11    1    3    3    0    0  0.14174720904E+00 -0.58203022154E+00  0.55118074526E+00  0.81403435131E+00  0.51100000000E-03 0. -1.
        -11    1    3    3    0    0 -0.38182856963E+01  0.21200453203E+02 -0.11572764921E+02  0.24453372157E+02  0.51100000000E-03 0.  1.
        -12    1    3    3    0    0  0.84574981496E+01  0.12286134885E+02 -0.16872055284E+02  0.22519871999E+02  0.00000000000E+00 0.  1.
</event>
<event>
 7    1  0.4450624E-010  0.4778729E+02  0.7816164E-02  0.1312668E+00
        -11   -1    0    0    0    0  0.00000000000E+00  0.00000000000E+00  0.45593999997E+02  0.45594000000E+02  0.51100000000E-03 0. -1.
         11   -1    0    0    0    0 -0.00000000000E+00 -0.00000000000E+00 -0.45593999997E+02  0.45594000000E+02  0.51100000000E-03 0.  1.
    9900012    2    1    2    0    0 -0.46487241126E+01  0.39222329687E+02 -0.17989431886E+02  0.47787292154E+02  0.20000096245E+02 0.  0.
         12    1    1    2    0    0  0.46487241126E+01 -0.39222329687E+02  0.17989431886E+02  0.43400707846E+02  0.00000000000E+00 0. -1.
         11    1    3    3    0    0 -0.57685367560E+01  0.17387553424E+02 -0.10001556589E+02  0.20871851016E+02  0.51100000000E-03 0.  1.
        -11    1    3    3    0    0 -0.35242149623E+01  0.20061481029E+02 -0.45479995597E+01  0.20870251854E+02  0.51100000000E-03 0. -1.
         12    1    3    3    0    0  0.46440276057E+01  0.17732952345E+01 -0.34398757376E+01  0.60451892842E+01  0.00000000000E+00 0. -1.
</event>
<event>
 7    1  0.4450624E-010  0.4778727E+02  0.7816164E-02  0.1312668E+00
        -11   -1    0    0    0    0  0.00000000000E+00  0.00000000000E+00  0.45593999997E+02  0.45594000000E+02  0.51100000000E-03 0.  1.
         11   -1    0    0    0    0 -0.00000000000E+00 -0.00000000000E+00 -0.45593999997E+02  0.45594000000E+02  0.51100000000E-03 0. -1.
    9900012    2    1    2    0    0  0.83206235503E+01 -0.37749504219E+02  0.19732343676E+02  0.47787271527E+02  0.20000002200E+02 0.  0.
         12    1    1    2    0    0 -0.83206235503E+01  0.37749504219E+02 -0.19732343676E+02  0.43400728473E+02  0.00000000000E+00 0. -1.
         11    1    3    3    0    0  0.88164871160E+01 -0.22419198070E+02  0.43562641290E+01  0.24481174902E+02  0.51100000000E-03 0. -1.
        -11    1    3    3    0    0  0.36555627808E+01 -0.83592188837E+01  0.60630620070E+01  0.10954469442E+02  0.51100000000E-03 0.  1.
        -12    1    3    3    0    0 -0.41514263465E+01 -0.69710872655E+01  0.93130175397E+01  0.12351627183E+02  0.00000000000E+00 0.  1.
</event>
<event>
 7    1  0.4450624E-010  0.4778727E+02  0.7816164E-02  0.1312668E+00
        -11   -1    0    0    0    0  0.00000000000E+00  0.00000000000E+00  0.45593999997E+02  0.45594000000E+02  0.51100000000E-03 0. -1.
         11   -1    0    0    0    0 -0.00000000000E+00 -0.00000000000E+00 -0.45593999997E+02  0.45594000000E+02  0.51100000000E-03 0.  1.
    9900012    2    1    2    0    0 -0.34646654860E+02 -0.25681684724E+02 -0.48665840441E+01  0.47787271164E+02  0.20000000545E+02 0.  0.
         12    1    1    2    0    0  0.34646654860E+02  0.25681684724E+02  0.48665840441E+01  0.43400728836E+02  0.00000000000E+00 0. -1.
         11    1    3    3    0    0  0.76253860054E+00 -0.92496671659E+00 -0.10532063541E+01  0.15957043678E+01  0.51100000000E-03 0. -1.
        -11    1    3    3    0    0 -0.53207112366E+01 -0.11391499485E+02 -0.42307922001E+01  0.13265588245E+02  0.51100000000E-03 0.  1.
         12    1    3    3    0    0 -0.30088482224E+02 -0.13365218522E+02  0.41741451006E+00  0.32925978551E+02  0.00000000000E+00 0. -1.
</event>
<event>
 7    1  0.4450624E-010  0.4778727E+02  0.7816164E-02  0.1312668E+00
        -11   -1    0    0    0    0  0.00000000000E+00  0.00000000000E+00  0.45593999997E+02  0.45594000000E+02  0.51100000000E-03 0.  1.
         11   -1    0    0    0    0 -0.00000000000E+00 -0.00000000000E+00 -0.45593999997E+02  0.45594000000E+02  0.51100000000E-03 0. -1.
    9900012    2    1    2    0    0  0.28733830716E+02  0.11470411887E+02  0.30437152265E+02  0.47787267121E+02  0.19999982111E+02 0.  0.
         12    1    1    2    0    0 -0.28733830716E+02 -0.11470411887E+02 -0.30437152265E+02  0.43400732879E+02  0.00000000000E+00 0. -1.
         11    1    3    3    0    0  0.14168836766E+02  0.10590147383E+02  0.14112282370E+02  0.22628823894E+02  0.51100000000E-03 0. -1.
        -11    1    3    3    0    0  0.15747890617E+02  0.35825363911E+01  0.13170431084E+02  0.20839646856E+02  0.51100000000E-03 0.  1.
        -12    1    3    3    0    0 -0.11828966674E+01 -0.27022718871E+01  0.31544388108E+01  0.43187963704E+01  0.00000000000E+00 0.  1.
</event>
<event>
 7    1  0.4450624E-010  0.4778728E+02  0.7816164E-02  0.1312668E+00
        -11   -1    0    0    0    0  0.00000000000E+00  0.00000000000E+00  0.45593999997E+02  0.45594000000E+02  0.51100000000E-03 0. -1.
         11   -1    0    0    0    0 -0.00000000000E+00 -0.00000000000E+00 -0.45593999997E+02  0.45594000000E+02  0.51100000000E-03 0.  1.
    9900012    2    1    2    0    0  0.35757237610E+02  0.17759119923E+02 -0.17019287784E+02  0.47787279515E+02  0.20000038619E+02 0.  0.
         12    1    1    2    0    0 -0.35757237610E+02 -0.17759119923E+02  0.17019287784E+02  0.43400720485E+02  0.00000000000E+00 0. -1.
         11    1    3    3    0    0  0.16399052830E+01 -0.33379621976E+01  0.73238288391E+00  0.37904704087E+01  0.51100000000E-03 0. -1.
        -11    1    3    3    0    0  0.16927879574E+01  0.67360709428E+00 -0.15497498396E+01  0.23918617043E+01  0.51100000000E-03 0.  1.
        -12    1    3    3    0    0  0.32424544370E+02  0.20423475027E+02 -0.16201920828E+02  0.41604947402E+02  0.00000000000E+00 0.  1.
</event>
<event>
 7    1  0.4450624E-010  0.4778728E+02  0.7816164E-02  0.1312668E+00
        -11   -1    0    0    0    0  0.00000000000E+00  0.00000000000E+00  0.45593999997E+02  0.45594000000E+02  0.51100000000E-03 0.  1.
         11   -1    0    0    0    0 -0.00000000000E+00 -0.00000000000E+00 -0.45593999997E+02  0.45594000000E+02  0.51100000000E-03 0. -1.
    9900012    2    1    2    0    0 -0.40117976156E+02  0.16493882034E+02 -0.14568435549E+01  0.47787279401E+02  0.20000038099E+02 0.  0.
         12    1    1    2    0    0  0.40117976156E+02 -0.16493882034E+02  0.14568435549E+01  0.43400720599E+02  0.00000000000E+00 0. -1.
         11    1    3    3    0    0 -0.16084119374E+02  0.61528307466E+01 -0.30562581343E+01  0.17489909556E+02  0.51100000000E-03 0. -1.
        -11    1    3    3    0    0 -0.24615928515E+02  0.12660501871E+02  0.55129273403E+00  0.27686389584E+02  0.51100000000E-03 0.  1.
         12    1    3    3    0    0  0.58207173310E+00 -0.23194505839E+01  0.10481218454E+01  0.26109802597E+01  0.00000000000E+00 0. -1.
</event>
<event>
 7    1  0.4450624E-010  0.4778729E+02  0.7816164E-02  0.1312668E+00
        -11   -1    0    0    0    0  0.00000000000E+00  0.00000000000E+00  0.45593999997E+02  0.45594000000E+02  0.51100000000E-03 0. -1.
         11   -1    0    0    0    0 -0.00000000000E+00 -0.00000000000E+00 -0.45593999997E+02  0.45594000000E+02  0.51100000000E-03 0.  1.
    9900012    2    1    2    0    0  0.14295394238E+02  0.30969584438E+02 -0.26835581982E+02  0.47787286677E+02  0.20000071274E+02 0.  0.
         12    1    1    2    0    0 -0.14295394238E+02 -0.30969584438E+02  0.26835581982E+02  0.43400713323E+02  0.00000000000E+00 0. -1.
         11    1    3    3    0    0  0.13610575599E+02  0.26112297093E+02 -0.16143639231E+02  0.33581496624E+02  0.51100000000E-03 0. -1.
        -11    1    3    3    0    0  0.40318499997E+01  0.43441986145E+01 -0.74267704989E+01  0.95018312092E+01  0.51100000000E-03 0.  1.
        -12    1    3    3    0    0 -0.33470313606E+01  0.51308873021E+00 -0.32651722514E+01  0.47039588439E+01  0.00000000000E+00 0.  1.
</event>
<event>
 7    1  0.4450624E-010  0.4778730E+02  0.7816164E-02  0.1312668E+00
        -11   -1    0    0    0    0  0.00000000000E+00  0.00000000000E+00  0.45593999997E+02  0.45594000000E+02  0.51100000000E-03 0. -1.
         11   -1    0    0    0    0 -0.00000000000E+00 -0.00000000000E+00 -0.45593999997E+02  0.45594000000E+02  0.51100000000E-03 0.  1.
    9900012    2    1    2    0    0 -0.52697038668E+01  0.10601332206E+02 -0.41754796325E+02  0.47787296786E+02  0.20000117364E+02 0.  0.
         12    1    1    2    0    0  0.52697038668E+01 -0.10601332206E+02  0.41754796325E+02  0.43400703214E+02  0.00000000000E+00 0. -1.
         11    1    3    3    0    0 -0.10634841409E+02  0.63023336824E+01 -0.24294755819E+02  0.27259024601E+02  0.51100000000E-03 0. -1.
        -11    1    3    3    0    0  0.85442065201E+00  0.40761964631E+01 -0.24025409592E+01  0.48080781585E+01  0.51100000000E-03 0.  1.
        -12    1    3    3    0    0  0.45107168901E+01  0.22280206049E+00 -0.15057499547E+02  0.15720194026E+02  0.00000000000E+00 0.  1.
</event>
<event>
 7    1  0.4450624E-010  0.4778727E+02  0.7816164E-02  0.1312668E+00
        -11   -1    0    0    0    0  0.00000000000E+00  0.00000000000E+00  0.45593999997E+02  0.45594000000E+02  0.51100000000E-03 0. -1.
         11   -1    0    0    0    0 -0.00000000000E+00 -0.00000000000E+00 -0.45593999997E+02  0.45594000000E+02  0.51100000000E-03 0.  1.
    9900012    2    1    2    0    0  0.32089117470E+02 -0.17457682252E+02 -0.23433760115E+02  0.47787271403E+02  0.20000001636E+02 0.  0.
         12    1    1    2    0    0 -0.32089117470E+02  0.17457682252E+02  0.23433760115E+02  0.43400728597E+02  0.00000000000E+00 0. -1.
         11    1    3    3    0    0  0.24316972670E+02 -0.17102158798E+02 -0.16201237283E+02  0.33856743570E+02  0.51100000000E-03 0.  1.
        -11    1    3    3    0    0  0.32977035455E+01 -0.45198586160E+01 -0.47268484350E+01  0.73244158110E+01  0.51100000000E-03 0. -1.
        -12    1    3    3    0    0  0.44744412538E+01  0.41643351615E+01 -0.25056743970E+01  0.66061120226E+01  0.00000000000E+00 0.  1.
</event>
<event>
 7    1  0.4450624E-010  0.4778727E+02  0.7816164E-02  0.1312668E+00
        -11   -1    0    0    0    0  0.00000000000E+00  0.00000000000E+00  0.45593999997E+02  0.45594000000E+02  0.51100000000E-03 0.  1.
         11   -1    0    0    0    0 -0.00000000000E+00 -0.00000000000E+00 -0.45593999997E+02  0.45594000000E+02  0.51100000000E-03 0. -1.
    9900012    2    1    2    0    0 -0.40131107218E+02 -0.12631781898E+01  0.16477925447E+02  0.47787269445E+02  0.19999992709E+02 0.  0.
         12    1    1    2    0    0  0.40131107218E+02  0.12631781898E+01 -0.16477925447E+02  0.43400730555E+02  0.00000000000E+00 0. -1.
         11    1    3    3    0    0 -0.77633395292E+01  0.14602135302E+01  0.89472334960E+01  0.11935436804E+02  0.51100000000E-03 0. -1.
        -11    1    3    3    0    0 -0.18417166208E+02  0.49057636215E+01  0.53980995903E+01  0.19809038525E+02  0.51100000000E-03 0.  1.
        -12    1    3    3    0    0 -0.13950601480E+02 -0.76291553415E+01  0.21325923604E+01  0.16042794116E+02  0.00000000000E+00 0.  1.
</event>
<event>
 7    1  0.4450624E-010  0.4778727E+02  0.7816164E-02  0.1312668E+00
        -11   -1    0    0    0    0  0.00000000000E+00  0.00000000000E+00  0.45593999997E+02  0.45594000000E+02  0.51100000000E-03 0.  1.
         11   -1    0    0    0    0 -0.00000000000E+00 -0.00000000000E+00 -0.45593999997E+02  0.45594000000E+02  0.51100000000E-03 0. -1.
    9900012    2    1    2    0    0  0.23045829566E+02  0.34557803420E+02  0.12580598058E+02  0.47787268611E+02  0.19999988905E+02 0.  0.
         12    1    1    2    0    0 -0.23045829566E+02 -0.34557803420E+02 -0.12580598058E+02  0.43400731389E+02  0.00000000000E+00 0. -1.
         11    1    3    3    0    0  0.84916684432E+01  0.77099127585E+01  0.35708202325E+01  0.12012574457E+02  0.51100000000E-03 0. -1.
        -11    1    3    3    0    0  0.74073705407E+01  0.26402955180E+02  0.64537606757E+01  0.28171549615E+02  0.51100000000E-03 0.  1.
        -12    1    3    3    0    0  0.71467905825E+01  0.44493548083E+00  0.25560171493E+01  0.76031445389E+01  0.00000000000E+00 0.  1.
</event>
<event>
 7    1  0.4450624E-010  0.4778727E+02  0.7816164E-02  0.1312668E+00
        -11   -1    0    0    0    0  0.00000000000E+00  0.00000000000E+00  0.45593999997E+02  0.45594000000E+02  0.51100000000E-03 0. -1.
         11   -1    0    0    0    0 -0.00000000000E+00 -0.00000000000E+00 -0.45593999997E+02  0.45594000000E+02  0.51100000000E-03 0.  1.
    9900012    2    1    2    0    0 -0.19046262876E+02 -0.22691445750E+02 -0.31716892849E+02  0.47787272681E+02  0.20000007464E+02 0.  0.
         12    1    1    2    0    0  0.19046262876E+02  0.22691445750E+02  0.31716892849E+02  0.43400727319E+02  0.00000000000E+00 0. -1.
         11    1    3    3    0    0  0.52002424415E+00 -0.74852996180E+01 -0.76226973463E+01  0.10696057717E+02  0.51100000000E-03 0. -1.
        -11    1    3    3    0    0 -0.13723619933E+02 -0.13301964606E+02 -0.24332960870E+02  0.30941444559E+02  0.51100000000E-03 0.  1.
        -12    1    3    3    0    0 -0.58426671874E+01 -0.19041815259E+01  0.23876536637E+00  0.61497704060E+01  0.00000000000E+00 0.  1.
</event>
<event>
 7    1  0.4450624E-010  0.4778727E+02  0.7816164E-02  0.1312668E+00
        -11   -1    0    0    0    0  0.00000000000E+00  0.00000000000E+00  0.45593999997E+02  0.45594000000E+02  0.51100000000E-03 0.  1.
         11   -1    0    0    0    0 -0.00000000000E+00 -0.00000000000E+00 -0.45593999997E+02  0.45594000000E+02  0.51100000000E-03 0. -1.
    9900012    2    1    2    0    0 -0.13100154840E+02  0.29895902590E+02  0.28604962550E+02  0.47787274995E+02  0.20000018011E+02 0.  0.
         12    1    1    2    0    0  0.13100154840E+02 -0.29895902590E+02 -0.28604962550E+02  0.43400725005E+02  0.00000000000E+00 0. -1.
         11    1    3    3    0    0  0.40109277229E+00  0.15110577001E+02  0.10539919140E+02  0.18427704915E+02  0.51100000000E-03 0. -1.
        -11    1    3    3    0    0 -0.39280001976E+01  0.11623710334E+02  0.60653077339E+01  0.13686774114E+02  0.51100000000E-03 0.  1.
        -12    1    3    3    0    0 -0.95732474147E+01  0.31616152557E+01  0.11999735676E+02  0.15672795966E+02  0.00000000000E+00 0.  1.
</event>
<event>
 7    1  0.4450624E-010  0.4778727E+02  0.7816164E-02  0.1312668E+00
        -11   -1    0    0    0    0  0.00000000000E+00  0.00000000000E+00  0.45593999997E+02  0.45594000000E+02  0.51100000000E-03 0.  1.
         11   -1    0    0    0    0 -0.00000000000E+00 -0.00000000000E+00 -0.45593999997E+02  0.45594000000E+02  0.51100000000E-03 0. -1.
    9900012    2    1    2    0    0 -0.19154086455E+02 -0.76581212308E+01  0.38185047324E+02  0.47787266275E+02  0.19999978254E+02 0.  0.
         12    1    1    2    0    0  0.19154086455E+02  0.76581212308E+01 -0.38185047324E+02  0.43400733725E+02  0.00000000000E+00 0. -1.
         11    1    3    3    0    0 -0.83997367952E+01 -0.11169838512E+01  0.48618533409E+01  0.97693832621E+01  0.51100000000E-03 0. -1.
        -11    1    3    3    0    0 -0.11478311555E+02 -0.24336679624E+01  0.14081217655E+02  0.18329077086E+02  0.51100000000E-03 0.  1.
         12    1    3    3    0    0  0.72396189461E+00 -0.41074694172E+01  0.19241976328E+02  0.19688805927E+02  0.00000000000E+00 0. -1.
</event>
<event>
 7    1  0.4450624E-010  0.4778727E+02  0.7816164E-02  0.1312668E+00
        -11   -1    0    0    0    0  0.00000000000E+00  0.00000000000E+00  0.45593999997E+02  0.45594000000E+02  0.51100000000E-03 0. -1.
         11   -1    0    0    0    0 -0.00000000000E+00 -0.00000000000E+00 -0.45593999997E+02  0.45594000000E+02  0.51100000000E-03 0.  1.
    9900012    2    1    2    0    0  0.36265847237E+02  0.10968687651E+02 -0.21168356867E+02  0.47787272851E+02  0.20000008237E+02 0.  0.
         12    1    1    2    0    0 -0.36265847237E+02 -0.10968687651E+02  0.21168356867E+02  0.43400727149E+02  0.00000000000E+00 0. -1.
         11    1    3    3    0    0  0.10675009073E+02  0.89758412938E+01 -0.15150659973E+02  0.20592815338E+02  0.51100000000E-03 0. -1.
        -11    1    3    3    0    0  0.77102059736E+01  0.37079368832E+01 -0.21024678121E+01  0.88100194805E+01  0.51100000000E-03 0.  1.
        -12    1    3    3    0    0  0.17880632190E+02 -0.17150905258E+01 -0.39152290820E+01  0.18384438033E+02  0.00000000000E+00 0.  1.
</event>
<event>
 7    1  0.4450624E-010  0.4778727E+02  0.7816164E-02  0.1312668E+00
        -11   -1    0    0    0    0  0.00000000000E+00  0.00000000000E+00  0.45593999997E+02  0.45594000000E+02  0.51100000000E-03 0.  1.
         11   -1    0    0    0    0 -0.00000000000E+00 -0.00000000000E+00 -0.45593999997E+02  0.45594000000E+02  0.51100000000E-03 0. -1.
    9900012    2    1    2    0    0 -0.30827025912E+02 -0.38424320203E+01  0.30307646822E+02  0.47787271132E+02  0.20000000398E+02 0.  0.
         12    1    1    2    0    0  0.30827025912E+02  0.38424320203E+01 -0.30307646822E+02  0.43400728868E+02  0.00000000000E+00 0. -1.
         11    1    3    3    0    0 -0.19514549738E+01 -0.37542888577E+01  0.25727174281E+01  0.49519427065E+01  0.51100000000E-03 0. -1.
        -11    1    3    3    0    0 -0.85071379152E+01 -0.33221638210E+00  0.11255050906E+00  0.85143661602E+01  0.51100000000E-03 0.  1.
        -12    1    3    3    0    0 -0.20368433023E+02  0.24407321948E+00  0.27622378885E+02  0.34320962265E+02  0.00000000000E+00 0.  1.
</event>
<event>
 7    1  0.4450624E-010  0.4778728E+02  0.7816164E-02  0.1312668E+00
        -11   -1    0    0    0    0  0.00000000000E+00  0.00000000000E+00  0.45593999997E+02  0.45594000000E+02  0.51100000000E-03 0. -1.
         11   -1    0    0    0    0 -0.00000000000E+00 -0.00000000000E+00 -0.45593999997E+02  0.45594000000E+02  0.51100000000E-03 0.  1.
    9900012    2    1    2    0    0  0.34228443783E+02 -0.24031209466E+02  0.11599025452E+02  0.47787276692E+02  0.20000025750E+02 0.  0.
         12    1    1    2    0    0 -0.34228443783E+02  0.24031209466E+02 -0.11599025452E+02  0.43400723308E+02  0.00000000000E+00 0. -1.
         11    1    3    3    0    0  0.92723716520E+01 -0.93684641085E+01  0.96729750593E+01  0.16349661849E+02  0.51100000000E-03 0. -1.
        -11    1    3    3    0    0 -0.26199943951E+00 -0.39251460365E+01 -0.25464305210E+00  0.39421134508E+01  0.51100000000E-03 0.  1.
        -12    1    3    3    0    0  0.25218071571E+02 -0.10737599321E+02  0.21806934444E+01  0.27495501393E+02  0.00000000000E+00 0.  1.
</event>
<event>
 7    1  0.4450624E-010  0.4778725E+02  0.7816164E-02  0.1312668E+00
        -11   -1    0    0    0    0  0.00000000000E+00  0.00000000000E+00  0.45593999997E+02  0.45594000000E+02  0.51100000000E-03 0.  1.
         11   -1    0    0    0    0 -0.00000000000E+00 -0.00000000000E+00 -0.45593999997E+02  0.45594000000E+02  0.51100000000E-03 0. -1.
    9900012    2    1    2    0    0 -0.10566825658E+02 -0.23845681038E+01  0.42027144775E+02  0.47787252686E+02  0.19999916295E+02 0.  0.
         12    1    1    2    0    0  0.10566825658E+02  0.23845681038E+01 -0.42027144775E+02  0.43400747314E+02  0.00000000000E+00 0. -1.
         11    1    3    3    0    0 -0.20875408532E+01 -0.76073770689E+01  0.13948830745E+02  0.16024977133E+02  0.51100000000E-03 0. -1.
        -11    1    3    3    0    0  0.11159170089E+01  0.24559195380E+00 -0.47045508194E+00  0.12356837879E+01  0.51100000000E-03 0.  1.
        -12    1    3    3    0    0 -0.95952018139E+01  0.49772170113E+01  0.28548769111E+02  0.30526591765E+02  0.00000000000E+00 0.  1.
</event>
<event>
 7    1  0.4450624E-010  0.4778726E+02  0.7816164E-02  0.1312668E+00
        -11   -1    0    0    0    0  0.00000000000E+00  0.00000000000E+00  0.45593999997E+02  0.45594000000E+02  0.51100000000E-03 0.  1.
         11   -1    0    0    0    0 -0.00000000000E+00 -0.00000000000E+00 -0.45593999997E+02  0.45594000000E+02  0.51100000000E-03 0. -1.
    9900012    2    1    2    0    0  0.39325896747E+01 -0.28510746583E+02  0.32485317833E+02  0.47787264903E+02  0.19999971998E+02 0.  0.
         12    1    1    2    0    0 -0.39325896747E+01  0.28510746583E+02 -0.32485317833E+02  0.43400735097E+02  0.00000000000E+00 0. -1.
         11    1    3    3    0    0  0.36954322743E+00  0.16136625151E+01  0.28158327787E+01  0.32664022116E+01  0.51100000000E-03 0. -1.
        -11    1    3    3    0    0  0.32730007960E+01 -0.75754535864E+01  0.16390796047E+02  0.18350973450E+02  0.51100000000E-03 0.  1.
         12    1    3    3    0    0  0.29004565132E+00 -0.22548955511E+02  0.13278689007E+02  0.26169889241E+02  0.00000000000E+00 0. -1.
</event>
<event>
 7    1  0.4450624E-010  0.4778727E+02  0.7816164E-02  0.1312668E+00
        -11   -1    0    0    0    0  0.00000000000E+00  0.00000000000E+00  0.45593999997E+02  0.45594000000E+02  0.51100000000E-03 0.  1.
         11   -1    0    0    0    0 -0.00000000000E+00 -0.00000000000E+00 -0.45593999997E+02  0.45594000000E+02  0.51100000000E-03 0. -1.
    9900012    2    1    2    0    0 -0.18961777122E+02  0.79858762023E+01  0.38213874313E+02  0.47787269587E+02  0.19999993355E+02 0.  0.
         12    1    1    2    0    0  0.18961777122E+02 -0.79858762023E+01 -0.38213874313E+02  0.43400730413E+02  0.00000000000E+00 0. -1.
         11    1    3    3    0    0 -0.17038035142E+02  0.97575551674E+01  0.25310886586E+02  0.32033505965E+02  0.51100000000E-03 0. -1.
        -11    1    3    3    0    0 -0.35457202608E+01  0.14447892067E+01  0.11066969731E+02  0.11710566481E+02  0.51100000000E-03 0.  1.
        -12    1    3    3    0    0  0.16219782805E+01 -0.32164681718E+01  0.18360179964E+01  0.40431971416E+01  0.00000000000E+00 0.  1.
</event>
<event>
 7    1  0.4450624E-010  0.4778727E+02  0.7816164E-02  0.1312668E+00
        -11   -1    0    0    0    0  0.00000000000E+00  0.00000000000E+00  0.45593999997E+02  0.45594000000E+02  0.51100000000E-03 0.  1.
         11   -1    0    0    0    0 -0.00000000000E+00 -0.00000000000E+00 -0.45593999997E+02  0.45594000000E+02  0.51100000000E-03 0. -1.
    9900012    2    1    2    0    0 -0.26033530530E+02 -0.22585957692E+02  0.26377128197E+02  0.47787273179E+02  0.20000009730E+02 0.  0.
         12    1    1    2    0    0  0.26033530530E+02  0.22585957692E+02 -0.26377128197E+02  0.43400726821E+02  0.00000000000E+00 0. -1.
         11    1    3    3    0    0 -0.11666140102E+02 -0.95597274303E+01  0.13188388331E+02  0.20035488525E+02  0.51100000000E-03 0. -1.
        -11    1    3    3    0    0 -0.14853689047E+02 -0.15712151217E+02  0.12329421728E+02  0.24890126849E+02  0.51100000000E-03 0.  1.
         12    1    3    3    0    0  0.48629861940E+00  0.26859209549E+01  0.85931813756E+00  0.28616578036E+01  0.00000000000E+00 0. -1.
</event>
<event>
 7    1  0.4450624E-010  0.4778731E+02  0.7816164E-02  0.1312668E+00
        -11   -1    0    0    0    0  0.00000000000E+00  0.00000000000E+00  0.45593999997E+02  0.45594000000E+02  0.51100000000E-03 0.  1.
         11   -1    0    0    0    0 -0.00000000000E+00 -0.00000000000E+00 -0.45593999997E+02  0.45594000000E+02  0.51100000000E-03 0. -1.
    9900012    2    1    2    0    0 -0.40710217808E+02 -0.15668039449E+01  0.14961375432E+02  0.47787314943E+02  0.20000200152E+02 0.  0.
         12    1    1    2    0    0  0.40710217808E+02  0.15668039449E+01 -0.14961375432E+02  0.43400685057E+02  0.00000000000E+00 0. -1.
         11    1    3    3    0    0 -0.21683591042E+02 -0.10318403830E+02  0.51373885027E+01  0.24556879667E+02  0.51100000000E-03 0. -1.
        -11    1    3    3    0    0 -0.34020847792E+01  0.19372339730E+01  0.27001939747E+01  0.47558494586E+01  0.51100000000E-03 0.  1.
        -12    1    3    3    0    0 -0.15624541986E+02  0.68143659124E+01  0.71237929550E+01  0.18474585818E+02  0.00000000000E+00 0.  1.
</event>
<event>
 7    1  0.4450624E-010  0.4778727E+02  0.7816164E-02  0.1312668E+00
        -11   -1    0    0    0    0  0.00000000000E+00  0.00000000000E+00  0.45593999997E+02  0.45594000000E+02  0.51100000000E-03 0.  1.
         11   -1    0    0    0    0 -0.00000000000E+00 -0.00000000000E+00 -0.45593999997E+02  0.45594000000E+02  0.51100000000E-03 0. -1.
    9900012    2    1    2    0    0  0.11489595796E+02 -0.19729780303E+02  0.36910001445E+02  0.47787271331E+02  0.20000001305E+02 0.  0.
         12    1    1    2    0    0 -0.11489595796E+02  0.19729780303E+02 -0.36910001445E+02  0.43400728669E+02  0.00000000000E+00 0. -1.
         11    1    3    3    0    0 -0.35890271207E+01 -0.14783652528E+01  0.69958845466E+01  0.80005675014E+01  0.51100000000E-03 0. -1.
        -11    1    3    3    0    0  0.12949743186E+01 -0.15783799894E+00 -0.82773653357E+00  0.15449981715E+01  0.51100000000E-03 0.  1.
        -12    1    3    3    0    0  0.13783648598E+02 -0.18093577051E+02  0.30741853432E+02  0.38241705658E+02  0.00000000000E+00 0.  1.
</event>
<event>
 7    1  0.4450624E-010  0.4778727E+02  0.7816164E-02  0.1312668E+00
        -11   -1    0    0    0    0  0.00000000000E+00  0.00000000000E+00  0.45593999997E+02  0.45594000000E+02  0.51100000000E-03 0.  1.
         11   -1    0    0    0    0 -0.00000000000E+00 -0.00000000000E+00 -0.45593999997E+02  0.45594000000E+02  0.51100000000E-03 0. -1.
    9900012    2    1    2    0    0 -0.15856031714E+01  0.43332838242E+02  0.18369462821E+01  0.47787269832E+02  0.19999994471E+02 0.  0.
         12    1    1    2    0    0  0.15856031714E+01 -0.43332838242E+02 -0.18369462821E+01  0.43400730168E+02  0.00000000000E+00 0. -1.
         11    1    3    3    0    0 -0.25220723009E+01  0.69252127309E+01 -0.91164879457E+00  0.74263398687E+01  0.51100000000E-03 0. -1.
        -11    1    3    3    0    0  0.14425538821E+01  0.35879307534E+02 -0.16070805121E+01  0.35944239857E+02  0.51100000000E-03 0.  1.
         12    1    3    3    0    0 -0.50608475254E+00  0.52831797656E+00  0.43556755888E+01  0.44166901064E+01  0.00000000000E+00 0. -1.
</event>
<event>
 7    1  0.4450624E-010  0.4778727E+02  0.7816164E-02  0.1312668E+00
        -11   -1    0    0    0    0  0.00000000000E+00  0.00000000000E+00  0.45593999997E+02  0.45594000000E+02  0.51100000000E-03 0. -1.
         11   -1    0    0    0    0 -0.00000000000E+00 -0.00000000000E+00 -0.45593999997E+02  0.45594000000E+02  0.51100000000E-03 0.  1.
    9900012    2    1    2    0    0 -0.10445061552E+02  0.74504148185E+01 -0.41461014955E+02  0.47787265526E+02  0.19999974841E+02 0.  0.
         12    1    1    2    0    0  0.10445061552E+02 -0.74504148185E+01  0.41461014955E+02  0.43400734474E+02  0.00000000000E+00 0. -1.
         11    1    3    3    0    0  0.79440572241E+00 -0.19508803496E+01  0.12254217171E+01  0.24369393173E+01  0.51100000000E-03 0. -1.
        -11    1    3    3    0    0 -0.28720355450E+01  0.23457581580E+01 -0.58858645946E+01  0.69566207166E+01  0.51100000000E-03 0.  1.
        -12    1    3    3    0    0 -0.83674317290E+01  0.70555370101E+01 -0.36800572077E+02  0.38393705493E+02  0.00000000000E+00 0.  1.
</event>
<event>
 7    1  0.4450624E-010  0.4778727E+02  0.7816164E-02  0.1312668E+00
        -11   -1    0    0    0    0  0.00000000000E+00  0.00000000000E+00  0.45593999997E+02  0.45594000000E+02  0.51100000000E-03 0.  1.
         11   -1    0    0    0    0 -0.00000000000E+00 -0.00000000000E+00 -0.45593999997E+02  0.45594000000E+02  0.51100000000E-03 0. -1.
    9900012    2    1    2    0    0 -0.74152477633E+01  0.40941765055E+02  0.12345428424E+02  0.47787266963E+02  0.19999981390E+02 0.  0.
         12    1    1    2    0    0  0.74152477633E+01 -0.40941765055E+02 -0.12345428424E+02  0.43400733037E+02  0.00000000000E+00 0. -1.
         11    1    3    3    0    0 -0.38751263090E+01  0.16337998430E+02  0.31226703504E+01  0.17079164704E+02  0.51100000000E-03 0. -1.
        -11    1    3    3    0    0  0.53353158186E+01  0.15161510931E+02  0.30723773581E+01  0.16363878253E+02  0.51100000000E-03 0.  1.
         12    1    3    3    0    0 -0.88754372729E+01  0.94422556933E+01  0.61503807154E+01  0.14344224005E+02  0.00000000000E+00 0. -1.
</event>
<event>
 7    1  0.4450624E-010  0.4778727E+02  0.7816164E-02  0.1312668E+00
        -11   -1    0    0    0    0  0.00000000000E+00  0.00000000000E+00  0.45593999997E+02  0.45594000000E+02  0.51100000000E-03 0. -1.
         11   -1    0    0    0    0 -0.00000000000E+00 -0.00000000000E+00 -0.45593999997E+02  0.45594000000E+02  0.51100000000E-03 0.  1.
    9900012    2    1    2    0    0 -0.76639468208E+00  0.26619759816E+02  0.34269873703E+02  0.47787271699E+02  0.20000002984E+02 0.  0.
         12    1    1    2    0    0  0.76639468208E+00 -0.26619759816E+02 -0.34269873703E+02  0.43400728301E+02  0.00000000000E+00 0. -1.
         11    1    3    3    0    0 -0.50095181924E-01  0.67926253839E+01  0.55682707311E+01  0.87833882033E+01  0.51100000000E-03 0. -1.
        -11    1    3    3    0    0 -0.27792861326E+01  0.14892528881E+02  0.70650398113E+01  0.16716059215E+02  0.51100000000E-03 0.  1.
         12    1    3    3    0    0  0.20629866324E+01  0.49346055510E+01  0.21636563160E+02  0.22287824281E+02  0.00000000000E+00 0. -1.
</event>
<event>
 7    1  0.4450624E-010  0.4778727E+02  0.7816164E-02  0.1312668E+00
        -11   -1    0    0    0    0  0.00000000000E+00  0.00000000000E+00  0.45593999997E+02  0.45594000000E+02  0.51100000000E-03 0.  1.
         11   -1    0    0    0    0 -0.00000000000E+00 -0.00000000000E+00 -0.45593999997E+02  0.45594000000E+02  0.51100000000E-03 0. -1.
    9900012    2    1    2    0    0  0.28789674269E+02  0.13512989902E+02  0.29532647087E+02  0.47787268617E+02  0.19999988931E+02 0.  0.
         12    1    1    2    0    0 -0.28789674269E+02 -0.13512989902E+02 -0.29532647087E+02  0.43400731383E+02  0.00000000000E+00 0. -1.
         11    1    3    3    0    0  0.15916137041E+02  0.43402830842E+01  0.82299150226E+01  0.18436186620E+02  0.51100000000E-03 0. -1.
        -11    1    3    3    0    0  0.92548356140E+00 -0.15452756399E+01 -0.85237457446E+00  0.19927215817E+01  0.51100000000E-03 0.  1.
        -12    1    3    3    0    0  0.11948053667E+02  0.10717982458E+02  0.22155106639E+02  0.27358360415E+02  0.00000000000E+00 0.  1.
</event>
<event>
 7    1  0.4450624E-010  0.4778727E+02  0.7816164E-02  0.1312668E+00
        -11   -1    0    0    0    0  0.00000000000E+00  0.00000000000E+00  0.45593999997E+02  0.45594000000E+02  0.51100000000E-03 0.  1.
         11   -1    0    0    0    0 -0.00000000000E+00 -0.00000000000E+00 -0.45593999997E+02  0.45594000000E+02  0.51100000000E-03 0. -1.
    9900012    2    1    2    0    0 -0.12995971654E+02  0.23964584826E+02  0.33770210279E+02  0.47787266050E+02  0.19999977230E+02 0.  0.
         12    1    1    2    0    0  0.12995971654E+02 -0.23964584826E+02 -0.33770210279E+02  0.43400733950E+02  0.00000000000E+00 0. -1.
         11    1    3    3    0    0 -0.13444228529E+02  0.90154794969E+01  0.17659797056E+02  0.23956097003E+02  0.51100000000E-03 0. -1.
        -11    1    3    3    0    0 -0.80117348748E+00  0.29427102289E+01  0.96901768934E+01  0.10158786883E+02  0.51100000000E-03 0.  1.
        -12    1    3    3    0    0  0.12494303627E+01  0.12006395100E+02  0.64202363292E+01  0.13672382164E+02  0.00000000000E+00 0.  1.
</event>
<event>
 7    1  0.4450624E-010  0.4778728E+02  0.7816164E-02  0.1312668E+00
        -11   -1    0    0    0    0  0.00000000000E+00  0.00000000000E+00  0.45593999997E+02  0.45594000000E+02  0.51100000000E-03 0. -1.
         11   -1    0    0    0    0 -0.00000000000E+00 -0.00000000000E+00 -0.45593999997E+02  0.45594000000E+02  0.51100000000E-03 0.  1.
    9900012    2    1    2    0    0 -0.42208549225E+02  0.90091691414E+01  0.45712285073E+01  0.47787275509E+02  0.20000020354E+02 0.  0.
         12    1    1    2    0    0  0.42208549225E+02 -0.90091691414E+01 -0.45712285073E+01  0.43400724491E+02  0.00000000000E+00 0. -1.
         11    1    3    3    0    0 -0.57369934531E+01 -0.57421409469E+00  0.29100031549E+01  0.64584002919E+01  0.51100000000E-03 0. -1.
        -11    1    3    3    0    0 -0.83782032585E+01  0.66891301356E+01 -0.57016965570E+01  0.12142820747E+02  0.51100000000E-03 0.  1.
        -12    1    3    3    0    0 -0.28093352513E+02  0.28942531005E+01  0.73629219094E+01  0.29186054470E+02  0.00000000000E+00 0.  1.
</event>
<event>
 7    1  0.4450624E-010  0.4778727E+02  0.7816164E-02  0.1312668E+00
        -11   -1    0    0    0    0  0.00000000000E+00  0.00000000000E+00  0.45593999997E+02  0.45594000000E+02  0.51100000000E-03 0. -1.
         11   -1    0    0    0    0 -0.00000000000E+00 -0.00000000000E+00 -0.45593999997E+02  0.45594000000E+02  0.51100000000E-03 0.  1.
    9900012    2    1    2    0    0  0.26121621158E+02 -0.20463120803E+01 -0.34599081750E+02  0.47787274856E+02  0.20000017379E+02 0.  0.
         12    1    1    2    0    0 -0.26121621158E+02  0.20463120803E+01  0.34599081750E+02  0.43400725144E+02  0.00000000000E+00 0. -1.
         11    1    3    3    0    0  0.81599147968E+01 -0.43786540510E+00 -0.26007602115E+01  0.85755401896E+01  0.51100000000E-03 0. -1.
        -11    1    3    3    0    0  0.93055918174E+01  0.59211468923E+01 -0.13350310535E+02  0.17317182543E+02  0.51100000000E-03 0.  1.
        -12    1    3    3    0    0  0.86561145442E+01 -0.75295935675E+01 -0.18648011004E+02  0.21894552124E+02  0.00000000000E+00 0.  1.
</event>
<event>
 7    1  0.4450624E-010  0.4778727E+02  0.7816164E-02  0.1312668E+00
        -11   -1    0    0    0    0  0.00000000000E+00  0.00000000000E+00  0.45593999997E+02  0.45594000000E+02  0.51100000000E-03 0.  1.
         11   -1    0    0    0    0 -0.00000000000E+00 -0.00000000000E+00 -0.45593999997E+02  0.45594000000E+02  0.51100000000E-03 0. -1.
    9900012    2    1    2    0    0 -0.37102421276E+01  0.42079945479E+02 -0.99566830116E+01  0.47787271380E+02  0.20000001531E+02 0.  0.
         12    1    1    2    0    0  0.37102421276E+01 -0.42079945479E+02  0.99566830116E+01  0.43400728620E+02  0.00000000000E+00 0. -1.
         11    1    3    3    0    0  0.43235701048E+01  0.56308070040E+01 -0.15479052353E+01  0.72660344650E+01  0.51100000000E-03 0. -1.
        -11    1    3    3    0    0  0.28406011438E+01  0.38031694981E+01  0.99467868632E+00  0.48499999010E+01  0.51100000000E-03 0.  1.
         12    1    3    3    0    0 -0.10874413376E+02  0.32645968976E+02 -0.94034564626E+01  0.35671237014E+02  0.00000000000E+00 0. -1.
</event>
<event>
 7    1  0.4450624E-010  0.4778726E+02  0.7816164E-02  0.1312668E+00
        -11   -1    0    0    0    0  0.00000000000E+00  0.00000000000E+00  0.45593999997E+02  0.45594000000E+02  0.51100000000E-03 0.  1.
         11   -1    0    0    0    0 -0.00000000000E+00 -0.00000000000E+00 -0.45593999997E+02  0.45594000000E+02  0.51100000000E-03 0. -1.
    9900012    2    1    2    0    0  0.17091697836E+02  0.20308330741E+02  0.34337585509E+02  0.47787260248E+02  0.19999950775E+02 0.  0.
         12    1    1    2    0    0 -0.17091697836E+02 -0.20308330741E+02 -0.34337585509E+02  0.43400739752E+02  0.00000000000E+00 0. -1.
         11    1    3    3    0    0  0.61841505353E+01 -0.20455837816E+01  0.55774247260E+01  0.85753016090E+01  0.51100000000E-03 0. -1.
        -11    1    3    3    0    0  0.51718708672E+01  0.70945687602E+01  0.16926421662E+02  0.19067902472E+02  0.51100000000E-03 0.  1.
         12    1    3    3    0    0  0.57356764334E+01  0.15259345763E+02  0.11833739122E+02  0.20144056167E+02  0.00000000000E+00 0. -1.
</event>
<event>
 7    1  0.4450624E-010  0.4778727E+02  0.7816164E-02  0.1312668E+00
        -11   -1    0    0    0    0  0.00000000000E+00  0.00000000000E+00  0.45593999997E+02  0.45594000000E+02  0.51100000000E-03 0. -1.
         11   -1    0    0    0    0 -0.00000000000E+00 -0.00000000000E+00 -0.45593999997E+02  0.45594000000E+02  0.51100000000E-03 0.  1.
    9900012    2    1    2    0    0  0.32034181341E+02  0.29269903929E+02 -0.84100395754E+00  0.47787270307E+02  0.19999996639E+02 0.  0.
         12    1    1    2    0    0 -0.32034181341E+02 -0.29269903929E+02  0.84100395754E+00  0.43400729693E+02  0.00000000000E+00 0. -1.
         11    1    3    3    0    0  0.63548272062E+01  0.13198521257E+02 -0.16812278751E+01  0.14744874351E+02  0.51100000000E-03 0. -1.
        -11    1    3    3    0    0  0.23396124914E+01  0.74234938410E+01  0.22797768589E+01  0.81104519113E+01  0.51100000000E-03 0.  1.
         12    1    3    3    0    0  0.23339741643E+02  0.86478888312E+01 -0.14395529413E+01  0.24931944046E+02  0.00000000000E+00 0. -1.
</event>
<event>
 7    1  0.4450624E-010  0.4778727E+02  0.7816164E-02  0.1312668E+00
        -11   -1    0    0    0    0  0.00000000000E+00  0.00000000000E+00  0.45593999997E+02  0.45594000000E+02  0.51100000000E-03 0.  1.
         11   -1    0    0    0    0 -0.00000000000E+00 -0.00000000000E+00 -0.45593999997E+02  0.45594000000E+02  0.51100000000E-03 0. -1.
    9900012    2    1    2    0    0 -0.15305797921E+02 -0.38956844989E+02  0.11476933967E+02  0.47787271494E+02  0.20000002051E+02 0.  0.
         12    1    1    2    0    0  0.15305797921E+02  0.38956844989E+02 -0.11476933967E+02  0.43400728506E+02  0.00000000000E+00 0. -1.
         11    1    3    3    0    0 -0.40066876771E+01 -0.33377842141E+00 -0.20531822542E+01  0.45144780215E+01  0.51100000000E-03 0. -1.
        -11    1    3    3    0    0 -0.22322261207E+00 -0.36653822916E+01  0.39047718823E+01  0.53602331472E+01  0.51100000000E-03 0.  1.
        -12    1    3    3    0    0 -0.11075887632E+02 -0.34957684276E+02  0.96253443390E+01  0.37912560326E+02  0.00000000000E+00 0.  1.
</event>
<event>
 7    1  0.4450624E-010  0.4778727E+02  0.7816164E-02  0.1312668E+00
        -11   -1    0    0    0    0  0.00000000000E+00  0.00000000000E+00  0.45593999997E+02  0.45594000000E+02  0.51100000000E-03 0. -1.
         11   -1    0    0    0    0 -0.00000000000E+00 -0.00000000000E+00 -0.45593999997E+02  0.45594000000E+02  0.51100000000E-03 0.  1.
    9900012    2    1    2    0    0  0.33270985883E+02  0.18584775183E+01 -0.27806664642E+02  0.47787273752E+02  0.20000012347E+02 0.  0.
         12    1    1    2    0    0 -0.33270985883E+02 -0.18584775183E+01  0.27806664642E+02  0.43400726248E+02  0.00000000000E+00 0. -1.
         11    1    3    3    0    0 -0.17502321045E+00  0.69356286566E+00  0.45611501289E+00  0.84835354595E+00  0.51100000000E-03 0. -1.
        -11    1    3    3    0    0  0.33737764910E+02  0.88388667845E+00 -0.21180565094E+02  0.39845129874E+02  0.51100000000E-03 0.  1.
        -12    1    3    3    0    0 -0.29175581655E+00  0.28102797418E+00 -0.70822145617E+01  0.70937903321E+01  0.00000000000E+00 0.  1.
</event>
<event>
 7    1  0.4450624E-010  0.4778727E+02  0.7816164E-02  0.1312668E+00
        -11   -1    0    0    0    0  0.00000000000E+00  0.00000000000E+00  0.45593999997E+02  0.45594000000E+02  0.51100000000E-03 0.  1.
         11   -1    0    0    0    0 -0.00000000000E+00 -0.00000000000E+00 -0.45593999997E+02  0.45594000000E+02  0.51100000000E-03 0. -1.
    9900012    2    1    2    0    0 -0.39110958601E+02 -0.88855602567E+01  0.16583226683E+02  0.47787266470E+02  0.19999979141E+02 0.  0.
         12    1    1    2    0    0  0.39110958601E+02  0.88855602567E+01 -0.16583226683E+02  0.43400733530E+02  0.00000000000E+00 0. -1.
         11    1    3    3    0    0 -0.29890191426E+02 -0.17157103442E+01  0.10989549617E+02  0.31892591719E+02  0.51100000000E-03 0.  1.
        -11    1    3    3    0    0 -0.27879682137E+01  0.20016872900E+01  0.13966758988E+00  0.34349710427E+01  0.51100000000E-03 0. -1.
        -12    1    3    3    0    0 -0.64327989609E+01 -0.91715372024E+01  0.54540094758E+01  0.12459703708E+02  0.00000000000E+00 0.  1.
</event>
<event>
 7    1  0.4450624E-010  0.4778728E+02  0.7816164E-02  0.1312668E+00
        -11   -1    0    0    0    0  0.00000000000E+00  0.00000000000E+00  0.45593999997E+02  0.45594000000E+02  0.51100000000E-03 0. -1.
         11   -1    0    0    0    0 -0.00000000000E+00 -0.00000000000E+00 -0.45593999997E+02  0.45594000000E+02  0.51100000000E-03 0.  1.
    9900012    2    1    2    0    0 -0.30001864725E+02  0.29222663159E+02  0.11381869721E+02  0.47787275496E+02  0.20000020298E+02 0.  0.
         12    1    1    2    0    0  0.30001864725E+02 -0.29222663159E+02 -0.11381869721E+02  0.43400724504E+02  0.00000000000E+00 0. -1.
         11    1    3    3    0    0 -0.18315859451E+02  0.16280347931E+02  0.41527809577E+01  0.24854899439E+02  0.51100000000E-03 0. -1.
        -11    1    3    3    0    0 -0.11442843156E+02  0.15360825925E+02  0.73058372229E+01  0.20500460736E+02  0.51100000000E-03 0.  1.
         12    1    3    3    0    0 -0.24316211755E+00 -0.24185106965E+01 -0.76748459499E-01  0.24319153214E+01  0.00000000000E+00 0. -1.
</event>
<event>
 7    1  0.4450624E-010  0.4778727E+02  0.7816164E-02  0.1312668E+00
        -11   -1    0    0    0    0  0.00000000000E+00  0.00000000000E+00  0.45593999997E+02  0.45594000000E+02  0.51100000000E-03 0. -1.
         11   -1    0    0    0    0 -0.00000000000E+00 -0.00000000000E+00 -0.45593999997E+02  0.45594000000E+02  0.51100000000E-03 0.  1.
    9900012    2    1    2    0    0 -0.22123100203E+02 -0.35587733011E+01 -0.37168891853E+02  0.47787274758E+02  0.20000016931E+02 0.  0.
         12    1    1    2    0    0  0.22123100203E+02  0.35587733011E+01  0.37168891853E+02  0.43400725242E+02  0.00000000000E+00 0. -1.
         11    1    3    3    0    0 -0.34195200947E+01 -0.26006747887E+01  0.14188954446E+01  0.45243664283E+01  0.51100000000E-03 0. -1.
        -11    1    3    3    0    0 -0.68309699149E+01 -0.23715158990E+01 -0.10635252775E+02  0.12860592502E+02  0.51100000000E-03 0.  1.
         12    1    3    3    0    0 -0.11872610193E+02  0.14134173866E+01 -0.27952534522E+02  0.30402315828E+02  0.00000000000E+00 0. -1.
</event>
<event>
 7    1  0.4450624E-010  0.4778727E+02  0.7816164E-02  0.1312668E+00
        -11   -1    0    0    0    0  0.00000000000E+00  0.00000000000E+00  0.45593999997E+02  0.45594000000E+02  0.51100000000E-03 0.  1.
         11   -1    0    0    0    0 -0.00000000000E+00 -0.00000000000E+00 -0.45593999997E+02  0.45594000000E+02  0.51100000000E-03 0. -1.
    9900012    2    1    2    0    0 -0.34186494550E+02  0.19568322921E+02  0.18220523564E+02  0.47787272465E+02  0.20000006479E+02 0.  0.
         12    1    1    2    0    0  0.34186494550E+02 -0.19568322921E+02 -0.18220523564E+02  0.43400727535E+02  0.00000000000E+00 0. -1.
         11    1    3    3    0    0 -0.66367157447E+01  0.12247490749E+02  0.45605633327E+01  0.14657617941E+02  0.51100000000E-03 0. -1.
        -11    1    3    3    0    0 -0.23322685485E+01  0.23316257724E+00  0.50312768046E+01  0.55504583518E+01  0.51100000000E-03 0.  1.
        -12    1    3    3    0    0 -0.25217510257E+02  0.70876695942E+01  0.86286834268E+01  0.27579196173E+02  0.00000000000E+00 0.  1.
</event>
<event>
 7    1  0.4450624E-010  0.4778727E+02  0.7816164E-02  0.1312668E+00
        -11   -1    0    0    0    0  0.00000000000E+00  0.00000000000E+00  0.45593999997E+02  0.45594000000E+02  0.51100000000E-03 0.  1.
         11   -1    0    0    0    0 -0.00000000000E+00 -0.00000000000E+00 -0.45593999997E+02  0.45594000000E+02  0.51100000000E-03 0. -1.
    9900012    2    1    2    0    0  0.12702827935E+02 -0.26525157650E+02  0.31916724916E+02  0.47787272411E+02  0.20000006231E+02 0.  0.
         12    1    1    2    0    0 -0.12702827935E+02  0.26525157650E+02 -0.31916724916E+02  0.43400727589E+02  0.00000000000E+00 0. -1.
         11    1    3    3    0    0 -0.20524826854E+01 -0.38850654137E+01  0.74281169670E+00  0.44562526769E+01  0.51100000000E-03 0. -1.
        -11    1    3    3    0    0  0.36554478697E+01 -0.17185170438E+02  0.16079997206E+02  0.23817193213E+02  0.51100000000E-03 0.  1.
        -12    1    3    3    0    0  0.11099862751E+02 -0.54549217983E+01  0.15093916013E+02  0.19513826522E+02  0.00000000000E+00 0.  1.
</event>
<event>
 7    1  0.4450624E-010  0.4778728E+02  0.7816164E-02  0.1312668E+00
        -11   -1    0    0    0    0  0.00000000000E+00  0.00000000000E+00  0.45593999997E+02  0.45594000000E+02  0.51100000000E-03 0.  1.
         11   -1    0    0    0    0 -0.00000000000E+00 -0.00000000000E+00 -0.45593999997E+02  0.45594000000E+02  0.51100000000E-03 0. -1.
    9900012    2    1    2    0    0  0.56074627557E+01 -0.38382619420E+02  0.19466714244E+02  0.47787284850E+02  0.20000062944E+02 0.  0.
         12    1    1    2    0    0 -0.56074627557E+01  0.38382619420E+02 -0.19466714244E+02  0.43400715150E+02  0.00000000000E+00 0. -1.
         11    1    3    3    0    0 -0.28419111399E+01 -0.43647383433E+01  0.24724615062E+01  0.57654545261E+01  0.51100000000E-03 0. -1.
        -11    1    3    3    0    0 -0.31258198086E+01 -0.53010666865E+01 -0.96361862798E+00  0.62290142568E+01  0.51100000000E-03 0.  1.
        -12    1    3    3    0    0  0.11575193704E+02 -0.28716814390E+02  0.17957871366E+02  0.35792816067E+02  0.00000000000E+00 0.  1.
</event>
<event>
 7    1  0.4450624E-010  0.4778727E+02  0.7816164E-02  0.1312668E+00
        -11   -1    0    0    0    0  0.00000000000E+00  0.00000000000E+00  0.45593999997E+02  0.45594000000E+02  0.51100000000E-03 0.  1.
         11   -1    0    0    0    0 -0.00000000000E+00 -0.00000000000E+00 -0.45593999997E+02  0.45594000000E+02  0.51100000000E-03 0. -1.
    9900012    2    1    2    0    0  0.26587484928E+02 -0.28336528563E+02  0.19333142257E+02  0.47787267341E+02  0.19999983116E+02 0.  0.
         12    1    1    2    0    0 -0.26587484928E+02  0.28336528563E+02 -0.19333142257E+02  0.43400732659E+02  0.00000000000E+00 0. -1.
         11    1    3    3    0    0  0.98981118111E+01 -0.72601636807E+01  0.27652230290E+01  0.12582887298E+02  0.51100000000E-03 0. -1.
        -11    1    3    3    0    0  0.18483825350E+02 -0.14454766081E+02  0.15828294139E+02  0.28304186221E+02  0.51100000000E-03 0.  1.
         12    1    3    3    0    0 -0.17944522341E+01 -0.66215988014E+01  0.73962508944E+00  0.69001938219E+01  0.00000000000E+00 0. -1.
</event>
<event>
 7    1  0.4450624E-010  0.4778727E+02  0.7816164E-02  0.1312668E+00
        -11   -1    0    0    0    0  0.00000000000E+00  0.00000000000E+00  0.45593999997E+02  0.45594000000E+02  0.51100000000E-03 0.  1.
         11   -1    0    0    0    0 -0.00000000000E+00 -0.00000000000E+00 -0.45593999997E+02  0.45594000000E+02  0.51100000000E-03 0. -1.
    9900012    2    1    2    0    0 -0.33933208781E+02  0.20513048072E+02  0.17645840961E+02  0.47787268410E+02  0.19999987986E+02 0.  0.
         12    1    1    2    0    0  0.33933208781E+02 -0.20513048072E+02 -0.17645840961E+02  0.43400731590E+02  0.00000000000E+00 0. -1.
         11    1    3    3    0    0 -0.15614700080E+02  0.53074503617E+01  0.80831658987E+01  0.18366422056E+02  0.51100000000E-03 0. -1.
        -11    1    3    3    0    0 -0.13399027110E+02  0.41539954683E+01  0.10141231645E+02  0.17309944696E+02  0.51100000000E-03 0.  1.
         12    1    3    3    0    0 -0.49194815911E+01  0.11051602242E+02 -0.57855658291E+00  0.12110901657E+02  0.00000000000E+00 0. -1.
</event>
<event>
 7    1  0.4450624E-010  0.4778727E+02  0.7816164E-02  0.1312668E+00
        -11   -1    0    0    0    0  0.00000000000E+00  0.00000000000E+00  0.45593999997E+02  0.45594000000E+02  0.51100000000E-03 0.  1.
         11   -1    0    0    0    0 -0.00000000000E+00 -0.00000000000E+00 -0.45593999997E+02  0.45594000000E+02  0.51100000000E-03 0. -1.
    9900012    2    1    2    0    0 -0.16078357802E+02  0.87815829552E+01  0.39344552136E+02  0.47787267615E+02  0.19999984363E+02 0.  0.
         12    1    1    2    0    0  0.16078357802E+02 -0.87815829552E+01 -0.39344552136E+02  0.43400732385E+02  0.00000000000E+00 0. -1.
         11    1    3    3    0    0 -0.13744985955E+01  0.13944501786E+01  0.24875786271E+01  0.31657203567E+01  0.51100000000E-03 0. -1.
        -11    1    3    3    0    0 -0.17685113161E+02  0.51742745160E+01  0.36505237152E+02  0.40892159200E+02  0.51100000000E-03 0.  1.
         12    1    3    3    0    0  0.29812539544E+01  0.22128582605E+01  0.35173635703E+00  0.37293880579E+01  0.00000000000E+00 0. -1.
</event>
<event>
 7    1  0.4450624E-010  0.4778727E+02  0.7816164E-02  0.1312668E+00
        -11   -1    0    0    0    0  0.00000000000E+00  0.00000000000E+00  0.45593999997E+02  0.45594000000E+02  0.51100000000E-03 0. -1.
         11   -1    0    0    0    0 -0.00000000000E+00 -0.00000000000E+00 -0.45593999997E+02  0.45594000000E+02  0.51100000000E-03 0.  1.
    9900012    2    1    2    0    0 -0.36575544859E+02  0.17856657356E+02  0.15066284082E+02  0.47787267176E+02  0.19999982360E+02 0.  0.
         12    1    1    2    0    0  0.36575544859E+02 -0.17856657356E+02 -0.15066284082E+02  0.43400732824E+02  0.00000000000E+00 0. -1.
         11    1    3    3    0    0 -0.80500931326E+01 -0.17934220524E+01  0.63662007468E+01  0.10418679106E+02  0.51100000000E-03 0. -1.
        -11    1    3    3    0    0 -0.80008918996E+01  0.11709540063E+02  0.50883441642E+01  0.15067144596E+02  0.51100000000E-03 0.  1.
        -12    1    3    3    0    0 -0.20524559827E+02  0.79405393449E+01  0.36117391710E+01  0.22301443474E+02  0.00000000000E+00 0.  1.
</event>
<event>
 7    1  0.4450624E-010  0.4778727E+02  0.7816164E-02  0.1312668E+00
        -11   -1    0    0    0    0  0.00000000000E+00  0.00000000000E+00  0.45593999997E+02  0.45594000000E+02  0.51100000000E-03 0.  1.
         11   -1    0    0    0    0 -0.00000000000E+00 -0.00000000000E+00 -0.45593999997E+02  0.45594000000E+02  0.51100000000E-03 0. -1.
    9900012    2    1    2    0    0 -0.23877864223E+02 -0.33440380505E+02 -0.13971837331E+02  0.47787266290E+02  0.19999978322E+02 0.  0.
         12    1    1    2    0    0  0.23877864223E+02  0.33440380505E+02  0.13971837331E+02  0.43400733710E+02  0.00000000000E+00 0. -1.
         11    1    3    3    0    0 -0.13190975596E+02 -0.11701530298E+02 -0.91007697378E+01  0.19843176625E+02  0.51100000000E-03 0. -1.
        -11    1    3    3    0    0 -0.12728265516E+02 -0.12733192631E+02 -0.50822664709E+01  0.18707548486E+02  0.51100000000E-03 0.  1.
         12    1    3    3    0    0  0.20413768888E+01 -0.90056575760E+01  0.21119887733E+00  0.92365411786E+01  0.00000000000E+00 0. -1.
</event>
<event>
 7    1  0.4450624E-010  0.4778727E+02  0.7816164E-02  0.1312668E+00
        -11   -1    0    0    0    0  0.00000000000E+00  0.00000000000E+00  0.45593999997E+02  0.45594000000E+02  0.51100000000E-03 0. -1.
         11   -1    0    0    0    0 -0.00000000000E+00 -0.00000000000E+00 -0.45593999997E+02  0.45594000000E+02  0.51100000000E-03 0.  1.
    9900012    2    1    2    0    0  0.24371995037E+02  0.35058502417E+02 -0.77801614203E+01  0.47787266762E+02  0.19999980477E+02 0.  0.
         12    1    1    2    0    0 -0.24371995037E+02 -0.35058502417E+02  0.77801614203E+01  0.43400733238E+02  0.00000000000E+00 0. -1.
         11    1    3    3    0    0  0.67605570333E+01  0.12398489139E+02 -0.65346565042E+01  0.15560507711E+02  0.51100000000E-03 0. -1.
        -11    1    3    3    0    0  0.13569433232E+01  0.88943347503E+01 -0.54447894016E+01  0.10516473635E+02  0.51100000000E-03 0.  1.
        -12    1    3    3    0    0  0.16254494681E+02  0.13765678527E+02  0.41992844855E+01  0.21710285416E+02  0.00000000000E+00 0.  1.
</event>
<event>
 7    1  0.4450624E-010  0.4778727E+02  0.7816164E-02  0.1312668E+00
        -11   -1    0    0    0    0  0.00000000000E+00  0.00000000000E+00  0.45593999997E+02  0.45594000000E+02  0.51100000000E-03 0. -1.
         11   -1    0    0    0    0 -0.00000000000E+00 -0.00000000000E+00 -0.45593999997E+02  0.45594000000E+02  0.51100000000E-03 0.  1.
    9900012    2    1    2    0    0  0.25570027137E+01  0.38658896428E+02 -0.19559526380E+02  0.47787267194E+02  0.19999982445E+02 0.  0.
         12    1    1    2    0    0 -0.25570027137E+01 -0.38658896428E+02  0.19559526380E+02  0.43400732806E+02  0.00000000000E+00 0. -1.
         11    1    3    3    0    0  0.23217004663E+01  0.74731539166E+01 -0.29851678194E+01  0.83755328002E+01  0.51100000000E-03 0. -1.
        -11    1    3    3    0    0 -0.35488888021E+01  0.24179937261E+02 -0.19144471888E+02  0.31044722286E+02  0.51100000000E-03 0.  1.
         12    1    3    3    0    0  0.37841910495E+01  0.70058052495E+01  0.25701133275E+01  0.83670121076E+01  0.00000000000E+00 0. -1.
</event>
<event>
 7    1  0.4450624E-010  0.4778726E+02  0.7816164E-02  0.1312668E+00
        -11   -1    0    0    0    0  0.00000000000E+00  0.00000000000E+00  0.45593999997E+02  0.45594000000E+02  0.51100000000E-03 0.  1.
         11   -1    0    0    0    0 -0.00000000000E+00 -0.00000000000E+00 -0.45593999997E+02  0.45594000000E+02  0.51100000000E-03 0. -1.
    9900012    2    1    2    0    0  0.20581010426E+02  0.12223895122E+02  0.36202517542E+02  0.47787264079E+02  0.19999968241E+02 0.  0.
         12    1    1    2    0    0 -0.20581010426E+02 -0.12223895122E+02 -0.36202517542E+02  0.43400735921E+02  0.00000000000E+00 0. -1.
         11    1    3    3    0    0  0.47697141157E+01  0.10355878084E+02  0.81996535719E+01  0.14043813677E+02  0.51100000000E-03 0. -1.
        -11    1    3    3    0    0  0.18629210414E+01  0.41901743500E+01  0.54291801429E+01  0.71066189693E+01  0.51100000000E-03 0.  1.
        -12    1    3    3    0    0  0.13948375269E+02 -0.23221573120E+01  0.22573683827E+02  0.26636831432E+02  0.00000000000E+00 0.  1.
</event>
<event>
 7    1  0.4450624E-010  0.4778727E+02  0.7816164E-02  0.1312668E+00
        -11   -1    0    0    0    0  0.00000000000E+00  0.00000000000E+00  0.45593999997E+02  0.45594000000E+02  0.51100000000E-03 0. -1.
         11   -1    0    0    0    0 -0.00000000000E+00 -0.00000000000E+00 -0.45593999997E+02  0.45594000000E+02  0.51100000000E-03 0.  1.
    9900012    2    1    2    0    0 -0.27966235744E+02  0.89931749703E+01  0.31947392065E+02  0.47787269621E+02  0.19999993508E+02 0.  0.
         12    1    1    2    0    0  0.27966235744E+02 -0.89931749703E+01 -0.31947392065E+02  0.43400730379E+02  0.00000000000E+00 0. -1.
         11    1    3    3    0    0  0.14608627032E+01  0.28564835314E+01  0.54322725417E+00  0.32540304414E+01  0.51100000000E-03 0. -1.
        -11    1    3    3    0    0 -0.61434881136E+01 -0.14122730826E+01  0.28328864770E+01  0.69110207288E+01  0.51100000000E-03 0.  1.
        -12    1    3    3    0    0 -0.23283610333E+02  0.75489645215E+01  0.28571278334E+02  0.37622218450E+02  0.00000000000E+00 0.  1.
</event>
<event>
 7    1  0.4450624E-010  0.4778727E+02  0.7816164E-02  0.1312668E+00
        -11   -1    0    0    0    0  0.00000000000E+00  0.00000000000E+00  0.45593999997E+02  0.45594000000E+02  0.51100000000E-03 0.  1.
         11   -1    0    0    0    0 -0.00000000000E+00 -0.00000000000E+00 -0.45593999997E+02  0.45594000000E+02  0.51100000000E-03 0. -1.
    9900012    2    1    2    0    0 -0.16002051594E+02 -0.32275029316E+02  0.24204961140E+02  0.47787270555E+02  0.19999997769E+02 0.  0.
         12    1    1    2    0    0  0.16002051594E+02  0.32275029316E+02 -0.24204961140E+02  0.43400729445E+02  0.00000000000E+00 0. -1.
         11    1    3    3    0    0 -0.46065020680E+01 -0.58172341767E-02  0.72229421646E+01  0.85668424123E+01  0.51100000000E-03 0. -1.
        -11    1    3    3    0    0 -0.61853544995E+01 -0.63977165970E+01  0.53183491393E+01  0.10366977658E+02  0.51100000000E-03 0.  1.
        -12    1    3    3    0    0 -0.52101950268E+01 -0.25871495484E+02  0.11663669836E+02  0.28853450485E+02  0.00000000000E+00 0.  1.
</event>
<event>
 7    1  0.4450624E-010  0.4778727E+02  0.7816164E-02  0.1312668E+00
        -11   -1    0    0    0    0  0.00000000000E+00  0.00000000000E+00  0.45593999997E+02  0.45594000000E+02  0.51100000000E-03 0. -1.
         11   -1    0    0    0    0 -0.00000000000E+00 -0.00000000000E+00 -0.45593999997E+02  0.45594000000E+02  0.51100000000E-03 0.  1.
    9900012    2    1    2    0    0  0.51655231685E-01  0.42655626209E+02 -0.80073624751E+01  0.47787274553E+02  0.20000015995E+02 0.  0.
         12    1    1    2    0    0 -0.51655231685E-01 -0.42655626209E+02  0.80073624751E+01  0.43400725447E+02  0.00000000000E+00 0. -1.
         11    1    3    3    0    0 -0.25992640223E+01  0.64048465145E+01  0.20270282873E+00  0.69151515551E+01  0.51100000000E-03 0. -1.
        -11    1    3    3    0    0 -0.13195248798E+01  0.34001779058E+02 -0.10704861655E+02  0.35671503869E+02  0.51100000000E-03 0.  1.
        -12    1    3    3    0    0  0.39704441338E+01  0.22490006370E+01  0.24947963509E+01  0.52006191283E+01  0.00000000000E+00 0.  1.
</event>
<event>
 7    1  0.4450624E-010  0.4778728E+02  0.7816164E-02  0.1312668E+00
        -11   -1    0    0    0    0  0.00000000000E+00  0.00000000000E+00  0.45593999997E+02  0.45594000000E+02  0.51100000000E-03 0.  1.
         11   -1    0    0    0    0 -0.00000000000E+00 -0.00000000000E+00 -0.45593999997E+02  0.45594000000E+02  0.51100000000E-03 0. -1.
    9900012    2    1    2    0    0 -0.51095025174E+01 -0.92143896817E+01  0.42102383155E+02  0.47787278111E+02  0.20000032219E+02 0.  0.
         12    1    1    2    0    0  0.51095025174E+01  0.92143896817E+01 -0.42102383155E+02  0.43400721889E+02  0.00000000000E+00 0. -1.
         11    1    3    3    0    0 -0.39549773966E+00 -0.37383241967E-01 -0.54244681781E+00  0.67235762815E+00  0.51100000000E-03 0. -1.
        -11    1    3    3    0    0  0.39301756267E+01  0.13729884147E+01  0.28434575980E+01  0.50414907533E+01  0.51100000000E-03 0.  1.
         12    1    3    3    0    0 -0.86441804044E+01 -0.10549994854E+02  0.39801372375E+02  0.42073429729E+02  0.00000000000E+00 0. -1.
</event>
<event>
 7    1  0.4450624E-010  0.4778727E+02  0.7816164E-02  0.1312668E+00
        -11   -1    0    0    0    0  0.00000000000E+00  0.00000000000E+00  0.45593999997E+02  0.45594000000E+02  0.51100000000E-03 0. -1.
         11   -1    0    0    0    0 -0.00000000000E+00 -0.00000000000E+00 -0.45593999997E+02  0.45594000000E+02  0.51100000000E-03 0.  1.
    9900012    2    1    2    0    0 -0.15714518288E+02 -0.40288846759E+02 -0.36723202634E+01  0.47787271961E+02  0.20000004180E+02 0.  0.
         12    1    1    2    0    0  0.15714518288E+02  0.40288846759E+02  0.36723202634E+01  0.43400728039E+02  0.00000000000E+00 0. -1.
         11    1    3    3    0    0  0.38559674069E+01 -0.10209536323E+02 -0.12059718483E+00  0.10914103744E+02  0.51100000000E-03 0. -1.
        -11    1    3    3    0    0 -0.44004818964E+01 -0.58467659014E+01  0.23407912996E+01  0.76829822723E+01  0.51100000000E-03 0.  1.
        -12    1    3    3    0    0 -0.15170003799E+02 -0.24232544534E+02 -0.58925143781E+01  0.29190185945E+02  0.00000000000E+00 0.  1.
</event>
<event>
 7    1  0.4450624E-010  0.4778727E+02  0.7816164E-02  0.1312668E+00
        -11   -1    0    0    0    0  0.00000000000E+00  0.00000000000E+00  0.45593999997E+02  0.45594000000E+02  0.51100000000E-03 0.  1.
         11   -1    0    0    0    0 -0.00000000000E+00 -0.00000000000E+00 -0.45593999997E+02  0.45594000000E+02  0.51100000000E-03 0. -1.
    9900012    2    1    2    0    0 -0.22632433777E+02 -0.80374173349E+01  0.36149638359E+02  0.47787268559E+02  0.19999988669E+02 0.  0.
         12    1    1    2    0    0  0.22632433777E+02  0.80374173349E+01 -0.36149638359E+02  0.43400731441E+02  0.00000000000E+00 0. -1.
         11    1    3    3    0    0 -0.24792283677E+01 -0.55144133987E+01  0.53130728334E+01  0.80488552990E+01  0.51100000000E-03 0. -1.
        -11    1    3    3    0    0 -0.11482856499E+02 -0.19069519533E+01  0.28427837300E+02  0.30718632668E+02  0.51100000000E-03 0.  1.
        -12    1    3    3    0    0 -0.86703489103E+01 -0.61605198299E+00  0.24087282254E+01  0.90197805924E+01  0.00000000000E+00 0.  1.
</event>
<event>
 7    1  0.4450624E-010  0.4778728E+02  0.7816164E-02  0.1312668E+00
        -11   -1    0    0    0    0  0.00000000000E+00  0.00000000000E+00  0.45593999997E+02  0.45594000000E+02  0.51100000000E-03 0.  1.
         11   -1    0    0    0    0 -0.00000000000E+00 -0.00000000000E+00 -0.45593999997E+02  0.45594000000E+02  0.51100000000E-03 0. -1.
    9900012    2    1    2    0    0  0.33428657558E+02  0.11441449342E+02  0.25203986600E+02  0.47787275931E+02  0.20000022280E+02 0.  0.
         12    1    1    2    0    0 -0.33428657558E+02 -0.11441449342E+02 -0.25203986600E+02  0.43400724069E+02  0.00000000000E+00 0. -1.
         11    1    3    3    0    0  0.13063654048E+02  0.10410009678E+02  0.10677358465E+02  0.19825068540E+02  0.51100000000E-03 0. -1.
        -11    1    3    3    0    0  0.27309741485E+01  0.25599320141E+01 -0.15494586294E+01  0.40512089581E+01  0.51100000000E-03 0.  1.
        -12    1    3    3    0    0  0.17634029361E+02 -0.15284923497E+01  0.16076086765E+02  0.23910998432E+02  0.00000000000E+00 0.  1.
</event>
<event>
 7    1  0.4450624E-010  0.4778727E+02  0.7816164E-02  0.1312668E+00
        -11   -1    0    0    0    0  0.00000000000E+00  0.00000000000E+00  0.45593999997E+02  0.45594000000E+02  0.51100000000E-03 0.  1.
         11   -1    0    0    0    0 -0.00000000000E+00 -0.00000000000E+00 -0.45593999997E+02  0.45594000000E+02  0.51100000000E-03 0. -1.
    9900012    2    1    2    0    0  0.99604980321E+01 -0.42218675872E+02  0.14125062471E+01  0.47787270889E+02  0.19999999291E+02 0.  0.
         12    1    1    2    0    0 -0.99604980321E+01  0.42218675872E+02 -0.14125062471E+01  0.43400729111E+02  0.00000000000E+00 0. -1.
         11    1    3    3    0    0  0.50746273495E+01 -0.99089037591E+01  0.11760422029E+01  0.11194699280E+02  0.51100000000E-03 0. -1.
        -11    1    3    3    0    0  0.95669616517E+01 -0.29452745554E+02 -0.94776966842E+00  0.30982079393E+02  0.51100000000E-03 0.  1.
         12    1    3    3    0    0 -0.46810909691E+01 -0.28570265597E+01  0.11842337127E+01  0.56104922164E+01  0.00000000000E+00 0. -1.
</event>
<event>
 7    1  0.4450624E-010  0.4778727E+02  0.7816164E-02  0.1312668E+00
        -11   -1    0    0    0    0  0.00000000000E+00  0.00000000000E+00  0.45593999997E+02  0.45594000000E+02  0.51100000000E-03 0. -1.
         11   -1    0    0    0    0 -0.00000000000E+00 -0.00000000000E+00 -0.45593999997E+02  0.45594000000E+02  0.51100000000E-03 0.  1.
    9900012    2    1    2    0    0  0.10448457949E+01 -0.18876424139E+02 -0.39066768992E+02  0.47787268088E+02  0.19999986520E+02 0.  0.
         12    1    1    2    0    0 -0.10448457949E+01  0.18876424139E+02  0.39066768992E+02  0.43400731912E+02  0.00000000000E+00 0. -1.
         11    1    3    3    0    0  0.52938636127E+01  0.16361967239E+00 -0.80527862719E+01  0.96384194943E+01  0.51100000000E-03 0. -1.
        -11    1    3    3    0    0  0.18911791633E+00 -0.16864479225E+01  0.61087232782E+00  0.18036178762E+01  0.51100000000E-03 0.  1.
        -12    1    3    3    0    0 -0.44381357342E+01 -0.17353595889E+02 -0.31624855048E+02  0.36345230717E+02  0.00000000000E+00 0.  1.
</event>
<event>
 7    1  0.4450624E-010  0.4778727E+02  0.7816164E-02  0.1312668E+00
        -11   -1    0    0    0    0  0.00000000000E+00  0.00000000000E+00  0.45593999997E+02  0.45594000000E+02  0.51100000000E-03 0.  1.
         11   -1    0    0    0    0 -0.00000000000E+00 -0.00000000000E+00 -0.45593999997E+02  0.45594000000E+02  0.51100000000E-03 0. -1.
    9900012    2    1    2    0    0 -0.42729506539E+01 -0.29042280970E+02  0.31967343120E+02  0.47787271695E+02  0.20000002966E+02 0.  0.
         12    1    1    2    0    0  0.42729506539E+01  0.29042280970E+02 -0.31967343120E+02  0.43400728305E+02  0.00000000000E+00 0. -1.
         11    1    3    3    0    0  0.11943835777E+01  0.84192756499E+00  0.30477331941E+00  0.14927428421E+01  0.51100000000E-03 0. -1.
        -11    1    3    3    0    0 -0.41134937813E+01 -0.60363286345E+01  0.91897373879E+00  0.73622420135E+01  0.51100000000E-03 0.  1.
        -12    1    3    3    0    0 -0.13538404503E+01 -0.23847879900E+02  0.30743596062E+02  0.38932286839E+02  0.00000000000E+00 0.  1.
</event>
<event>
 7    1  0.4450624E-010  0.4778727E+02  0.7816164E-02  0.1312668E+00
        -11   -1    0    0    0    0  0.00000000000E+00  0.00000000000E+00  0.45593999997E+02  0.45594000000E+02  0.51100000000E-03 0.  1.
         11   -1    0    0    0    0 -0.00000000000E+00 -0.00000000000E+00 -0.45593999997E+02  0.45594000000E+02  0.51100000000E-03 0. -1.
    9900012    2    1    2    0    0  0.11377209884E+02 -0.15268314171E+02  0.39000777909E+02  0.47787274201E+02  0.20000014394E+02 0.  0.
         12    1    1    2    0    0 -0.11377209884E+02  0.15268314171E+02 -0.39000777909E+02  0.43400725799E+02  0.00000000000E+00 0. -1.
         11    1    3    3    0    0 -0.87969530487E+00 -0.14220524736E+01  0.38960669000E+01  0.42397446406E+01  0.51100000000E-03 0. -1.
        -11    1    3    3    0    0 -0.34993879583E+01 -0.82569996814E+01  0.10625949165E+02  0.13904479701E+02  0.51100000000E-03 0.  1.
         12    1    3    3    0    0  0.15756293147E+02 -0.55892620159E+01  0.24478761843E+02  0.29643049860E+02  0.00000000000E+00 0. -1.
</event>
<event>
 7    1  0.4450624E-010  0.4778727E+02  0.7816164E-02  0.1312668E+00
        -11   -1    0    0    0    0  0.00000000000E+00  0.00000000000E+00  0.45593999997E+02  0.45594000000E+02  0.51100000000E-03 0. -1.
         11   -1    0    0    0    0 -0.00000000000E+00 -0.00000000000E+00 -0.45593999997E+02  0.45594000000E+02  0.51100000000E-03 0.  1.
    9900012    2    1    2    0    0 -0.76216279945E+01  0.29355747729E+02 -0.31044713493E+02  0.47787269892E+02  0.19999994746E+02 0.  0.
         12    1    1    2    0    0  0.76216279945E+01 -0.29355747729E+02  0.31044713493E+02  0.43400730108E+02  0.00000000000E+00 0. -1.
         11    1    3    3    0    0 -0.65590165870E+01  0.94621950900E+01 -0.14699938664E+02  0.18671958427E+02  0.51100000000E-03 0. -1.
        -11    1    3    3    0    0 -0.55109923232E+01  0.80641828940E+01 -0.19505356225E+01  0.99602545956E+01  0.51100000000E-03 0.  1.
         12    1    3    3    0    0  0.44483809157E+01  0.11829369745E+02 -0.14394239207E+02  0.19155056870E+02  0.00000000000E+00 0. -1.
</event>
<event>
 7    1  0.4450624E-010  0.4778726E+02  0.7816164E-02  0.1312668E+00
        -11   -1    0    0    0    0  0.00000000000E+00  0.00000000000E+00  0.45593999997E+02  0.45594000000E+02  0.51100000000E-03 0. -1.
         11   -1    0    0    0    0 -0.00000000000E+00 -0.00000000000E+00 -0.45593999997E+02  0.45594000000E+02  0.51100000000E-03 0.  1.
    9900012    2    1    2    0    0 -0.16892376127E+02 -0.39657301637E+02  0.50567468357E+01  0.47787255388E+02  0.19999928614E+02 0.  0.
         12    1    1    2    0    0  0.16892376127E+02  0.39657301637E+02 -0.50567468357E+01  0.43400744612E+02  0.00000000000E+00 0. -1.
         11    1    3    3    0    0  0.46184399550E+00 -0.92087013630E+01  0.44677302411E+01  0.10245686626E+02  0.51100000000E-03 0. -1.
        -11    1    3    3    0    0 -0.24433222117E+01 -0.11958481000E+02 -0.49165751689E+01  0.13158563862E+02  0.51100000000E-03 0.  1.
        -12    1    3    3    0    0 -0.14910897910E+02 -0.18490119275E+02  0.55055917634E+01  0.24383004900E+02  0.00000000000E+00 0.  1.
</event>
<event>
 7    1  0.5552951E-010  0.4778728E+02  0.7816164E-02  0.1312668E+00
        -11   -1    0    0    0    0  0.00000000000E+00  0.00000000000E+00  0.45593999997E+02  0.45594000000E+02  0.51100000000E-03 0. -1.
         11   -1    0    0    0    0 -0.00000000000E+00 -0.00000000000E+00 -0.45593999997E+02  0.45594000000E+02  0.51100000000E-03 0.  1.
    9900012    2    1    2    0    0 -0.11032026345E+02 -0.37569667889E+02 -0.18719966860E+02  0.47787277542E+02  0.20000029626E+02 0.  0.
         12    1    1    2    0    0  0.11032026345E+02  0.37569667889E+02  0.18719966860E+02  0.43400722458E+02  0.00000000000E+00 0. -1.
         11    1    3    3    0    0  0.12211066165E+01  0.75659934029E+00 -0.85988146912E+00  0.16741984149E+01  0.51100000000E-03 0. -1.
        -11    1    3    3    0    0 -0.85977016374E+01 -0.86423169462E+01 -0.81667162988E+01  0.14673287669E+02  0.51100000000E-03 0.  1.
        -12    1    3    3    0    0 -0.36554313243E+01 -0.29683950284E+02 -0.96933690922E+01  0.31439791459E+02  0.00000000000E+00 0.  1.
</event>
<event>
 7    1  0.4450624E-010  0.4778727E+02  0.7816164E-02  0.1312668E+00
        -11   -1    0    0    0    0  0.00000000000E+00  0.00000000000E+00  0.45593999997E+02  0.45594000000E+02  0.51100000000E-03 0. -1.
         11   -1    0    0    0    0 -0.00000000000E+00 -0.00000000000E+00 -0.45593999997E+02  0.45594000000E+02  0.51100000000E-03 0.  1.
    9900012    2    1    2    0    0  0.33553126038E+02  0.16890344090E+02 -0.21737689878E+02  0.47787272453E+02  0.20000006420E+02 0.  0.
         12    1    1    2    0    0 -0.33553126038E+02 -0.16890344090E+02  0.21737689878E+02  0.43400727547E+02  0.00000000000E+00 0. -1.
         11    1    3    3    0    0  0.30031955725E+02  0.11779914680E+02 -0.21035502333E+02  0.38512038549E+02  0.51100000000E-03 0. -1.
        -11    1    3    3    0    0  0.55142154140E+01  0.46248290371E+01 -0.57989494695E+00  0.72202419395E+01  0.51100000000E-03 0.  1.
         12    1    3    3    0    0 -0.19930451003E+01  0.48560037289E+00 -0.12229259807E+00  0.20549919644E+01  0.00000000000E+00 0. -1.
</event>
<event>
 7    1  0.4450624E-010  0.4778726E+02  0.7816164E-02  0.1312668E+00
        -11   -1    0    0    0    0  0.00000000000E+00  0.00000000000E+00  0.45593999997E+02  0.45594000000E+02  0.51100000000E-03 0. -1.
         11   -1    0    0    0    0 -0.00000000000E+00 -0.00000000000E+00 -0.45593999997E+02  0.45594000000E+02  0.51100000000E-03 0.  1.
    9900012    2    1    2    0    0 -0.41873045585E+02 -0.77864957493E+01 -0.83452230397E+01  0.47787260257E+02  0.19999950816E+02 0.  0.
         12    1    1    2    0    0  0.41873045585E+02  0.77864957493E+01  0.83452230397E+01  0.43400739743E+02  0.00000000000E+00 0. -1.
         11    1    3    3    0    0 -0.60012505136E+01 -0.52094383106E+01  0.13562310954E+01  0.80617999407E+01  0.51100000000E-03 0. -1.
        -11    1    3    3    0    0 -0.31709141040E+02 -0.57084666547E+01 -0.48027338240E+01  0.32574874819E+02  0.51100000000E-03 0.  1.
        -12    1    3    3    0    0 -0.41626540316E+01  0.31314092160E+01 -0.48987203110E+01  0.71505854970E+01  0.00000000000E+00 0.  1.
</event>
<event>
 7    1  0.4450624E-010  0.4778727E+02  0.7816164E-02  0.1312668E+00
        -11   -1    0    0    0    0  0.00000000000E+00  0.00000000000E+00  0.45593999997E+02  0.45594000000E+02  0.51100000000E-03 0.  1.
         11   -1    0    0    0    0 -0.00000000000E+00 -0.00000000000E+00 -0.45593999997E+02  0.45594000000E+02  0.51100000000E-03 0. -1.
    9900012    2    1    2    0    0 -0.97497689593E+01 -0.26586578589E+02  0.32889497071E+02  0.47787272202E+02  0.20000005278E+02 0.  0.
         12    1    1    2    0    0  0.97497689593E+01  0.26586578589E+02 -0.32889497071E+02  0.43400727798E+02  0.00000000000E+00 0. -1.
         11    1    3    3    0    0 -0.35240183403E+01 -0.19287499614E+01  0.23963486745E+01  0.46777418598E+01  0.51100000000E-03 0. -1.
        -11    1    3    3    0    0 -0.10020704007E+02 -0.10657944249E+02  0.89869088192E+01  0.17168890902E+02  0.51100000000E-03 0.  1.
        -12    1    3    3    0    0  0.37949533881E+01 -0.13999884378E+02  0.21506239577E+02  0.25940639440E+02  0.00000000000E+00 0.  1.
</event>
<event>
 7    1  0.4450624E-010  0.4778729E+02  0.7816164E-02  0.1312668E+00
        -11   -1    0    0    0    0  0.00000000000E+00  0.00000000000E+00  0.45593999997E+02  0.45594000000E+02  0.51100000000E-03 0.  1.
         11   -1    0    0    0    0 -0.00000000000E+00 -0.00000000000E+00 -0.45593999997E+02  0.45594000000E+02  0.51100000000E-03 0. -1.
    9900012    2    1    2    0    0 -0.12399390469E+02 -0.25375369652E+02  0.32954025388E+02  0.47787285049E+02  0.20000063854E+02 0.  0.
         12    1    1    2    0    0  0.12399390469E+02  0.25375369652E+02 -0.32954025388E+02  0.43400714951E+02  0.00000000000E+00 0. -1.
         11    1    3    3    0    0 -0.30837702979E+01 -0.16003695302E+02  0.15690514179E+02  0.22623442223E+02  0.51100000000E-03 0. -1.
        -11    1    3    3    0    0 -0.45032564609E+01 -0.11887998325E+02  0.13581714334E+02  0.18602870409E+02  0.51100000000E-03 0.  1.
        -12    1    3    3    0    0 -0.48123637105E+01  0.25163239755E+01  0.36817968746E+01  0.65609724171E+01  0.00000000000E+00 0.  1.
</event>
<event>
 7    1  0.4450624E-010  0.4778728E+02  0.7816164E-02  0.1312668E+00
        -11   -1    0    0    0    0  0.00000000000E+00  0.00000000000E+00  0.45593999997E+02  0.45594000000E+02  0.51100000000E-03 0. -1.
         11   -1    0    0    0    0 -0.00000000000E+00 -0.00000000000E+00 -0.45593999997E+02  0.45594000000E+02  0.51100000000E-03 0.  1.
    9900012    2    1    2    0    0  0.26581169283E+02 -0.19809034336E+02 -0.28011897846E+02  0.47787276243E+02  0.20000023700E+02 0.  0.
         12    1    1    2    0    0 -0.26581169283E+02  0.19809034336E+02  0.28011897846E+02  0.43400723757E+02  0.00000000000E+00 0. -1.
         11    1    3    3    0    0  0.27928045115E+01 -0.56002460211E+01 -0.63617770071E+01  0.89238287459E+01  0.51100000000E-03 0. -1.
        -11    1    3    3    0    0  0.55120846920E+01 -0.58049594960E+01 -0.16124930618E+02  0.18002611480E+02  0.51100000000E-03 0.  1.
         12    1    3    3    0    0  0.18276280079E+02 -0.84038288189E+01 -0.55251902208E+01  0.20860836017E+02  0.00000000000E+00 0. -1.
</event>
<event>
 7    1  0.4450624E-010  0.4778727E+02  0.7816164E-02  0.1312668E+00
        -11   -1    0    0    0    0  0.00000000000E+00  0.00000000000E+00  0.45593999997E+02  0.45594000000E+02  0.51100000000E-03 0.  1.
         11   -1    0    0    0    0 -0.00000000000E+00 -0.00000000000E+00 -0.45593999997E+02  0.45594000000E+02  0.51100000000E-03 0. -1.
    9900012    2    1    2    0    0 -0.52011692713E+01 -0.12171412720E+01  0.43070756821E+02  0.47787266275E+02  0.19999978256E+02 0.  0.
         12    1    1    2    0    0  0.52011692713E+01  0.12171412720E+01 -0.43070756821E+02  0.43400733725E+02  0.00000000000E+00 0. -1.
         11    1    3    3    0    0 -0.25792054487E+01  0.35364968332E+01  0.68839714767E+01  0.81577064271E+01  0.51100000000E-03 0. -1.
        -11    1    3    3    0    0 -0.37954177921E+00  0.10875027186E-01 -0.15149757716E+01  0.15618329226E+01  0.51100000000E-03 0.  1.
        -12    1    3    3    0    0 -0.22424220434E+01 -0.47645131324E+01  0.37701761116E+02  0.38067726926E+02  0.00000000000E+00 0.  1.
</event>
<event>
 7    1  0.4450624E-010  0.4778727E+02  0.7816164E-02  0.1312668E+00
        -11   -1    0    0    0    0  0.00000000000E+00  0.00000000000E+00  0.45593999997E+02  0.45594000000E+02  0.51100000000E-03 0.  1.
         11   -1    0    0    0    0 -0.00000000000E+00 -0.00000000000E+00 -0.45593999997E+02  0.45594000000E+02  0.51100000000E-03 0. -1.
    9900012    2    1    2    0    0  0.37077939696E+02 -0.22122964706E+02  0.44072787284E+01  0.47787270913E+02  0.19999999400E+02 0.  0.
         12    1    1    2    0    0 -0.37077939696E+02  0.22122964706E+02 -0.44072787284E+01  0.43400729087E+02  0.00000000000E+00 0. -1.
         11    1    3    3    0    0  0.40339093876E+01 -0.16652423659E+00 -0.20085480375E+01  0.45093703274E+01  0.51100000000E-03 0. -1.
        -11    1    3    3    0    0  0.31975544889E+02 -0.20559572657E+02  0.14861607066E+01  0.38043924254E+02  0.51100000000E-03 0.  1.
         12    1    3    3    0    0  0.10684854200E+01 -0.13968678127E+01  0.49296660593E+01  0.52339763312E+01  0.00000000000E+00 0. -1.
</event>
<event>
 7    1  0.4450624E-010  0.4778727E+02  0.7816164E-02  0.1312668E+00
        -11   -1    0    0    0    0  0.00000000000E+00  0.00000000000E+00  0.45593999997E+02  0.45594000000E+02  0.51100000000E-03 0.  1.
         11   -1    0    0    0    0 -0.00000000000E+00 -0.00000000000E+00 -0.45593999997E+02  0.45594000000E+02  0.51100000000E-03 0. -1.
    9900012    2    1    2    0    0  0.52282617793E+01 -0.11867968243E+02  0.41417873067E+02  0.47787267277E+02  0.19999982824E+02 0.  0.
         12    1    1    2    0    0 -0.52282617793E+01  0.11867968243E+02 -0.41417873067E+02  0.43400732723E+02  0.00000000000E+00 0. -1.
         11    1    3    3    0    0 -0.46411324946E+00 -0.62756362502E+01  0.47569867863E+01  0.78884684825E+01  0.51100000000E-03 0. -1.
        -11    1    3    3    0    0 -0.40356388485E+01  0.64547540577E+00  0.76991700095E+01  0.87166644143E+01  0.51100000000E-03 0.  1.
         12    1    3    3    0    0  0.97280138772E+01 -0.62378073982E+01  0.28961716271E+02  0.31182134381E+02  0.00000000000E+00 0. -1.
</event>
<event>
 7    1  0.4450624E-010  0.4778727E+02  0.7816164E-02  0.1312668E+00
        -11   -1    0    0    0    0  0.00000000000E+00  0.00000000000E+00  0.45593999997E+02  0.45594000000E+02  0.51100000000E-03 0.  1.
         11   -1    0    0    0    0 -0.00000000000E+00 -0.00000000000E+00 -0.45593999997E+02  0.45594000000E+02  0.51100000000E-03 0. -1.
    9900012    2    1    2    0    0 -0.32942384566E+02  0.24785933249E+02  0.13567608860E+02  0.47787271917E+02  0.20000003980E+02 0.  0.
         12    1    1    2    0    0  0.32942384566E+02 -0.24785933249E+02 -0.13567608860E+02  0.43400728083E+02  0.00000000000E+00 0. -1.
         11    1    3    3    0    0  0.70774276390E+00 -0.10153869898E+01  0.53012314904E+00  0.13464551137E+01  0.51100000000E-03 0.  1.
        -11    1    3    3    0    0 -0.65414053211E+01  0.35533171287E-01  0.48808054937E+01  0.81617099134E+01  0.51100000000E-03 0. -1.
        -12    1    3    3    0    0 -0.27108722009E+02  0.25765787067E+02  0.81566802170E+01  0.38279106890E+02  0.00000000000E+00 0.  1.
</event>
<event>
 7    1  0.4450624E-010  0.4778727E+02  0.7816164E-02  0.1312668E+00
        -11   -1    0    0    0    0  0.00000000000E+00  0.00000000000E+00  0.45593999997E+02  0.45594000000E+02  0.51100000000E-03 0.  1.
         11   -1    0    0    0    0 -0.00000000000E+00 -0.00000000000E+00 -0.45593999997E+02  0.45594000000E+02  0.51100000000E-03 0. -1.
    9900012    2    1    2    0    0 -0.77809658703E+01 -0.33053426612E+02 -0.27028703085E+02  0.47787271537E+02  0.20000002247E+02 0.  0.
         12    1    1    2    0    0  0.77809658703E+01  0.33053426612E+02  0.27028703085E+02  0.43400728463E+02  0.00000000000E+00 0. -1.
         11    1    3    3    0    0 -0.52339482364E+00 -0.28058211597E+01 -0.82170186242E+01  0.86986188475E+01  0.51100000000E-03 0. -1.
        -11    1    3    3    0    0  0.43231836127E+01 -0.61701064610E+01 -0.37024879886E+01  0.83945546550E+01  0.51100000000E-03 0.  1.
        -12    1    3    3    0    0 -0.11580754659E+02 -0.24077498991E+02 -0.15109196472E+02  0.30694098035E+02  0.00000000000E+00 0.  1.
</event>
<event>
 7    1  0.4450624E-010  0.4778727E+02  0.7816164E-02  0.1312668E+00
        -11   -1    0    0    0    0  0.00000000000E+00  0.00000000000E+00  0.45593999997E+02  0.45594000000E+02  0.51100000000E-03 0. -1.
         11   -1    0    0    0    0 -0.00000000000E+00 -0.00000000000E+00 -0.45593999997E+02  0.45594000000E+02  0.51100000000E-03 0.  1.
    9900012    2    1    2    0    0 -0.70353121419E+01  0.42535333668E+02  0.49872883140E+01  0.47787271067E+02  0.20000000102E+02 0.  0.
         12    1    1    2    0    0  0.70353121419E+01 -0.42535333668E+02 -0.49872883140E+01  0.43400728933E+02  0.00000000000E+00 0. -1.
         11    1    3    3    0    0 -0.13218632868E+01 -0.34636871015E+00 -0.99660752161E+00  0.16913073776E+01  0.51100000000E-03 0. -1.
        -11    1    3    3    0    0  0.20969637258E+01  0.17920166711E+02 -0.33008786560E+01  0.18341903718E+02  0.51100000000E-03 0.  1.
         12    1    3    3    0    0 -0.78104125809E+01  0.24961535667E+02  0.92847744917E+01  0.27754059971E+02  0.00000000000E+00 0. -1.
</event>
<event>
 7    1  0.4450624E-010  0.4778727E+02  0.7816164E-02  0.1312668E+00
        -11   -1    0    0    0    0  0.00000000000E+00  0.00000000000E+00  0.45593999997E+02  0.45594000000E+02  0.51100000000E-03 0. -1.
         11   -1    0    0    0    0 -0.00000000000E+00 -0.00000000000E+00 -0.45593999997E+02  0.45594000000E+02  0.51100000000E-03 0.  1.
    9900012    2    1    2    0    0  0.39701179471E+02  0.16473558068E+02 -0.60051333647E+01  0.47787269666E+02  0.19999993714E+02 0.  0.
         12    1    1    2    0    0 -0.39701179471E+02 -0.16473558068E+02  0.60051333647E+01  0.43400730334E+02  0.00000000000E+00 0. -1.
         11    1    3    3    0    0  0.12651881291E+02  0.12590030647E+01  0.57979473978E+01  0.13973953743E+02  0.51100000000E-03 0. -1.
        -11    1    3    3    0    0  0.11734952494E+02  0.58284941102E+01 -0.17206295701E+01  0.13215181422E+02  0.51100000000E-03 0.  1.
         12    1    3    3    0    0  0.15314345686E+02  0.93860608927E+01 -0.10082451192E+02  0.20598134501E+02  0.00000000000E+00 0. -1.
</event>
<event>
 7    1  0.4450624E-010  0.4778727E+02  0.7816164E-02  0.1312668E+00
        -11   -1    0    0    0    0  0.00000000000E+00  0.00000000000E+00  0.45593999997E+02  0.45594000000E+02  0.51100000000E-03 0.  1.
         11   -1    0    0    0    0 -0.00000000000E+00 -0.00000000000E+00 -0.45593999997E+02  0.45594000000E+02  0.51100000000E-03 0. -1.
    9900012    2    1    2    0    0  0.24792489844E+02 -0.16251823917E+02  0.31699118403E+02  0.47787269121E+02  0.19999991229E+02 0.  0.
         12    1    1    2    0    0 -0.24792489844E+02  0.16251823917E+02 -0.31699118403E+02  0.43400730879E+02  0.00000000000E+00 0. -1.
         11    1    3    3    0    0  0.30088616680E+00 -0.27954159515E+01  0.39594740861E+01  0.48561629016E+01  0.51100000000E-03 0. -1.
        -11    1    3    3    0    0  0.12455894940E+02 -0.10401255445E+02  0.25630627089E+02  0.30335861268E+02  0.51100000000E-03 0.  1.
         12    1    3    3    0    0  0.12035708737E+02 -0.30551525208E+01  0.21090172281E+01  0.12595244952E+02  0.00000000000E+00 0. -1.
</event>
<event>
 7    1  0.4450624E-010  0.4778727E+02  0.7816164E-02  0.1312668E+00
        -11   -1    0    0    0    0  0.00000000000E+00  0.00000000000E+00  0.45593999997E+02  0.45594000000E+02  0.51100000000E-03 0.  1.
         11   -1    0    0    0    0 -0.00000000000E+00 -0.00000000000E+00 -0.45593999997E+02  0.45594000000E+02  0.51100000000E-03 0. -1.
    9900012    2    1    2    0    0  0.14607709221E+02 -0.17324692436E+02  0.37014773660E+02  0.47787267221E+02  0.19999982567E+02 0.  0.
         12    1    1    2    0    0 -0.14607709221E+02  0.17324692436E+02 -0.37014773660E+02  0.43400732779E+02  0.00000000000E+00 0. -1.
         11    1    3    3    0    0  0.20155295179E+01  0.18951249937E+01  0.58870273886E+01  0.65046867499E+01  0.51100000000E-03 0. -1.
        -11    1    3    3    0    0  0.83030425069E+01 -0.32285074136E+01  0.46361067092E+01  0.10042771563E+02  0.51100000000E-03 0.  1.
        -12    1    3    3    0    0  0.42891371958E+01 -0.15991310016E+02  0.26491639562E+02  0.31239808908E+02  0.00000000000E+00 0.  1.
</event>
<event>
 7    1  0.4450624E-010  0.4778728E+02  0.7816164E-02  0.1312668E+00
        -11   -1    0    0    0    0  0.00000000000E+00  0.00000000000E+00  0.45593999997E+02  0.45594000000E+02  0.51100000000E-03 0.  1.
         11   -1    0    0    0    0 -0.00000000000E+00 -0.00000000000E+00 -0.45593999997E+02  0.45594000000E+02  0.51100000000E-03 0. -1.
    9900012    2    1    2    0    0  0.12475725792E+01 -0.10233596219E+02  0.42158509335E+02  0.47787276063E+02  0.20000022882E+02 0.  0.
         12    1    1    2    0    0 -0.12475725792E+01  0.10233596219E+02 -0.42158509335E+02  0.43400723937E+02  0.00000000000E+00 0. -1.
         11    1    3    3    0    0 -0.26240536005E+01 -0.20032835320E+00  0.78141257293E+01  0.82453835521E+01  0.51100000000E-03 0. -1.
        -11    1    3    3    0    0  0.60821173453E+01 -0.92602753278E+01  0.35311168399E+02  0.37008424237E+02  0.51100000000E-03 0.  1.
        -12    1    3    3    0    0 -0.22104911656E+01 -0.77299253803E+00 -0.96678479365E+00  0.25334682738E+01  0.00000000000E+00 0.  1.
</event>
<event>
 7    1  0.4450624E-010  0.4778727E+02  0.7816164E-02  0.1312668E+00
        -11   -1    0    0    0    0  0.00000000000E+00  0.00000000000E+00  0.45593999997E+02  0.45594000000E+02  0.51100000000E-03 0.  1.
         11   -1    0    0    0    0 -0.00000000000E+00 -0.00000000000E+00 -0.45593999997E+02  0.45594000000E+02  0.51100000000E-03 0. -1.
    9900012    2    1    2    0    0  0.25078227273E+02  0.30558993480E+02  0.17912390191E+02  0.47787270882E+02  0.19999999258E+02 0.  0.
         12    1    1    2    0    0 -0.25078227273E+02 -0.30558993480E+02 -0.17912390191E+02  0.43400729118E+02  0.00000000000E+00 0. -1.
         11    1    3    3    0    0  0.18154748622E+02  0.13823888147E+02  0.15008064350E+02  0.27311843161E+02  0.51100000000E-03 0.  1.
        -11    1    3    3    0    0  0.25795699232E+01  0.32122310776E+00 -0.14094967874E+01  0.29570334337E+01  0.51100000000E-03 0. -1.
        -12    1    3    3    0    0  0.43439087277E+01  0.16413882225E+02  0.43138226278E+01  0.17518394287E+02  0.00000000000E+00 0.  1.
</event>
<event>
 7    1  0.4450624E-010  0.4778727E+02  0.7816164E-02  0.1312668E+00
        -11   -1    0    0    0    0  0.00000000000E+00  0.00000000000E+00  0.45593999997E+02  0.45594000000E+02  0.51100000000E-03 0.  1.
         11   -1    0    0    0    0 -0.00000000000E+00 -0.00000000000E+00 -0.45593999997E+02  0.45594000000E+02  0.51100000000E-03 0. -1.
    9900012    2    1    2    0    0  0.83460950541E+01  0.28744226855E+01  0.42493571355E+02  0.47787271724E+02  0.20000003097E+02 0.  0.
         12    1    1    2    0    0 -0.83460950541E+01 -0.28744226855E+01 -0.42493571355E+02  0.43400728276E+02  0.00000000000E+00 0. -1.
         11    1    3    3    0    0  0.73528803704E+01 -0.37077566082E+00  0.32578887350E+01  0.80508486263E+01  0.51100000000E-03 0. -1.
        -11    1    3    3    0    0 -0.11083732911E+01 -0.83942739211E+00  0.15364801353E+02  0.15427580841E+02  0.51100000000E-03 0.  1.
        -12    1    3    3    0    0  0.21015879748E+01  0.40846257384E+01  0.23870881266E+02  0.24308842257E+02  0.00000000000E+00 0.  1.
</event>
<event>
 7    1  0.4450624E-010  0.4778726E+02  0.7816164E-02  0.1312668E+00
        -11   -1    0    0    0    0  0.00000000000E+00  0.00000000000E+00  0.45593999997E+02  0.45594000000E+02  0.51100000000E-03 0.  1.
         11   -1    0    0    0    0 -0.00000000000E+00 -0.00000000000E+00 -0.45593999997E+02  0.45594000000E+02  0.51100000000E-03 0. -1.
    9900012    2    1    2    0    0 -0.31936834400E+02  0.28467825692E+02  0.72969472026E+01  0.47787263490E+02  0.19999965556E+02 0.  0.
         12    1    1    2    0    0  0.31936834400E+02 -0.28467825692E+02 -0.72969472026E+01  0.43400736510E+02  0.00000000000E+00 0. -1.
         11    1    3    3    0    0 -0.42592858500E+01  0.32814193575E+01  0.73993503415E+01  0.91465629987E+01  0.51100000000E-03 0. -1.
        -11    1    3    3    0    0 -0.36888271271E+01  0.86230956279E+01 -0.12779602638E+01  0.94656434794E+01  0.51100000000E-03 0.  1.
        -12    1    3    3    0    0 -0.23988721423E+02  0.16563310707E+02  0.11755571250E+01  0.29175057012E+02  0.00000000000E+00 0.  1.
</event>
<event>
 7    1  0.4450624E-010  0.4778727E+02  0.7816164E-02  0.1312668E+00
        -11   -1    0    0    0    0  0.00000000000E+00  0.00000000000E+00  0.45593999997E+02  0.45594000000E+02  0.51100000000E-03 0. -1.
         11   -1    0    0    0    0 -0.00000000000E+00 -0.00000000000E+00 -0.45593999997E+02  0.45594000000E+02  0.51100000000E-03 0.  1.
    9900012    2    1    2    0    0 -0.49407057644E+01  0.20882694077E+02 -0.37724340409E+02  0.47787270229E+02  0.19999996283E+02 0.  0.
         12    1    1    2    0    0  0.49407057644E+01 -0.20882694077E+02  0.37724340409E+02  0.43400729771E+02  0.00000000000E+00 0. -1.
         11    1    3    3    0    0 -0.64210374156E+01  0.51466835702E+00 -0.12955548038E+02  0.14468615353E+02  0.51100000000E-03 0. -1.
        -11    1    3    3    0    0  0.24623582979E+01  0.22078888886E+01 -0.11334273864E+01  0.34960891912E+01  0.51100000000E-03 0.  1.
        -12    1    3    3    0    0 -0.98202664668E+00  0.18160136832E+02 -0.23635364984E+02  0.29822565685E+02  0.00000000000E+00 0.  1.
</event>
<event>
 7    1  0.4450624E-010  0.4778728E+02  0.7816164E-02  0.1312668E+00
        -11   -1    0    0    0    0  0.00000000000E+00  0.00000000000E+00  0.45593999997E+02  0.45594000000E+02  0.51100000000E-03 0.  1.
         11   -1    0    0    0    0 -0.00000000000E+00 -0.00000000000E+00 -0.45593999997E+02  0.45594000000E+02  0.51100000000E-03 0. -1.
    9900012    2    1    2    0    0  0.41542137402E+02  0.12393787145E+02 -0.20658491166E+01  0.47787275671E+02  0.20000021095E+02 0.  0.
         12    1    1    2    0    0 -0.41542137402E+02 -0.12393787145E+02  0.20658491166E+01  0.43400724329E+02  0.00000000000E+00 0. -1.
         11    1    3    3    0    0 -0.37221542318E+00 -0.98749340394E-01 -0.85141461610E+00  0.93445324287E+00  0.51100000000E-03 0. -1.
        -11    1    3    3    0    0 -0.13141696360E+01  0.43828743681E+00 -0.14072107480E+01  0.19746848001E+01  0.51100000000E-03 0.  1.
        -12    1    3    3    0    0  0.43228522461E+02  0.12054249048E+02  0.19277624748E+00  0.44878137628E+02  0.00000000000E+00 0.  1.
</event>
<event>
 7    1  0.4450624E-010  0.4778727E+02  0.7816164E-02  0.1312668E+00
        -11   -1    0    0    0    0  0.00000000000E+00  0.00000000000E+00  0.45593999997E+02  0.45594000000E+02  0.51100000000E-03 0. -1.
         11   -1    0    0    0    0 -0.00000000000E+00 -0.00000000000E+00 -0.45593999997E+02  0.45594000000E+02  0.51100000000E-03 0.  1.
    9900012    2    1    2    0    0 -0.38342318774E+02  0.11641822017E+02  0.16672064533E+02  0.47787272303E+02  0.20000005739E+02 0.  0.
         12    1    1    2    0    0  0.38342318774E+02 -0.11641822017E+02 -0.16672064533E+02  0.43400727697E+02  0.00000000000E+00 0. -1.
         11    1    3    3    0    0 -0.47977597689E+01  0.53370645459E+01  0.44647380246E+01  0.84520200341E+01  0.51100000000E-03 0. -1.
        -11    1    3    3    0    0 -0.23367943207E+02 -0.29110061765E+01  0.91901772816E+01  0.25278332330E+02  0.51100000000E-03 0.  1.
        -12    1    3    3    0    0 -0.10176615799E+02  0.92157636471E+01  0.30171492265E+01  0.14056919939E+02  0.00000000000E+00 0.  1.
</event>
<event>
 7    1  0.4450624E-010  0.4778727E+02  0.7816164E-02  0.1312668E+00
        -11   -1    0    0    0    0  0.00000000000E+00  0.00000000000E+00  0.45593999997E+02  0.45594000000E+02  0.51100000000E-03 0. -1.
         11   -1    0    0    0    0 -0.00000000000E+00 -0.00000000000E+00 -0.45593999997E+02  0.45594000000E+02  0.51100000000E-03 0.  1.
    9900012    2    1    2    0    0 -0.19554983862E+02 -0.16525343829E+02 -0.35044815253E+02  0.47787268915E+02  0.19999990293E+02 0.  0.
         12    1    1    2    0    0  0.19554983862E+02  0.16525343829E+02  0.35044815253E+02  0.43400731085E+02  0.00000000000E+00 0. -1.
         11    1    3    3    0    0 -0.10971703269E+01  0.23260619977E+01 -0.53127879975E+01  0.59025472223E+01  0.51100000000E-03 0. -1.
        -11    1    3    3    0    0 -0.74726992928E+01 -0.78298692949E+01 -0.21978374538E+02  0.24498919068E+02  0.51100000000E-03 0.  1.
        -12    1    3    3    0    0 -0.10985114243E+02 -0.11021536532E+02 -0.77536527173E+01  0.17385802625E+02  0.00000000000E+00 0.  1.
</event>
<event>
 7    1  0.4450624E-010  0.4778727E+02  0.7816164E-02  0.1312668E+00
        -11   -1    0    0    0    0  0.00000000000E+00  0.00000000000E+00  0.45593999997E+02  0.45594000000E+02  0.51100000000E-03 0. -1.
         11   -1    0    0    0    0 -0.00000000000E+00 -0.00000000000E+00 -0.45593999997E+02  0.45594000000E+02  0.51100000000E-03 0.  1.
    9900012    2    1    2    0    0 -0.43267349759E+02 -0.31983889299E+01 -0.11534151221E+01  0.47787267133E+02  0.19999982166E+02 0.  0.
         12    1    1    2    0    0  0.43267349759E+02  0.31983889299E+01  0.11534151221E+01  0.43400732867E+02  0.00000000000E+00 0. -1.
         11    1    3    3    0    0 -0.13652601010E+02  0.99242377915E+00 -0.62233817427E+01  0.15036917898E+02  0.51100000000E-03 0. -1.
        -11    1    3    3    0    0 -0.18072774347E+02  0.24478173650E+01 -0.67172470561E+00  0.18250156076E+02  0.51100000000E-03 0.  1.
         12    1    3    3    0    0 -0.11541974403E+02 -0.66386300741E+01  0.57416913262E+01  0.14500193159E+02  0.00000000000E+00 0. -1.
</event>
<event>
 7    1  0.4450624E-010  0.4778726E+02  0.7816164E-02  0.1312668E+00
        -11   -1    0    0    0    0  0.00000000000E+00  0.00000000000E+00  0.45593999997E+02  0.45594000000E+02  0.51100000000E-03 0.  1.
         11   -1    0    0    0    0 -0.00000000000E+00 -0.00000000000E+00 -0.45593999997E+02  0.45594000000E+02  0.51100000000E-03 0. -1.
    9900012    2    1    2    0    0  0.32082196571E+02  0.28343588565E+02 -0.71412698198E+01  0.47787261709E+02  0.19999957435E+02 0.  0.
         12    1    1    2    0    0 -0.32082196571E+02 -0.28343588565E+02  0.71412698198E+01  0.43400738291E+02  0.00000000000E+00 0. -1.
         11    1    3    3    0    0  0.20090197697E+02  0.16963347307E+02 -0.75905160242E+01  0.27367629221E+02  0.51100000000E-03 0. -1.
        -11    1    3    3    0    0  0.24903572624E+01  0.57130187491E+01 -0.50903315658E+01  0.80468589047E+01  0.51100000000E-03 0.  1.
        -12    1    3    3    0    0  0.95016416112E+01  0.56672225088E+01  0.55395777701E+01  0.12372773583E+02  0.00000000000E+00 0.  1.
</event>
<event>
 7    1  0.4450624E-010  0.4778727E+02  0.7816164E-02  0.1312668E+00
        -11   -1    0    0    0    0  0.00000000000E+00  0.00000000000E+00  0.45593999997E+02  0.45594000000E+02  0.51100000000E-03 0.  1.
         11   -1    0    0    0    0 -0.00000000000E+00 -0.00000000000E+00 -0.45593999997E+02  0.45594000000E+02  0.51100000000E-03 0. -1.
    9900012    2    1    2    0    0 -0.32602428796E+02  0.97192107373E+01  0.26948878388E+02  0.47787268818E+02  0.19999989850E+02 0.  0.
         12    1    1    2    0    0  0.32602428796E+02 -0.97192107373E+01 -0.26948878388E+02  0.43400731182E+02  0.00000000000E+00 0. -1.
         11    1    3    3    0    0 -0.17793732193E+01  0.56082597864E+01  0.69186728615E+01  0.90822233683E+01  0.51100000000E-03 0. -1.
        -11    1    3    3    0    0 -0.14607224530E+02  0.76947083321E+01  0.97760472038E+01  0.19187252121E+02  0.51100000000E-03 0.  1.
         12    1    3    3    0    0 -0.16215831047E+02 -0.35837573813E+01  0.10254158323E+02  0.19517793328E+02  0.00000000000E+00 0. -1.
</event>
<event>
 7    1  0.4450624E-010  0.4778727E+02  0.7816164E-02  0.1312668E+00
        -11   -1    0    0    0    0  0.00000000000E+00  0.00000000000E+00  0.45593999997E+02  0.45594000000E+02  0.51100000000E-03 0.  1.
         11   -1    0    0    0    0 -0.00000000000E+00 -0.00000000000E+00 -0.45593999997E+02  0.45594000000E+02  0.51100000000E-03 0. -1.
    9900012    2    1    2    0    0  0.70170264685E+01  0.58561087365E+01  0.42427472324E+02  0.47787273304E+02  0.20000010300E+02 0.  0.
         12    1    1    2    0    0 -0.70170264685E+01 -0.58561087365E+01 -0.42427472324E+02  0.43400726696E+02  0.00000000000E+00 0. -1.
         11    1    3    3    0    0  0.56532910721E+01  0.78254397539E+01  0.15764220703E+02  0.18485341813E+02  0.51100000000E-03 0. -1.
        -11    1    3    3    0    0  0.90624828789E+00 -0.12491099837E+01 -0.85917676894E+00  0.17662804682E+01  0.51100000000E-03 0.  1.
        -12    1    3    3    0    0  0.45748710851E+00 -0.72022103372E+00  0.27522428389E+02  0.27535651023E+02  0.00000000000E+00 0.  1.
</event>
<event>
 7    1  0.4450624E-010  0.4778727E+02  0.7816164E-02  0.1312668E+00
        -11   -1    0    0    0    0  0.00000000000E+00  0.00000000000E+00  0.45593999997E+02  0.45594000000E+02  0.51100000000E-03 0. -1.
         11   -1    0    0    0    0 -0.00000000000E+00 -0.00000000000E+00 -0.45593999997E+02  0.45594000000E+02  0.51100000000E-03 0.  1.
    9900012    2    1    2    0    0  0.21250324563E+02  0.28117620287E+02 -0.25326785575E+02  0.47787274980E+02  0.20000017946E+02 0.  0.
         12    1    1    2    0    0 -0.21250324563E+02 -0.28117620287E+02  0.25326785575E+02  0.43400725020E+02  0.00000000000E+00 0. -1.
         11    1    3    3    0    0  0.16892053614E+02  0.13659170260E+02 -0.14738987338E+02  0.26251707668E+02  0.51100000000E-03 0. -1.
        -11    1    3    3    0    0  0.64873795557E+01  0.12272031034E+02 -0.42763548883E+01  0.14525014651E+02  0.51100000000E-03 0.  1.
         12    1    3    3    0    0 -0.21291086068E+01  0.21864189927E+01 -0.63114433490E+01  0.70105526614E+01  0.00000000000E+00 0. -1.
</event>
<event>
 7    1  0.4450624E-010  0.4778727E+02  0.7816164E-02  0.1312668E+00
        -11   -1    0    0    0    0  0.00000000000E+00  0.00000000000E+00  0.45593999997E+02  0.45594000000E+02  0.51100000000E-03 0.  1.
         11   -1    0    0    0    0 -0.00000000000E+00 -0.00000000000E+00 -0.45593999997E+02  0.45594000000E+02  0.51100000000E-03 0. -1.
    9900012    2    1    2    0    0 -0.25015406869E+02 -0.23566479173E+02  0.26504215168E+02  0.47787274855E+02  0.20000017373E+02 0.  0.
         12    1    1    2    0    0  0.25015406869E+02  0.23566479173E+02 -0.26504215168E+02  0.43400725145E+02  0.00000000000E+00 0. -1.
         11    1    3    3    0    0 -0.19885076254E+02 -0.95324207012E+01  0.12756743898E+02  0.25475828096E+02  0.51100000000E-03 0. -1.
        -11    1    3    3    0    0 -0.39542560552E+01 -0.50401087711E+00  0.33580579263E+01  0.52121704895E+01  0.51100000000E-03 0.  1.
        -12    1    3    3    0    0 -0.11760745597E+01 -0.13530047595E+02  0.10389413344E+02  0.17099276269E+02  0.00000000000E+00 0.  1.
</event>
<event>
 7    1  0.4450624E-010  0.4778727E+02  0.7816164E-02  0.1312668E+00
        -11   -1    0    0    0    0  0.00000000000E+00  0.00000000000E+00  0.45593999997E+02  0.45594000000E+02  0.51100000000E-03 0.  1.
         11   -1    0    0    0    0 -0.00000000000E+00 -0.00000000000E+00 -0.45593999997E+02  0.45594000000E+02  0.51100000000E-03 0. -1.
    9900012    2    1    2    0    0 -0.35940474466E+02  0.79581794857E+01  0.22990717216E+02  0.47787269549E+02  0.19999993182E+02 0.  0.
         12    1    1    2    0    0  0.35940474466E+02 -0.79581794857E+01 -0.22990717216E+02  0.43400730451E+02  0.00000000000E+00 0. -1.
         11    1    3    3    0    0 -0.25541337961E+01  0.69990599872E+01  0.53674779377E+00  0.74698419400E+01  0.51100000000E-03 0. -1.
        -11    1    3    3    0    0 -0.90308762751E+01  0.47778204585E+00  0.48482359939E+01  0.10261110783E+02  0.51100000000E-03 0.  1.
         12    1    3    3    0    0 -0.24355464395E+02  0.48133745262E+00  0.17605733429E+02  0.30056316827E+02  0.00000000000E+00 0. -1.
</event>
<event>
 7    1  0.4450624E-010  0.4778728E+02  0.7816164E-02  0.1312668E+00
        -11   -1    0    0    0    0  0.00000000000E+00  0.00000000000E+00  0.45593999997E+02  0.45594000000E+02  0.51100000000E-03 0.  1.
         11   -1    0    0    0    0 -0.00000000000E+00 -0.00000000000E+00 -0.45593999997E+02  0.45594000000E+02  0.51100000000E-03 0. -1.
    9900012    2    1    2    0    0  0.36890083233E+02 -0.21812634644E+02 -0.68522699024E+01  0.47787275653E+02  0.20000021011E+02 0.  0.
         12    1    1    2    0    0 -0.36890083233E+02  0.21812634644E+02  0.68522699024E+01  0.43400724347E+02  0.00000000000E+00 0. -1.
         11    1    3    3    0    0  0.19695505582E+02 -0.75650584377E+01 -0.85951528908E+01  0.22782003923E+02  0.51100000000E-03 0. -1.
        -11    1    3    3    0    0  0.70723882414E+01 -0.11996845728E+02  0.37963128278E+01  0.14434506372E+02  0.51100000000E-03 0.  1.
        -12    1    3    3    0    0  0.10122189410E+02 -0.22507304783E+01 -0.20534298393E+01  0.10570765357E+02  0.00000000000E+00 0.  1.
</event>
<event>
 7    1  0.4450624E-010  0.4778727E+02  0.7816164E-02  0.1312668E+00
        -11   -1    0    0    0    0  0.00000000000E+00  0.00000000000E+00  0.45593999997E+02  0.45594000000E+02  0.51100000000E-03 0.  1.
         11   -1    0    0    0    0 -0.00000000000E+00 -0.00000000000E+00 -0.45593999997E+02  0.45594000000E+02  0.51100000000E-03 0. -1.
    9900012    2    1    2    0    0  0.19783428063E+02  0.49042277683E+01  0.38316939001E+02  0.47787270855E+02  0.19999999135E+02 0.  0.
         12    1    1    2    0    0 -0.19783428063E+02 -0.49042277683E+01 -0.38316939001E+02  0.43400729145E+02  0.00000000000E+00 0. -1.
         11    1    3    3    0    0  0.57925229640E+01  0.36898678779E+01  0.74990649299E+01  0.10168796503E+02  0.51100000000E-03 0.  1.
        -11    1    3    3    0    0  0.21990262159E+01  0.77538549249E+01  0.12497401133E+02  0.14870878179E+02  0.51100000000E-03 0. -1.
         12    1    3    3    0    0  0.11791878883E+02 -0.65394950345E+01  0.18320472939E+02  0.22747596172E+02  0.00000000000E+00 0. -1.
</event>
<event>
 7    1  0.4450624E-010  0.4778727E+02  0.7816164E-02  0.1312668E+00
        -11   -1    0    0    0    0  0.00000000000E+00  0.00000000000E+00  0.45593999997E+02  0.45594000000E+02  0.51100000000E-03 0.  1.
         11   -1    0    0    0    0 -0.00000000000E+00 -0.00000000000E+00 -0.45593999997E+02  0.45594000000E+02  0.51100000000E-03 0. -1.
    9900012    2    1    2    0    0 -0.16778892921E+02 -0.13704461679E+02  0.37606915229E+02  0.47787267395E+02  0.19999983363E+02 0.  0.
         12    1    1    2    0    0  0.16778892921E+02  0.13704461679E+02 -0.37606915229E+02  0.43400732605E+02  0.00000000000E+00 0. -1.
         11    1    3    3    0    0  0.20150577623E+01 -0.21016474595E+01  0.48956418539E+01  0.56960239862E+01  0.51100000000E-03 0. -1.
        -11    1    3    3    0    0  0.14517175437E+01 -0.44622208260E+01  0.86814848374E+01  0.98684891331E+01  0.51100000000E-03 0.  1.
        -12    1    3    3    0    0 -0.20245668227E+02 -0.71405933933E+01  0.24029788538E+02  0.32222754276E+02  0.00000000000E+00 0.  1.
</event>
<event>
 7    1  0.4450624E-010  0.4778727E+02  0.7816164E-02  0.1312668E+00
        -11   -1    0    0    0    0  0.00000000000E+00  0.00000000000E+00  0.45593999997E+02  0.45594000000E+02  0.51100000000E-03 0.  1.
         11   -1    0    0    0    0 -0.00000000000E+00 -0.00000000000E+00 -0.45593999997E+02  0.45594000000E+02  0.51100000000E-03 0. -1.
    9900012    2    1    2    0    0  0.15193773986E+02 -0.40294568446E+02  0.53963101216E+01  0.47787272159E+02  0.20000005082E+02 0.  0.
         12    1    1    2    0    0 -0.15193773986E+02  0.40294568446E+02 -0.53963101216E+01  0.43400727841E+02  0.00000000000E+00 0. -1.
         11    1    3    3    0    0  0.67716688231E+01 -0.69891505758E+01  0.12758060055E+01  0.98148563741E+01  0.51100000000E-03 0. -1.
        -11    1    3    3    0    0  0.50498440317E+01 -0.10116234838E+02 -0.55827606510E+01  0.12609771956E+02  0.51100000000E-03 0.  1.
        -12    1    3    3    0    0  0.33722611313E+01 -0.23189183032E+02  0.97032647671E+01  0.25362643829E+02  0.00000000000E+00 0.  1.
</event>
<event>
 7    1  0.4450624E-010  0.4778725E+02  0.7816164E-02  0.1312668E+00
        -11   -1    0    0    0    0  0.00000000000E+00  0.00000000000E+00  0.45593999997E+02  0.45594000000E+02  0.51100000000E-03 0.  1.
         11   -1    0    0    0    0 -0.00000000000E+00 -0.00000000000E+00 -0.45593999997E+02  0.45594000000E+02  0.51100000000E-03 0. -1.
    9900012    2    1    2    0    0  0.42382905946E+02 -0.45112143050E+01  0.81831045682E+01  0.47787251489E+02  0.19999910839E+02 0.  0.
         12    1    1    2    0    0 -0.42382905946E+02  0.45112143050E+01 -0.81831045682E+01  0.43400748511E+02  0.00000000000E+00 0. -1.
         11    1    3    3    0    0  0.30121370030E+01  0.27476064812E+01  0.36404211016E+01  0.54658006512E+01  0.51100000000E-03 0. -1.
        -11    1    3    3    0    0  0.83647480584E+01 -0.71670761199E+01  0.21499032645E+01  0.11223104495E+02  0.51100000000E-03 0.  1.
        -12    1    3    3    0    0  0.31006020885E+02 -0.91744666320E-01  0.23927802021E+01  0.31098346343E+02  0.00000000000E+00 0.  1.
</event>
<event>
 7    1  0.4450624E-010  0.4778727E+02  0.7816164E-02  0.1312668E+00
        -11   -1    0    0    0    0  0.00000000000E+00  0.00000000000E+00  0.45593999997E+02  0.45594000000E+02  0.51100000000E-03 0. -1.
         11   -1    0    0    0    0 -0.00000000000E+00 -0.00000000000E+00 -0.45593999997E+02  0.45594000000E+02  0.51100000000E-03 0.  1.
    9900012    2    1    2    0    0 -0.38919906562E+01 -0.31760210720E+02 -0.29321741204E+02  0.47787273238E+02  0.20000009999E+02 0.  0.
         12    1    1    2    0    0  0.38919906562E+01  0.31760210720E+02  0.29321741204E+02  0.43400726762E+02  0.00000000000E+00 0. -1.
         11    1    3    3    0    0  0.39615759285E+01 -0.16769418608E+02 -0.98743400013E+01  0.19859760195E+02  0.51100000000E-03 0. -1.
        -11    1    3    3    0    0 -0.15484873251E+01 -0.12860830495E+02 -0.99671200849E+01  0.16344487054E+02  0.51100000000E-03 0.  1.
        -12    1    3    3    0    0 -0.63050792596E+01 -0.21299616169E+01 -0.94802811179E+01  0.11583025988E+02  0.00000000000E+00 0.  1.
</event>
<event>
 7    1  0.4450624E-010  0.4778727E+02  0.7816164E-02  0.1312668E+00
        -11   -1    0    0    0    0  0.00000000000E+00  0.00000000000E+00  0.45593999997E+02  0.45594000000E+02  0.51100000000E-03 0. -1.
         11   -1    0    0    0    0 -0.00000000000E+00 -0.00000000000E+00 -0.45593999997E+02  0.45594000000E+02  0.51100000000E-03 0.  1.
    9900012    2    1    2    0    0 -0.37709782273E+02 -0.54805927978E+01  0.20773986312E+02  0.47787273235E+02  0.20000009986E+02 0.  0.
         12    1    1    2    0    0  0.37709782273E+02  0.54805927978E+01 -0.20773986312E+02  0.43400726765E+02  0.00000000000E+00 0. -1.
         11    1    3    3    0    0 -0.28421645335E+02 -0.11098192582E+02  0.11005950191E+02  0.32435948298E+02  0.51100000000E-03 0. -1.
        -11    1    3    3    0    0 -0.26151771740E+01  0.67891389072E+00  0.23778272504E+00  0.27123083541E+01  0.51100000000E-03 0.  1.
         12    1    3    3    0    0 -0.66729597638E+01  0.49386858939E+01  0.95302533963E+01  0.12639016582E+02  0.00000000000E+00 0. -1.
</event>
<event>
 7    1  0.4450624E-010  0.4778728E+02  0.7816164E-02  0.1312668E+00
        -11   -1    0    0    0    0  0.00000000000E+00  0.00000000000E+00  0.45593999997E+02  0.45594000000E+02  0.51100000000E-03 0.  1.
         11   -1    0    0    0    0 -0.00000000000E+00 -0.00000000000E+00 -0.45593999997E+02  0.45594000000E+02  0.51100000000E-03 0. -1.
    9900012    2    1    2    0    0  0.40897532000E+01 -0.30624534651E+02  0.30480059952E+02  0.47787282742E+02  0.20000053334E+02 0.  0.
         12    1    1    2    0    0 -0.40897532000E+01  0.30624534651E+02 -0.30480059952E+02  0.43400717258E+02  0.00000000000E+00 0. -1.
         11    1    3    3    0    0 -0.88639685372E+00 -0.74112433278E+01  0.12342232002E+02  0.14423692943E+02  0.51100000000E-03 0. -1.
        -11    1    3    3    0    0  0.51083276293E-01 -0.13667758747E+02  0.17642301198E+01  0.13781246200E+02  0.51100000000E-03 0.  1.
        -12    1    3    3    0    0  0.49250667774E+01 -0.95455325768E+01  0.16373597830E+02  0.19582343599E+02  0.00000000000E+00 0.  1.
</event>
<event>
 7    1  0.4450624E-010  0.4778727E+02  0.7816164E-02  0.1312668E+00
        -11   -1    0    0    0    0  0.00000000000E+00  0.00000000000E+00  0.45593999997E+02  0.45594000000E+02  0.51100000000E-03 0.  1.
         11   -1    0    0    0    0 -0.00000000000E+00 -0.00000000000E+00 -0.45593999997E+02  0.45594000000E+02  0.51100000000E-03 0. -1.
    9900012    2    1    2    0    0 -0.19739321977E+02 -0.32296865169E+02  0.21234292717E+02  0.47787268219E+02  0.19999987120E+02 0.  0.
         12    1    1    2    0    0  0.19739321977E+02  0.32296865169E+02 -0.21234292717E+02  0.43400731781E+02  0.00000000000E+00 0. -1.
         11    1    3    3    0    0 -0.12059412039E+02 -0.17216324843E+02  0.90438628807E+01  0.22882803934E+02  0.51100000000E-03 0. -1.
        -11    1    3    3    0    0 -0.47044382593E+01 -0.15848124563E+02  0.13709490416E+02  0.21476613309E+02  0.51100000000E-03 0.  1.
         12    1    3    3    0    0 -0.29754716787E+01  0.76758423618E+00 -0.15190605797E+01  0.34278509763E+01  0.00000000000E+00 0. -1.
</event>
<event>
 7    1  0.4450624E-010  0.4778727E+02  0.7816164E-02  0.1312668E+00
        -11   -1    0    0    0    0  0.00000000000E+00  0.00000000000E+00  0.45593999997E+02  0.45594000000E+02  0.51100000000E-03 0. -1.
         11   -1    0    0    0    0 -0.00000000000E+00 -0.00000000000E+00 -0.45593999997E+02  0.45594000000E+02  0.51100000000E-03 0.  1.
    9900012    2    1    2    0    0  0.82191381069E+01 -0.26065051006E+02 -0.33714713738E+02  0.47787273766E+02  0.20000012411E+02 0.  0.
         12    1    1    2    0    0 -0.82191381069E+01  0.26065051006E+02  0.33714713738E+02  0.43400726234E+02  0.00000000000E+00 0. -1.
         11    1    3    3    0    0  0.70917150759E+01 -0.18955457534E+02 -0.17076565317E+02  0.26480386635E+02  0.51100000000E-03 0. -1.
        -11    1    3    3    0    0  0.30731242834E+01 -0.74521482694E+01 -0.17410197792E+02  0.19185765404E+02  0.51100000000E-03 0.  1.
         12    1    3    3    0    0 -0.19457012523E+01  0.34255479741E+00  0.77204937164E+00  0.21211217280E+01  0.00000000000E+00 0. -1.
</event>
<event>
 7    1  0.4450624E-010  0.4778727E+02  0.7816164E-02  0.1312668E+00
        -11   -1    0    0    0    0  0.00000000000E+00  0.00000000000E+00  0.45593999997E+02  0.45594000000E+02  0.51100000000E-03 0.  1.
         11   -1    0    0    0    0 -0.00000000000E+00 -0.00000000000E+00 -0.45593999997E+02  0.45594000000E+02  0.51100000000E-03 0. -1.
    9900012    2    1    2    0    0 -0.20948170281E+02  0.33143086215E+02  0.18610028449E+02  0.47787272347E+02  0.20000005938E+02 0.  0.
         12    1    1    2    0    0  0.20948170281E+02 -0.33143086215E+02 -0.18610028449E+02  0.43400727653E+02  0.00000000000E+00 0. -1.
         11    1    3    3    0    0 -0.11211385384E+02  0.59639285506E+01  0.16143504069E+01  0.12801161412E+02  0.51100000000E-03 0. -1.
        -11    1    3    3    0    0 -0.79381657323E+01  0.78752814371E+01  0.66756910098E+01  0.13023032812E+02  0.51100000000E-03 0.  1.
        -12    1    3    3    0    0 -0.17986191641E+01  0.19303876227E+02  0.10319987032E+02  0.21963078123E+02  0.00000000000E+00 0.  1.
</event>
<event>
 7    1  0.4450624E-010  0.4778727E+02  0.7816164E-02  0.1312668E+00
        -11   -1    0    0    0    0  0.00000000000E+00  0.00000000000E+00  0.45593999997E+02  0.45594000000E+02  0.51100000000E-03 0.  1.
         11   -1    0    0    0    0 -0.00000000000E+00 -0.00000000000E+00 -0.45593999997E+02  0.45594000000E+02  0.51100000000E-03 0. -1.
    9900012    2    1    2    0    0  0.31679036037E+02 -0.65294796586E+00  0.29658650149E+02  0.47787271965E+02  0.20000004198E+02 0.  0.
         12    1    1    2    0    0 -0.31679036037E+02  0.65294796586E+00 -0.29658650149E+02  0.43400728035E+02  0.00000000000E+00 0. -1.
         11    1    3    3    0    0  0.81219087585E+01 -0.55324859675E+01  0.36941936245E+01  0.10498612749E+02  0.51100000000E-03 0. -1.
        -11    1    3    3    0    0  0.20267993399E+02  0.29141889604E+00  0.15951455458E+02  0.25793902630E+02  0.51100000000E-03 0.  1.
         12    1    3    3    0    0  0.32891338791E+01  0.45881191056E+01  0.10013001067E+02  0.11494756586E+02  0.00000000000E+00 0. -1.
</event>
<event>
 7    1  0.4450624E-010  0.4778727E+02  0.7816164E-02  0.1312668E+00
        -11   -1    0    0    0    0  0.00000000000E+00  0.00000000000E+00  0.45593999997E+02  0.45594000000E+02  0.51100000000E-03 0. -1.
         11   -1    0    0    0    0 -0.00000000000E+00 -0.00000000000E+00 -0.45593999997E+02  0.45594000000E+02  0.51100000000E-03 0.  1.
    9900012    2    1    2    0    0  0.26869460504E+02 -0.31596308651E+02  0.12780018572E+02  0.47787268407E+02  0.19999987974E+02 0.  0.
         12    1    1    2    0    0 -0.26869460504E+02  0.31596308651E+02 -0.12780018572E+02  0.43400731593E+02  0.00000000000E+00 0. -1.
         11    1    3    3    0    0 -0.90496324454E+00 -0.66085896365E+00  0.25174458702E+00  0.11485071362E+01  0.51100000000E-03 0. -1.
        -11    1    3    3    0    0  0.19741622224E+02 -0.30466511686E+02  0.72634578093E+01  0.37022936160E+02  0.51100000000E-03 0.  1.
        -12    1    3    3    0    0  0.80328015250E+01 -0.46893800121E+00  0.52648161754E+01  0.96158251102E+01  0.00000000000E+00 0.  1.
</event>
<event>
 7    1  0.4450624E-010  0.4778726E+02  0.7816164E-02  0.1312668E+00
        -11   -1    0    0    0    0  0.00000000000E+00  0.00000000000E+00  0.45593999997E+02  0.45594000000E+02  0.51100000000E-03 0. -1.
         11   -1    0    0    0    0 -0.00000000000E+00 -0.00000000000E+00 -0.45593999997E+02  0.45594000000E+02  0.51100000000E-03 0.  1.
    9900012    2    1    2    0    0 -0.62396305078E+01  0.15973484845E+02 -0.39869019710E+02  0.47787263375E+02  0.19999965033E+02 0.  0.
         12    1    1    2    0    0  0.62396305078E+01 -0.15973484845E+02  0.39869019710E+02  0.43400736625E+02  0.00000000000E+00 0. -1.
         11    1    3    3    0    0 -0.43887483876E+01  0.78043768657E+01 -0.17948745691E+02  0.20058087716E+02  0.51100000000E-03 0. -1.
        -11    1    3    3    0    0 -0.77826702559E+01  0.53297657071E+01 -0.17258839734E+02  0.19668347872E+02  0.51100000000E-03 0.  1.
         12    1    3    3    0    0  0.59317881358E+01  0.28393422722E+01 -0.46614342848E+01  0.80608277874E+01  0.00000000000E+00 0. -1.
</event>
<event>
 7    1  0.4450624E-010  0.4778727E+02  0.7816164E-02  0.1312668E+00
        -11   -1    0    0    0    0  0.00000000000E+00  0.00000000000E+00  0.45593999997E+02  0.45594000000E+02  0.51100000000E-03 0.  1.
         11   -1    0    0    0    0 -0.00000000000E+00 -0.00000000000E+00 -0.45593999997E+02  0.45594000000E+02  0.51100000000E-03 0. -1.
    9900012    2    1    2    0    0 -0.27581955663E+02 -0.10294043503E+02  0.31888738473E+02  0.47787271306E+02  0.20000001191E+02 0.  0.
         12    1    1    2    0    0  0.27581955663E+02  0.10294043503E+02 -0.31888738473E+02  0.43400728694E+02  0.00000000000E+00 0. -1.
         11    1    3    3    0    0 -0.44264503112E+01  0.59357938807E+00  0.13692280055E+02  0.14402233585E+02  0.51100000000E-03 0. -1.
        -11    1    3    3    0    0 -0.13834333189E+02 -0.86052863962E+00  0.12096613032E+02  0.18397209881E+02  0.51100000000E-03 0.  1.
        -12    1    3    3    0    0 -0.93211721630E+01 -0.10027094252E+02  0.60998453853E+01  0.14987827840E+02  0.00000000000E+00 0.  1.
</event>
<event>
 7    1  0.4450624E-010  0.4778727E+02  0.7816164E-02  0.1312668E+00
        -11   -1    0    0    0    0  0.00000000000E+00  0.00000000000E+00  0.45593999997E+02  0.45594000000E+02  0.51100000000E-03 0. -1.
         11   -1    0    0    0    0 -0.00000000000E+00 -0.00000000000E+00 -0.45593999997E+02  0.45594000000E+02  0.51100000000E-03 0.  1.
    9900012    2    1    2    0    0 -0.22297016602E+02  0.36893044238E+02  0.50368472873E+01  0.47787268519E+02  0.19999988485E+02 0.  0.
         12    1    1    2    0    0  0.22297016602E+02 -0.36893044238E+02 -0.50368472873E+01  0.43400731481E+02  0.00000000000E+00 0. -1.
         11    1    3    3    0    0 -0.22250867500E+02  0.29113293337E+02  0.48703537464E+01  0.36964919847E+02  0.51100000000E-03 0. -1.
        -11    1    3    3    0    0 -0.17790678938E+01  0.17138165713E+01  0.30172833801E+01  0.38995190816E+01  0.51100000000E-03 0.  1.
        -12    1    3    3    0    0  0.17329187913E+01  0.60659343292E+01 -0.28507898391E+01  0.69228295899E+01  0.00000000000E+00 0.  1.
</event>
<event>
 7    1  0.4450624E-010  0.4778728E+02  0.7816164E-02  0.1312668E+00
        -11   -1    0    0    0    0  0.00000000000E+00  0.00000000000E+00  0.45593999997E+02  0.45594000000E+02  0.51100000000E-03 0. -1.
         11   -1    0    0    0    0 -0.00000000000E+00 -0.00000000000E+00 -0.45593999997E+02  0.45594000000E+02  0.51100000000E-03 0.  1.
    9900012    2    1    2    0    0 -0.31822583627E+02  0.15579038075E+02 -0.25064700409E+02  0.47787280390E+02  0.20000042612E+02 0.  0.
         12    1    1    2    0    0  0.31822583627E+02 -0.15579038075E+02  0.25064700409E+02  0.43400719610E+02  0.00000000000E+00 0. -1.
         11    1    3    3    0    0 -0.15690133493E+02  0.71181277387E+01 -0.12352819093E+02  0.21200004041E+02  0.51100000000E-03 0.  1.
        -11    1    3    3    0    0 -0.16996213316E+02  0.71295964368E+01 -0.15026953768E+02  0.23780491001E+02  0.51100000000E-03 0. -1.
         12    1    3    3    0    0  0.86376318233E+00  0.13313138996E+01  0.23150724519E+01  0.28067853484E+01  0.00000000000E+00 0. -1.
</event>
<event>
 7    1  0.4450624E-010  0.4778727E+02  0.7816164E-02  0.1312668E+00
        -11   -1    0    0    0    0  0.00000000000E+00  0.00000000000E+00  0.45593999997E+02  0.45594000000E+02  0.51100000000E-03 0. -1.
         11   -1    0    0    0    0 -0.00000000000E+00 -0.00000000000E+00 -0.45593999997E+02  0.45594000000E+02  0.51100000000E-03 0.  1.
    9900012    2    1    2    0    0  0.31645308678E+02 -0.13236655786E+02 -0.26589257653E+02  0.47787271431E+02  0.20000001765E+02 0.  0.
         12    1    1    2    0    0 -0.31645308678E+02  0.13236655786E+02  0.26589257653E+02  0.43400728569E+02  0.00000000000E+00 0. -1.
         11    1    3    3    0    0  0.15832841213E+01 -0.24223996203E+01 -0.41522886789E+01  0.50612557792E+01  0.51100000000E-03 0. -1.
        -11    1    3    3    0    0  0.25425022600E+02 -0.15053422705E+02 -0.21086447912E+02  0.36299801586E+02  0.51100000000E-03 0.  1.
         12    1    3    3    0    0  0.46370019565E+01  0.42391665388E+01 -0.13505210623E+01  0.64262140665E+01  0.00000000000E+00 0. -1.
</event>
<event>
 7    1  0.4450624E-010  0.4778727E+02  0.7816164E-02  0.1312668E+00
        -11   -1    0    0    0    0  0.00000000000E+00  0.00000000000E+00  0.45593999997E+02  0.45594000000E+02  0.51100000000E-03 0.  1.
         11   -1    0    0    0    0 -0.00000000000E+00 -0.00000000000E+00 -0.45593999997E+02  0.45594000000E+02  0.51100000000E-03 0. -1.
    9900012    2    1    2    0    0  0.66822038879E+01  0.21889193561E+02  0.36875935651E+02  0.47787271047E+02  0.20000000012E+02 0.  0.
         12    1    1    2    0    0 -0.66822038879E+01 -0.21889193561E+02 -0.36875935651E+02  0.43400728953E+02  0.00000000000E+00 0. -1.
         11    1    3    3    0    0  0.78033663074E+01  0.60338383653E+01  0.16923897535E+02  0.19588722245E+02  0.51100000000E-03 0. -1.
        -11    1    3    3    0    0 -0.19574502203E+01 -0.66167708493E+00  0.66834036051E+01  0.69955208484E+01  0.51100000000E-03 0.  1.
         12    1    3    3    0    0  0.83628780075E+00  0.16517032280E+02  0.13268634510E+02  0.21203027954E+02  0.00000000000E+00 0. -1.
</event>
<event>
 7    1  0.4450624E-010  0.4778727E+02  0.7816164E-02  0.1312668E+00
        -11   -1    0    0    0    0  0.00000000000E+00  0.00000000000E+00  0.45593999997E+02  0.45594000000E+02  0.51100000000E-03 0.  1.
         11   -1    0    0    0    0 -0.00000000000E+00 -0.00000000000E+00 -0.45593999997E+02  0.45594000000E+02  0.51100000000E-03 0. -1.
    9900012    2    1    2    0    0  0.28789110396E+02  0.19626077466E+02  0.25877170619E+02  0.47787265521E+02  0.19999974816E+02 0.  0.
         12    1    1    2    0    0 -0.28789110396E+02 -0.19626077466E+02 -0.25877170619E+02  0.43400734479E+02  0.00000000000E+00 0. -1.
         11    1    3    3    0    0  0.28827666024E+01  0.91808798421E+01  0.60318813318E+01  0.11357045858E+02  0.51100000000E-03 0. -1.
        -11    1    3    3    0    0  0.97375183151E+01  0.38172710831E+01  0.15018052445E+02  0.18301167202E+02  0.51100000000E-03 0.  1.
         12    1    3    3    0    0  0.16168825478E+02  0.66279265409E+01  0.48272368417E+01  0.18129052460E+02  0.00000000000E+00 0. -1.
</event>
<event>
 7    1  0.4450624E-010  0.4778727E+02  0.7816164E-02  0.1312668E+00
        -11   -1    0    0    0    0  0.00000000000E+00  0.00000000000E+00  0.45593999997E+02  0.45594000000E+02  0.51100000000E-03 0.  1.
         11   -1    0    0    0    0 -0.00000000000E+00 -0.00000000000E+00 -0.45593999997E+02  0.45594000000E+02  0.51100000000E-03 0. -1.
    9900012    2    1    2    0    0  0.27838182449E+02 -0.14730395709E+02  0.29860919269E+02  0.47787268907E+02  0.19999990255E+02 0.  0.
         12    1    1    2    0    0 -0.27838182449E+02  0.14730395709E+02 -0.29860919269E+02  0.43400731093E+02  0.00000000000E+00 0. -1.
         11    1    3    3    0    0  0.14919750110E+01 -0.59104793453E-01  0.44724940617E+01  0.47151549500E+01  0.51100000000E-03 0. -1.
        -11    1    3    3    0    0  0.26476199418E+02 -0.11369605806E+02  0.15653277998E+02  0.32791495607E+02  0.51100000000E-03 0.  1.
         12    1    3    3    0    0 -0.12999197938E+00 -0.33016851092E+01  0.97351472091E+01  0.10280618350E+02  0.00000000000E+00 0. -1.
</event>
<event>
 7    1  0.4450624E-010  0.4778727E+02  0.7816164E-02  0.1312668E+00
        -11   -1    0    0    0    0  0.00000000000E+00  0.00000000000E+00  0.45593999997E+02  0.45594000000E+02  0.51100000000E-03 0.  1.
         11   -1    0    0    0    0 -0.00000000000E+00 -0.00000000000E+00 -0.45593999997E+02  0.45594000000E+02  0.51100000000E-03 0. -1.
    9900012    2    1    2    0    0 -0.36719232209E+02 -0.26386041646E+01  0.22986057295E+02  0.47787273325E+02  0.20000010396E+02 0.  0.
         12    1    1    2    0    0  0.36719232209E+02  0.26386041646E+01 -0.22986057295E+02  0.43400726675E+02  0.00000000000E+00 0. -1.
         11    1    3    3    0    0 -0.62334205182E+01 -0.23837116520E+01  0.13999834802E+02  0.15509125937E+02  0.51100000000E-03 0. -1.
        -11    1    3    3    0    0 -0.29718148873E+01  0.16911488120E+01  0.98756641948E+00  0.35590666926E+01  0.51100000000E-03 0.  1.
        -12    1    3    3    0    0 -0.27513996804E+02 -0.19460413247E+01  0.79986560740E+01  0.28719080695E+02  0.00000000000E+00 0.  1.
</event>
<event>
 7    1  0.4450624E-010  0.4778727E+02  0.7816164E-02  0.1312668E+00
        -11   -1    0    0    0    0  0.00000000000E+00  0.00000000000E+00  0.45593999997E+02  0.45594000000E+02  0.51100000000E-03 0.  1.
         11   -1    0    0    0    0 -0.00000000000E+00 -0.00000000000E+00 -0.45593999997E+02  0.45594000000E+02  0.51100000000E-03 0. -1.
    9900012    2    1    2    0    0 -0.32013698972E+02 -0.15393137322E+02  0.24935871335E+02  0.47787271000E+02  0.19999999798E+02 0.  0.
         12    1    1    2    0    0  0.32013698972E+02  0.15393137322E+02 -0.24935871335E+02  0.43400729000E+02  0.00000000000E+00 0. -1.
         11    1    3    3    0    0 -0.11747055595E+02 -0.16011082254E+01  0.23373959341E+01  0.12083885249E+02  0.51100000000E-03 0. -1.
        -11    1    3    3    0    0 -0.20429924000E+02 -0.12203857650E+02  0.15436222614E+02  0.28365346905E+02  0.51100000000E-03 0.  1.
        -12    1    3    3    0    0  0.16328062406E+00 -0.15881714475E+01  0.71622527874E+01  0.73380388456E+01  0.00000000000E+00 0.  1.
</event>
<event>
 7    1  0.4450624E-010  0.4778727E+02  0.7816164E-02  0.1312668E+00
        -11   -1    0    0    0    0  0.00000000000E+00  0.00000000000E+00  0.45593999997E+02  0.45594000000E+02  0.51100000000E-03 0.  1.
         11   -1    0    0    0    0 -0.00000000000E+00 -0.00000000000E+00 -0.45593999997E+02  0.45594000000E+02  0.51100000000E-03 0. -1.
    9900012    2    1    2    0    0 -0.20405913670E+02 -0.25148816779E+02  0.28892201989E+02  0.47787266897E+02  0.19999981091E+02 0.  0.
         12    1    1    2    0    0  0.20405913670E+02  0.25148816779E+02 -0.28892201989E+02  0.43400733103E+02  0.00000000000E+00 0. -1.
         11    1    3    3    0    0 -0.67301533263E+01 -0.97531213471E+01  0.15538880451E+02  0.19541625975E+02  0.51100000000E-03 0.  1.
        -11    1    3    3    0    0 -0.22956290814E+01  0.22107420472E+01  0.44398338356E+01  0.54652921265E+01  0.51100000000E-03 0. -1.
        -12    1    3    3    0    0 -0.11380131262E+02 -0.17606437479E+02  0.89134877022E+01  0.22780348796E+02  0.00000000000E+00 0.  1.
</event>
<event>
 7    1  0.4450624E-010  0.4778727E+02  0.7816164E-02  0.1312668E+00
        -11   -1    0    0    0    0  0.00000000000E+00  0.00000000000E+00  0.45593999997E+02  0.45594000000E+02  0.51100000000E-03 0.  1.
         11   -1    0    0    0    0 -0.00000000000E+00 -0.00000000000E+00 -0.45593999997E+02  0.45594000000E+02  0.51100000000E-03 0. -1.
    9900012    2    1    2    0    0 -0.27649192350E+02  0.20929060591E+02  0.26098273389E+02  0.47787270873E+02  0.19999999220E+02 0.  0.
         12    1    1    2    0    0  0.27649192350E+02 -0.20929060591E+02 -0.26098273389E+02  0.43400729127E+02  0.00000000000E+00 0. -1.
         11    1    3    3    0    0 -0.65540258127E+01  0.22497233995E+01  0.77548665632E+01  0.10399733910E+02  0.51100000000E-03 0. -1.
        -11    1    3    3    0    0 -0.21485682987E+02  0.12023513678E+02  0.96801217936E+01  0.26455702840E+02  0.51100000000E-03 0.  1.
         12    1    3    3    0    0  0.39051644959E+00  0.66558235132E+01  0.86632850326E+01  0.10931834123E+02  0.00000000000E+00 0. -1.
</event>
<event>
 7    1  0.4450624E-010  0.4778727E+02  0.7816164E-02  0.1312668E+00
        -11   -1    0    0    0    0  0.00000000000E+00  0.00000000000E+00  0.45593999997E+02  0.45594000000E+02  0.51100000000E-03 0.  1.
         11   -1    0    0    0    0 -0.00000000000E+00 -0.00000000000E+00 -0.45593999997E+02  0.45594000000E+02  0.51100000000E-03 0. -1.
    9900012    2    1    2    0    0  0.35103681605E+02  0.24185731993E+02  0.81489679506E+01  0.47787265296E+02  0.19999973789E+02 0.  0.
         12    1    1    2    0    0 -0.35103681605E+02 -0.24185731993E+02 -0.81489679506E+01  0.43400734704E+02  0.00000000000E+00 0. -1.
         11    1    3    3    0    0  0.29582651250E+00  0.17388221678E+01 -0.11514436929E+01  0.21063804727E+01  0.51100000000E-03 0. -1.
        -11    1    3    3    0    0 -0.29942159403E+00  0.34373244737E+01  0.41959631122E+01  0.54323990583E+01  0.51100000000E-03 0.  1.
         12    1    3    3    0    0  0.35107276686E+02  0.19009585351E+02  0.51044485314E+01  0.40248485765E+02  0.00000000000E+00 0. -1.
</event>
<event>
 7    1  0.4450624E-010  0.4778728E+02  0.7816164E-02  0.1312668E+00
        -11   -1    0    0    0    0  0.00000000000E+00  0.00000000000E+00  0.45593999997E+02  0.45594000000E+02  0.51100000000E-03 0. -1.
         11   -1    0    0    0    0 -0.00000000000E+00 -0.00000000000E+00 -0.45593999997E+02  0.45594000000E+02  0.51100000000E-03 0.  1.
    9900012    2    1    2    0    0 -0.21146783683E+01 -0.19122933921E+02 -0.38903261074E+02  0.47787283548E+02  0.20000057007E+02 0.  0.
         12    1    1    2    0    0  0.21146783683E+01  0.19122933921E+02  0.38903261074E+02  0.43400716452E+02  0.00000000000E+00 0. -1.
         11    1    3    3    0    0 -0.34537768934E+01 -0.15357805535E+02 -0.30970599287E+02  0.34741456304E+02  0.51100000000E-03 0.  1.
        -11    1    3    3    0    0 -0.16042958890E+01 -0.50102463206E+01 -0.92192100191E+00  0.53409991657E+01  0.51100000000E-03 0. -1.
         12    1    3    3    0    0  0.29433944141E+01  0.12451179343E+01 -0.70107407857E+01  0.77048280780E+01  0.00000000000E+00 0. -1.
</event>
<event>
 7    1  0.4450624E-010  0.4778727E+02  0.7816164E-02  0.1312668E+00
        -11   -1    0    0    0    0  0.00000000000E+00  0.00000000000E+00  0.45593999997E+02  0.45594000000E+02  0.51100000000E-03 0.  1.
         11   -1    0    0    0    0 -0.00000000000E+00 -0.00000000000E+00 -0.45593999997E+02  0.45594000000E+02  0.51100000000E-03 0. -1.
    9900012    2    1    2    0    0 -0.90239407180E+01 -0.22579238096E+02  0.35949541031E+02  0.47787274206E+02  0.20000014416E+02 0.  0.
         12    1    1    2    0    0  0.90239407180E+01  0.22579238096E+02 -0.35949541031E+02  0.43400725794E+02  0.00000000000E+00 0. -1.
         11    1    3    3    0    0 -0.83317353587E+01 -0.36309509603E+01  0.58453838139E+01  0.10806022911E+02  0.51100000000E-03 0. -1.
        -11    1    3    3    0    0 -0.51996793015E+01 -0.12419713752E+02  0.20467534714E+02  0.24499100638E+02  0.51100000000E-03 0.  1.
        -12    1    3    3    0    0  0.45074739422E+01 -0.65285733838E+01  0.96366225026E+01  0.12482150657E+02  0.00000000000E+00 0.  1.
</event>
<event>
 7    1  0.4450624E-010  0.4778728E+02  0.7816164E-02  0.1312668E+00
        -11   -1    0    0    0    0  0.00000000000E+00  0.00000000000E+00  0.45593999997E+02  0.45594000000E+02  0.51100000000E-03 0.  1.
         11   -1    0    0    0    0 -0.00000000000E+00 -0.00000000000E+00 -0.45593999997E+02  0.45594000000E+02  0.51100000000E-03 0. -1.
    9900012    2    1    2    0    0  0.34338241352E+01  0.51417505312E+01  0.42958042137E+02  0.47787284211E+02  0.20000060032E+02 0.  0.
         12    1    1    2    0    0 -0.34338241352E+01 -0.51417505312E+01 -0.42958042137E+02  0.43400715789E+02  0.00000000000E+00 0. -1.
         11    1    3    3    0    0 -0.48427672581E+01  0.51267048976E+01  0.11366823967E+02  0.13376852589E+02  0.51100000000E-03 0. -1.
        -11    1    3    3    0    0  0.61158915972E+00 -0.43393489934E+01  0.67152669968E+01  0.80186533836E+01  0.51100000000E-03 0.  1.
        -12    1    3    3    0    0  0.76650022335E+01  0.43543946269E+01  0.24875951174E+02  0.26391778239E+02  0.00000000000E+00 0.  1.
</event>
<event>
 7    1  0.4450624E-010  0.4778727E+02  0.7816164E-02  0.1312668E+00
        -11   -1    0    0    0    0  0.00000000000E+00  0.00000000000E+00  0.45593999997E+02  0.45594000000E+02  0.51100000000E-03 0.  1.
         11   -1    0    0    0    0 -0.00000000000E+00 -0.00000000000E+00 -0.45593999997E+02  0.45594000000E+02  0.51100000000E-03 0. -1.
    9900012    2    1    2    0    0  0.56016404455E+01 -0.52261619865E+01  0.42719221105E+02  0.47787274239E+02  0.20000014566E+02 0.  0.
         12    1    1    2    0    0 -0.56016404455E+01  0.52261619865E+01 -0.42719221105E+02  0.43400725761E+02  0.00000000000E+00 0. -1.
         11    1    3    3    0    0  0.23019244714E+01 -0.69278648837E+01  0.11625020706E+02  0.13727172863E+02  0.51100000000E-03 0. -1.
        -11    1    3    3    0    0  0.75207435417E+01 -0.10325682966E+01  0.25165776781E+02  0.26285815604E+02  0.51100000000E-03 0.  1.
         12    1    3    3    0    0 -0.42210275677E+01  0.27342711939E+01  0.59284236173E+01  0.77742857727E+01  0.00000000000E+00 0. -1.
</event>
<event>
 7    1  0.4450624E-010  0.4778727E+02  0.7816164E-02  0.1312668E+00
        -11   -1    0    0    0    0  0.00000000000E+00  0.00000000000E+00  0.45593999997E+02  0.45594000000E+02  0.51100000000E-03 0. -1.
         11   -1    0    0    0    0 -0.00000000000E+00 -0.00000000000E+00 -0.45593999997E+02  0.45594000000E+02  0.51100000000E-03 0.  1.
    9900012    2    1    2    0    0  0.31368321865E+02  0.13636024390E+02 -0.26715356955E+02  0.47787273336E+02  0.20000010446E+02 0.  0.
         12    1    1    2    0    0 -0.31368321865E+02 -0.13636024390E+02  0.26715356955E+02  0.43400726664E+02  0.00000000000E+00 0. -1.
         11    1    3    3    0    0  0.40100113489E+01  0.72874141576E+01 -0.11968471204E+02  0.14575009411E+02  0.51100000000E-03 0. -1.
        -11    1    3    3    0    0 -0.83385147205E+00 -0.67110431935E-01 -0.55622733834E+00  0.10045900659E+01  0.51100000000E-03 0.  1.
        -12    1    3    3    0    0  0.28192161988E+02  0.64157206643E+01 -0.14190658413E+02  0.32207673859E+02  0.00000000000E+00 0.  1.
</event>
<event>
 7    1  0.4450624E-010  0.4778727E+02  0.7816164E-02  0.1312668E+00
        -11   -1    0    0    0    0  0.00000000000E+00  0.00000000000E+00  0.45593999997E+02  0.45594000000E+02  0.51100000000E-03 0.  1.
         11   -1    0    0    0    0 -0.00000000000E+00 -0.00000000000E+00 -0.45593999997E+02  0.45594000000E+02  0.51100000000E-03 0. -1.
    9900012    2    1    2    0    0 -0.36607553880E+02  0.15363666235E+02  0.17534768411E+02  0.47787270231E+02  0.19999996291E+02 0.  0.
         12    1    1    2    0    0  0.36607553880E+02 -0.15363666235E+02 -0.17534768411E+02  0.43400729769E+02  0.00000000000E+00 0. -1.
         11    1    3    3    0    0  0.37716576990E+00 -0.34106585257E+00 -0.73166801488E+00  0.89102091945E+00  0.51100000000E-03 0. -1.
        -11    1    3    3    0    0 -0.44965379922E+01 -0.23278422524E+01  0.58099806468E+01  0.77067229641E+01  0.51100000000E-03 0.  1.
         12    1    3    3    0    0 -0.32488181658E+02  0.18032574340E+02  0.12456455779E+02  0.39189526347E+02  0.00000000000E+00 0. -1.
</event>
<event>
 7    1  0.4450624E-010  0.4778727E+02  0.7816164E-02  0.1312668E+00
        -11   -1    0    0    0    0  0.00000000000E+00  0.00000000000E+00  0.45593999997E+02  0.45594000000E+02  0.51100000000E-03 0.  1.
         11   -1    0    0    0    0 -0.00000000000E+00 -0.00000000000E+00 -0.45593999997E+02  0.45594000000E+02  0.51100000000E-03 0. -1.
    9900012    2    1    2    0    0  0.11278120046E+02  0.34260708893E+02  0.24137755798E+02  0.47787269354E+02  0.19999992295E+02 0.  0.
         12    1    1    2    0    0 -0.11278120046E+02 -0.34260708893E+02 -0.24137755798E+02  0.43400730646E+02  0.00000000000E+00 0. -1.
         11    1    3    3    0    0  0.25476457765E+01  0.46669699262E+00  0.13433319096E+01  0.29176781806E+01  0.51100000000E-03 0. -1.
        -11    1    3    3    0    0  0.22561239415E+00  0.14553671916E+01 -0.25275403224E+01  0.29253127965E+01  0.51100000000E-03 0.  1.
        -12    1    3    3    0    0  0.85048618753E+01  0.32338644709E+02  0.25321964211E+02  0.41944278377E+02  0.00000000000E+00 0.  1.
</event>
<event>
 7    1  0.4450624E-010  0.4778727E+02  0.7816164E-02  0.1312668E+00
        -11   -1    0    0    0    0  0.00000000000E+00  0.00000000000E+00  0.45593999997E+02  0.45594000000E+02  0.51100000000E-03 0.  1.
         11   -1    0    0    0    0 -0.00000000000E+00 -0.00000000000E+00 -0.45593999997E+02  0.45594000000E+02  0.51100000000E-03 0. -1.
    9900012    2    1    2    0    0 -0.56528361898E+00 -0.42878816890E+02  0.66866303744E+01  0.47787268333E+02  0.19999987636E+02 0.  0.
         12    1    1    2    0    0  0.56528361898E+00  0.42878816890E+02 -0.66866303744E+01  0.43400731667E+02  0.00000000000E+00 0. -1.
         11    1    3    3    0    0  0.33475377256E+00 -0.28556794785E+01  0.11090298987E+01  0.30817061751E+01  0.51100000000E-03 0. -1.
        -11    1    3    3    0    0 -0.80980784061E+01 -0.10668225387E+02 -0.20088315452E+01  0.13543460090E+02  0.51100000000E-03 0.  1.
        -12    1    3    3    0    0  0.71980410145E+01 -0.29354912025E+02  0.75864320209E+01  0.31162102067E+02  0.00000000000E+00 0.  1.
</event>
<event>
 7    1  0.4450624E-010  0.4778727E+02  0.7816164E-02  0.1312668E+00
        -11   -1    0    0    0    0  0.00000000000E+00  0.00000000000E+00  0.45593999997E+02  0.45594000000E+02  0.51100000000E-03 0.  1.
         11   -1    0    0    0    0 -0.00000000000E+00 -0.00000000000E+00 -0.45593999997E+02  0.45594000000E+02  0.51100000000E-03 0. -1.
    9900012    2    1    2    0    0  0.35113832192E+02  0.25264218257E+02  0.35158748767E+01  0.47787270611E+02  0.19999998024E+02 0.  0.
         12    1    1    2    0    0 -0.35113832192E+02 -0.25264218257E+02 -0.35158748767E+01  0.43400729389E+02  0.00000000000E+00 0. -1.
         11    1    3    3    0    0  0.65039510344E+00 -0.75904744097E+00 -0.10149323838E+01  0.14245191515E+01  0.51100000000E-03 0. -1.
        -11    1    3    3    0    0  0.87327114730E+01 -0.10308691383E+01  0.12660902805E+01  0.88840264357E+01  0.51100000000E-03 0.  1.
        -12    1    3    3    0    0  0.25730725615E+02  0.27054134837E+02  0.32647169800E+01  0.37478725024E+02  0.00000000000E+00 0.  1.
</event>
<event>
 7    1  0.4450624E-010  0.4778727E+02  0.7816164E-02  0.1312668E+00
        -11   -1    0    0    0    0  0.00000000000E+00  0.00000000000E+00  0.45593999997E+02  0.45594000000E+02  0.51100000000E-03 0.  1.
         11   -1    0    0    0    0 -0.00000000000E+00 -0.00000000000E+00 -0.45593999997E+02  0.45594000000E+02  0.51100000000E-03 0. -1.
    9900012    2    1    2    0    0  0.26405433387E+02 -0.84835215304E+00  0.34433364878E+02  0.47787271543E+02  0.20000002273E+02 0.  0.
         12    1    1    2    0    0 -0.26405433387E+02  0.84835215304E+00 -0.34433364878E+02  0.43400728457E+02  0.00000000000E+00 0. -1.
         11    1    3    3    0    0  0.13020474888E+01  0.23642109607E+01 -0.15063023170E+01  0.30909170259E+01  0.51100000000E-03 0. -1.
        -11    1    3    3    0    0  0.95942681162E+01 -0.24542576542E+01  0.79959476668E+01  0.12728257566E+02  0.51100000000E-03 0.  1.
        -12    1    3    3    0    0  0.15509117782E+02 -0.75830545949E+00  0.27943719529E+02  0.31968096951E+02  0.00000000000E+00 0.  1.
</event>
<event>
 7    1  0.4450624E-010  0.4778727E+02  0.7816164E-02  0.1312668E+00
        -11   -1    0    0    0    0  0.00000000000E+00  0.00000000000E+00  0.45593999997E+02  0.45594000000E+02  0.51100000000E-03 0.  1.
         11   -1    0    0    0    0 -0.00000000000E+00 -0.00000000000E+00 -0.45593999997E+02  0.45594000000E+02  0.51100000000E-03 0. -1.
    9900012    2    1    2    0    0  0.27810272782E+02  0.13945735668E+02  0.30261007295E+02  0.47787269844E+02  0.19999994529E+02 0.  0.
         12    1    1    2    0    0 -0.27810272782E+02 -0.13945735668E+02 -0.30261007295E+02  0.43400730156E+02  0.00000000000E+00 0. -1.
         11    1    3    3    0    0  0.53508021944E+01  0.57122312441E+00 -0.13004147834E-01  0.53812219199E+01  0.51100000000E-03 0. -1.
        -11    1    3    3    0    0  0.22492978030E+02  0.99546099965E+01  0.20398476149E+02  0.31955064549E+02  0.51100000000E-03 0.  1.
        -12    1    3    3    0    0 -0.33507443192E-01  0.34199025475E+01  0.98755352934E+01  0.10450983375E+02  0.00000000000E+00 0.  1.
</event>
<event>
 7    1  0.4450624E-010  0.4778727E+02  0.7816164E-02  0.1312668E+00
        -11   -1    0    0    0    0  0.00000000000E+00  0.00000000000E+00  0.45593999997E+02  0.45594000000E+02  0.51100000000E-03 0.  1.
         11   -1    0    0    0    0 -0.00000000000E+00 -0.00000000000E+00 -0.45593999997E+02  0.45594000000E+02  0.51100000000E-03 0. -1.
    9900012    2    1    2    0    0 -0.40111195557E+02  0.14627085564E+02  0.77951221484E+01  0.47787267628E+02  0.19999984423E+02 0.  0.
         12    1    1    2    0    0  0.40111195557E+02 -0.14627085564E+02 -0.77951221484E+01  0.43400732372E+02  0.00000000000E+00 0. -1.
         11    1    3    3    0    0 -0.30598981949E+01  0.41565445804E+00  0.97543844766E+00  0.32383986811E+01  0.51100000000E-03 0. -1.
        -11    1    3    3    0    0 -0.33994353409E+02  0.18328358672E+02  0.76025010592E+01  0.39361692265E+02  0.51100000000E-03 0.  1.
         12    1    3    3    0    0 -0.30569439530E+01 -0.41169275660E+01 -0.78281735849E+00  0.51871766821E+01  0.00000000000E+00 0. -1.
</event>
<event>
 7    1  0.4450624E-010  0.4778727E+02  0.7816164E-02  0.1312668E+00
        -11   -1    0    0    0    0  0.00000000000E+00  0.00000000000E+00  0.45593999997E+02  0.45594000000E+02  0.51100000000E-03 0. -1.
         11   -1    0    0    0    0 -0.00000000000E+00 -0.00000000000E+00 -0.45593999997E+02  0.45594000000E+02  0.51100000000E-03 0.  1.
    9900012    2    1    2    0    0 -0.42549139996E+02  0.83573954500E+01 -0.18296783587E+01  0.47787273093E+02  0.20000009342E+02 0.  0.
         12    1    1    2    0    0  0.42549139996E+02 -0.83573954500E+01  0.18296783587E+01  0.43400726907E+02  0.00000000000E+00 0. -1.
         11    1    3    3    0    0 -0.34744019243E+01 -0.33380985733E+01 -0.20053506197E+01  0.52187931733E+01  0.51100000000E-03 0. -1.
        -11    1    3    3    0    0 -0.13914018319E+02  0.16452826790E+01  0.53269270445E+01  0.14989430038E+02  0.51100000000E-03 0.  1.
        -12    1    3    3    0    0 -0.25160719753E+02  0.10050211344E+02 -0.51512547835E+01  0.27579049882E+02  0.00000000000E+00 0.  1.
</event>
<event>
 7    1  0.4450624E-010  0.4778727E+02  0.7816164E-02  0.1312668E+00
        -11   -1    0    0    0    0  0.00000000000E+00  0.00000000000E+00  0.45593999997E+02  0.45594000000E+02  0.51100000000E-03 0. -1.
         11   -1    0    0    0    0 -0.00000000000E+00 -0.00000000000E+00 -0.45593999997E+02  0.45594000000E+02  0.51100000000E-03 0.  1.
    9900012    2    1    2    0    0  0.50973092680E+01  0.34905121015E+02  0.25283854397E+02  0.47787270420E+02  0.19999997155E+02 0.  0.
         12    1    1    2    0    0 -0.50973092680E+01 -0.34905121015E+02 -0.25283854397E+02  0.43400729580E+02  0.00000000000E+00 0. -1.
         11    1    3    3    0    0  0.52520699661E+01  0.81442124192E+01  0.83424074731E+01  0.12787032399E+02  0.51100000000E-03 0. -1.
        -11    1    3    3    0    0 -0.15502390892E+01  0.12465179347E+02  0.16358347643E+02  0.20624729701E+02  0.51100000000E-03 0.  1.
        -12    1    3    3    0    0  0.13954783912E+01  0.14295729249E+02  0.58309928136E+00  0.14375508321E+02  0.00000000000E+00 0.  1.
</event>
<event>
 7    1  0.4450624E-010  0.4778727E+02  0.7816164E-02  0.1312668E+00
        -11   -1    0    0    0    0  0.00000000000E+00  0.00000000000E+00  0.45593999997E+02  0.45594000000E+02  0.51100000000E-03 0.  1.
         11   -1    0    0    0    0 -0.00000000000E+00 -0.00000000000E+00 -0.45593999997E+02  0.45594000000E+02  0.51100000000E-03 0. -1.
    9900012    2    1    2    0    0  0.37007131048E+02 -0.65223478638E+01  0.21715302417E+02  0.47787272713E+02  0.20000007606E+02 0.  0.
         12    1    1    2    0    0 -0.37007131048E+02  0.65223478638E+01 -0.21715302417E+02  0.43400727287E+02  0.00000000000E+00 0. -1.
         11    1    3    3    0    0  0.42417066621E+01  0.33276076280E+01 -0.16415523744E+01  0.56355782660E+01  0.51100000000E-03 0. -1.
        -11    1    3    3    0    0  0.11548914244E+02 -0.11314037816E+01  0.44582464766E+01  0.12431148645E+02  0.51100000000E-03 0.  1.
        -12    1    3    3    0    0  0.21216510142E+02 -0.87185517101E+01  0.18898608315E+02  0.29720545802E+02  0.00000000000E+00 0.  1.
</event>
<event>
 7    1  0.4450624E-010  0.4778727E+02  0.7816164E-02  0.1312668E+00
        -11   -1    0    0    0    0  0.00000000000E+00  0.00000000000E+00  0.45593999997E+02  0.45594000000E+02  0.51100000000E-03 0.  1.
         11   -1    0    0    0    0 -0.00000000000E+00 -0.00000000000E+00 -0.45593999997E+02  0.45594000000E+02  0.51100000000E-03 0. -1.
    9900012    2    1    2    0    0  0.26518602641E+02  0.13692510369E+02  0.31510356961E+02  0.47787265881E+02  0.19999976460E+02 0.  0.
         12    1    1    2    0    0 -0.26518602641E+02 -0.13692510369E+02 -0.31510356961E+02  0.43400734119E+02  0.00000000000E+00 0. -1.
         11    1    3    3    0    0  0.10091014921E+02  0.10339811828E+00  0.87904495418E+01  0.13383246120E+02  0.51100000000E-03 0. -1.
        -11    1    3    3    0    0  0.23698352022E+01 -0.31527958681E+01  0.28978287094E+01  0.48942468431E+01  0.51100000000E-03 0.  1.
        -12    1    3    3    0    0  0.14057752518E+02  0.16741908119E+02  0.19822078710E+02  0.29509772918E+02  0.00000000000E+00 0.  1.
</event>
<event>
 7    1  0.4450624E-010  0.4778727E+02  0.7816164E-02  0.1312668E+00
        -11   -1    0    0    0    0  0.00000000000E+00  0.00000000000E+00  0.45593999997E+02  0.45594000000E+02  0.51100000000E-03 0.  1.
         11   -1    0    0    0    0 -0.00000000000E+00 -0.00000000000E+00 -0.45593999997E+02  0.45594000000E+02  0.51100000000E-03 0. -1.
    9900012    2    1    2    0    0  0.23450906879E+02  0.35567652924E+02  0.82837565792E+01  0.47787267391E+02  0.19999983340E+02 0.  0.
         12    1    1    2    0    0 -0.23450906879E+02 -0.35567652924E+02 -0.82837565792E+01  0.43400732609E+02  0.00000000000E+00 0. -1.
         11    1    3    3    0    0  0.90746291693E+01  0.99046745283E+01 -0.15547898033E+01  0.13522900712E+02  0.51100000000E-03 0. -1.
        -11    1    3    3    0    0  0.72936239469E+01  0.23381188724E+02  0.40237148780E+01  0.24820701402E+02  0.51100000000E-03 0.  1.
        -12    1    3    3    0    0  0.70826537624E+01  0.22817896722E+01  0.58148315045E+01  0.94436652763E+01  0.00000000000E+00 0.  1.
</event>
<event>
 7    1  0.4450624E-010  0.4778727E+02  0.7816164E-02  0.1312668E+00
        -11   -1    0    0    0    0  0.00000000000E+00  0.00000000000E+00  0.45593999997E+02  0.45594000000E+02  0.51100000000E-03 0.  1.
         11   -1    0    0    0    0 -0.00000000000E+00 -0.00000000000E+00 -0.45593999997E+02  0.45594000000E+02  0.51100000000E-03 0. -1.
    9900012    2    1    2    0    0 -0.29667829706E+02  0.29758516283E+02  0.10856961236E+02  0.47787273991E+02  0.20000013435E+02 0.  0.
         12    1    1    2    0    0  0.29667829706E+02 -0.29758516283E+02 -0.10856961236E+02  0.43400726009E+02  0.00000000000E+00 0. -1.
         11    1    3    3    0    0 -0.43027148656E+01  0.10119044949E+02  0.51516585652E+01  0.12142817306E+02  0.51100000000E-03 0. -1.
        -11    1    3    3    0    0 -0.23263184623E+02  0.21612887722E+02  0.69480384750E+01  0.32504890607E+02  0.51100000000E-03 0.  1.
         12    1    3    3    0    0 -0.21019302177E+01 -0.19734163880E+01 -0.12427358038E+01  0.31395660781E+01  0.00000000000E+00 0. -1.
</event>
<event>
 7    1  0.4450624E-010  0.4778727E+02  0.7816164E-02  0.1312668E+00
        -11   -1    0    0    0    0  0.00000000000E+00  0.00000000000E+00  0.45593999997E+02  0.45594000000E+02  0.51100000000E-03 0.  1.
         11   -1    0    0    0    0 -0.00000000000E+00 -0.00000000000E+00 -0.45593999997E+02  0.45594000000E+02  0.51100000000E-03 0. -1.
    9900012    2    1    2    0    0  0.19693307186E+02 -0.15423395959E+01  0.38644769539E+02  0.47787269913E+02  0.19999994842E+02 0.  0.
         12    1    1    2    0    0 -0.19693307186E+02  0.15423395959E+01 -0.38644769539E+02  0.43400730087E+02  0.00000000000E+00 0. -1.
         11    1    3    3    0    0  0.36125119549E+01  0.13126357300E+01  0.76624227354E+01  0.85723962590E+01  0.51100000000E-03 0.  1.
        -11    1    3    3    0    0 -0.36336964392E+01  0.11841671694E+01  0.62984651455E+01  0.73672698571E+01  0.51100000000E-03 0. -1.
        -12    1    3    3    0    0  0.19714491670E+02 -0.40391424953E+01  0.24683881658E+02  0.31847603797E+02  0.00000000000E+00 0.  1.
</event>
<event>
 7    1  0.4450624E-010  0.4778726E+02  0.7816164E-02  0.1312668E+00
        -11   -1    0    0    0    0  0.00000000000E+00  0.00000000000E+00  0.45593999997E+02  0.45594000000E+02  0.51100000000E-03 0.  1.
         11   -1    0    0    0    0 -0.00000000000E+00 -0.00000000000E+00 -0.45593999997E+02  0.45594000000E+02  0.51100000000E-03 0. -1.
    9900012    2    1    2    0    0  0.22274372904E+02 -0.12167219398E+02  0.35205619137E+02  0.47787256516E+02  0.19999933759E+02 0.  0.
         12    1    1    2    0    0 -0.22274372904E+02  0.12167219398E+02 -0.35205619137E+02  0.43400743484E+02  0.00000000000E+00 0. -1.
         11    1    3    3    0    0 -0.26645076416E+01 -0.23539260512E+01  0.27607269329E+01  0.45013533838E+01  0.51100000000E-03 0. -1.
        -11    1    3    3    0    0  0.69115568786E+01 -0.51063334307E+01  0.45023758192E+01  0.97013219651E+01  0.51100000000E-03 0.  1.
         12    1    3    3    0    0  0.18027323667E+02 -0.47069599165E+01  0.27942516385E+02  0.33584581167E+02  0.00000000000E+00 0. -1.
</event>
<event>
 7    1  0.4450624E-010  0.4778728E+02  0.7816164E-02  0.1312668E+00
        -11   -1    0    0    0    0  0.00000000000E+00  0.00000000000E+00  0.45593999997E+02  0.45594000000E+02  0.51100000000E-03 0.  1.
         11   -1    0    0    0    0 -0.00000000000E+00 -0.00000000000E+00 -0.45593999997E+02  0.45594000000E+02  0.51100000000E-03 0. -1.
    9900012    2    1    2    0    0 -0.72569119593E+00  0.32412561507E+02 -0.28853447613E+02  0.47787283298E+02  0.20000055867E+02 0.  0.
         12    1    1    2    0    0  0.72569119593E+00 -0.32412561507E+02  0.28853447613E+02  0.43400716702E+02  0.00000000000E+00 0. -1.
         11    1    3    3    0    0 -0.35930864871E+01  0.10749040759E+02 -0.65553946634E+01  0.13092950286E+02  0.51100000000E-03 0. -1.
        -11    1    3    3    0    0 -0.34338428093E-01  0.62096540698E+01  0.12933728439E+01  0.63430116166E+01  0.51100000000E-03 0.  1.
         12    1    3    3    0    0  0.29017337193E+01  0.15453866678E+02 -0.23591425793E+02  0.28351321395E+02  0.00000000000E+00 0. -1.
</event>
<event>
 7    1  0.4450624E-010  0.4778727E+02  0.7816164E-02  0.1312668E+00
        -11   -1    0    0    0    0  0.00000000000E+00  0.00000000000E+00  0.45593999997E+02  0.45594000000E+02  0.51100000000E-03 0.  1.
         11   -1    0    0    0    0 -0.00000000000E+00 -0.00000000000E+00 -0.45593999997E+02  0.45594000000E+02  0.51100000000E-03 0. -1.
    9900012    2    1    2    0    0  0.33052521571E+02 -0.18858148276E+02  0.20869217031E+02  0.47787272378E+02  0.20000006081E+02 0.  0.
         12    1    1    2    0    0 -0.33052521571E+02  0.18858148276E+02 -0.20869217031E+02  0.43400727622E+02  0.00000000000E+00 0. -1.
         11    1    3    3    0    0  0.65423230844E+01 -0.57033726335E+01  0.50207405844E+01  0.10026878229E+02  0.51100000000E-03 0.  1.
        -11    1    3    3    0    0  0.22875713792E+02 -0.17341496976E+02  0.12760873425E+02  0.31414418501E+02  0.51100000000E-03 0. -1.
         12    1    3    3    0    0  0.36344846942E+01  0.41867213337E+01  0.30876030214E+01  0.63459756489E+01  0.00000000000E+00 0. -1.
</event>
<event>
 7    1  0.6402366E-010  0.4778727E+02  0.7816164E-02  0.1312668E+00
        -11   -1    0    0    0    0  0.00000000000E+00  0.00000000000E+00  0.45593999997E+02  0.45594000000E+02  0.51100000000E-03 0. -1.
         11   -1    0    0    0    0 -0.00000000000E+00 -0.00000000000E+00 -0.45593999997E+02  0.45594000000E+02  0.51100000000E-03 0.  1.
    9900012    2    1    2    0    0 -0.15953717362E+02  0.25517354693E+02 -0.31272460064E+02  0.47787271358E+02  0.20000001431E+02 0.  0.
         12    1    1    2    0    0  0.15953717362E+02 -0.25517354693E+02  0.31272460064E+02  0.43400728642E+02  0.00000000000E+00 0. -1.
         11    1    3    3    0    0  0.87285952472E+00 -0.12564083844E+01 -0.25151206549E+01  0.29438542675E+01  0.51100000000E-03 0. -1.
        -11    1    3    3    0    0 -0.55589568392E+01  0.30385781031E+01 -0.65040392910E+00  0.63685150201E+01  0.51100000000E-03 0.  1.
        -12    1    3    3    0    0 -0.11267620047E+02  0.23735184974E+02 -0.28106935480E+02  0.38474902071E+02  0.00000000000E+00 0.  1.
</event>
<event>
 7    1  0.4450624E-010  0.4778728E+02  0.7816164E-02  0.1312668E+00
        -11   -1    0    0    0    0  0.00000000000E+00  0.00000000000E+00  0.45593999997E+02  0.45594000000E+02  0.51100000000E-03 0.  1.
         11   -1    0    0    0    0 -0.00000000000E+00 -0.00000000000E+00 -0.45593999997E+02  0.45594000000E+02  0.51100000000E-03 0. -1.
    9900012    2    1    2    0    0  0.14709045085E+02  0.26419695256E+02  0.31133041793E+02  0.47787278854E+02  0.20000035605E+02 0.  0.
         12    1    1    2    0    0 -0.14709045085E+02 -0.26419695256E+02 -0.31133041793E+02  0.43400721146E+02  0.00000000000E+00 0. -1.
         11    1    3    3    0    0  0.55435243263E+01  0.68013771567E+00  0.12663844644E+01  0.57268646869E+01  0.51100000000E-03 0. -1.
        -11    1    3    3    0    0  0.10243190587E+02  0.17978831245E+02  0.16090308757E+02  0.26211817230E+02  0.51100000000E-03 0.  1.
         12    1    3    3    0    0 -0.10776698285E+01  0.77607262947E+01  0.13776348572E+02  0.15848596936E+02  0.00000000000E+00 0. -1.
</event>
<event>
 7    1  0.4450624E-010  0.4778727E+02  0.7816164E-02  0.1312668E+00
        -11   -1    0    0    0    0  0.00000000000E+00  0.00000000000E+00  0.45593999997E+02  0.45594000000E+02  0.51100000000E-03 0. -1.
         11   -1    0    0    0    0 -0.00000000000E+00 -0.00000000000E+00 -0.45593999997E+02  0.45594000000E+02  0.51100000000E-03 0.  1.
    9900012    2    1    2    0    0  0.39224921114E+02 -0.15782098828E+02 -0.97956250723E+01  0.47787270163E+02  0.19999995983E+02 0.  0.
         12    1    1    2    0    0 -0.39224921114E+02  0.15782098828E+02  0.97956250723E+01  0.43400729837E+02  0.00000000000E+00 0. -1.
         11    1    3    3    0    0  0.52425974214E+01 -0.35610895011E+01 -0.50508406265E+01  0.81041456955E+01  0.51100000000E-03 0. -1.
        -11    1    3    3    0    0  0.34975255902E+02 -0.11142056396E+02 -0.66234989165E+01  0.37299928744E+02  0.51100000000E-03 0.  1.
        -12    1    3    3    0    0 -0.99293220908E+00 -0.10789529304E+01  0.18787144707E+01  0.23831957243E+01  0.00000000000E+00 0.  1.
</event>
<event>
 7    1  0.4450624E-010  0.4778727E+02  0.7816164E-02  0.1312668E+00
        -11   -1    0    0    0    0  0.00000000000E+00  0.00000000000E+00  0.45593999997E+02  0.45594000000E+02  0.51100000000E-03 0.  1.
         11   -1    0    0    0    0 -0.00000000000E+00 -0.00000000000E+00 -0.45593999997E+02  0.45594000000E+02  0.51100000000E-03 0. -1.
    9900012    2    1    2    0    0 -0.12041518950E+02 -0.27045426695E+01  0.41609020631E+02  0.47787270426E+02  0.19999997180E+02 0.  0.
         12    1    1    2    0    0  0.12041518950E+02  0.27045426695E+01 -0.41609020631E+02  0.43400729574E+02  0.00000000000E+00 0. -1.
         11    1    3    3    0    0 -0.49868223471E+01 -0.44279359174E+01  0.60387058495E+01  0.89967206363E+01  0.51100000000E-03 0. -1.
        -11    1    3    3    0    0  0.17577876626E+01 -0.19618063779E+01  0.83120152289E+00  0.27621364854E+01  0.51100000000E-03 0.  1.
        -12    1    3    3    0    0 -0.88124842650E+01  0.36851996258E+01  0.34739113259E+02  0.36028413304E+02  0.00000000000E+00 0.  1.
</event>
<event>
 7    1  0.4450624E-010  0.4778727E+02  0.7816164E-02  0.1312668E+00
        -11   -1    0    0    0    0  0.00000000000E+00  0.00000000000E+00  0.45593999997E+02  0.45594000000E+02  0.51100000000E-03 0.  1.
         11   -1    0    0    0    0 -0.00000000000E+00 -0.00000000000E+00 -0.45593999997E+02  0.45594000000E+02  0.51100000000E-03 0. -1.
    9900012    2    1    2    0    0 -0.15385109951E+02 -0.10119418605E+02  0.39300376035E+02  0.47787265011E+02  0.19999972491E+02 0.  0.
         12    1    1    2    0    0  0.15385109951E+02  0.10119418605E+02 -0.39300376035E+02  0.43400734989E+02  0.00000000000E+00 0. -1.
         11    1    3    3    0    0 -0.77870731517E+01 -0.23873317674E+01  0.11099142412E+02  0.13766946785E+02  0.51100000000E-03 0.  1.
        -11    1    3    3    0    0  0.24114491879E+00 -0.31861364295E+01 -0.10769185045E+01  0.33718496327E+01  0.51100000000E-03 0. -1.
        -12    1    3    3    0    0 -0.78391817185E+01 -0.45459504084E+01  0.29278152127E+02  0.30648468593E+02  0.00000000000E+00 0.  1.
</event>
<event>
 7    1  0.4450624E-010  0.4778723E+02  0.7816164E-02  0.1312668E+00
        -11   -1    0    0    0    0  0.00000000000E+00  0.00000000000E+00  0.45593999997E+02  0.45594000000E+02  0.51100000000E-03 0.  1.
         11   -1    0    0    0    0 -0.00000000000E+00 -0.00000000000E+00 -0.45593999997E+02  0.45594000000E+02  0.51100000000E-03 0. -1.
    9900012    2    1    2    0    0  0.93968484208E+01  0.12719410486E+02  0.40417106098E+02  0.47787232395E+02  0.19999823780E+02 0.  0.
         12    1    1    2    0    0 -0.93968484208E+01 -0.12719410486E+02 -0.40417106098E+02  0.43400767605E+02  0.00000000000E+00 0. -1.
         11    1    3    3    0    0  0.10735058205E+01 -0.12740564210E+01 -0.54609904348E+00  0.17532424067E+01  0.51100000000E-03 0. -1.
        -11    1    3    3    0    0  0.32838847861E+01  0.69862216462E+01  0.53560513341E+01  0.93956627405E+01  0.51100000000E-03 0.  1.
        -12    1    3    3    0    0  0.50394578143E+01  0.70072452604E+01  0.35607153808E+02  0.36638327248E+02  0.00000000000E+00 0.  1.
</event>
<event>
 7    1  0.4450624E-010  0.4778727E+02  0.7816164E-02  0.1312668E+00
        -11   -1    0    0    0    0  0.00000000000E+00  0.00000000000E+00  0.45593999997E+02  0.45594000000E+02  0.51100000000E-03 0.  1.
         11   -1    0    0    0    0 -0.00000000000E+00 -0.00000000000E+00 -0.45593999997E+02  0.45594000000E+02  0.51100000000E-03 0. -1.
    9900012    2    1    2    0    0 -0.20367040616E+02  0.34298957281E+02  0.17099360884E+02  0.47787274699E+02  0.20000016664E+02 0.  0.
         12    1    1    2    0    0  0.20367040616E+02 -0.34298957281E+02 -0.17099360884E+02  0.43400725301E+02  0.00000000000E+00 0. -1.
         11    1    3    3    0    0 -0.13719388160E+02  0.16800835703E+02  0.21504380105E+01  0.21797111637E+02  0.51100000000E-03 0. -1.
        -11    1    3    3    0    0 -0.92453434815E+01  0.12363113810E+02  0.99409004949E+01  0.18361494005E+02  0.51100000000E-03 0.  1.
        -12    1    3    3    0    0  0.25976910265E+01  0.51350077675E+01  0.50080223789E+01  0.76286690575E+01  0.00000000000E+00 0.  1.
</event>
<event>
 7    1  0.4450624E-010  0.4778728E+02  0.7816164E-02  0.1312668E+00
        -11   -1    0    0    0    0  0.00000000000E+00  0.00000000000E+00  0.45593999997E+02  0.45594000000E+02  0.51100000000E-03 0. -1.
         11   -1    0    0    0    0 -0.00000000000E+00 -0.00000000000E+00 -0.45593999997E+02  0.45594000000E+02  0.51100000000E-03 0.  1.
    9900012    2    1    2    0    0 -0.18749406690E+02  0.29902435375E+02 -0.25257206765E+02  0.47787281272E+02  0.20000046630E+02 0.  0.
         12    1    1    2    0    0  0.18749406690E+02 -0.29902435375E+02  0.25257206765E+02  0.43400718728E+02  0.00000000000E+00 0. -1.
         11    1    3    3    0    0 -0.28764821967E+01 -0.28026126208E+00 -0.49007641063E+01  0.56894802301E+01  0.51100000000E-03 0. -1.
        -11    1    3    3    0    0  0.21301540309E+01  0.11438410910E+01 -0.27489811689E+01  0.36609870752E+01  0.51100000000E-03 0.  1.
        -12    1    3    3    0    0 -0.18003078525E+02  0.29038855546E+02 -0.17607461490E+02  0.38436813966E+02  0.00000000000E+00 0.  1.
</event>
<event>
 7    1  0.4450624E-010  0.4778727E+02  0.7816164E-02  0.1312668E+00
        -11   -1    0    0    0    0  0.00000000000E+00  0.00000000000E+00  0.45593999997E+02  0.45594000000E+02  0.51100000000E-03 0.  1.
         11   -1    0    0    0    0 -0.00000000000E+00 -0.00000000000E+00 -0.45593999997E+02  0.45594000000E+02  0.51100000000E-03 0. -1.
    9900012    2    1    2    0    0  0.94809210259E+01 -0.37346931700E+02  0.19973541304E+02  0.47787268173E+02  0.19999986910E+02 0.  0.
         12    1    1    2    0    0 -0.94809210259E+01  0.37346931700E+02 -0.19973541304E+02  0.43400731827E+02  0.00000000000E+00 0. -1.
         11    1    3    3    0    0 -0.16061603977E+01 -0.56430063760E+00  0.92413763211E+00  0.19370640302E+01  0.51100000000E-03 0. -1.
        -11    1    3    3    0    0  0.35490147896E+01 -0.30851556186E+02  0.99007009577E+01  0.32595059515E+02  0.51100000000E-03 0.  1.
        -12    1    3    3    0    0  0.75380666340E+01 -0.59310748756E+01  0.91487027139E+01  0.13255144628E+02  0.00000000000E+00 0.  1.
</event>
<event>
 7    1  0.4450624E-010  0.4778727E+02  0.7816164E-02  0.1312668E+00
        -11   -1    0    0    0    0  0.00000000000E+00  0.00000000000E+00  0.45593999997E+02  0.45594000000E+02  0.51100000000E-03 0.  1.
         11   -1    0    0    0    0 -0.00000000000E+00 -0.00000000000E+00 -0.45593999997E+02  0.45594000000E+02  0.51100000000E-03 0. -1.
    9900012    2    1    2    0    0 -0.37480824353E+02 -0.10707422153E+02  0.19083047332E+02  0.47787265227E+02  0.19999973477E+02 0.  0.
         12    1    1    2    0    0  0.37480824353E+02  0.10707422153E+02 -0.19083047332E+02  0.43400734773E+02  0.00000000000E+00 0. -1.
         11    1    3    3    0    0 -0.18641896371E+02 -0.87467902674E+00  0.15162018263E+02  0.24045210787E+02  0.51100000000E-03 0. -1.
        -11    1    3    3    0    0 -0.26974633538E-02 -0.20141032985E+01 -0.16463085204E+01  0.26013364601E+01  0.51100000000E-03 0.  1.
        -12    1    3    3    0    0 -0.18836230518E+02 -0.78186398279E+01  0.55673375901E+01  0.21140717981E+02  0.00000000000E+00 0.  1.
</event>
<event>
 7    1  0.4450624E-010  0.4778727E+02  0.7816164E-02  0.1312668E+00
        -11   -1    0    0    0    0  0.00000000000E+00  0.00000000000E+00  0.45593999997E+02  0.45594000000E+02  0.51100000000E-03 0.  1.
         11   -1    0    0    0    0 -0.00000000000E+00 -0.00000000000E+00 -0.45593999997E+02  0.45594000000E+02  0.51100000000E-03 0. -1.
    9900012    2    1    2    0    0 -0.27312502994E+02  0.73707785095E+01  0.32913856759E+02  0.47787272329E+02  0.20000005856E+02 0.  0.
         12    1    1    2    0    0  0.27312502994E+02 -0.73707785095E+01 -0.32913856759E+02  0.43400727671E+02  0.00000000000E+00 0. -1.
         11    1    3    3    0    0 -0.77261672669E+01 -0.44038951175E+01  0.27236265759E+01  0.93008652731E+01  0.51100000000E-03 0. -1.
        -11    1    3    3    0    0 -0.45431784948E+01 -0.18512764640E+00  0.44388169269E+01  0.63543559117E+01  0.51100000000E-03 0.  1.
        -12    1    3    3    0    0 -0.15043157232E+02  0.11959801273E+02  0.25751413257E+02  0.32132051144E+02  0.00000000000E+00 0.  1.
</event>
<event>
 7    1  0.4450624E-010  0.4778729E+02  0.7816164E-02  0.1312668E+00
        -11   -1    0    0    0    0  0.00000000000E+00  0.00000000000E+00  0.45593999997E+02  0.45594000000E+02  0.51100000000E-03 0.  1.
         11   -1    0    0    0    0 -0.00000000000E+00 -0.00000000000E+00 -0.45593999997E+02  0.45594000000E+02  0.51100000000E-03 0. -1.
    9900012    2    1    2    0    0  0.21162094622E+02 -0.37572822481E+02 -0.49061301753E+01  0.47787293194E+02  0.20000100988E+02 0.  0.
         12    1    1    2    0    0 -0.21162094622E+02  0.37572822481E+02  0.49061301753E+01  0.43400706806E+02  0.00000000000E+00 0. -1.
         11    1    3    3    0    0  0.11592561338E+02 -0.26974419259E+02 -0.51583879654E+01  0.29809658491E+02  0.51100000000E-03 0.  1.
        -11    1    3    3    0    0  0.68302508239E+01 -0.66041420563E+01 -0.50803076832E+01  0.10773882542E+02  0.51100000000E-03 0. -1.
         12    1    3    3    0    0  0.27392824602E+01 -0.39942611661E+01  0.53325654733E+01  0.72037521603E+01  0.00000000000E+00 0. -1.
</event>
<event>
 7    1  0.4450624E-010  0.4778727E+02  0.7816164E-02  0.1312668E+00
        -11   -1    0    0    0    0  0.00000000000E+00  0.00000000000E+00  0.45593999997E+02  0.45594000000E+02  0.51100000000E-03 0.  1.
         11   -1    0    0    0    0 -0.00000000000E+00 -0.00000000000E+00 -0.45593999997E+02  0.45594000000E+02  0.51100000000E-03 0. -1.
    9900012    2    1    2    0    0 -0.34399218084E+02  0.17806385525E+02  0.19576769447E+02  0.47787268759E+02  0.19999989580E+02 0.  0.
         12    1    1    2    0    0  0.34399218084E+02 -0.17806385525E+02 -0.19576769447E+02  0.43400731241E+02  0.00000000000E+00 0. -1.
         11    1    3    3    0    0 -0.63394835733E+01  0.85444112558E+01  0.11543742255E+01  0.10701803390E+02  0.51100000000E-03 0. -1.
        -11    1    3    3    0    0 -0.52171967621E+01 -0.14154248162E+01 -0.68465087464E+00  0.54489738985E+01  0.51100000000E-03 0.  1.
         12    1    3    3    0    0 -0.22842537749E+02  0.10677399085E+02  0.19107046096E+02  0.31636491470E+02  0.00000000000E+00 0. -1.
</event>
<event>
 7    1  0.4450624E-010  0.4778727E+02  0.7816164E-02  0.1312668E+00
        -11   -1    0    0    0    0  0.00000000000E+00  0.00000000000E+00  0.45593999997E+02  0.45594000000E+02  0.51100000000E-03 0. -1.
         11   -1    0    0    0    0 -0.00000000000E+00 -0.00000000000E+00 -0.45593999997E+02  0.45594000000E+02  0.51100000000E-03 0.  1.
    9900012    2    1    2    0    0  0.35091813348E+00 -0.25870531884E+02 -0.34845599878E+02  0.47787269657E+02  0.19999993672E+02 0.  0.
         12    1    1    2    0    0 -0.35091813348E+00  0.25870531884E+02  0.34845599878E+02  0.43400730343E+02  0.00000000000E+00 0. -1.
         11    1    3    3    0    0 -0.40083347057E+00 -0.42209467732E+01 -0.27187926905E+01  0.50367542216E+01  0.51100000000E-03 0. -1.
        -11    1    3    3    0    0  0.63187298817E+01 -0.20493066588E+02 -0.19853745422E+02  0.29224361978E+02  0.51100000000E-03 0.  1.
         12    1    3    3    0    0 -0.55669782777E+01 -0.11565185229E+01 -0.12273061765E+02  0.13526153457E+02  0.00000000000E+00 0. -1.
</event>
<event>
 7    1  0.4450624E-010  0.4778727E+02  0.7816164E-02  0.1312668E+00
        -11   -1    0    0    0    0  0.00000000000E+00  0.00000000000E+00  0.45593999997E+02  0.45594000000E+02  0.51100000000E-03 0.  1.
         11   -1    0    0    0    0 -0.00000000000E+00 -0.00000000000E+00 -0.45593999997E+02  0.45594000000E+02  0.51100000000E-03 0. -1.
    9900012    2    1    2    0    0  0.42858874928E+02 -0.48881232797E+01 -0.47797874806E+01  0.47787271001E+02  0.19999999800E+02 0.  0.
         12    1    1    2    0    0 -0.42858874928E+02  0.48881232797E+01  0.47797874806E+01  0.43400728999E+02  0.00000000000E+00 0. -1.
         11    1    3    3    0    0  0.16611779529E+01 -0.80425045064E+00 -0.49961395663E+01  0.53261376067E+01  0.51100000000E-03 0. -1.
        -11    1    3    3    0    0  0.28354303226E+02 -0.54199856133E+01 -0.33593689591E+01  0.29062486397E+02  0.51100000000E-03 0.  1.
        -12    1    3    3    0    0  0.12843393749E+02  0.13361127843E+01  0.35757210448E+01  0.13398646997E+02  0.00000000000E+00 0.  1.
</event>
<event>
 7    1  0.4450624E-010  0.4778727E+02  0.7816164E-02  0.1312668E+00
        -11   -1    0    0    0    0  0.00000000000E+00  0.00000000000E+00  0.45593999997E+02  0.45594000000E+02  0.51100000000E-03 0.  1.
         11   -1    0    0    0    0 -0.00000000000E+00 -0.00000000000E+00 -0.45593999997E+02  0.45594000000E+02  0.51100000000E-03 0. -1.
    9900012    2    1    2    0    0 -0.34762584355E+01 -0.37788185130E+02  0.21061625517E+02  0.47787269851E+02  0.19999994556E+02 0.  0.
         12    1    1    2    0    0  0.34762584355E+01  0.37788185130E+02 -0.21061625517E+02  0.43400730149E+02  0.00000000000E+00 0. -1.
         11    1    3    3    0    0  0.10686185251E+01 -0.15727562304E+02  0.14839020827E+02  0.21649357980E+02  0.51100000000E-03 0. -1.
        -11    1    3    3    0    0  0.18728989357E+01 -0.79203212138E+01  0.67896775591E+01  0.10599007509E+02  0.51100000000E-03 0.  1.
         12    1    3    3    0    0 -0.64177758963E+01 -0.14140301612E+02 -0.56707286921E+00  0.15538904362E+02  0.00000000000E+00 0. -1.
</event>
<event>
 7    1  0.4450624E-010  0.4778727E+02  0.7816164E-02  0.1312668E+00
        -11   -1    0    0    0    0  0.00000000000E+00  0.00000000000E+00  0.45593999997E+02  0.45594000000E+02  0.51100000000E-03 0.  1.
         11   -1    0    0    0    0 -0.00000000000E+00 -0.00000000000E+00 -0.45593999997E+02  0.45594000000E+02  0.51100000000E-03 0. -1.
    9900012    2    1    2    0    0  0.34558869781E+02  0.25830573337E+01  0.26127296910E+02  0.47787270634E+02  0.19999998127E+02 0.  0.
         12    1    1    2    0    0 -0.34558869781E+02 -0.25830573337E+01 -0.26127296910E+02  0.43400729366E+02  0.00000000000E+00 0. -1.
         11    1    3    3    0    0  0.19722215203E+02  0.71277002861E+01  0.19855178436E+02  0.28879023440E+02  0.51100000000E-03 0. -1.
        -11    1    3    3    0    0  0.17637766607E+01 -0.27015950503E+01  0.45738809405E+01  0.55973128413E+01  0.51100000000E-03 0.  1.
        -12    1    3    3    0    0  0.13072877917E+02 -0.18430479021E+01  0.16982375335E+01  0.13310934352E+02  0.00000000000E+00 0.  1.
</event>
<event>
 7    1  0.4450624E-010  0.4778727E+02  0.7816164E-02  0.1312668E+00
        -11   -1    0    0    0    0  0.00000000000E+00  0.00000000000E+00  0.45593999997E+02  0.45594000000E+02  0.51100000000E-03 0.  1.
         11   -1    0    0    0    0 -0.00000000000E+00 -0.00000000000E+00 -0.45593999997E+02  0.45594000000E+02  0.51100000000E-03 0. -1.
    9900012    2    1    2    0    0  0.19927264841E+02  0.12353153552E+02  0.36522966441E+02  0.47787270002E+02  0.19999995245E+02 0.  0.
         12    1    1    2    0    0 -0.19927264841E+02 -0.12353153552E+02 -0.36522966441E+02  0.43400729998E+02  0.00000000000E+00 0. -1.
         11    1    3    3    0    0  0.52190100865E+01  0.90122008711E+01  0.80889455237E+01  0.13186692943E+02  0.51100000000E-03 0. -1.
        -11    1    3    3    0    0  0.27522045940E+01  0.25520296920E+01  0.89887561863E-02  0.37533407432E+01  0.51100000000E-03 0.  1.
        -12    1    3    3    0    0  0.11956050160E+02  0.78892298897E+00  0.28425032161E+02  0.30847236315E+02  0.00000000000E+00 0.  1.
</event>
<event>
 7    1  0.4450624E-010  0.4778727E+02  0.7816164E-02  0.1312668E+00
        -11   -1    0    0    0    0  0.00000000000E+00  0.00000000000E+00  0.45593999997E+02  0.45594000000E+02  0.51100000000E-03 0.  1.
         11   -1    0    0    0    0 -0.00000000000E+00 -0.00000000000E+00 -0.45593999997E+02  0.45594000000E+02  0.51100000000E-03 0. -1.
    9900012    2    1    2    0    0  0.14664771527E+02  0.33509784583E+02  0.23359409617E+02  0.47787271845E+02  0.20000003651E+02 0.  0.
         12    1    1    2    0    0 -0.14664771527E+02 -0.33509784583E+02 -0.23359409617E+02  0.43400728155E+02  0.00000000000E+00 0. -1.
         11    1    3    3    0    0  0.73217441372E+01  0.28215977060E+02  0.24733992181E+02  0.38229826944E+02  0.51100000000E-03 0.  1.
        -11    1    3    3    0    0  0.12559170156E+01  0.11254254856E+01 -0.13813019953E+01  0.21798865882E+01  0.51100000000E-03 0. -1.
        -12    1    3    3    0    0  0.60871103747E+01  0.41683820368E+01  0.67194309064E-02  0.73775583135E+01  0.00000000000E+00 0.  1.
</event>
<event>
 7    1  0.4450624E-010  0.4778727E+02  0.7816164E-02  0.1312668E+00
        -11   -1    0    0    0    0  0.00000000000E+00  0.00000000000E+00  0.45593999997E+02  0.45594000000E+02  0.51100000000E-03 0.  1.
         11   -1    0    0    0    0 -0.00000000000E+00 -0.00000000000E+00 -0.45593999997E+02  0.45594000000E+02  0.51100000000E-03 0. -1.
    9900012    2    1    2    0    0  0.24156349343E+02 -0.19031963807E+02  0.30624796232E+02  0.47787274151E+02  0.20000014166E+02 0.  0.
         12    1    1    2    0    0 -0.24156349343E+02  0.19031963807E+02 -0.30624796232E+02  0.43400725849E+02  0.00000000000E+00 0. -1.
         11    1    3    3    0    0  0.24151942189E+01 -0.72430192937E+00  0.11482508470E+02  0.11756095330E+02  0.51100000000E-03 0. -1.
        -11    1    3    3    0    0  0.55871407405E+01 -0.23162502185E+01  0.96705437902E+01  0.11406163868E+02  0.51100000000E-03 0.  1.
         12    1    3    3    0    0  0.16154014384E+02 -0.15991411659E+02  0.94717439720E+01  0.24625014953E+02  0.00000000000E+00 0. -1.
</event>
<event>
 7    1  0.4450624E-010  0.4778727E+02  0.7816164E-02  0.1312668E+00
        -11   -1    0    0    0    0  0.00000000000E+00  0.00000000000E+00  0.45593999997E+02  0.45594000000E+02  0.51100000000E-03 0.  1.
         11   -1    0    0    0    0 -0.00000000000E+00 -0.00000000000E+00 -0.45593999997E+02  0.45594000000E+02  0.51100000000E-03 0. -1.
    9900012    2    1    2    0    0  0.33703539017E+01  0.41368159649E+02  0.12686185886E+02  0.47787271544E+02  0.20000002278E+02 0.  0.
         12    1    1    2    0    0 -0.33703539017E+01 -0.41368159649E+02 -0.12686185886E+02  0.43400728456E+02  0.00000000000E+00 0. -1.
         11    1    3    3    0    0  0.28038316493E+01  0.13048944963E+02  0.47195860136E+01  0.14156656701E+02  0.51100000000E-03 0. -1.
        -11    1    3    3    0    0  0.70075231923E+00  0.29812210525E+02  0.96817194297E+01  0.31352745360E+02  0.51100000000E-03 0.  1.
         12    1    3    3    0    0 -0.13423006688E+00 -0.14929958390E+01 -0.17151195572E+01  0.22778694831E+01  0.00000000000E+00 0. -1.
</event>
<event>
 7    1  0.4450624E-010  0.4778727E+02  0.7816164E-02  0.1312668E+00
        -11   -1    0    0    0    0  0.00000000000E+00  0.00000000000E+00  0.45593999997E+02  0.45594000000E+02  0.51100000000E-03 0.  1.
         11   -1    0    0    0    0 -0.00000000000E+00 -0.00000000000E+00 -0.45593999997E+02  0.45594000000E+02  0.51100000000E-03 0. -1.
    9900012    2    1    2    0    0 -0.26112005846E+02 -0.29361859567E+02  0.18430077637E+02  0.47787269496E+02  0.19999992942E+02 0.  0.
         12    1    1    2    0    0  0.26112005846E+02  0.29361859567E+02 -0.18430077637E+02  0.43400730504E+02  0.00000000000E+00 0. -1.
         11    1    3    3    0    0 -0.98458447329E+01 -0.43166971821E+01  0.81817732173E+00  0.10781648643E+02  0.51100000000E-03 0. -1.
        -11    1    3    3    0    0 -0.50695574440E+01 -0.99364043984E+01 -0.12460293379E+00  0.11155629574E+02  0.51100000000E-03 0.  1.
        -12    1    3    3    0    0 -0.11196603669E+02 -0.15108757987E+02  0.17736503249E+02  0.25849991279E+02  0.00000000000E+00 0.  1.
</event>
<event>
 7    1  0.4450624E-010  0.4778726E+02  0.7816164E-02  0.1312668E+00
        -11   -1    0    0    0    0  0.00000000000E+00  0.00000000000E+00  0.45593999997E+02  0.45594000000E+02  0.51100000000E-03 0.  1.
         11   -1    0    0    0    0 -0.00000000000E+00 -0.00000000000E+00 -0.45593999997E+02  0.45594000000E+02  0.51100000000E-03 0. -1.
    9900012    2    1    2    0    0 -0.34330554649E+02 -0.26551991086E+02  0.17157405350E+00  0.47787255182E+02  0.19999927675E+02 0.  0.
         12    1    1    2    0    0  0.34330554649E+02  0.26551991086E+02 -0.17157405350E+00  0.43400744818E+02  0.00000000000E+00 0. -1.
         11    1    3    3    0    0 -0.10085225485E+02 -0.17784109323E+02  0.38841225383E+01  0.20810399460E+02  0.51100000000E-03 0. -1.
        -11    1    3    3    0    0 -0.11821231774E+02 -0.77767236389E+01 -0.77097310930E+00  0.14170862748E+02  0.51100000000E-03 0.  1.
         12    1    3    3    0    0 -0.12424097390E+02 -0.99115812389E+00 -0.29415753755E+01  0.12805992975E+02  0.00000000000E+00 0. -1.
</event>
<event>
 7    1  0.4983929E-010  0.4778727E+02  0.7816164E-02  0.1312668E+00
        -11   -1    0    0    0    0  0.00000000000E+00  0.00000000000E+00  0.45593999997E+02  0.45594000000E+02  0.51100000000E-03 0. -1.
         11   -1    0    0    0    0 -0.00000000000E+00 -0.00000000000E+00 -0.45593999997E+02  0.45594000000E+02  0.51100000000E-03 0.  1.
    9900012    2    1    2    0    0  0.40182604481E+02 -0.16393177588E+02 -0.49534817967E+00  0.47787270235E+02  0.19999996310E+02 0.  0.
         12    1    1    2    0    0 -0.40182604481E+02  0.16393177588E+02  0.49534817967E+00  0.43400729765E+02  0.00000000000E+00 0. -1.
         11    1    3    3    0    0  0.11870985614E+00 -0.32117804259E+00 -0.26401263921E+01  0.26622387182E+01  0.51100000000E-03 0. -1.
        -11    1    3    3    0    0  0.18179351763E+02 -0.69818946351E+01 -0.54815972443E+01  0.20230758558E+02  0.51100000000E-03 0.  1.
        -12    1    3    3    0    0  0.21884542861E+02 -0.90901049108E+01  0.76263754567E+01  0.24894272959E+02  0.00000000000E+00 0.  1.
</event>
<event>
 7    1  0.4450624E-010  0.4778727E+02  0.7816164E-02  0.1312668E+00
        -11   -1    0    0    0    0  0.00000000000E+00  0.00000000000E+00  0.45593999997E+02  0.45594000000E+02  0.51100000000E-03 0.  1.
         11   -1    0    0    0    0 -0.00000000000E+00 -0.00000000000E+00 -0.45593999997E+02  0.45594000000E+02  0.51100000000E-03 0. -1.
    9900012    2    1    2    0    0  0.19487797310E+01 -0.29388804364E+02  0.31876691320E+02  0.47787274039E+02  0.20000013654E+02 0.  0.
         12    1    1    2    0    0 -0.19487797310E+01  0.29388804364E+02 -0.31876691320E+02  0.43400725961E+02  0.00000000000E+00 0. -1.
         11    1    3    3    0    0 -0.40889830628E+01 -0.55363841156E+01  0.36831611519E+01  0.78062159780E+01  0.51100000000E-03 0. -1.
        -11    1    3    3    0    0 -0.14774737972E+01 -0.15260492021E+02  0.22494517980E+02  0.27222580424E+02  0.51100000000E-03 0.  1.
         12    1    3    3    0    0  0.75152365910E+01 -0.85919282277E+01  0.56990121888E+01  0.12758477637E+02  0.00000000000E+00 0. -1.
</event>
<event>
 7    1  0.4450624E-010  0.4778727E+02  0.7816164E-02  0.1312668E+00
        -11   -1    0    0    0    0  0.00000000000E+00  0.00000000000E+00  0.45593999997E+02  0.45594000000E+02  0.51100000000E-03 0.  1.
         11   -1    0    0    0    0 -0.00000000000E+00 -0.00000000000E+00 -0.45593999997E+02  0.45594000000E+02  0.51100000000E-03 0. -1.
    9900012    2    1    2    0    0 -0.15955477702E+01  0.40525070284E+02  0.15453028222E+02  0.47787272179E+02  0.20000005172E+02 0.  0.
         12    1    1    2    0    0  0.15955477702E+01 -0.40525070284E+02 -0.15453028222E+02  0.43400727821E+02  0.00000000000E+00 0. -1.
         11    1    3    3    0    0 -0.11395833811E+01  0.25240568090E+01 -0.19997397023E+01  0.34159145474E+01  0.51100000000E-03 0. -1.
        -11    1    3    3    0    0  0.15803436615E+01 -0.20873463372E+00  0.31338402705E+01  0.35159652072E+01  0.51100000000E-03 0.  1.
         12    1    3    3    0    0 -0.20363080506E+01  0.38209748108E+02  0.14318927654E+02  0.40855392424E+02  0.00000000000E+00 0. -1.
</event>
<event>
 7    1  0.4450624E-010  0.4778727E+02  0.7816164E-02  0.1312668E+00
        -11   -1    0    0    0    0  0.00000000000E+00  0.00000000000E+00  0.45593999997E+02  0.45594000000E+02  0.51100000000E-03 0. -1.
         11   -1    0    0    0    0 -0.00000000000E+00 -0.00000000000E+00 -0.45593999997E+02  0.45594000000E+02  0.51100000000E-03 0.  1.
    9900012    2    1    2    0    0 -0.36533309469E+02 -0.19070519256E+02 -0.13610876109E+02  0.47787270123E+02  0.19999995797E+02 0.  0.
         12    1    1    2    0    0  0.36533309469E+02  0.19070519256E+02  0.13610876109E+02  0.43400729877E+02  0.00000000000E+00 0. -1.
         11    1    3    3    0    0 -0.71025314774E+01 -0.45638850188E+00  0.26511483021E+01  0.75949214238E+01  0.51100000000E-03 0. -1.
        -11    1    3    3    0    0  0.40405895945E+00 -0.25112646349E+01 -0.26081369569E+01  0.36430882993E+01  0.51100000000E-03 0.  1.
         12    1    3    3    0    0 -0.29834836951E+02 -0.16102866119E+02 -0.13653887455E+02  0.36549260400E+02  0.00000000000E+00 0. -1.
</event>
<event>
 7    1  0.4450624E-010  0.4778727E+02  0.7816164E-02  0.1312668E+00
        -11   -1    0    0    0    0  0.00000000000E+00  0.00000000000E+00  0.45593999997E+02  0.45594000000E+02  0.51100000000E-03 0.  1.
         11   -1    0    0    0    0 -0.00000000000E+00 -0.00000000000E+00 -0.45593999997E+02  0.45594000000E+02  0.51100000000E-03 0. -1.
    9900012    2    1    2    0    0 -0.16929513224E+02 -0.27984459387E+02  0.28528669095E+02  0.47787270219E+02  0.19999996237E+02 0.  0.
         12    1    1    2    0    0  0.16929513224E+02  0.27984459387E+02 -0.28528669095E+02  0.43400729781E+02  0.00000000000E+00 0. -1.
         11    1    3    3    0    0 -0.12878206908E+02 -0.15946562883E+02  0.11401105439E+02  0.23454771080E+02  0.51100000000E-03 0. -1.
        -11    1    3    3    0    0 -0.72036191241E+01 -0.12140694427E+02  0.13634487421E+02  0.19626202820E+02  0.51100000000E-03 0.  1.
        -12    1    3    3    0    0  0.31523128078E+01  0.10279792298E+00  0.34930762351E+01  0.47062963183E+01  0.00000000000E+00 0.  1.
</event>
<event>
 7    1  0.4450624E-010  0.4778728E+02  0.7816164E-02  0.1312668E+00
        -11   -1    0    0    0    0  0.00000000000E+00  0.00000000000E+00  0.45593999997E+02  0.45594000000E+02  0.51100000000E-03 0. -1.
         11   -1    0    0    0    0 -0.00000000000E+00 -0.00000000000E+00 -0.45593999997E+02  0.45594000000E+02  0.51100000000E-03 0.  1.
    9900012    2    1    2    0    0  0.15758111417E+02  0.39862395691E+02 -0.68039330068E+01  0.47787283762E+02  0.20000057983E+02 0.  0.
         12    1    1    2    0    0 -0.15758111417E+02 -0.39862395691E+02  0.68039330068E+01  0.43400716238E+02  0.00000000000E+00 0. -1.
         11    1    3    3    0    0  0.13571520210E+01 -0.48978372381E+00 -0.22736473074E+01  0.26928093218E+01  0.51100000000E-03 0. -1.
        -11    1    3    3    0    0  0.64327450143E+00  0.14301990824E+02 -0.61690259683E+01  0.15589022588E+02  0.51100000000E-03 0.  1.
         12    1    3    3    0    0  0.13757684894E+02  0.26050188591E+02  0.16387402688E+01  0.29505451851E+02  0.00000000000E+00 0. -1.
</event>
<event>
 7    1  0.4450624E-010  0.4778727E+02  0.7816164E-02  0.1312668E+00
        -11   -1    0    0    0    0  0.00000000000E+00  0.00000000000E+00  0.45593999997E+02  0.45594000000E+02  0.51100000000E-03 0.  1.
         11   -1    0    0    0    0 -0.00000000000E+00 -0.00000000000E+00 -0.45593999997E+02  0.45594000000E+02  0.51100000000E-03 0. -1.
    9900012    2    1    2    0    0 -0.58860073232E+01 -0.37904395844E+02  0.20303575130E+02  0.47787268789E+02  0.19999989719E+02 0.  0.
         12    1    1    2    0    0  0.58860073232E+01  0.37904395844E+02 -0.20303575130E+02  0.43400731211E+02  0.00000000000E+00 0. -1.
         11    1    3    3    0    0  0.19910930685E+01 -0.94138625275E+01  0.74981571497E+01  0.12198672887E+02  0.51100000000E-03 0. -1.
        -11    1    3    3    0    0 -0.69427798936E+01 -0.29921658465E+02  0.13729893481E+02  0.33645472403E+02  0.51100000000E-03 0.  1.
         12    1    3    3    0    0 -0.93432049816E+00  0.14311251485E+01 -0.92447550041E+00  0.19431234996E+01  0.00000000000E+00 0. -1.
</event>
<event>
 7    1  0.4450624E-010  0.4778727E+02  0.7816164E-02  0.1312668E+00
        -11   -1    0    0    0    0  0.00000000000E+00  0.00000000000E+00  0.45593999997E+02  0.45594000000E+02  0.51100000000E-03 0. -1.
         11   -1    0    0    0    0 -0.00000000000E+00 -0.00000000000E+00 -0.45593999997E+02  0.45594000000E+02  0.51100000000E-03 0.  1.
    9900012    2    1    2    0    0  0.33178485067E+02 -0.27153457006E+02 -0.67454570752E+01  0.47787270860E+02  0.19999999161E+02 0.  0.
         12    1    1    2    0    0 -0.33178485067E+02  0.27153457006E+02  0.67454570752E+01  0.43400729140E+02  0.00000000000E+00 0. -1.
         11    1    3    3    0    0  0.79802376300E+01 -0.10475322834E+02  0.26820449032E+01  0.13439119995E+02  0.51100000000E-03 0. -1.
        -11    1    3    3    0    0  0.17516381468E+02 -0.16915928258E+02 -0.34131686816E+01  0.24589061985E+02  0.51100000000E-03 0.  1.
         12    1    3    3    0    0  0.76818659686E+01  0.23779408611E+00 -0.60143332968E+01  0.97590888812E+01  0.00000000000E+00 0. -1.
</event>
<event>
 7    1  0.4450624E-010  0.4778726E+02  0.7816164E-02  0.1312668E+00
        -11   -1    0    0    0    0  0.00000000000E+00  0.00000000000E+00  0.45593999997E+02  0.45594000000E+02  0.51100000000E-03 0. -1.
         11   -1    0    0    0    0 -0.00000000000E+00 -0.00000000000E+00 -0.45593999997E+02  0.45594000000E+02  0.51100000000E-03 0.  1.
    9900012    2    1    2    0    0 -0.91630769317E+01 -0.35887434388E+02 -0.22621978859E+02  0.47787264369E+02  0.19999969566E+02 0.  0.
         12    1    1    2    0    0  0.91630769317E+01  0.35887434388E+02  0.22621978859E+02  0.43400735631E+02  0.00000000000E+00 0. -1.
         11    1    3    3    0    0 -0.73395719597E+01 -0.65893758204E+01 -0.10040226315E+00  0.98640392907E+01  0.51100000000E-03 0. -1.
        -11    1    3    3    0    0 -0.49506279469E+01 -0.14703077281E+02 -0.10184024006E+02  0.18558112614E+02  0.51100000000E-03 0.  1.
        -12    1    3    3    0    0  0.31271229749E+01 -0.14594981287E+02 -0.12337552590E+02  0.19365112465E+02  0.00000000000E+00 0.  1.
</event>
<event>
 7    1  0.4450624E-010  0.4778727E+02  0.7816164E-02  0.1312668E+00
        -11   -1    0    0    0    0  0.00000000000E+00  0.00000000000E+00  0.45593999997E+02  0.45594000000E+02  0.51100000000E-03 0. -1.
         11   -1    0    0    0    0 -0.00000000000E+00 -0.00000000000E+00 -0.45593999997E+02  0.45594000000E+02  0.51100000000E-03 0.  1.
    9900012    2    1    2    0    0 -0.15168633273E+02  0.33204934597E+02 -0.23472711190E+02  0.47787270887E+02  0.19999999282E+02 0.  0.
         12    1    1    2    0    0  0.15168633273E+02 -0.33204934597E+02  0.23472711190E+02  0.43400729113E+02  0.00000000000E+00 0. -1.
         11    1    3    3    0    0  0.21759916761E+01  0.10127778700E+02 -0.12742649364E+02  0.16421996050E+02  0.51100000000E-03 0. -1.
        -11    1    3    3    0    0 -0.25986363334E+01  0.74668186962E+01 -0.17988051082E+01  0.81081435799E+01  0.51100000000E-03 0.  1.
        -12    1    3    3    0    0 -0.14745988616E+02  0.15610337200E+02 -0.89312567169E+01  0.23257131257E+02  0.00000000000E+00 0.  1.
</event>
<event>
 7    1  0.4450624E-010  0.4778728E+02  0.7816164E-02  0.1312668E+00
        -11   -1    0    0    0    0  0.00000000000E+00  0.00000000000E+00  0.45593999997E+02  0.45594000000E+02  0.51100000000E-03 0.  1.
         11   -1    0    0    0    0 -0.00000000000E+00 -0.00000000000E+00 -0.45593999997E+02  0.45594000000E+02  0.51100000000E-03 0. -1.
    9900012    2    1    2    0    0  0.13477934797E+02 -0.12870437494E+02  0.39195907881E+02  0.47787284772E+02  0.20000062588E+02 0.  0.
         12    1    1    2    0    0 -0.13477934797E+02  0.12870437494E+02 -0.39195907881E+02  0.43400715228E+02  0.00000000000E+00 0. -1.
         11    1    3    3    0    0 -0.23751160315E+01 -0.98277430955E+00 -0.13290923978E+00  0.25738466608E+01  0.51100000000E-03 0. -1.
        -11    1    3    3    0    0  0.70071860425E+01 -0.53982648996E+01  0.28328638543E+02  0.29677494539E+02  0.51100000000E-03 0.  1.
        -12    1    3    3    0    0  0.88458647860E+01 -0.64893982847E+01  0.11000178578E+02  0.15535943572E+02  0.00000000000E+00 0.  1.
</event>
<event>
 7    1  0.4450624E-010  0.4778727E+02  0.7816164E-02  0.1312668E+00
        -11   -1    0    0    0    0  0.00000000000E+00  0.00000000000E+00  0.45593999997E+02  0.45594000000E+02  0.51100000000E-03 0. -1.
         11   -1    0    0    0    0 -0.00000000000E+00 -0.00000000000E+00 -0.45593999997E+02  0.45594000000E+02  0.51100000000E-03 0.  1.
    9900012    2    1    2    0    0 -0.18184557264E+02  0.34013636161E+02 -0.19900191170E+02  0.47787272168E+02  0.20000005122E+02 0.  0.
         12    1    1    2    0    0  0.18184557264E+02 -0.34013636161E+02  0.19900191170E+02  0.43400727832E+02  0.00000000000E+00 0. -1.
         11    1    3    3    0    0 -0.52237853576E+01  0.46758602952E+01 -0.55549358716E+00  0.70327929267E+01  0.51100000000E-03 0. -1.
        -11    1    3    3    0    0 -0.16236446513E+02  0.25775915264E+02 -0.19000420566E+02  0.35903147286E+02  0.51100000000E-03 0.  1.
         12    1    3    3    0    0  0.32756746070E+01  0.35618606015E+01 -0.34427701691E+00  0.48513319552E+01  0.00000000000E+00 0. -1.
</event>
<event>
 7    1  0.4450624E-010  0.4778727E+02  0.7816164E-02  0.1312668E+00
        -11   -1    0    0    0    0  0.00000000000E+00  0.00000000000E+00  0.45593999997E+02  0.45594000000E+02  0.51100000000E-03 0. -1.
         11   -1    0    0    0    0 -0.00000000000E+00 -0.00000000000E+00 -0.45593999997E+02  0.45594000000E+02  0.51100000000E-03 0.  1.
    9900012    2    1    2    0    0  0.17526836529E+01  0.43249431115E+02  0.31683023023E+01  0.47787270384E+02  0.19999996989E+02 0.  0.
         12    1    1    2    0    0 -0.17526836529E+01 -0.43249431115E+02 -0.31683023023E+01  0.43400729616E+02  0.00000000000E+00 0. -1.
         11    1    3    3    0    0 -0.11156445273E+01  0.13562576974E+02  0.14324267023E+01  0.13683566911E+02  0.51100000000E-03 0. -1.
        -11    1    3    3    0    0 -0.39890099934E+00  0.18886634209E+02 -0.66693896147E+01  0.20033592585E+02  0.51100000000E-03 0.  1.
         12    1    3    3    0    0  0.32672291796E+01  0.10800219932E+02  0.84052652147E+01  0.14070110888E+02  0.00000000000E+00 0. -1.
</event>
<event>
 7    1  0.4450624E-010  0.4778726E+02  0.7816164E-02  0.1312668E+00
        -11   -1    0    0    0    0  0.00000000000E+00  0.00000000000E+00  0.45593999997E+02  0.45594000000E+02  0.51100000000E-03 0.  1.
         11   -1    0    0    0    0 -0.00000000000E+00 -0.00000000000E+00 -0.45593999997E+02  0.45594000000E+02  0.51100000000E-03 0. -1.
    9900012    2    1    2    0    0  0.30258885630E+02  0.24448434361E+02  0.19243134027E+02  0.47787259114E+02  0.19999945604E+02 0.  0.
         12    1    1    2    0    0 -0.30258885630E+02 -0.24448434361E+02 -0.19243134027E+02  0.43400740886E+02  0.00000000000E+00 0. -1.
         11    1    3    3    0    0  0.15245211602E+01  0.13254750135E+01  0.47684311627E+01  0.51787049341E+01  0.51100000000E-03 0. -1.
        -11    1    3    3    0    0  0.14362876687E+02  0.42677539865E+01  0.11132172761E+02  0.18666312477E+02  0.51100000000E-03 0.  1.
         12    1    3    3    0    0  0.14371487783E+02  0.18855205361E+02  0.33425301030E+01  0.23942241703E+02  0.00000000000E+00 0. -1.
</event>
<event>
 7    1  0.4450624E-010  0.4778727E+02  0.7816164E-02  0.1312668E+00
        -11   -1    0    0    0    0  0.00000000000E+00  0.00000000000E+00  0.45593999997E+02  0.45594000000E+02  0.51100000000E-03 0. -1.
         11   -1    0    0    0    0 -0.00000000000E+00 -0.00000000000E+00 -0.45593999997E+02  0.45594000000E+02  0.51100000000E-03 0.  1.
    9900012    2    1    2    0    0 -0.10047733055E+02  0.27356521253E+02 -0.32160338369E+02  0.47787267765E+02  0.19999985046E+02 0.  0.
         12    1    1    2    0    0  0.10047733055E+02 -0.27356521253E+02  0.32160338369E+02  0.43400732235E+02  0.00000000000E+00 0. -1.
         11    1    3    3    0    0 -0.10493251331E+01 -0.13124880838E+01 -0.60246264331E+00  0.17851245623E+01  0.51100000000E-03 0. -1.
        -11    1    3    3    0    0  0.12883764966E+00 -0.21077101340E+00  0.12948797032E+01  0.13182326301E+01  0.51100000000E-03 0.  1.
        -12    1    3    3    0    0 -0.91272455716E+01  0.28879780350E+02 -0.32852755429E+02  0.44683910572E+02  0.00000000000E+00 0.  1.
</event>
<event>
 7    1  0.4450624E-010  0.4778727E+02  0.7816164E-02  0.1312668E+00
        -11   -1    0    0    0    0  0.00000000000E+00  0.00000000000E+00  0.45593999997E+02  0.45594000000E+02  0.51100000000E-03 0.  1.
         11   -1    0    0    0    0 -0.00000000000E+00 -0.00000000000E+00 -0.45593999997E+02  0.45594000000E+02  0.51100000000E-03 0. -1.
    9900012    2    1    2    0    0 -0.49776980290E+01  0.33105173912E+02  0.27620520464E+02  0.47787272263E+02  0.20000005556E+02 0.  0.
         12    1    1    2    0    0  0.49776980290E+01 -0.33105173912E+02 -0.27620520464E+02  0.43400727737E+02  0.00000000000E+00 0. -1.
         11    1    3    3    0    0 -0.71698294969E+00  0.95102651825E+01  0.13848142960E+02  0.16814585101E+02  0.51100000000E-03 0. -1.
        -11    1    3    3    0    0  0.24588096382E+01  0.19520985912E+02  0.11513627331E+02  0.22796452583E+02  0.51100000000E-03 0.  1.
        -12    1    3    3    0    0 -0.67195247176E+01  0.40739228172E+01  0.22587501726E+01  0.81762345791E+01  0.00000000000E+00 0.  1.
</event>
<event>
 7    1  0.4450624E-010  0.4778727E+02  0.7816164E-02  0.1312668E+00
        -11   -1    0    0    0    0  0.00000000000E+00  0.00000000000E+00  0.45593999997E+02  0.45594000000E+02  0.51100000000E-03 0. -1.
         11   -1    0    0    0    0 -0.00000000000E+00 -0.00000000000E+00 -0.45593999997E+02  0.45594000000E+02  0.51100000000E-03 0.  1.
    9900012    2    1    2    0    0  0.29967028096E+02 -0.28673716646E+02  0.12783540705E+02  0.47787265995E+02  0.19999976978E+02 0.  0.
         12    1    1    2    0    0 -0.29967028096E+02  0.28673716646E+02 -0.12783540705E+02  0.43400734005E+02  0.00000000000E+00 0. -1.
         11    1    3    3    0    0  0.16063910239E+02 -0.92015148926E+01  0.55044845755E+01  0.19313633505E+02  0.51100000000E-03 0. -1.
        -11    1    3    3    0    0  0.14926527734E+02 -0.16585224209E+02  0.99299181778E+01  0.24422820631E+02  0.51100000000E-03 0.  1.
        -12    1    3    3    0    0 -0.10234098770E+01 -0.28869775444E+01 -0.26508620484E+01  0.40508118592E+01  0.00000000000E+00 0.  1.
</event>
<event>
 7    1  0.4450624E-010  0.4778727E+02  0.7816164E-02  0.1312668E+00
        -11   -1    0    0    0    0  0.00000000000E+00  0.00000000000E+00  0.45593999997E+02  0.45594000000E+02  0.51100000000E-03 0. -1.
         11   -1    0    0    0    0 -0.00000000000E+00 -0.00000000000E+00 -0.45593999997E+02  0.45594000000E+02  0.51100000000E-03 0.  1.
    9900012    2    1    2    0    0 -0.47478435992E+01 -0.42789367232E+02 -0.54910271952E+01  0.47787270206E+02  0.19999996179E+02 0.  0.
         12    1    1    2    0    0  0.47478435992E+01  0.42789367232E+02  0.54910271952E+01  0.43400729794E+02  0.00000000000E+00 0. -1.
         11    1    3    3    0    0 -0.62729446041E+00 -0.26308315699E+01  0.27572168612E+01  0.38622555806E+01  0.51100000000E-03 0. -1.
        -11    1    3    3    0    0  0.21644916698E+01 -0.13121803887E+01 -0.34545426695E+01  0.42826051508E+01  0.51100000000E-03 0.  1.
        -12    1    3    3    0    0 -0.62850408085E+01 -0.38846355273E+02 -0.47937013870E+01  0.39642409475E+02  0.00000000000E+00 0.  1.
</event>
<event>
 7    1  0.4450624E-010  0.4778728E+02  0.7816164E-02  0.1312668E+00
        -11   -1    0    0    0    0  0.00000000000E+00  0.00000000000E+00  0.45593999997E+02  0.45594000000E+02  0.51100000000E-03 0.  1.
         11   -1    0    0    0    0 -0.00000000000E+00 -0.00000000000E+00 -0.45593999997E+02  0.45594000000E+02  0.51100000000E-03 0. -1.
    9900012    2    1    2    0    0  0.18832370738E+02  0.35901549948E+02  0.15493335055E+02  0.47787275266E+02  0.20000019249E+02 0.  0.
         12    1    1    2    0    0 -0.18832370738E+02 -0.35901549948E+02 -0.15493335055E+02  0.43400724734E+02  0.00000000000E+00 0. -1.
         11    1    3    3    0    0 -0.19965740333E+01  0.36752376586E+01  0.71836021282E-01  0.41831615308E+01  0.51100000000E-03 0. -1.
        -11    1    3    3    0    0  0.51119703884E+01  0.70219251886E+01  0.10281902259E+02  0.13459464660E+02  0.51100000000E-03 0.  1.
        -12    1    3    3    0    0  0.15716974382E+02  0.25204387101E+02  0.51395967747E+01  0.30144649076E+02  0.00000000000E+00 0.  1.
</event>
<event>
 7    1  0.4450624E-010  0.4778727E+02  0.7816164E-02  0.1312668E+00
        -11   -1    0    0    0    0  0.00000000000E+00  0.00000000000E+00  0.45593999997E+02  0.45594000000E+02  0.51100000000E-03 0.  1.
         11   -1    0    0    0    0 -0.00000000000E+00 -0.00000000000E+00 -0.45593999997E+02  0.45594000000E+02  0.51100000000E-03 0. -1.
    9900012    2    1    2    0    0 -0.27457244095E+02  0.19424310507E+02  0.27430260183E+02  0.47787271139E+02  0.20000000429E+02 0.  0.
         12    1    1    2    0    0  0.27457244095E+02 -0.19424310507E+02 -0.27430260183E+02  0.43400728861E+02  0.00000000000E+00 0. -1.
         11    1    3    3    0    0 -0.77728020733E+01  0.44344077843E+01  0.20197920652E+00  0.89510457674E+01  0.51100000000E-03 0. -1.
        -11    1    3    3    0    0 -0.18217107565E+02  0.10152297062E+02  0.15253104096E+02  0.25837750066E+02  0.51100000000E-03 0.  1.
        -12    1    3    3    0    0 -0.14673344575E+01  0.48376056613E+01  0.11975176880E+02  0.12998475305E+02  0.00000000000E+00 0.  1.
</event>
<event>
 7    1  0.4450624E-010  0.4778725E+02  0.7816164E-02  0.1312668E+00
        -11   -1    0    0    0    0  0.00000000000E+00  0.00000000000E+00  0.45593999997E+02  0.45594000000E+02  0.51100000000E-03 0. -1.
         11   -1    0    0    0    0 -0.00000000000E+00 -0.00000000000E+00 -0.45593999997E+02  0.45594000000E+02  0.51100000000E-03 0.  1.
    9900012    2    1    2    0    0  0.10922297185E+02  0.41979264601E+02  0.14386366882E+01  0.47787252221E+02  0.19999914177E+02 0.  0.
         12    1    1    2    0    0 -0.10922297185E+02 -0.41979264601E+02 -0.14386366882E+01  0.43400747779E+02  0.00000000000E+00 0. -1.
         11    1    3    3    0    0  0.34993937853E+01  0.10847125609E+02  0.84207503537E+01  0.14170918376E+02  0.51100000000E-03 0. -1.
        -11    1    3    3    0    0  0.10267697828E+01  0.95416562109E+00 -0.18860876635E+01  0.23498968392E+01  0.51100000000E-03 0.  1.
        -12    1    3    3    0    0  0.63961336165E+01  0.30177973371E+02 -0.50960260020E+01  0.31266437006E+02  0.00000000000E+00 0.  1.
</event>
<event>
 7    1  0.4450624E-010  0.4778727E+02  0.7816164E-02  0.1312668E+00
        -11   -1    0    0    0    0  0.00000000000E+00  0.00000000000E+00  0.45593999997E+02  0.45594000000E+02  0.51100000000E-03 0.  1.
         11   -1    0    0    0    0 -0.00000000000E+00 -0.00000000000E+00 -0.45593999997E+02  0.45594000000E+02  0.51100000000E-03 0. -1.
    9900012    2    1    2    0    0 -0.81544430671E+01 -0.28640782630E+02  0.31572677612E+02  0.47787270248E+02  0.19999996370E+02 0.  0.
         12    1    1    2    0    0  0.81544430671E+01  0.28640782630E+02 -0.31572677612E+02  0.43400729752E+02  0.00000000000E+00 0. -1.
         11    1    3    3    0    0 -0.36194450865E+01 -0.64876571665E+00  0.85718769243E+00  0.37757185661E+01  0.51100000000E-03 0. -1.
        -11    1    3    3    0    0  0.18881957507E+01 -0.46243824333E+01  0.13190369209E+02  0.14104468661E+02  0.51100000000E-03 0.  1.
         12    1    3    3    0    0 -0.64231937314E+01 -0.23367634480E+02  0.17525120711E+02  0.29907083021E+02  0.00000000000E+00 0. -1.
</event>
<event>
 7    1  0.4450624E-010  0.4778727E+02  0.7816164E-02  0.1312668E+00
        -11   -1    0    0    0    0  0.00000000000E+00  0.00000000000E+00  0.45593999997E+02  0.45594000000E+02  0.51100000000E-03 0. -1.
         11   -1    0    0    0    0 -0.00000000000E+00 -0.00000000000E+00 -0.45593999997E+02  0.45594000000E+02  0.51100000000E-03 0.  1.
    9900012    2    1    2    0    0  0.38642303157E+02  0.97999484937E+01 -0.17156817516E+02  0.47787274533E+02  0.20000015907E+02 0.  0.
         12    1    1    2    0    0 -0.38642303157E+02 -0.97999484937E+01  0.17156817516E+02  0.43400725467E+02  0.00000000000E+00 0. -1.
         11    1    3    3    0    0  0.58189513658E+01 -0.19304515370E+01  0.66371649132E-01  0.61311698387E+01  0.51100000000E-03 0. -1.
        -11    1    3    3    0    0  0.17964865905E+02 -0.51799093967E+00 -0.12307237079E+02  0.21782396708E+02  0.51100000000E-03 0.  1.
        -12    1    3    3    0    0  0.14858485887E+02  0.12248390970E+02 -0.49159520864E+01  0.19873707986E+02  0.00000000000E+00 0.  1.
</event>
<event>
 7    1  0.4450624E-010  0.4778728E+02  0.7816164E-02  0.1312668E+00
        -11   -1    0    0    0    0  0.00000000000E+00  0.00000000000E+00  0.45593999997E+02  0.45594000000E+02  0.51100000000E-03 0.  1.
         11   -1    0    0    0    0 -0.00000000000E+00 -0.00000000000E+00 -0.45593999997E+02  0.45594000000E+02  0.51100000000E-03 0. -1.
    9900012    2    1    2    0    0 -0.96571958175E+01  0.41413622038E+02 -0.86760144561E+01  0.47787277100E+02  0.20000027611E+02 0.  0.
         12    1    1    2    0    0  0.96571958175E+01 -0.41413622038E+02  0.86760144561E+01  0.43400722900E+02  0.00000000000E+00 0. -1.
         11    1    3    3    0    0 -0.55060650245E+01  0.94460293469E+01  0.31616208676E+00  0.10938198261E+02  0.51100000000E-03 0. -1.
        -11    1    3    3    0    0 -0.92308690639E+01  0.18037785588E+02 -0.17222716223E+01  0.20335606024E+02  0.51100000000E-03 0.  1.
         12    1    3    3    0    0  0.50797382708E+01  0.13929807104E+02 -0.72699049206E+01  0.16513472815E+02  0.00000000000E+00 0. -1.
</event>
<event>
 7    1  0.4450624E-010  0.4778727E+02  0.7816164E-02  0.1312668E+00
        -11   -1    0    0    0    0  0.00000000000E+00  0.00000000000E+00  0.45593999997E+02  0.45594000000E+02  0.51100000000E-03 0.  1.
         11   -1    0    0    0    0 -0.00000000000E+00 -0.00000000000E+00 -0.45593999997E+02  0.45594000000E+02  0.51100000000E-03 0. -1.
    9900012    2    1    2    0    0  0.26890496918E+02 -0.31416039434E+02  0.13174101706E+02  0.47787270582E+02  0.19999997891E+02 0.  0.
         12    1    1    2    0    0 -0.26890496918E+02  0.31416039434E+02 -0.13174101706E+02  0.43400729418E+02  0.00000000000E+00 0. -1.
         11    1    3    3    0    0  0.11628294565E+02 -0.52830602701E+01  0.36652764302E+01  0.13287671424E+02  0.51100000000E-03 0. -1.
        -11    1    3    3    0    0  0.13464832273E+02 -0.18271934176E+02  0.91622280844E+00  0.22715737962E+02  0.51100000000E-03 0.  1.
        -12    1    3    3    0    0  0.17973700804E+01 -0.78610449885E+01  0.85926024677E+01  0.11783861196E+02  0.00000000000E+00 0.  1.
</event>
<event>
 7    1  0.4450624E-010  0.4778727E+02  0.7816164E-02  0.1312668E+00
        -11   -1    0    0    0    0  0.00000000000E+00  0.00000000000E+00  0.45593999997E+02  0.45594000000E+02  0.51100000000E-03 0.  1.
         11   -1    0    0    0    0 -0.00000000000E+00 -0.00000000000E+00 -0.45593999997E+02  0.45594000000E+02  0.51100000000E-03 0. -1.
    9900012    2    1    2    0    0  0.24885502667E+02 -0.33296993477E+02  0.12475794481E+02  0.47787268836E+02  0.19999989932E+02 0.  0.
         12    1    1    2    0    0 -0.24885502667E+02  0.33296993477E+02 -0.12475794481E+02  0.43400731164E+02  0.00000000000E+00 0. -1.
         11    1    3    3    0    0  0.14383646658E+02 -0.31114203256E+02  0.49437742802E+01  0.34632698997E+02  0.51100000000E-03 0.  1.
        -11    1    3    3    0    0  0.25534606917E+01 -0.63855375428E+00  0.12921438433E+01  0.29321576312E+01  0.51100000000E-03 0. -1.
         12    1    3    3    0    0  0.79483953181E+01 -0.15442364670E+01  0.62398763575E+01  0.10222412208E+02  0.00000000000E+00 0. -1.
</event>
<event>
 7    1  0.4450624E-010  0.4778727E+02  0.7816164E-02  0.1312668E+00
        -11   -1    0    0    0    0  0.00000000000E+00  0.00000000000E+00  0.45593999997E+02  0.45594000000E+02  0.51100000000E-03 0.  1.
         11   -1    0    0    0    0 -0.00000000000E+00 -0.00000000000E+00 -0.45593999997E+02  0.45594000000E+02  0.51100000000E-03 0. -1.
    9900012    2    1    2    0    0 -0.32373967982E+02  0.85767461356E+01  0.27604147089E+02  0.47787270585E+02  0.19999997907E+02 0.  0.
         12    1    1    2    0    0  0.32373967982E+02 -0.85767461356E+01 -0.27604147089E+02  0.43400729415E+02  0.00000000000E+00 0. -1.
         11    1    3    3    0    0  0.11142736568E+01 -0.14613564053E+01  0.47730612860E+01  0.51146146117E+01  0.51100000000E-03 0. -1.
        -11    1    3    3    0    0  0.25256905332E+00  0.28335282625E+00  0.15721637108E+01  0.16173369920E+01  0.51100000000E-03 0.  1.
        -12    1    3    3    0    0 -0.33740810692E+02  0.97547497146E+01  0.21258922093E+02  0.41055318982E+02  0.00000000000E+00 0.  1.
</event>
<event>
 7    1  0.4450624E-010  0.4778727E+02  0.7816164E-02  0.1312668E+00
        -11   -1    0    0    0    0  0.00000000000E+00  0.00000000000E+00  0.45593999997E+02  0.45594000000E+02  0.51100000000E-03 0.  1.
         11   -1    0    0    0    0 -0.00000000000E+00 -0.00000000000E+00 -0.45593999997E+02  0.45594000000E+02  0.51100000000E-03 0. -1.
    9900012    2    1    2    0    0 -0.42856055761E+02 -0.68359356434E+01 -0.50180236034E+00  0.47787270316E+02  0.19999996678E+02 0.  0.
         12    1    1    2    0    0  0.42856055761E+02  0.68359356434E+01  0.50180236034E+00  0.43400729684E+02  0.00000000000E+00 0. -1.
         11    1    3    3    0    0 -0.15317065684E+01 -0.17469724382E+00  0.25265248597E+01  0.29597250322E+01  0.51100000000E-03 0. -1.
        -11    1    3    3    0    0 -0.84452056760E+01  0.21636241603E+01  0.47205071961E+01  0.99139274189E+01  0.51100000000E-03 0.  1.
        -12    1    3    3    0    0 -0.32879143517E+02 -0.88248625598E+01 -0.77488344161E+01  0.34913617865E+02  0.00000000000E+00 0.  1.
</event>
<event>
 7    1  0.4450624E-010  0.4778727E+02  0.7816164E-02  0.1312668E+00
        -11   -1    0    0    0    0  0.00000000000E+00  0.00000000000E+00  0.45593999997E+02  0.45594000000E+02  0.51100000000E-03 0. -1.
         11   -1    0    0    0    0 -0.00000000000E+00 -0.00000000000E+00 -0.45593999997E+02  0.45594000000E+02  0.51100000000E-03 0.  1.
    9900012    2    1    2    0    0  0.33619365166E+02 -0.20595330161E+02  0.18143705211E+02  0.47787269852E+02  0.19999994565E+02 0.  0.
         12    1    1    2    0    0 -0.33619365166E+02  0.20595330161E+02 -0.18143705211E+02  0.43400730148E+02  0.00000000000E+00 0. -1.
         11    1    3    3    0    0 -0.17319963397E+01 -0.80721622826E+00 -0.46268545809E-01  0.19114262736E+01  0.51100000000E-03 0. -1.
        -11    1    3    3    0    0  0.35745853136E+01 -0.68308272591E+01  0.22061162115E+01  0.80190280089E+01  0.51100000000E-03 0.  1.
        -12    1    3    3    0    0  0.31776776192E+02 -0.12957286673E+02  0.15983857545E+02  0.37856815570E+02  0.00000000000E+00 0.  1.
</event>
<event>
 7    1  0.4450624E-010  0.4778726E+02  0.7816164E-02  0.1312668E+00
        -11   -1    0    0    0    0  0.00000000000E+00  0.00000000000E+00  0.45593999997E+02  0.45594000000E+02  0.51100000000E-03 0.  1.
         11   -1    0    0    0    0 -0.00000000000E+00 -0.00000000000E+00 -0.45593999997E+02  0.45594000000E+02  0.51100000000E-03 0. -1.
    9900012    2    1    2    0    0 -0.21223927244E+02  0.32875556164E+02  0.18771447410E+02  0.47787256704E+02  0.19999934616E+02 0.  0.
         12    1    1    2    0    0  0.21223927244E+02 -0.32875556164E+02 -0.18771447410E+02  0.43400743296E+02  0.00000000000E+00 0. -1.
         11    1    3    3    0    0 -0.64865586082E+01  0.99735938637E+01  0.62334080755E+01  0.13431433045E+02  0.51100000000E-03 0. -1.
        -11    1    3    3    0    0 -0.16191338906E+02  0.24007148123E+02  0.89144699638E+01  0.30298026199E+02  0.51100000000E-03 0.  1.
         12    1    3    3    0    0  0.14539702701E+01 -0.11051858218E+01  0.36235693710E+01  0.40577974609E+01  0.00000000000E+00 0. -1.
</event>
<event>
 7    1  0.4450624E-010  0.4778727E+02  0.7816164E-02  0.1312668E+00
        -11   -1    0    0    0    0  0.00000000000E+00  0.00000000000E+00  0.45593999997E+02  0.45594000000E+02  0.51100000000E-03 0. -1.
         11   -1    0    0    0    0 -0.00000000000E+00 -0.00000000000E+00 -0.45593999997E+02  0.45594000000E+02  0.51100000000E-03 0.  1.
    9900012    2    1    2    0    0  0.27669872862E+02 -0.32743333908E+02 -0.67731343523E+01  0.47787272719E+02  0.20000007634E+02 0.  0.
         12    1    1    2    0    0 -0.27669872862E+02  0.32743333908E+02  0.67731343523E+01  0.43400727281E+02  0.00000000000E+00 0. -1.
         11    1    3    3    0    0 -0.20542737931E+00 -0.11513589573E+02 -0.12660512393E+01  0.11584810368E+02  0.51100000000E-03 0. -1.
        -11    1    3    3    0    0 -0.37672928262E+00 -0.79349005885E+00 -0.38746693446E+00  0.96004287003E+00  0.51100000000E-03 0.  1.
        -12    1    3    3    0    0  0.28252029524E+02 -0.20436254276E+02 -0.51196161786E+01  0.35242419481E+02  0.00000000000E+00 0.  1.
</event>
<event>
 7    1  0.4450624E-010  0.4778727E+02  0.7816164E-02  0.1312668E+00
        -11   -1    0    0    0    0  0.00000000000E+00  0.00000000000E+00  0.45593999997E+02  0.45594000000E+02  0.51100000000E-03 0.  1.
         11   -1    0    0    0    0 -0.00000000000E+00 -0.00000000000E+00 -0.45593999997E+02  0.45594000000E+02  0.51100000000E-03 0. -1.
    9900012    2    1    2    0    0 -0.38876577972E+02 -0.17747692568E+02 -0.75666566380E+01  0.47787271907E+02  0.20000003931E+02 0.  0.
         12    1    1    2    0    0  0.38876577972E+02  0.17747692568E+02  0.75666566380E+01  0.43400728093E+02  0.00000000000E+00 0. -1.
         11    1    3    3    0    0 -0.41362265397E+01 -0.54056734006E+01 -0.45825679566E+01  0.82054618542E+01  0.51100000000E-03 0. -1.
        -11    1    3    3    0    0 -0.76622911114E+01 -0.90761143091E+01 -0.32192054385E+01  0.12306495843E+02  0.51100000000E-03 0.  1.
         12    1    3    3    0    0 -0.27078060321E+02 -0.32659048587E+01  0.23511675705E+00  0.27275314209E+02  0.00000000000E+00 0. -1.
</event>
<event>
 7    1  0.4450624E-010  0.4778729E+02  0.7816164E-02  0.1312668E+00
        -11   -1    0    0    0    0  0.00000000000E+00  0.00000000000E+00  0.45593999997E+02  0.45594000000E+02  0.51100000000E-03 0.  1.
         11   -1    0    0    0    0 -0.00000000000E+00 -0.00000000000E+00 -0.45593999997E+02  0.45594000000E+02  0.51100000000E-03 0. -1.
    9900012    2    1    2    0    0  0.29658023184E+02 -0.21223074153E+02  0.23528808611E+02  0.47787285140E+02  0.20000064269E+02 0.  0.
         12    1    1    2    0    0 -0.29658023184E+02  0.21223074153E+02 -0.23528808611E+02  0.43400714860E+02  0.00000000000E+00 0. -1.
         11    1    3    3    0    0  0.49924284509E+01 -0.32600675131E+01  0.54141721213E+01  0.80539209114E+01  0.51100000000E-03 0. -1.
        -11    1    3    3    0    0  0.24073723641E+02 -0.12529810009E+02  0.20254319124E+02  0.33864107138E+02  0.51100000000E-03 0.  1.
         12    1    3    3    0    0  0.59187109202E+00 -0.54331966304E+01 -0.21396826351E+01  0.58692570904E+01  0.00000000000E+00 0. -1.
</event>
<event>
 7    1  0.4450624E-010  0.4778727E+02  0.7816164E-02  0.1312668E+00
        -11   -1    0    0    0    0  0.00000000000E+00  0.00000000000E+00  0.45593999997E+02  0.45594000000E+02  0.51100000000E-03 0.  1.
         11   -1    0    0    0    0 -0.00000000000E+00 -0.00000000000E+00 -0.45593999997E+02  0.45594000000E+02  0.51100000000E-03 0. -1.
    9900012    2    1    2    0    0  0.17032276719E+02 -0.36507158462E+02  0.16147832107E+02  0.47787267852E+02  0.19999985446E+02 0.  0.
         12    1    1    2    0    0 -0.17032276719E+02  0.36507158462E+02 -0.16147832107E+02  0.43400732148E+02  0.00000000000E+00 0. -1.
         11    1    3    3    0    0  0.20791898865E+01  0.65253319268E+00 -0.10035913795E+01  0.23991719551E+01  0.51100000000E-03 0. -1.
        -11    1    3    3    0    0  0.21112066445E+01 -0.10009524253E+02  0.10433576222E+02  0.14611888389E+02  0.51100000000E-03 0.  1.
         12    1    3    3    0    0  0.12841880188E+02 -0.27150167402E+02  0.67178472649E+01  0.30776207508E+02  0.00000000000E+00 0. -1.
</event>
<event>
 7    1  0.4450624E-010  0.4778727E+02  0.7816164E-02  0.1312668E+00
        -11   -1    0    0    0    0  0.00000000000E+00  0.00000000000E+00  0.45593999997E+02  0.45594000000E+02  0.51100000000E-03 0. -1.
         11   -1    0    0    0    0 -0.00000000000E+00 -0.00000000000E+00 -0.45593999997E+02  0.45594000000E+02  0.51100000000E-03 0.  1.
    9900012    2    1    2    0    0 -0.24897079978E+02 -0.15089197056E+02 -0.32188113624E+02  0.47787272842E+02  0.20000008194E+02 0.  0.
         12    1    1    2    0    0  0.24897079978E+02  0.15089197056E+02  0.32188113624E+02  0.43400727158E+02  0.00000000000E+00 0. -1.
         11    1    3    3    0    0 -0.23554329966E+01 -0.70601347210E+01 -0.82966101798E+01  0.11145730466E+02  0.51100000000E-03 0. -1.
        -11    1    3    3    0    0  0.19724550694E+01 -0.31587377550E+00 -0.25314483163E+01  0.32246838732E+01  0.51100000000E-03 0.  1.
         12    1    3    3    0    0 -0.24514102051E+02 -0.77131885597E+01 -0.21360055127E+02  0.33416858502E+02  0.00000000000E+00 0. -1.
</event>
<event>
 7    1  0.4450624E-010  0.4778727E+02  0.7816164E-02  0.1312668E+00
        -11   -1    0    0    0    0  0.00000000000E+00  0.00000000000E+00  0.45593999997E+02  0.45594000000E+02  0.51100000000E-03 0. -1.
         11   -1    0    0    0    0 -0.00000000000E+00 -0.00000000000E+00 -0.45593999997E+02  0.45594000000E+02  0.51100000000E-03 0.  1.
    9900012    2    1    2    0    0  0.71460873996E+01  0.15478924600E+02 -0.39911900994E+02  0.47787268291E+02  0.19999987447E+02 0.  0.
         12    1    1    2    0    0 -0.71460873996E+01 -0.15478924600E+02  0.39911900994E+02  0.43400731709E+02  0.00000000000E+00 0. -1.
         11    1    3    3    0    0  0.35220865175E+01  0.22619656396E+01 -0.16901177865E+02  0.17411817696E+02  0.51100000000E-03 0. -1.
        -11    1    3    3    0    0  0.26193304630E+01 -0.25879041107E+01 -0.24502645559E+01  0.44228877914E+01  0.51100000000E-03 0.  1.
         12    1    3    3    0    0  0.10046704191E+01  0.15804863071E+02 -0.20560458574E+02  0.25952562804E+02  0.00000000000E+00 0. -1.
</event>
<event>
 7    1  0.4450624E-010  0.4778723E+02  0.7816164E-02  0.1312668E+00
        -11   -1    0    0    0    0  0.00000000000E+00  0.00000000000E+00  0.45593999997E+02  0.45594000000E+02  0.51100000000E-03 0.  1.
         11   -1    0    0    0    0 -0.00000000000E+00 -0.00000000000E+00 -0.45593999997E+02  0.45594000000E+02  0.51100000000E-03 0. -1.
    9900012    2    1    2    0    0  0.30276495885E+02 -0.14662936896E+02 -0.27421871909E+02  0.47787228343E+02  0.19999805304E+02 0.  0.
         12    1    1    2    0    0 -0.30276495885E+02  0.14662936896E+02  0.27421871909E+02  0.43400771657E+02  0.00000000000E+00 0. -1.
         11    1    3    3    0    0 -0.11382355545E+01  0.12690807897E+00 -0.34665472724E+01  0.36508404637E+01  0.51100000000E-03 0. -1.
        -11    1    3    3    0    0 -0.12203156441E+00 -0.34606328856E+01 -0.13603365811E+01  0.37204015303E+01  0.51100000000E-03 0.  1.
        -12    1    3    3    0    0  0.31536763004E+02 -0.11329212089E+02 -0.22594988055E+02  0.40415986349E+02  0.00000000000E+00 0.  1.
</event>
<event>
 7    1  0.4450624E-010  0.4778727E+02  0.7816164E-02  0.1312668E+00
        -11   -1    0    0    0    0  0.00000000000E+00  0.00000000000E+00  0.45593999997E+02  0.45594000000E+02  0.51100000000E-03 0.  1.
         11   -1    0    0    0    0 -0.00000000000E+00 -0.00000000000E+00 -0.45593999997E+02  0.45594000000E+02  0.51100000000E-03 0. -1.
    9900012    2    1    2    0    0 -0.31748986129E+02  0.82264686024E+01  0.28424466942E+02  0.47787271587E+02  0.20000002472E+02 0.  0.
         12    1    1    2    0    0  0.31748986129E+02 -0.82264686024E+01 -0.28424466942E+02  0.43400728413E+02  0.00000000000E+00 0. -1.
         11    1    3    3    0    0 -0.34487125262E+01  0.50869857933E+01  0.63966586688E+00  0.61790140987E+01  0.51100000000E-03 0. -1.
        -11    1    3    3    0    0 -0.16574661857E+02  0.78423629858E+01  0.16674606206E+02  0.24784361304E+02  0.51100000000E-03 0.  1.
        -12    1    3    3    0    0 -0.11725611746E+02 -0.47028801767E+01  0.11110194869E+02  0.16823896184E+02  0.00000000000E+00 0.  1.
</event>
<event>
 7    1  0.4450624E-010  0.4778727E+02  0.7816164E-02  0.1312668E+00
        -11   -1    0    0    0    0  0.00000000000E+00  0.00000000000E+00  0.45593999997E+02  0.45594000000E+02  0.51100000000E-03 0.  1.
         11   -1    0    0    0    0 -0.00000000000E+00 -0.00000000000E+00 -0.45593999997E+02  0.45594000000E+02  0.51100000000E-03 0. -1.
    9900012    2    1    2    0    0  0.35294784972E+01 -0.25476007056E+01  0.43181895637E+02  0.47787267303E+02  0.19999982943E+02 0.  0.
         12    1    1    2    0    0 -0.35294784972E+01  0.25476007056E+01 -0.43181895637E+02  0.43400732697E+02  0.00000000000E+00 0. -1.
         11    1    3    3    0    0  0.28568421381E+01 -0.30885688416E+01  0.10022252892E+00  0.42084259893E+01  0.51100000000E-03 0. -1.
        -11    1    3    3    0    0  0.32541721414E+01 -0.43528149787E+00  0.14642741905E+02  0.15006298580E+02  0.51100000000E-03 0.  1.
         12    1    3    3    0    0 -0.25815357823E+01  0.97624963386E+00  0.28438931203E+02  0.28572542734E+02  0.00000000000E+00 0. -1.
</event>
<event>
 7    1  0.4450624E-010  0.4778727E+02  0.7816164E-02  0.1312668E+00
        -11   -1    0    0    0    0  0.00000000000E+00  0.00000000000E+00  0.45593999997E+02  0.45594000000E+02  0.51100000000E-03 0.  1.
         11   -1    0    0    0    0 -0.00000000000E+00 -0.00000000000E+00 -0.45593999997E+02  0.45594000000E+02  0.51100000000E-03 0. -1.
    9900012    2    1    2    0    0 -0.94628731054E+01  0.19042789221E+02  0.37834498032E+02  0.47787273853E+02  0.20000012807E+02 0.  0.
         12    1    1    2    0    0  0.94628731054E+01 -0.19042789221E+02 -0.37834498032E+02  0.43400726147E+02  0.00000000000E+00 0. -1.
         11    1    3    3    0    0 -0.24064024887E+00  0.11689837929E+01  0.25711474950E-01  0.11937722473E+01  0.51100000000E-03 0. -1.
        -11    1    3    3    0    0 -0.50250118671E+01 -0.18142900561E+01  0.16212127887E+02  0.17069724179E+02  0.51100000000E-03 0.  1.
         12    1    3    3    0    0 -0.41972209895E+01  0.19688095484E+02  0.21596658670E+02  0.29523777427E+02  0.00000000000E+00 0. -1.
</event>
<event>
 7    1  0.4450624E-010  0.4778726E+02  0.7816164E-02  0.1312668E+00
        -11   -1    0    0    0    0  0.00000000000E+00  0.00000000000E+00  0.45593999997E+02  0.45594000000E+02  0.51100000000E-03 0. -1.
         11   -1    0    0    0    0 -0.00000000000E+00 -0.00000000000E+00 -0.45593999997E+02  0.45594000000E+02  0.51100000000E-03 0.  1.
    9900012    2    1    2    0    0 -0.23563546292E+02 -0.32288730632E+02 -0.16906259310E+02  0.47787257569E+02  0.19999938561E+02 0.  0.
         12    1    1    2    0    0  0.23563546292E+02  0.32288730632E+02  0.16906259310E+02  0.43400742431E+02  0.00000000000E+00 0. -1.
         11    1    3    3    0    0 -0.14101571425E+02 -0.17263750938E+02 -0.57941968525E+01  0.23031806932E+02  0.51100000000E-03 0. -1.
        -11    1    3    3    0    0 -0.11220406734E+02 -0.13985469966E+02 -0.54561178072E+01  0.18741934779E+02  0.51100000000E-03 0.  1.
         12    1    3    3    0    0  0.17584318669E+01 -0.10395097275E+01 -0.56559446499E+01  0.60135158590E+01  0.00000000000E+00 0. -1.
</event>
<event>
 7    1  0.4450624E-010  0.4778727E+02  0.7816164E-02  0.1312668E+00
        -11   -1    0    0    0    0  0.00000000000E+00  0.00000000000E+00  0.45593999997E+02  0.45594000000E+02  0.51100000000E-03 0. -1.
         11   -1    0    0    0    0 -0.00000000000E+00 -0.00000000000E+00 -0.45593999997E+02  0.45594000000E+02  0.51100000000E-03 0.  1.
    9900012    2    1    2    0    0  0.14722648678E+02  0.10300089451E+02 -0.39506645265E+02  0.47787271356E+02  0.20000001418E+02 0.  0.
         12    1    1    2    0    0 -0.14722648678E+02 -0.10300089451E+02  0.39506645265E+02  0.43400728644E+02  0.00000000000E+00 0. -1.
         11    1    3    3    0    0  0.43729755645E+01 -0.25336532796E+01 -0.56387574313E+01  0.75721793336E+01  0.51100000000E-03 0. -1.
        -11    1    3    3    0    0  0.51571618063E+01 -0.19755516554E+01 -0.54907668603E+01  0.77876596750E+01  0.51100000000E-03 0.  1.
        -12    1    3    3    0    0  0.51925113072E+01  0.14809294386E+02 -0.28377120973E+02  0.32427432347E+02  0.00000000000E+00 0.  1.
</event>
<event>
 7    1  0.4450624E-010  0.4778727E+02  0.7816164E-02  0.1312668E+00
        -11   -1    0    0    0    0  0.00000000000E+00  0.00000000000E+00  0.45593999997E+02  0.45594000000E+02  0.51100000000E-03 0.  1.
         11   -1    0    0    0    0 -0.00000000000E+00 -0.00000000000E+00 -0.45593999997E+02  0.45594000000E+02  0.51100000000E-03 0. -1.
    9900012    2    1    2    0    0 -0.87956901724E+01  0.41644762766E+02 -0.84836822625E+01  0.47787270787E+02  0.19999998828E+02 0.  0.
         12    1    1    2    0    0  0.87956901724E+01 -0.41644762766E+02  0.84836822625E+01  0.43400729213E+02  0.00000000000E+00 0. -1.
         11    1    3    3    0    0  0.15205887859E+01  0.29026918301E+01  0.17765717044E+01  0.37274679608E+01  0.51100000000E-03 0. -1.
        -11    1    3    3    0    0 -0.18146935721E+00  0.26513936325E+02 -0.32987282068E+01  0.26718970015E+02  0.51100000000E-03 0.  1.
        -12    1    3    3    0    0 -0.10134809601E+02  0.12228134611E+02 -0.69615257602E+01  0.17340832812E+02  0.00000000000E+00 0.  1.
</event>
<event>
 7    1  0.4450624E-010  0.4778727E+02  0.7816164E-02  0.1312668E+00
        -11   -1    0    0    0    0  0.00000000000E+00  0.00000000000E+00  0.45593999997E+02  0.45594000000E+02  0.51100000000E-03 0.  1.
         11   -1    0    0    0    0 -0.00000000000E+00 -0.00000000000E+00 -0.45593999997E+02  0.45594000000E+02  0.51100000000E-03 0. -1.
    9900012    2    1    2    0    0 -0.21520378372E+01 -0.28699639401E+02  0.32485733513E+02  0.47787269010E+02  0.19999990726E+02 0.  0.
         12    1    1    2    0    0  0.21520378372E+01  0.28699639401E+02 -0.32485733513E+02  0.43400730990E+02  0.00000000000E+00 0. -1.
         11    1    3    3    0    0 -0.45286331281E+00 -0.57073931113E+01  0.43505010164E+00  0.57418368280E+01  0.51100000000E-03 0. -1.
        -11    1    3    3    0    0 -0.39470942465E+01 -0.19695193636E+02  0.16511668520E+02  0.26002219192E+02  0.51100000000E-03 0.  1.
         12    1    3    3    0    0  0.22479197220E+01 -0.32970526537E+01  0.15539014891E+02  0.16043212990E+02  0.00000000000E+00 0. -1.
</event>
<event>
 7    1  0.4450624E-010  0.4778726E+02  0.7816164E-02  0.1312668E+00
        -11   -1    0    0    0    0  0.00000000000E+00  0.00000000000E+00  0.45593999997E+02  0.45594000000E+02  0.51100000000E-03 0.  1.
         11   -1    0    0    0    0 -0.00000000000E+00 -0.00000000000E+00 -0.45593999997E+02  0.45594000000E+02  0.51100000000E-03 0. -1.
    9900012    2    1    2    0    0 -0.55207760286E+01 -0.86100534718E+01  0.42178337643E+02  0.47787260893E+02  0.19999953715E+02 0.  0.
         12    1    1    2    0    0  0.55207760286E+01  0.86100534718E+01 -0.42178337643E+02  0.43400739107E+02  0.00000000000E+00 0. -1.
         11    1    3    3    0    0  0.16255506100E+01 -0.13060665794E+01  0.82572964600E+01  0.85165233391E+01  0.51100000000E-03 0. -1.
        -11    1    3    3    0    0 -0.62676215124E+01 -0.12618179028E+02  0.21181386544E+02  0.25439195301E+02  0.51100000000E-03 0.  1.
         12    1    3    3    0    0 -0.87870512625E+00  0.53141921359E+01  0.12739654639E+02  0.13831542252E+02  0.00000000000E+00 0. -1.
</event>
<event>
 7    1  0.4450624E-010  0.4778727E+02  0.7816164E-02  0.1312668E+00
        -11   -1    0    0    0    0  0.00000000000E+00  0.00000000000E+00  0.45593999997E+02  0.45594000000E+02  0.51100000000E-03 0.  1.
         11   -1    0    0    0    0 -0.00000000000E+00 -0.00000000000E+00 -0.45593999997E+02  0.45594000000E+02  0.51100000000E-03 0. -1.
    9900012    2    1    2    0    0 -0.10479801585E+02  0.36125052377E+02 -0.21651281849E+02  0.47787266639E+02  0.19999979916E+02 0.  0.
         12    1    1    2    0    0  0.10479801585E+02 -0.36125052377E+02  0.21651281849E+02  0.43400733361E+02  0.00000000000E+00 0. -1.
         11    1    3    3    0    0 -0.52210854657E+01  0.13302629550E+01 -0.37996523037E+01  0.65929273361E+01  0.51100000000E-03 0. -1.
        -11    1    3    3    0    0  0.10677089082E+01  0.84566863657E+00  0.11461365630E+01  0.17801087151E+01  0.51100000000E-03 0.  1.
         12    1    3    3    0    0 -0.63264250278E+01  0.33949120786E+02 -0.18997766108E+02  0.39414230588E+02  0.00000000000E+00 0. -1.
</event>
<event>
 7    1  0.4450624E-010  0.4778727E+02  0.7816164E-02  0.1312668E+00
        -11   -1    0    0    0    0  0.00000000000E+00  0.00000000000E+00  0.45593999997E+02  0.45594000000E+02  0.51100000000E-03 0.  1.
         11   -1    0    0    0    0 -0.00000000000E+00 -0.00000000000E+00 -0.45593999997E+02  0.45594000000E+02  0.51100000000E-03 0. -1.
    9900012    2    1    2    0    0  0.16425500284E+02  0.73335664578E+00  0.40165764658E+02  0.47787268185E+02  0.19999986962E+02 0.  0.
         12    1    1    2    0    0 -0.16425500284E+02 -0.73335664578E+00 -0.40165764658E+02  0.43400731815E+02  0.00000000000E+00 0. -1.
         11    1    3    3    0    0  0.40913137095E+01 -0.50484918518E+01  0.11823492151E+02  0.13491518994E+02  0.51100000000E-03 0. -1.
        -11    1    3    3    0    0  0.14484869424E+01 -0.16321769100E+00 -0.14307217406E+01  0.20424787384E+01  0.51100000000E-03 0.  1.
        -12    1    3    3    0    0  0.10885699632E+02  0.59450661886E+01  0.29772994247E+02  0.32253270453E+02  0.00000000000E+00 0.  1.
</event>
<event>
 7    1  0.4450624E-010  0.4778728E+02  0.7816164E-02  0.1312668E+00
        -11   -1    0    0    0    0  0.00000000000E+00  0.00000000000E+00  0.45593999997E+02  0.45594000000E+02  0.51100000000E-03 0.  1.
         11   -1    0    0    0    0 -0.00000000000E+00 -0.00000000000E+00 -0.45593999997E+02  0.45594000000E+02  0.51100000000E-03 0. -1.
    9900012    2    1    2    0    0  0.42076427751E+02 -0.10626615448E+02  0.52155722994E+00  0.47787277079E+02  0.20000027512E+02 0.  0.
         12    1    1    2    0    0 -0.42076427751E+02  0.10626615448E+02 -0.52155722994E+00  0.43400722921E+02  0.00000000000E+00 0. -1.
         11    1    3    3    0    0  0.19822246339E+01 -0.10002206114E+01 -0.35395926890E+01  0.41783217248E+01  0.51100000000E-03 0. -1.
        -11    1    3    3    0    0  0.28060404898E+02 -0.12523277556E+02  0.52538452580E+01  0.31174054822E+02  0.51100000000E-03 0.  1.
        -12    1    3    3    0    0  0.12033798218E+02  0.28968827191E+01 -0.11926953391E+01  0.12434900531E+02  0.00000000000E+00 0.  1.
</event>
<event>
 7    1  0.4450624E-010  0.4778728E+02  0.7816164E-02  0.1312668E+00
        -11   -1    0    0    0    0  0.00000000000E+00  0.00000000000E+00  0.45593999997E+02  0.45594000000E+02  0.51100000000E-03 0.  1.
         11   -1    0    0    0    0 -0.00000000000E+00 -0.00000000000E+00 -0.45593999997E+02  0.45594000000E+02  0.51100000000E-03 0. -1.
    9900012    2    1    2    0    0  0.13227668101E+02  0.39243811417E+02  0.12983641834E+02  0.47787275430E+02  0.20000019995E+02 0.  0.
         12    1    1    2    0    0 -0.13227668101E+02 -0.39243811417E+02 -0.12983641834E+02  0.43400724570E+02  0.00000000000E+00 0. -1.
         11    1    3    3    0    0 -0.40264111224E+01  0.96870660883E+01  0.17739198769E+01  0.10639456185E+02  0.51100000000E-03 0. -1.
        -11    1    3    3    0    0 -0.46735515407E+00  0.50833404789E+01  0.26028944594E+01  0.57300812466E+01  0.51100000000E-03 0.  1.
        -12    1    3    3    0    0  0.17721434377E+02  0.24473404850E+02  0.86068274978E+01  0.31417737998E+02  0.00000000000E+00 0.  1.
</event>
<event>
 7    1  0.4450624E-010  0.4778727E+02  0.7816164E-02  0.1312668E+00
        -11   -1    0    0    0    0  0.00000000000E+00  0.00000000000E+00  0.45593999997E+02  0.45594000000E+02  0.51100000000E-03 0.  1.
         11   -1    0    0    0    0 -0.00000000000E+00 -0.00000000000E+00 -0.45593999997E+02  0.45594000000E+02  0.51100000000E-03 0. -1.
    9900012    2    1    2    0    0  0.63146242797E+01  0.88121266670E+01  0.42024933407E+02  0.47787273231E+02  0.20000009971E+02 0.  0.
         12    1    1    2    0    0 -0.63146242797E+01 -0.88121266670E+01 -0.42024933407E+02  0.43400726769E+02  0.00000000000E+00 0. -1.
         11    1    3    3    0    0  0.19410512534E+01 -0.64990772621E+00  0.82197190886E+01  0.84707639666E+01  0.51100000000E-03 0. -1.
        -11    1    3    3    0    0  0.38277558635E+00 -0.47564175974E+01  0.12620073964E+02  0.13492082590E+02  0.51100000000E-03 0.  1.
         12    1    3    3    0    0  0.39907974400E+01  0.14218451991E+02  0.21185140354E+02  0.25824426674E+02  0.00000000000E+00 0. -1.
</event>
<event>
 7    1  0.4450624E-010  0.4778727E+02  0.7816164E-02  0.1312668E+00
        -11   -1    0    0    0    0  0.00000000000E+00  0.00000000000E+00  0.45593999997E+02  0.45594000000E+02  0.51100000000E-03 0. -1.
         11   -1    0    0    0    0 -0.00000000000E+00 -0.00000000000E+00 -0.45593999997E+02  0.45594000000E+02  0.51100000000E-03 0.  1.
    9900012    2    1    2    0    0 -0.39229220727E+02  0.18278898046E+02  0.32516549227E+01  0.47787272675E+02  0.20000007432E+02 0.  0.
         12    1    1    2    0    0  0.39229220727E+02 -0.18278898046E+02 -0.32516549227E+01  0.43400727325E+02  0.00000000000E+00 0. -1.
         11    1    3    3    0    0 -0.19212227249E+02  0.32858924127E+01  0.57811058577E+01  0.20330468514E+02  0.51100000000E-03 0. -1.
        -11    1    3    3    0    0 -0.35254337993E+01 -0.16652995099E+01 -0.31649206862E+00  0.39117864744E+01  0.51100000000E-03 0.  1.
        -12    1    3    3    0    0 -0.16491559679E+02  0.16658305143E+02 -0.22129588664E+01  0.23545017686E+02  0.00000000000E+00 0.  1.
</event>
<event>
 7    1  0.4450624E-010  0.4778727E+02  0.7816164E-02  0.1312668E+00
        -11   -1    0    0    0    0  0.00000000000E+00  0.00000000000E+00  0.45593999997E+02  0.45594000000E+02  0.51100000000E-03 0. -1.
         11   -1    0    0    0    0 -0.00000000000E+00 -0.00000000000E+00 -0.45593999997E+02  0.45594000000E+02  0.51100000000E-03 0.  1.
    9900012    2    1    2    0    0  0.13218114961E+02  0.23703758310E+02 -0.33867929993E+02  0.47787269555E+02  0.19999993210E+02 0.  0.
         12    1    1    2    0    0 -0.13218114961E+02 -0.23703758310E+02  0.33867929993E+02  0.43400730445E+02  0.00000000000E+00 0. -1.
         11    1    3    3    0    0 -0.15631547516E+01 -0.11146669126E+00  0.92816667464E+00  0.18213652126E+01  0.51100000000E-03 0. -1.
        -11    1    3    3    0    0  0.37311130154E+01 -0.51374912480E-01 -0.45353688497E+01  0.58731094472E+01  0.51100000000E-03 0.  1.
        -12    1    3    3    0    0  0.11050156697E+02  0.23866599913E+02 -0.30260727818E+02  0.40092794895E+02  0.00000000000E+00 0.  1.
</event>
<event>
 7    1  0.4450624E-010  0.4778727E+02  0.7816164E-02  0.1312668E+00
        -11   -1    0    0    0    0  0.00000000000E+00  0.00000000000E+00  0.45593999997E+02  0.45594000000E+02  0.51100000000E-03 0.  1.
         11   -1    0    0    0    0 -0.00000000000E+00 -0.00000000000E+00 -0.45593999997E+02  0.45594000000E+02  0.51100000000E-03 0. -1.
    9900012    2    1    2    0    0  0.18900173367E+01  0.52153860265E+01  0.43044751140E+02  0.47787273997E+02  0.20000013461E+02 0.  0.
         12    1    1    2    0    0 -0.18900173367E+01 -0.52153860265E+01 -0.43044751140E+02  0.43400726003E+02  0.00000000000E+00 0. -1.
         11    1    3    3    0    0 -0.17514471564E+01  0.10865220228E+01  0.40274036873E+01  0.45241659970E+01  0.51100000000E-03 0. -1.
        -11    1    3    3    0    0  0.35980993435E+01  0.10340066567E+02  0.32342540635E+02  0.34145325163E+02  0.51100000000E-03 0.  1.
         12    1    3    3    0    0  0.43365149605E-01 -0.62112025628E+01  0.66748068170E+01  0.91177828366E+01  0.00000000000E+00 0. -1.
</event>
<event>
 7    1  0.4450624E-010  0.4778727E+02  0.7816164E-02  0.1312668E+00
        -11   -1    0    0    0    0  0.00000000000E+00  0.00000000000E+00  0.45593999997E+02  0.45594000000E+02  0.51100000000E-03 0.  1.
         11   -1    0    0    0    0 -0.00000000000E+00 -0.00000000000E+00 -0.45593999997E+02  0.45594000000E+02  0.51100000000E-03 0. -1.
    9900012    2    1    2    0    0  0.27428745305E+02 -0.32378390760E+02  0.91064315120E+01  0.47787270144E+02  0.19999995893E+02 0.  0.
         12    1    1    2    0    0 -0.27428745305E+02  0.32378390760E+02 -0.91064315120E+01  0.43400729856E+02  0.00000000000E+00 0. -1.
         11    1    3    3    0    0  0.85616299109E+01 -0.20203361303E+02  0.36038832198E+01  0.22236575483E+02  0.51100000000E-03 0. -1.
        -11    1    3    3    0    0  0.74328785241E+01 -0.76116023553E+01 -0.24199906217E+01  0.10910569574E+02  0.51100000000E-03 0.  1.
        -12    1    3    3    0    0  0.11434236870E+02 -0.45634271011E+01  0.79225389139E+01  0.14640125086E+02  0.00000000000E+00 0.  1.
</event>
<event>
 7    1  0.4450624E-010  0.4778727E+02  0.7816164E-02  0.1312668E+00
        -11   -1    0    0    0    0  0.00000000000E+00  0.00000000000E+00  0.45593999997E+02  0.45594000000E+02  0.51100000000E-03 0.  1.
         11   -1    0    0    0    0 -0.00000000000E+00 -0.00000000000E+00 -0.45593999997E+02  0.45594000000E+02  0.51100000000E-03 0. -1.
    9900012    2    1    2    0    0  0.12226002075E+02  0.14364268746E+01  0.41618323469E+02  0.47787270775E+02  0.19999998772E+02 0.  0.
         12    1    1    2    0    0 -0.12226002075E+02 -0.14364268746E+01 -0.41618323469E+02  0.43400729225E+02  0.00000000000E+00 0. -1.
         11    1    3    3    0    0  0.85255436862E+01  0.18362473732E+01  0.18273329905E+02  0.20247747668E+02  0.51100000000E-03 0.  1.
        -11    1    3    3    0    0  0.88926361116E+00  0.48571665213E+01  0.20209076804E+02  0.20803596851E+02  0.51100000000E-03 0. -1.
         12    1    3    3    0    0  0.28111947773E+01 -0.52569870199E+01  0.31359167596E+01  0.67359262560E+01  0.00000000000E+00 0. -1.
</event>
<event>
 7    1  0.4450624E-010  0.4778727E+02  0.7816164E-02  0.1312668E+00
        -11   -1    0    0    0    0  0.00000000000E+00  0.00000000000E+00  0.45593999997E+02  0.45594000000E+02  0.51100000000E-03 0. -1.
         11   -1    0    0    0    0 -0.00000000000E+00 -0.00000000000E+00 -0.45593999997E+02  0.45594000000E+02  0.51100000000E-03 0.  1.
    9900012    2    1    2    0    0  0.12236333778E+02  0.28184215994E+02 -0.30652004508E+02  0.47787271021E+02  0.19999999894E+02 0.  0.
         12    1    1    2    0    0 -0.12236333778E+02 -0.28184215994E+02  0.30652004508E+02  0.43400728979E+02  0.00000000000E+00 0. -1.
         11    1    3    3    0    0  0.10583322864E+01  0.14391624410E+01  0.25544334872E+01  0.31171118783E+01  0.51100000000E-03 0. -1.
        -11    1    3    3    0    0  0.32729809218E+01  0.26879673302E+01 -0.73251474385E+01  0.84614040052E+01  0.51100000000E-03 0.  1.
        -12    1    3    3    0    0  0.79050205697E+01  0.24057086223E+02 -0.25881290557E+02  0.36208755138E+02  0.00000000000E+00 0.  1.
</event>
<event>
 7    1  0.4450624E-010  0.4778727E+02  0.7816164E-02  0.1312668E+00
        -11   -1    0    0    0    0  0.00000000000E+00  0.00000000000E+00  0.45593999997E+02  0.45594000000E+02  0.51100000000E-03 0. -1.
         11   -1    0    0    0    0 -0.00000000000E+00 -0.00000000000E+00 -0.45593999997E+02  0.45594000000E+02  0.51100000000E-03 0.  1.
    9900012    2    1    2    0    0  0.28143959675E+02 -0.16828646398E+02 -0.28431282207E+02  0.47787267129E+02  0.19999982148E+02 0.  0.
         12    1    1    2    0    0 -0.28143959675E+02  0.16828646398E+02  0.28431282207E+02  0.43400732871E+02  0.00000000000E+00 0. -1.
         11    1    3    3    0    0  0.16919740423E+02 -0.72449966122E+01 -0.22076053248E+02  0.28742298432E+02  0.51100000000E-03 0. -1.
        -11    1    3    3    0    0  0.80054071710E+01 -0.10196300578E+02 -0.81465341680E+01  0.15310686094E+02  0.51100000000E-03 0.  1.
         12    1    3    3    0    0  0.32188120810E+01  0.61265079212E+00  0.17913052089E+01  0.37342826028E+01  0.00000000000E+00 0. -1.
</event>
<event>
 7    1  0.5464975E-010  0.4778727E+02  0.7816164E-02  0.1312668E+00
        -11   -1    0    0    0    0  0.00000000000E+00  0.00000000000E+00  0.45593999997E+02  0.45594000000E+02  0.51100000000E-03 0.  1.
         11   -1    0    0    0    0 -0.00000000000E+00 -0.00000000000E+00 -0.45593999997E+02  0.45594000000E+02  0.51100000000E-03 0. -1.
    9900012    2    1    2    0    0  0.22207621553E+02 -0.35647342695E+02  0.10941276301E+02  0.47787273931E+02  0.20000013161E+02 0.  0.
         12    1    1    2    0    0 -0.22207621553E+02  0.35647342695E+02 -0.10941276301E+02  0.43400726069E+02  0.00000000000E+00 0. -1.
         11    1    3    3    0    0 -0.10039710132E+01  0.96020592231E+00 -0.54464895376E+00  0.14921782576E+01  0.51100000000E-03 0. -1.
        -11    1    3    3    0    0  0.73553942013E+01 -0.16442076573E+02 -0.41291496265E+00  0.18017053169E+02  0.51100000000E-03 0.  1.
        -12    1    3    3    0    0  0.15856198365E+02 -0.20165472044E+02  0.11898840217E+02  0.28278042504E+02  0.00000000000E+00 0.  1.
</event>
<event>
 7    1  0.4450624E-010  0.4778727E+02  0.7816164E-02  0.1312668E+00
        -11   -1    0    0    0    0  0.00000000000E+00  0.00000000000E+00  0.45593999997E+02  0.45594000000E+02  0.51100000000E-03 0. -1.
         11   -1    0    0    0    0 -0.00000000000E+00 -0.00000000000E+00 -0.45593999997E+02  0.45594000000E+02  0.51100000000E-03 0.  1.
    9900012    2    1    2    0    0  0.34745424684E+01  0.42636110852E+02  0.73289056721E+01  0.47787271293E+02  0.20000001135E+02 0.  0.
         12    1    1    2    0    0 -0.34745424684E+01 -0.42636110852E+02 -0.73289056721E+01  0.43400728707E+02  0.00000000000E+00 0. -1.
         11    1    3    3    0    0 -0.69045391592E+00  0.15302842555E+01  0.28700198165E+01  0.33249827851E+01  0.51100000000E-03 0. -1.
        -11    1    3    3    0    0  0.28534394748E+01  0.57215620765E+01 -0.46441555174E+01  0.79023142283E+01  0.51100000000E-03 0.  1.
         12    1    3    3    0    0  0.13115569095E+01  0.35384264520E+02  0.91030413731E+01  0.36559974280E+02  0.00000000000E+00 0. -1.
</event>
<event>
 7    1  0.4450624E-010  0.4778727E+02  0.7816164E-02  0.1312668E+00
        -11   -1    0    0    0    0  0.00000000000E+00  0.00000000000E+00  0.45593999997E+02  0.45594000000E+02  0.51100000000E-03 0.  1.
         11   -1    0    0    0    0 -0.00000000000E+00 -0.00000000000E+00 -0.45593999997E+02  0.45594000000E+02  0.51100000000E-03 0. -1.
    9900012    2    1    2    0    0  0.30127877668E+02  0.13643143332E+02  0.28103364057E+02  0.47787269084E+02  0.19999991062E+02 0.  0.
         12    1    1    2    0    0 -0.30127877668E+02 -0.13643143332E+02 -0.28103364057E+02  0.43400730916E+02  0.00000000000E+00 0. -1.
         11    1    3    3    0    0  0.16195974115E+02  0.98459008636E+01  0.20156347963E+02  0.27668207474E+02  0.51100000000E-03 0. -1.
        -11    1    3    3    0    0  0.43644008207E+01  0.14428620681E+01  0.91037775146E+01  0.10198461196E+02  0.51100000000E-03 0.  1.
         12    1    3    3    0    0  0.95675027321E+01  0.23543804001E+01 -0.11567614207E+01  0.99206004144E+01  0.00000000000E+00 0. -1.
</event>
<event>
 7    1  0.4450624E-010  0.4778727E+02  0.7816164E-02  0.1312668E+00
        -11   -1    0    0    0    0  0.00000000000E+00  0.00000000000E+00  0.45593999997E+02  0.45594000000E+02  0.51100000000E-03 0.  1.
         11   -1    0    0    0    0 -0.00000000000E+00 -0.00000000000E+00 -0.45593999997E+02  0.45594000000E+02  0.51100000000E-03 0. -1.
    9900012    2    1    2    0    0  0.26418095922E+02 -0.33713124946E+02 -0.70094788878E+01  0.47787269821E+02  0.19999994423E+02 0.  0.
         12    1    1    2    0    0 -0.26418095922E+02  0.33713124946E+02  0.70094788878E+01  0.43400730179E+02  0.00000000000E+00 0. -1.
         11    1    3    3    0    0 -0.94842641966E+00 -0.29896657262E+01  0.88909138745E+00  0.32600763157E+01  0.51100000000E-03 0. -1.
        -11    1    3    3    0    0  0.14896956136E+02 -0.84470941449E+01  0.17967696092E+01  0.17219206802E+02  0.51100000000E-03 0.  1.
        -12    1    3    3    0    0  0.12469566206E+02 -0.22276365075E+02 -0.96953398844E+01  0.27307986703E+02  0.00000000000E+00 0.  1.
</event>
<event>
 7    1  0.4450624E-010  0.4778729E+02  0.7816164E-02  0.1312668E+00
        -11   -1    0    0    0    0  0.00000000000E+00  0.00000000000E+00  0.45593999997E+02  0.45594000000E+02  0.51100000000E-03 0.  1.
         11   -1    0    0    0    0 -0.00000000000E+00 -0.00000000000E+00 -0.45593999997E+02  0.45594000000E+02  0.51100000000E-03 0. -1.
    9900012    2    1    2    0    0 -0.76955803102E+01  0.23947921172E+01  0.42645804456E+02  0.47787290060E+02  0.20000086699E+02 0.  0.
         12    1    1    2    0    0  0.76955803102E+01 -0.23947921172E+01 -0.42645804456E+02  0.43400709940E+02  0.00000000000E+00 0. -1.
         11    1    3    3    0    0  0.15012642065E+00 -0.49598491191E+01  0.60568738442E+01  0.78299656610E+01  0.51100000000E-03 0. -1.
        -11    1    3    3    0    0 -0.65810848657E+01 -0.78236952656E+00  0.24125230681E+02  0.25018983508E+02  0.51100000000E-03 0.  1.
        -12    1    3    3    0    0 -0.12646218652E+01  0.81370107629E+01  0.12463699931E+02  0.14938340891E+02  0.00000000000E+00 0.  1.
</event>
<event>
 7    1  0.4450624E-010  0.4778727E+02  0.7816164E-02  0.1312668E+00
        -11   -1    0    0    0    0  0.00000000000E+00  0.00000000000E+00  0.45593999997E+02  0.45594000000E+02  0.51100000000E-03 0.  1.
         11   -1    0    0    0    0 -0.00000000000E+00 -0.00000000000E+00 -0.45593999997E+02  0.45594000000E+02  0.51100000000E-03 0. -1.
    9900012    2    1    2    0    0 -0.19733528694E+02 -0.37113703728E+02  0.10806672906E+02  0.47787270301E+02  0.19999996609E+02 0.  0.
         12    1    1    2    0    0  0.19733528694E+02  0.37113703728E+02 -0.10806672906E+02  0.43400729699E+02  0.00000000000E+00 0. -1.
         11    1    3    3    0    0 -0.11558509135E+01 -0.45976082109E+01 -0.15763115481E+01  0.49958733924E+01  0.51100000000E-03 0. -1.
        -11    1    3    3    0    0 -0.14016592834E+02 -0.31378627328E+02  0.60355713868E+01  0.34892853852E+02  0.51100000000E-03 0.  1.
         12    1    3    3    0    0 -0.45610849465E+01 -0.11374681887E+01  0.63474130674E+01  0.78985430567E+01  0.00000000000E+00 0. -1.
</event>
<event>
 7    1  0.4450624E-010  0.4778727E+02  0.7816164E-02  0.1312668E+00
        -11   -1    0    0    0    0  0.00000000000E+00  0.00000000000E+00  0.45593999997E+02  0.45594000000E+02  0.51100000000E-03 0. -1.
         11   -1    0    0    0    0 -0.00000000000E+00 -0.00000000000E+00 -0.45593999997E+02  0.45594000000E+02  0.51100000000E-03 0.  1.
    9900012    2    1    2    0    0  0.70525527971E+00 -0.42696363740E+02 -0.77554052378E+01  0.47787272218E+02  0.20000005350E+02 0.  0.
         12    1    1    2    0    0 -0.70525527971E+00  0.42696363740E+02  0.77554052378E+01  0.43400727782E+02  0.00000000000E+00 0. -1.
         11    1    3    3    0    0 -0.60116554074E+00 -0.22968137746E+02  0.52888891413E+01  0.23576876386E+02  0.51100000000E-03 0. -1.
        -11    1    3    3    0    0  0.16810685627E+01 -0.18807440876E+01 -0.19952858760E+01  0.32162642652E+01  0.51100000000E-03 0.  1.
         12    1    3    3    0    0 -0.37464774221E+00 -0.17847481907E+02 -0.11049008503E+02  0.20994131567E+02  0.00000000000E+00 0. -1.
</event>
<event>
 7    1  0.4450624E-010  0.4778727E+02  0.7816164E-02  0.1312668E+00
        -11   -1    0    0    0    0  0.00000000000E+00  0.00000000000E+00  0.45593999997E+02  0.45594000000E+02  0.51100000000E-03 0.  1.
         11   -1    0    0    0    0 -0.00000000000E+00 -0.00000000000E+00 -0.45593999997E+02  0.45594000000E+02  0.51100000000E-03 0. -1.
    9900012    2    1    2    0    0  0.27128397654E+02 -0.26506731786E+02  0.21096597697E+02  0.47787271623E+02  0.20000002638E+02 0.  0.
         12    1    1    2    0    0 -0.27128397654E+02  0.26506731786E+02 -0.21096597697E+02  0.43400728377E+02  0.00000000000E+00 0. -1.
         11    1    3    3    0    0  0.13651370693E+01 -0.17492337345E+01  0.87271818692E+00  0.23843353730E+01  0.51100000000E-03 0. -1.
        -11    1    3    3    0    0  0.26388014435E+02 -0.21040861370E+02  0.11094957237E+02  0.35526655195E+02  0.51100000000E-03 0.  1.
         12    1    3    3    0    0 -0.62475385010E+00 -0.37166366810E+01  0.91289222738E+01  0.98762810548E+01  0.00000000000E+00 0. -1.
</event>
<event>
 7    1  0.4450624E-010  0.4778727E+02  0.7816164E-02  0.1312668E+00
        -11   -1    0    0    0    0  0.00000000000E+00  0.00000000000E+00  0.45593999997E+02  0.45594000000E+02  0.51100000000E-03 0. -1.
         11   -1    0    0    0    0 -0.00000000000E+00 -0.00000000000E+00 -0.45593999997E+02  0.45594000000E+02  0.51100000000E-03 0.  1.
    9900012    2    1    2    0    0 -0.11477698312E+02 -0.41619703954E+02  0.44368863666E+01  0.47787271016E+02  0.19999999869E+02 0.  0.
         12    1    1    2    0    0  0.11477698312E+02  0.41619703954E+02 -0.44368863666E+01  0.43400728984E+02  0.00000000000E+00 0. -1.
         11    1    3    3    0    0 -0.10446967696E+02 -0.22034541778E+02 -0.13435843100E+01  0.24422640817E+02  0.51100000000E-03 0. -1.
        -11    1    3    3    0    0 -0.60020175930E+01 -0.79293466246E+01  0.20334444804E+01  0.10150549236E+02  0.51100000000E-03 0.  1.
         12    1    3    3    0    0  0.49712869774E+01 -0.11655815551E+02  0.37470261961E+01  0.13214080963E+02  0.00000000000E+00 0. -1.
</event>
<event>
 7    1  0.4450624E-010  0.4778727E+02  0.7816164E-02  0.1312668E+00
        -11   -1    0    0    0    0  0.00000000000E+00  0.00000000000E+00  0.45593999997E+02  0.45594000000E+02  0.51100000000E-03 0.  1.
         11   -1    0    0    0    0 -0.00000000000E+00 -0.00000000000E+00 -0.45593999997E+02  0.45594000000E+02  0.51100000000E-03 0. -1.
    9900012    2    1    2    0    0  0.21388915673E+02 -0.37140099374E+02  0.68374710485E+01  0.47787266072E+02  0.19999977329E+02 0.  0.
         12    1    1    2    0    0 -0.21388915673E+02  0.37140099374E+02 -0.68374710485E+01  0.43400733928E+02  0.00000000000E+00 0. -1.
         11    1    3    3    0    0  0.18257486238E+02 -0.17429720204E+02  0.12876115186E+01  0.25274273359E+02  0.51100000000E-03 0. -1.
        -11    1    3    3    0    0  0.55976504489E+01 -0.86610711250E+01  0.11885121124E+01  0.10380770919E+02  0.51100000000E-03 0.  1.
        -12    1    3    3    0    0 -0.24662210143E+01 -0.11049308045E+02  0.43613474175E+01  0.12132221794E+02  0.00000000000E+00 0.  1.
</event>
<event>
 7    1  0.4450624E-010  0.4778727E+02  0.7816164E-02  0.1312668E+00
        -11   -1    0    0    0    0  0.00000000000E+00  0.00000000000E+00  0.45593999997E+02  0.45594000000E+02  0.51100000000E-03 0.  1.
         11   -1    0    0    0    0 -0.00000000000E+00 -0.00000000000E+00 -0.45593999997E+02  0.45594000000E+02  0.51100000000E-03 0. -1.
    9900012    2    1    2    0    0 -0.33975482882E+01  0.33973568681E+02  0.26793223038E+02  0.47787268393E+02  0.19999987911E+02 0.  0.
         12    1    1    2    0    0  0.33975482882E+01 -0.33973568681E+02 -0.26793223038E+02  0.43400731607E+02  0.00000000000E+00 0. -1.
         11    1    3    3    0    0 -0.62176427674E+00  0.88979547700E+01  0.99631059491E+00  0.89751225600E+01  0.51100000000E-03 0. -1.
        -11    1    3    3    0    0  0.16468744316E+01 -0.13882911951E+01  0.16170629268E+01  0.26934068772E+01  0.51100000000E-03 0.  1.
        -12    1    3    3    0    0 -0.44226584430E+01  0.26463905106E+02  0.24179849516E+02  0.36118738956E+02  0.00000000000E+00 0.  1.
</event>
<event>
 7    1  0.4450624E-010  0.4778727E+02  0.7816164E-02  0.1312668E+00
        -11   -1    0    0    0    0  0.00000000000E+00  0.00000000000E+00  0.45593999997E+02  0.45594000000E+02  0.51100000000E-03 0.  1.
         11   -1    0    0    0    0 -0.00000000000E+00 -0.00000000000E+00 -0.45593999997E+02  0.45594000000E+02  0.51100000000E-03 0. -1.
    9900012    2    1    2    0    0 -0.35347740275E+02  0.21367287818E+02  0.13326643431E+02  0.47787272398E+02  0.20000006171E+02 0.  0.
         12    1    1    2    0    0  0.35347740275E+02 -0.21367287818E+02 -0.13326643431E+02  0.43400727602E+02  0.00000000000E+00 0. -1.
         11    1    3    3    0    0 -0.13068267484E+02  0.14370900168E+02  0.50920090065E+01  0.20080611113E+02  0.51100000000E-03 0. -1.
        -11    1    3    3    0    0 -0.19827935686E+02  0.69507257664E+01  0.21186665321E+01  0.21117489680E+02  0.51100000000E-03 0.  1.
        -12    1    3    3    0    0 -0.24515371048E+01  0.45661883382E-01  0.61159678922E+01  0.65891716051E+01  0.00000000000E+00 0.  1.
</event>
<event>
 7    1  0.4450624E-010  0.4778727E+02  0.7816164E-02  0.1312668E+00
        -11   -1    0    0    0    0  0.00000000000E+00  0.00000000000E+00  0.45593999997E+02  0.45594000000E+02  0.51100000000E-03 0.  1.
         11   -1    0    0    0    0 -0.00000000000E+00 -0.00000000000E+00 -0.45593999997E+02  0.45594000000E+02  0.51100000000E-03 0. -1.
    9900012    2    1    2    0    0 -0.20841292830E+02 -0.20091536467E+02  0.32335643996E+02  0.47787271929E+02  0.20000004035E+02 0.  0.
         12    1    1    2    0    0  0.20841292830E+02  0.20091536467E+02 -0.32335643996E+02  0.43400728071E+02  0.00000000000E+00 0. -1.
         11    1    3    3    0    0 -0.53726387200E+01  0.23817009486E+01  0.30360255863E+01  0.66147711862E+01  0.51100000000E-03 0. -1.
        -11    1    3    3    0    0 -0.84661308307E+00 -0.70629832182E+01  0.40890414571E+01  0.82050439336E+01  0.51100000000E-03 0.  1.
        -12    1    3    3    0    0 -0.14622041027E+02 -0.15410254198E+02  0.25210576952E+02  0.32967456810E+02  0.00000000000E+00 0.  1.
</event>
<event>
 7    1  0.4450624E-010  0.4778725E+02  0.7816164E-02  0.1312668E+00
        -11   -1    0    0    0    0  0.00000000000E+00  0.00000000000E+00  0.45593999997E+02  0.45594000000E+02  0.51100000000E-03 0.  1.
         11   -1    0    0    0    0 -0.00000000000E+00 -0.00000000000E+00 -0.45593999997E+02  0.45594000000E+02  0.51100000000E-03 0. -1.
    9900012    2    1    2    0    0  0.27674332498E+02 -0.41225777650E+01  0.33177708488E+02  0.47787254993E+02  0.19999926815E+02 0.  0.
         12    1    1    2    0    0 -0.27674332498E+02  0.41225777650E+01 -0.33177708488E+02  0.43400745007E+02  0.00000000000E+00 0. -1.
         11    1    3    3    0    0  0.13517934848E+02 -0.98319099862E+01  0.10886932394E+02  0.19948090478E+02  0.51100000000E-03 0. -1.
        -11    1    3    3    0    0  0.90676314478E+01  0.50546119505E+00  0.96407339480E+01  0.13244666187E+02  0.51100000000E-03 0.  1.
         12    1    3    3    0    0  0.50887662022E+01  0.52038710262E+01  0.12650042147E+02  0.14594498328E+02  0.00000000000E+00 0. -1.
</event>
<event>
 7    1  0.4450624E-010  0.4778728E+02  0.7816164E-02  0.1312668E+00
        -11   -1    0    0    0    0  0.00000000000E+00  0.00000000000E+00  0.45593999997E+02  0.45594000000E+02  0.51100000000E-03 0. -1.
         11   -1    0    0    0    0 -0.00000000000E+00 -0.00000000000E+00 -0.45593999997E+02  0.45594000000E+02  0.51100000000E-03 0.  1.
    9900012    2    1    2    0    0  0.78893808108E+01  0.42371157112E+02 -0.51054469542E+01  0.47787275660E+02  0.20000021046E+02 0.  0.
         12    1    1    2    0    0 -0.78893808108E+01 -0.42371157112E+02  0.51054469542E+01  0.43400724340E+02  0.00000000000E+00 0. -1.
         11    1    3    3    0    0 -0.92592400965E+00  0.12592290109E+02  0.12372082066E+01  0.12686756475E+02  0.51100000000E-03 0. -1.
        -11    1    3    3    0    0  0.39269627020E+01  0.28800697655E+02 -0.74219498194E+01  0.29999776014E+02  0.51100000000E-03 0.  1.
         12    1    3    3    0    0  0.48883421184E+01  0.97816934819E+00  0.10792946586E+01  0.51007431714E+01  0.00000000000E+00 0. -1.
</event>
<event>
 7    1  0.4450624E-010  0.4778727E+02  0.7816164E-02  0.1312668E+00
        -11   -1    0    0    0    0  0.00000000000E+00  0.00000000000E+00  0.45593999997E+02  0.45594000000E+02  0.51100000000E-03 0.  1.
         11   -1    0    0    0    0 -0.00000000000E+00 -0.00000000000E+00 -0.45593999997E+02  0.45594000000E+02  0.51100000000E-03 0. -1.
    9900012    2    1    2    0    0 -0.25850525292E+02  0.20075500903E+02  0.28501718902E+02  0.47787269883E+02  0.19999994703E+02 0.  0.
         12    1    1    2    0    0  0.25850525292E+02 -0.20075500903E+02 -0.28501718902E+02  0.43400730117E+02  0.00000000000E+00 0. -1.
         11    1    3    3    0    0  0.11185832654E+00  0.10008760495E+01  0.59706713592E+01  0.60550129556E+01  0.51100000000E-03 0. -1.
        -11    1    3    3    0    0  0.14116727745E+01 -0.22974345661E+00  0.19505067422E+01  0.24186936330E+01  0.51100000000E-03 0.  1.
        -12    1    3    3    0    0 -0.27374056393E+02  0.19304368310E+02  0.20580540800E+02  0.39313563294E+02  0.00000000000E+00 0.  1.
</event>
<event>
 7    1  0.4450624E-010  0.4778727E+02  0.7816164E-02  0.1312668E+00
        -11   -1    0    0    0    0  0.00000000000E+00  0.00000000000E+00  0.45593999997E+02  0.45594000000E+02  0.51100000000E-03 0. -1.
         11   -1    0    0    0    0 -0.00000000000E+00 -0.00000000000E+00 -0.45593999997E+02  0.45594000000E+02  0.51100000000E-03 0.  1.
    9900012    2    1    2    0    0 -0.27541511910E+02  0.32318711179E+02 -0.89771583300E+01  0.47787270257E+02  0.19999996410E+02 0.  0.
         12    1    1    2    0    0  0.27541511910E+02 -0.32318711179E+02  0.89771583300E+01  0.43400729743E+02  0.00000000000E+00 0. -1.
         11    1    3    3    0    0 -0.23749676069E+01  0.14201652651E+01  0.18156964009E+01  0.33096969945E+01  0.51100000000E-03 0. -1.
        -11    1    3    3    0    0 -0.22773280002E+02  0.32866818348E+02 -0.10630713332E+02  0.41374655244E+02  0.51100000000E-03 0.  1.
        -12    1    3    3    0    0 -0.23932643014E+01 -0.19682724348E+01 -0.16214139847E+00  0.31029180181E+01  0.00000000000E+00 0.  1.
</event>
<event>
 7    1  0.4450624E-010  0.4778727E+02  0.7816164E-02  0.1312668E+00
        -11   -1    0    0    0    0  0.00000000000E+00  0.00000000000E+00  0.45593999997E+02  0.45594000000E+02  0.51100000000E-03 0.  1.
         11   -1    0    0    0    0 -0.00000000000E+00 -0.00000000000E+00 -0.45593999997E+02  0.45594000000E+02  0.51100000000E-03 0. -1.
    9900012    2    1    2    0    0 -0.18582665193E+02 -0.38908193858E+02 -0.49457155810E+01  0.47787273076E+02  0.20000009261E+02 0.  0.
         12    1    1    2    0    0  0.18582665193E+02  0.38908193858E+02  0.49457155810E+01  0.43400726924E+02  0.00000000000E+00 0. -1.
         11    1    3    3    0    0  0.13386933428E+01 -0.36056264057E+01 -0.45628515943E+01  0.59676005711E+01  0.51100000000E-03 0. -1.
        -11    1    3    3    0    0 -0.10360003883E+02 -0.14926383977E+02 -0.49961856668E+01  0.18843791831E+02  0.51100000000E-03 0.  1.
        -12    1    3    3    0    0 -0.95613546524E+01 -0.20376183475E+02  0.46133216801E+01  0.22975880674E+02  0.00000000000E+00 0.  1.
</event>
<event>
 7    1  0.4450624E-010  0.4778728E+02  0.7816164E-02  0.1312668E+00
        -11   -1    0    0    0    0  0.00000000000E+00  0.00000000000E+00  0.45593999997E+02  0.45594000000E+02  0.51100000000E-03 0.  1.
         11   -1    0    0    0    0 -0.00000000000E+00 -0.00000000000E+00 -0.45593999997E+02  0.45594000000E+02  0.51100000000E-03 0. -1.
    9900012    2    1    2    0    0  0.47303472646E+01 -0.52979420260E+01  0.42815629317E+02  0.47787280089E+02  0.20000041238E+02 0.  0.
         12    1    1    2    0    0 -0.47303472646E+01  0.52979420260E+01 -0.42815629317E+02  0.43400719911E+02  0.00000000000E+00 0. -1.
         11    1    3    3    0    0  0.43239445873E+01 -0.15752261156E+01  0.74355757189E+01  0.87444622843E+01  0.51100000000E-03 0. -1.
        -11    1    3    3    0    0  0.65692489896E+01 -0.60666176287E+01  0.26599271430E+02  0.28062076235E+02  0.51100000000E-03 0.  1.
         12    1    3    3    0    0 -0.61628463123E+01  0.23439017182E+01  0.87807821683E+01  0.10980741570E+02  0.00000000000E+00 0. -1.
</event>
<event>
 7    1  0.4450624E-010  0.4778727E+02  0.7816164E-02  0.1312668E+00
        -11   -1    0    0    0    0  0.00000000000E+00  0.00000000000E+00  0.45593999997E+02  0.45594000000E+02  0.51100000000E-03 0.  1.
         11   -1    0    0    0    0 -0.00000000000E+00 -0.00000000000E+00 -0.45593999997E+02  0.45594000000E+02  0.51100000000E-03 0. -1.
    9900012    2    1    2    0    0 -0.25156321529E+02 -0.35028505800E+02 -0.48771430180E+01  0.47787271257E+02  0.20000000968E+02 0.  0.
         12    1    1    2    0    0  0.25156321529E+02  0.35028505800E+02  0.48771430180E+01  0.43400728743E+02  0.00000000000E+00 0. -1.
         11    1    3    3    0    0 -0.99298570560E+01 -0.59301603028E+01  0.10068545484E+01  0.11609591669E+02  0.51100000000E-03 0. -1.
        -11    1    3    3    0    0 -0.14435275905E+02 -0.19066745634E+02  0.10816371486E+01  0.23939254765E+02  0.51100000000E-03 0.  1.
        -12    1    3    3    0    0 -0.79118856772E+00 -0.10031599863E+02 -0.69656347150E+01  0.12238424823E+02  0.00000000000E+00 0.  1.
</event>
<event>
 7    1  0.4658584E-010  0.4778721E+02  0.7816164E-02  0.1312668E+00
        -11   -1    0    0    0    0  0.00000000000E+00  0.00000000000E+00  0.45593999997E+02  0.45594000000E+02  0.51100000000E-03 0.  1.
         11   -1    0    0    0    0 -0.00000000000E+00 -0.00000000000E+00 -0.45593999997E+02  0.45594000000E+02  0.51100000000E-03 0. -1.
    9900012    2    1    2    0    0  0.95861207439E+01  0.33515862251E+02  0.25853860005E+02  0.47787207260E+02  0.19999709178E+02 0.  0.
         12    1    1    2    0    0 -0.95861207439E+01 -0.33515862251E+02 -0.25853860005E+02  0.43400792740E+02  0.00000000000E+00 0. -1.
         11    1    3    3    0    0 -0.15835346832E+01  0.20809525919E+02  0.11347093025E+02  0.23755009397E+02  0.51100000000E-03 0. -1.
        -11    1    3    3    0    0  0.27626659561E+01  0.76606637468E+01  0.10853160328E+02  0.13568683856E+02  0.51100000000E-03 0.  1.
         12    1    3    3    0    0  0.84069894710E+01  0.50456725849E+01  0.36536066516E+01  0.10463514006E+02  0.00000000000E+00 0. -1.
</event>
<event>
 7    1  0.4450624E-010  0.4778727E+02  0.7816164E-02  0.1312668E+00
        -11   -1    0    0    0    0  0.00000000000E+00  0.00000000000E+00  0.45593999997E+02  0.45594000000E+02  0.51100000000E-03 0.  1.
         11   -1    0    0    0    0 -0.00000000000E+00 -0.00000000000E+00 -0.45593999997E+02  0.45594000000E+02  0.51100000000E-03 0. -1.
    9900012    2    1    2    0    0  0.16218260852E+02  0.29518560587E+02  0.27372355580E+02  0.47787271271E+02  0.20000001035E+02 0.  0.
         12    1    1    2    0    0 -0.16218260852E+02 -0.29518560587E+02 -0.27372355580E+02  0.43400728729E+02  0.00000000000E+00 0. -1.
         11    1    3    3    0    0  0.32684940076E+01  0.72196902256E+00 -0.39221828735E+00  0.33701821603E+01  0.51100000000E-03 0. -1.
        -11    1    3    3    0    0 -0.15070477286E+01 -0.77084069953E+00  0.81498715214E+00  0.18787209903E+01  0.51100000000E-03 0.  1.
        -12    1    3    3    0    0  0.14456814572E+02  0.29567432264E+02  0.26949586715E+02  0.42538368121E+02  0.00000000000E+00 0.  1.
</event>
<event>
 7    1  0.4450624E-010  0.4778727E+02  0.7816164E-02  0.1312668E+00
        -11   -1    0    0    0    0  0.00000000000E+00  0.00000000000E+00  0.45593999997E+02  0.45594000000E+02  0.51100000000E-03 0. -1.
         11   -1    0    0    0    0 -0.00000000000E+00 -0.00000000000E+00 -0.45593999997E+02  0.45594000000E+02  0.51100000000E-03 0.  1.
    9900012    2    1    2    0    0 -0.15345494822E+02 -0.13429717548E+02 -0.38311642795E+02  0.47787268457E+02  0.19999988204E+02 0.  0.
         12    1    1    2    0    0  0.15345494822E+02  0.13429717548E+02  0.38311642795E+02  0.43400731543E+02  0.00000000000E+00 0. -1.
         11    1    3    3    0    0 -0.74205286176E+01  0.42328141382E+01 -0.12617148718E+02  0.15237237365E+02  0.51100000000E-03 0. -1.
        -11    1    3    3    0    0 -0.37311892774E+01 -0.34672880168E+01 -0.79597716840E+01  0.94499642929E+01  0.51100000000E-03 0.  1.
         12    1    3    3    0    0 -0.41937769270E+01 -0.14195243670E+02 -0.17734722394E+02  0.23100066800E+02  0.00000000000E+00 0. -1.
</event>
<event>
 7    1  0.4450624E-010  0.4778727E+02  0.7816164E-02  0.1312668E+00
        -11   -1    0    0    0    0  0.00000000000E+00  0.00000000000E+00  0.45593999997E+02  0.45594000000E+02  0.51100000000E-03 0.  1.
         11   -1    0    0    0    0 -0.00000000000E+00 -0.00000000000E+00 -0.45593999997E+02  0.45594000000E+02  0.51100000000E-03 0. -1.
    9900012    2    1    2    0    0  0.24910486469E+02 -0.34079754994E+02  0.10082724449E+02  0.47787269950E+02  0.19999995008E+02 0.  0.
         12    1    1    2    0    0 -0.24910486469E+02  0.34079754994E+02 -0.10082724449E+02  0.43400730050E+02  0.00000000000E+00 0. -1.
         11    1    3    3    0    0  0.64978528845E+01 -0.33134586795E+01  0.77101635023E+01  0.10613563116E+02  0.51100000000E-03 0. -1.
        -11    1    3    3    0    0  0.11987051990E+02 -0.11184125454E+02  0.23665225230E+01  0.16564253883E+02  0.51100000000E-03 0.  1.
        -12    1    3    3    0    0  0.64255815943E+01 -0.19582170861E+02  0.60384241243E-02  0.20609452951E+02  0.00000000000E+00 0.  1.
</event>
<event>
 7    1  0.4450624E-010  0.4778727E+02  0.7816164E-02  0.1312668E+00
        -11   -1    0    0    0    0  0.00000000000E+00  0.00000000000E+00  0.45593999997E+02  0.45594000000E+02  0.51100000000E-03 0.  1.
         11   -1    0    0    0    0 -0.00000000000E+00 -0.00000000000E+00 -0.45593999997E+02  0.45594000000E+02  0.51100000000E-03 0. -1.
    9900012    2    1    2    0    0 -0.14951177805E+02 -0.38703639425E+02  0.12732396355E+02  0.47787270290E+02  0.19999996558E+02 0.  0.
         12    1    1    2    0    0  0.14951177805E+02  0.38703639425E+02 -0.12732396355E+02  0.43400729710E+02  0.00000000000E+00 0. -1.
         11    1    3    3    0    0  0.22075449121E+01 -0.16348858770E+01  0.31762612068E+01  0.41993739872E+01  0.51100000000E-03 0.  1.
        -11    1    3    3    0    0 -0.29639706671E+01 -0.19899959638E+02  0.28285462978E+01  0.20317337181E+02  0.51100000000E-03 0. -1.
         12    1    3    3    0    0 -0.14194752050E+02 -0.17168793909E+02  0.67275888500E+01  0.23270559121E+02  0.00000000000E+00 0. -1.
</event>
<event>
 7    1  0.4450624E-010  0.4778727E+02  0.7816164E-02  0.1312668E+00
        -11   -1    0    0    0    0  0.00000000000E+00  0.00000000000E+00  0.45593999997E+02  0.45594000000E+02  0.51100000000E-03 0.  1.
         11   -1    0    0    0    0 -0.00000000000E+00 -0.00000000000E+00 -0.45593999997E+02  0.45594000000E+02  0.51100000000E-03 0. -1.
    9900012    2    1    2    0    0  0.94712555944E+01  0.19578471896E+02  0.37557985180E+02  0.47787268496E+02  0.19999988380E+02 0.  0.
         12    1    1    2    0    0 -0.94712555944E+01 -0.19578471896E+02 -0.37557985180E+02  0.43400731504E+02  0.00000000000E+00 0. -1.
         11    1    3    3    0    0  0.11646325039E+01  0.76955613848E+01  0.24838877825E+02  0.26029750014E+02  0.51100000000E-03 0.  1.
        -11    1    3    3    0    0 -0.15478669612E+01 -0.62780028793E+00  0.17533714278E+01  0.24216393117E+01  0.51100000000E-03 0. -1.
        -12    1    3    3    0    0  0.98544900517E+01  0.12510710799E+02  0.10965735927E+02  0.19335879170E+02  0.00000000000E+00 0.  1.
</event>
<event>
 7    1  0.4450624E-010  0.4778727E+02  0.7816164E-02  0.1312668E+00
        -11   -1    0    0    0    0  0.00000000000E+00  0.00000000000E+00  0.45593999997E+02  0.45594000000E+02  0.51100000000E-03 0.  1.
         11   -1    0    0    0    0 -0.00000000000E+00 -0.00000000000E+00 -0.45593999997E+02  0.45594000000E+02  0.51100000000E-03 0. -1.
    9900012    2    1    2    0    0  0.16397565493E+02  0.40009260693E+02  0.37420036369E+01  0.47787266290E+02  0.19999978325E+02 0.  0.
         12    1    1    2    0    0 -0.16397565493E+02 -0.40009260693E+02 -0.37420036369E+01  0.43400733710E+02  0.00000000000E+00 0. -1.
         11    1    3    3    0    0  0.12651518108E+01  0.64801544257E+01  0.17197819691E+01  0.68228044650E+01  0.51100000000E-03 0. -1.
        -11    1    3    3    0    0  0.40594274688E+01  0.15163870567E+02 -0.76221687093E+01  0.17450483605E+02  0.51100000000E-03 0.  1.
         12    1    3    3    0    0  0.11072986213E+02  0.18365235700E+02  0.96443903771E+01  0.23513978220E+02  0.00000000000E+00 0. -1.
</event>
<event>
 7    1  0.4450624E-010  0.4778726E+02  0.7816164E-02  0.1312668E+00
        -11   -1    0    0    0    0  0.00000000000E+00  0.00000000000E+00  0.45593999997E+02  0.45594000000E+02  0.51100000000E-03 0.  1.
         11   -1    0    0    0    0 -0.00000000000E+00 -0.00000000000E+00 -0.45593999997E+02  0.45594000000E+02  0.51100000000E-03 0. -1.
    9900012    2    1    2    0    0 -0.41273176861E+02 -0.53363397914E+01  0.12315531115E+02  0.47787263172E+02  0.19999964105E+02 0.  0.
         12    1    1    2    0    0  0.41273176861E+02  0.53363397914E+01 -0.12315531115E+02  0.43400736828E+02  0.00000000000E+00 0. -1.
         11    1    3    3    0    0 -0.95743325182E+00  0.17018543838E+01 -0.15882386745E+01  0.25170397541E+01  0.51100000000E-03 0. -1.
        -11    1    3    3    0    0 -0.17151986742E+02 -0.39314025036E+01 -0.87478182873E+00  0.17618507836E+02  0.51100000000E-03 0.  1.
        -12    1    3    3    0    0 -0.23163756867E+02 -0.31067916716E+01  0.14778551618E+02  0.27651715582E+02  0.00000000000E+00 0.  1.
</event>
<event>
 7    1  0.4450624E-010  0.4778727E+02  0.7816164E-02  0.1312668E+00
        -11   -1    0    0    0    0  0.00000000000E+00  0.00000000000E+00  0.45593999997E+02  0.45594000000E+02  0.51100000000E-03 0.  1.
         11   -1    0    0    0    0 -0.00000000000E+00 -0.00000000000E+00 -0.45593999997E+02  0.45594000000E+02  0.51100000000E-03 0. -1.
    9900012    2    1    2    0    0  0.38820339428E+02 -0.38058718149E+01  0.19029444809E+02  0.47787272088E+02  0.20000004756E+02 0.  0.
         12    1    1    2    0    0 -0.38820339428E+02  0.38058718149E+01 -0.19029444809E+02  0.43400727912E+02  0.00000000000E+00 0. -1.
         11    1    3    3    0    0  0.72127053000E+01 -0.43703741933E+01  0.10311552709E+02  0.13321088840E+02  0.51100000000E-03 0. -1.
        -11    1    3    3    0    0  0.19635924430E+02 -0.16198739396E+01  0.10235294701E+02  0.22202584932E+02  0.51100000000E-03 0.  1.
         12    1    3    3    0    0  0.11971709698E+02  0.21843763180E+01 -0.15174026010E+01  0.12263598315E+02  0.00000000000E+00 0. -1.
</event>
<event>
 7    1  0.4450624E-010  0.4778727E+02  0.7816164E-02  0.1312668E+00
        -11   -1    0    0    0    0  0.00000000000E+00  0.00000000000E+00  0.45593999997E+02  0.45594000000E+02  0.51100000000E-03 0.  1.
         11   -1    0    0    0    0 -0.00000000000E+00 -0.00000000000E+00 -0.45593999997E+02  0.45594000000E+02  0.51100000000E-03 0. -1.
    9900012    2    1    2    0    0 -0.26557939894E+02 -0.31632193294E+02  0.13330556021E+02  0.47787267888E+02  0.19999985609E+02 0.  0.
         12    1    1    2    0    0  0.26557939894E+02  0.31632193294E+02 -0.13330556021E+02  0.43400732112E+02  0.00000000000E+00 0. -1.
         11    1    3    3    0    0 -0.67780663601E+01 -0.18028663263E+02  0.44191832748E+01  0.19761175666E+02  0.51100000000E-03 0. -1.
        -11    1    3    3    0    0 -0.96219912063E+01 -0.13281797256E+02  0.51728102016E+01  0.17197291030E+02  0.51100000000E-03 0.  1.
        -12    1    3    3    0    0 -0.10157882328E+02 -0.32173277516E+00  0.37385625448E+01  0.10828801192E+02  0.00000000000E+00 0.  1.
</event>
<event>
 7    1  0.4450624E-010  0.4778728E+02  0.7816164E-02  0.1312668E+00
        -11   -1    0    0    0    0  0.00000000000E+00  0.00000000000E+00  0.45593999997E+02  0.45594000000E+02  0.51100000000E-03 0.  1.
         11   -1    0    0    0    0 -0.00000000000E+00 -0.00000000000E+00 -0.45593999997E+02  0.45594000000E+02  0.51100000000E-03 0. -1.
    9900012    2    1    2    0    0  0.34024664257E+02 -0.21399953823E+02  0.16370308567E+02  0.47787276458E+02  0.20000024681E+02 0.  0.
         12    1    1    2    0    0 -0.34024664257E+02  0.21399953823E+02 -0.16370308567E+02  0.43400723542E+02  0.00000000000E+00 0. -1.
         11    1    3    3    0    0  0.10596185829E+02 -0.56255512801E+01  0.12183946947E+00  0.11997534182E+02  0.51100000000E-03 0.  1.
        -11    1    3    3    0    0  0.69098627460E+01 -0.58411859730E+01  0.13598043178E+02  0.16333169787E+02  0.51100000000E-03 0. -1.
         12    1    3    3    0    0  0.16518615681E+02 -0.99332165698E+01  0.26504259190E+01  0.19456572489E+02  0.00000000000E+00 0. -1.
</event>
<event>
 7    1  0.4450624E-010  0.4778727E+02  0.7816164E-02  0.1312668E+00
        -11   -1    0    0    0    0  0.00000000000E+00  0.00000000000E+00  0.45593999997E+02  0.45594000000E+02  0.51100000000E-03 0. -1.
         11   -1    0    0    0    0 -0.00000000000E+00 -0.00000000000E+00 -0.45593999997E+02  0.45594000000E+02  0.51100000000E-03 0.  1.
    9900012    2    1    2    0    0  0.12545374796E+02  0.37849086867E+02  0.17137191137E+02  0.47787272754E+02  0.20000007793E+02 0.  0.
         12    1    1    2    0    0 -0.12545374796E+02 -0.37849086867E+02 -0.17137191137E+02  0.43400727246E+02  0.00000000000E+00 0. -1.
         11    1    3    3    0    0  0.59766837978E+01  0.25209269348E+02  0.48245096760E+01  0.26353441979E+02  0.51100000000E-03 0. -1.
        -11    1    3    3    0    0  0.54550040272E+01  0.60280133500E+01  0.87636093993E+00  0.81769201196E+01  0.51100000000E-03 0.  1.
         12    1    3    3    0    0  0.11136869706E+01  0.66118041690E+01  0.11436320521E+02  0.13256910655E+02  0.00000000000E+00 0. -1.
</event>
<event>
 7    1  0.4450624E-010  0.4778727E+02  0.7816164E-02  0.1312668E+00
        -11   -1    0    0    0    0  0.00000000000E+00  0.00000000000E+00  0.45593999997E+02  0.45594000000E+02  0.51100000000E-03 0. -1.
         11   -1    0    0    0    0 -0.00000000000E+00 -0.00000000000E+00 -0.45593999997E+02  0.45594000000E+02  0.51100000000E-03 0.  1.
    9900012    2    1    2    0    0 -0.38404249162E+02  0.11299136119E+02  0.16765038616E+02  0.47787270161E+02  0.19999995974E+02 0.  0.
         12    1    1    2    0    0  0.38404249162E+02 -0.11299136119E+02 -0.16765038616E+02  0.43400729839E+02  0.00000000000E+00 0. -1.
         11    1    3    3    0    0 -0.30834724838E+01  0.19254248013E+01  0.47106506878E+01  0.59502347338E+01  0.51100000000E-03 0. -1.
        -11    1    3    3    0    0 -0.36586280956E+02  0.69313637632E+01  0.10554594649E+02  0.38703994966E+02  0.51100000000E-03 0.  1.
        -12    1    3    3    0    0  0.12655042782E+01  0.24423475543E+01  0.14997932797E+01  0.31330404619E+01  0.00000000000E+00 0.  1.
</event>
<event>
 7    1  0.4450624E-010  0.4778727E+02  0.7816164E-02  0.1312668E+00
        -11   -1    0    0    0    0  0.00000000000E+00  0.00000000000E+00  0.45593999997E+02  0.45594000000E+02  0.51100000000E-03 0.  1.
         11   -1    0    0    0    0 -0.00000000000E+00 -0.00000000000E+00 -0.45593999997E+02  0.45594000000E+02  0.51100000000E-03 0. -1.
    9900012    2    1    2    0    0 -0.22130010325E+02  0.36207011738E+02 -0.91070482317E+01  0.47787269782E+02  0.19999994243E+02 0.  0.
         12    1    1    2    0    0  0.22130010325E+02 -0.36207011738E+02  0.91070482317E+01  0.43400730218E+02  0.00000000000E+00 0. -1.
         11    1    3    3    0    0 -0.85752242330E+01  0.13212528576E+02 -0.93168454486E+01  0.18300518883E+02  0.51100000000E-03 0. -1.
        -11    1    3    3    0    0 -0.10079063655E+02  0.51873092902E+01 -0.23629670104E+00  0.11338057074E+02  0.51100000000E-03 0.  1.
         12    1    3    3    0    0 -0.34757224378E+01  0.17807173871E+02  0.44609391792E+00  0.18148693824E+02  0.00000000000E+00 0. -1.
</event>
<event>
 7    1  0.4450624E-010  0.4778727E+02  0.7816164E-02  0.1312668E+00
        -11   -1    0    0    0    0  0.00000000000E+00  0.00000000000E+00  0.45593999997E+02  0.45594000000E+02  0.51100000000E-03 0.  1.
         11   -1    0    0    0    0 -0.00000000000E+00 -0.00000000000E+00 -0.45593999997E+02  0.45594000000E+02  0.51100000000E-03 0. -1.
    9900012    2    1    2    0    0 -0.18446062920E+01  0.34720064968E+02  0.25975722943E+02  0.47787266525E+02  0.19999979395E+02 0.  0.
         12    1    1    2    0    0  0.18446062920E+01 -0.34720064968E+02 -0.25975722943E+02  0.43400733475E+02  0.00000000000E+00 0. -1.
         11    1    3    3    0    0  0.49695048178E+01  0.13073400334E+02  0.60065152711E+01  0.15221300877E+02  0.51100000000E-03 0. -1.
        -11    1    3    3    0    0 -0.15394896967E+01  0.19947679394E+02  0.17134941152E+02  0.26341718818E+02  0.51100000000E-03 0.  1.
         12    1    3    3    0    0 -0.52746214132E+01  0.16989852396E+01  0.28342665198E+01  0.62242468301E+01  0.00000000000E+00 0. -1.
</event>
<event>
 7    1  0.4450624E-010  0.4778727E+02  0.7816164E-02  0.1312668E+00
        -11   -1    0    0    0    0  0.00000000000E+00  0.00000000000E+00  0.45593999997E+02  0.45594000000E+02  0.51100000000E-03 0.  1.
         11   -1    0    0    0    0 -0.00000000000E+00 -0.00000000000E+00 -0.45593999997E+02  0.45594000000E+02  0.51100000000E-03 0. -1.
    9900012    2    1    2    0    0 -0.87451467905E+00 -0.34238093909E+01  0.43256631406E+02  0.47787269508E+02  0.19999992993E+02 0.  0.
         12    1    1    2    0    0  0.87451467905E+00  0.34238093909E+01 -0.43256631406E+02  0.43400730492E+02  0.00000000000E+00 0. -1.
         11    1    3    3    0    0  0.24922454768E+01 -0.11095683491E+01  0.28897613862E+01  0.39740597087E+01  0.51100000000E-03 0. -1.
        -11    1    3    3    0    0  0.51738565732E+01 -0.13597168291E+00  0.44343849047E+01  0.68155007066E+01  0.51100000000E-03 0.  1.
         12    1    3    3    0    0 -0.85406167290E+01 -0.21782693589E+01  0.35932485115E+02  0.36997709092E+02  0.00000000000E+00 0. -1.
</event>
<event>
 7    1  0.4450624E-010  0.4778727E+02  0.7816164E-02  0.1312668E+00
        -11   -1    0    0    0    0  0.00000000000E+00  0.00000000000E+00  0.45593999997E+02  0.45594000000E+02  0.51100000000E-03 0. -1.
         11   -1    0    0    0    0 -0.00000000000E+00 -0.00000000000E+00 -0.45593999997E+02  0.45594000000E+02  0.51100000000E-03 0.  1.
    9900012    2    1    2    0    0  0.47373141400E+00  0.42868250402E+02  0.67610439746E+01  0.47787273859E+02  0.20000012832E+02 0.  0.
         12    1    1    2    0    0 -0.47373141400E+00 -0.42868250402E+02 -0.67610439746E+01  0.43400726141E+02  0.00000000000E+00 0. -1.
         11    1    3    3    0    0  0.12089830616E+01  0.21229909918E+02  0.68140746965E+01  0.22329405039E+02  0.51100000000E-03 0. -1.
        -11    1    3    3    0    0  0.55320873460E+01  0.87252662809E+01  0.30512295161E+01  0.10772384318E+02  0.51100000000E-03 0.  1.
         12    1    3    3    0    0 -0.62673389936E+01  0.12913074203E+02 -0.31042602380E+01  0.14685484502E+02  0.00000000000E+00 0. -1.
</event>
<event>
 7    1  0.4450624E-010  0.4778727E+02  0.7816164E-02  0.1312668E+00
        -11   -1    0    0    0    0  0.00000000000E+00  0.00000000000E+00  0.45593999997E+02  0.45594000000E+02  0.51100000000E-03 0.  1.
         11   -1    0    0    0    0 -0.00000000000E+00 -0.00000000000E+00 -0.45593999997E+02  0.45594000000E+02  0.51100000000E-03 0. -1.
    9900012    2    1    2    0    0 -0.10293110452E+02 -0.34108150136E+02  0.24785260297E+02  0.47787272397E+02  0.20000006165E+02 0.  0.
         12    1    1    2    0    0  0.10293110452E+02  0.34108150136E+02 -0.24785260297E+02  0.43400727603E+02  0.00000000000E+00 0. -1.
         11    1    3    3    0    0 -0.11569747785E+01 -0.37180941871E+01 -0.77444625555E+00  0.39702118692E+01  0.51100000000E-03 0. -1.
        -11    1    3    3    0    0 -0.37627511887E+01 -0.53568857688E+01 -0.13382541611E+01  0.66817247854E+01  0.51100000000E-03 0.  1.
        -12    1    3    3    0    0 -0.53733844851E+01 -0.25033170180E+02  0.26897960714E+02  0.37135335742E+02  0.00000000000E+00 0.  1.
</event>
<event>
 7    1  0.4450624E-010  0.4778727E+02  0.7816164E-02  0.1312668E+00
        -11   -1    0    0    0    0  0.00000000000E+00  0.00000000000E+00  0.45593999997E+02  0.45594000000E+02  0.51100000000E-03 0.  1.
         11   -1    0    0    0    0 -0.00000000000E+00 -0.00000000000E+00 -0.45593999997E+02  0.45594000000E+02  0.51100000000E-03 0. -1.
    9900012    2    1    2    0    0 -0.52876210157E+01  0.11835258837E+02  0.41419697464E+02  0.47787266991E+02  0.19999981518E+02 0.  0.
         12    1    1    2    0    0  0.52876210157E+01 -0.11835258837E+02 -0.41419697464E+02  0.43400733009E+02  0.00000000000E+00 0. -1.
         11    1    3    3    0    0 -0.88334305031E+00  0.60743675524E+01  0.27430532247E+02  0.28108936937E+02  0.51100000000E-03 0. -1.
        -11    1    3    3    0    0  0.12018266192E+01  0.71980209795E+01  0.10901958342E+02  0.13119016320E+02  0.51100000000E-03 0.  1.
         12    1    3    3    0    0 -0.56061045846E+01 -0.14371296954E+01  0.30872068750E+01  0.65593137343E+01  0.00000000000E+00 0. -1.
</event>
<event>
 7    1  0.4450624E-010  0.4778727E+02  0.7816164E-02  0.1312668E+00
        -11   -1    0    0    0    0  0.00000000000E+00  0.00000000000E+00  0.45593999997E+02  0.45594000000E+02  0.51100000000E-03 0.  1.
         11   -1    0    0    0    0 -0.00000000000E+00 -0.00000000000E+00 -0.45593999997E+02  0.45594000000E+02  0.51100000000E-03 0. -1.
    9900012    2    1    2    0    0 -0.10419871079E+01  0.41781783867E+02 -0.11697003066E+02  0.47787273267E+02  0.20000010133E+02 0.  0.
         12    1    1    2    0    0  0.10419871079E+01 -0.41781783867E+02  0.11697003066E+02  0.43400726733E+02  0.00000000000E+00 0. -1.
         11    1    3    3    0    0 -0.13665763025E+01  0.15412330080E+02 -0.78170784648E+00  0.15492530997E+02  0.51100000000E-03 0. -1.
        -11    1    3    3    0    0 -0.52627905960E+01  0.22673637333E+02 -0.61545754523E+01  0.24076328500E+02  0.51100000000E-03 0.  1.
         12    1    3    3    0    0  0.55873797906E+01  0.36958164536E+01 -0.47607197671E+01  0.82184137693E+01  0.00000000000E+00 0. -1.
</event>
<event>
 7    1  0.4450624E-010  0.4778727E+02  0.7816164E-02  0.1312668E+00
        -11   -1    0    0    0    0  0.00000000000E+00  0.00000000000E+00  0.45593999997E+02  0.45594000000E+02  0.51100000000E-03 0.  1.
         11   -1    0    0    0    0 -0.00000000000E+00 -0.00000000000E+00 -0.45593999997E+02  0.45594000000E+02  0.51100000000E-03 0. -1.
    9900012    2    1    2    0    0  0.24786539251E+01  0.40635382469E+02  0.15041441076E+02  0.47787274392E+02  0.20000015263E+02 0.  0.
         12    1    1    2    0    0 -0.24786539251E+01 -0.40635382469E+02 -0.15041441076E+02  0.43400725608E+02  0.00000000000E+00 0. -1.
         11    1    3    3    0    0  0.67728849441E+00  0.10596417221E+02 -0.13508809682E+01  0.10703628229E+02  0.51100000000E-03 0. -1.
        -11    1    3    3    0    0 -0.54043481482E+01  0.90761172459E+01  0.22820182743E+01  0.10806964922E+02  0.51100000000E-03 0.  1.
         12    1    3    3    0    0  0.72057135789E+01  0.20962848002E+02  0.14110303770E+02  0.26276681240E+02  0.00000000000E+00 0. -1.
</event>
<event>
 7    1  0.4450624E-010  0.4778727E+02  0.7816164E-02  0.1312668E+00
        -11   -1    0    0    0    0  0.00000000000E+00  0.00000000000E+00  0.45593999997E+02  0.45594000000E+02  0.51100000000E-03 0.  1.
         11   -1    0    0    0    0 -0.00000000000E+00 -0.00000000000E+00 -0.45593999997E+02  0.45594000000E+02  0.51100000000E-03 0. -1.
    9900012    2    1    2    0    0 -0.15654007270E+02  0.28173361950E+01  0.40381162941E+02  0.47787266742E+02  0.19999980383E+02 0.  0.
         12    1    1    2    0    0  0.15654007270E+02 -0.28173361950E+01 -0.40381162941E+02  0.43400733258E+02  0.00000000000E+00 0. -1.
         11    1    3    3    0    0 -0.18137932846E+02  0.10860534274E+01  0.28445869512E+02  0.33753986616E+02  0.51100000000E-03 0. -1.
        -11    1    3    3    0    0  0.14120342852E+01 -0.22602994644E+01  0.21958873995E+01  0.34532182416E+01  0.51100000000E-03 0.  1.
        -12    1    3    3    0    0  0.10718912902E+01  0.39915822321E+01  0.97394060300E+01  0.10580061884E+02  0.00000000000E+00 0.  1.
</event>
<event>
 7    1  0.4450624E-010  0.4778727E+02  0.7816164E-02  0.1312668E+00
        -11   -1    0    0    0    0  0.00000000000E+00  0.00000000000E+00  0.45593999997E+02  0.45594000000E+02  0.51100000000E-03 0.  1.
         11   -1    0    0    0    0 -0.00000000000E+00 -0.00000000000E+00 -0.45593999997E+02  0.45594000000E+02  0.51100000000E-03 0. -1.
    9900012    2    1    2    0    0 -0.25083673637E+02  0.91778847135E+01  0.34208171309E+02  0.47787271490E+02  0.20000002030E+02 0.  0.
         12    1    1    2    0    0  0.25083673637E+02 -0.91778847135E+01 -0.34208171309E+02  0.43400728510E+02  0.00000000000E+00 0. -1.
         11    1    3    3    0    0 -0.39573881689E+01  0.48466576717E+01  0.97283898539E+01  0.11566874302E+02  0.51100000000E-03 0. -1.
        -11    1    3    3    0    0 -0.14304359398E+02  0.99468800412E+01  0.19201992606E+02  0.25928201647E+02  0.51100000000E-03 0.  1.
         12    1    3    3    0    0 -0.68219260698E+01 -0.56156529994E+01  0.52777888490E+01  0.10292195541E+02  0.00000000000E+00 0. -1.
</event>
<event>
 7    1  0.4450624E-010  0.4778727E+02  0.7816164E-02  0.1312668E+00
        -11   -1    0    0    0    0  0.00000000000E+00  0.00000000000E+00  0.45593999997E+02  0.45594000000E+02  0.51100000000E-03 0.  1.
         11   -1    0    0    0    0 -0.00000000000E+00 -0.00000000000E+00 -0.45593999997E+02  0.45594000000E+02  0.51100000000E-03 0. -1.
    9900012    2    1    2    0    0 -0.10513247990E+02 -0.39892998984E+02 -0.13477513129E+02  0.47787272916E+02  0.20000008535E+02 0.  0.
         12    1    1    2    0    0  0.10513247990E+02  0.39892998984E+02  0.13477513129E+02  0.43400727084E+02  0.00000000000E+00 0. -1.
         11    1    3    3    0    0 -0.81929776017E+01 -0.11362212524E+02 -0.10385046823E+02  0.17437716399E+02  0.51100000000E-03 0.  1.
        -11    1    3    3    0    0 -0.38973460655E+01 -0.59365185960E+01  0.14531642291E+01  0.72486720117E+01  0.51100000000E-03 0. -1.
        -12    1    3    3    0    0  0.15770756776E+01 -0.22594267864E+02 -0.45456305353E+01  0.23100884506E+02  0.00000000000E+00 0.  1.
</event>
<event>
 7    1  0.4450624E-010  0.4778727E+02  0.7816164E-02  0.1312668E+00
        -11   -1    0    0    0    0  0.00000000000E+00  0.00000000000E+00  0.45593999997E+02  0.45594000000E+02  0.51100000000E-03 0. -1.
         11   -1    0    0    0    0 -0.00000000000E+00 -0.00000000000E+00 -0.45593999997E+02  0.45594000000E+02  0.51100000000E-03 0.  1.
    9900012    2    1    2    0    0  0.11509316033E+02 -0.41659973137E+02  0.39503935193E+01  0.47787270440E+02  0.19999997246E+02 0.  0.
         12    1    1    2    0    0 -0.11509316033E+02  0.41659973137E+02 -0.39503935193E+01  0.43400729560E+02  0.00000000000E+00 0. -1.
         11    1    3    3    0    0  0.28501525673E+01 -0.41380006463E+01 -0.19157742338E+01  0.53774166829E+01  0.51100000000E-03 0. -1.
        -11    1    3    3    0    0  0.12002833738E+02 -0.27688633933E+02 -0.58354482181E+00  0.30183919422E+02  0.51100000000E-03 0.  1.
         12    1    3    3    0    0 -0.33436702725E+01 -0.98333385579E+01  0.64497125749E+01  0.12225934336E+02  0.00000000000E+00 0. -1.
</event>
<event>
 7    1  0.4450624E-010  0.4778727E+02  0.7816164E-02  0.1312668E+00
        -11   -1    0    0    0    0  0.00000000000E+00  0.00000000000E+00  0.45593999997E+02  0.45594000000E+02  0.51100000000E-03 0.  1.
         11   -1    0    0    0    0 -0.00000000000E+00 -0.00000000000E+00 -0.45593999997E+02  0.45594000000E+02  0.51100000000E-03 0. -1.
    9900012    2    1    2    0    0 -0.27491788950E+02 -0.11217655341E+02  0.31654208470E+02  0.47787272301E+02  0.20000005728E+02 0.  0.
         12    1    1    2    0    0  0.27491788950E+02  0.11217655341E+02 -0.31654208470E+02  0.43400727699E+02  0.00000000000E+00 0. -1.
         11    1    3    3    0    0 -0.12898474863E+02 -0.68922443462E+01  0.14045827614E+02  0.20277055002E+02  0.51100000000E-03 0.  1.
        -11    1    3    3    0    0 -0.76867473673E+01 -0.89793436566E+00  0.18200216877E+02  0.19777266390E+02  0.51100000000E-03 0. -1.
        -12    1    3    3    0    0 -0.69065667193E+01 -0.34274766287E+01 -0.59183602145E+00  0.77329509092E+01  0.00000000000E+00 0.  1.
</event>
<event>
 7    1  0.4450624E-010  0.4778726E+02  0.7816164E-02  0.1312668E+00
        -11   -1    0    0    0    0  0.00000000000E+00  0.00000000000E+00  0.45593999997E+02  0.45594000000E+02  0.51100000000E-03 0. -1.
         11   -1    0    0    0    0 -0.00000000000E+00 -0.00000000000E+00 -0.45593999997E+02  0.45594000000E+02  0.51100000000E-03 0.  1.
    9900012    2    1    2    0    0  0.22814595587E+02 -0.36895853621E+02  0.13469690364E+01  0.47787261391E+02  0.19999955985E+02 0.  0.
         12    1    1    2    0    0 -0.22814595587E+02  0.36895853621E+02 -0.13469690364E+01  0.43400738609E+02  0.00000000000E+00 0. -1.
         11    1    3    3    0    0  0.76403039590E+01 -0.18412705445E+02  0.39858477642E+01  0.20329509317E+02  0.51100000000E-03 0. -1.
        -11    1    3    3    0    0  0.87286807665E+01 -0.18852584627E+02 -0.10125837828E+01  0.20799883202E+02  0.51100000000E-03 0.  1.
         12    1    3    3    0    0  0.64456108619E+01  0.36943645074E+00 -0.16262949450E+01  0.66578688724E+01  0.00000000000E+00 0. -1.
</event>
<event>
 7    1 -0.4450624E-010  0.4778728E+02  0.7816164E-02  0.1312668E+00
        -11   -1    0    0    0    0  0.00000000000E+00  0.00000000000E+00  0.45593999997E+02  0.45594000000E+02  0.51100000000E-03 0. -1.
         11   -1    0    0    0    0 -0.00000000000E+00 -0.00000000000E+00 -0.45593999997E+02  0.45594000000E+02  0.51100000000E-03 0.  1.
    9900012    2    1    2    0    0 -0.32666256555E+02  0.24071070145E+02 -0.15398768354E+02  0.47787276480E+02  0.20000024783E+02 0.  0.
         12    1    1    2    0    0  0.32666256555E+02 -0.24071070145E+02  0.15398768354E+02  0.43400723520E+02  0.00000000000E+00 0. -1.
         11    1    3    3    0    0 -0.19444553432E+02  0.45128507184E+01 -0.60209995148E+01  0.20849674223E+02  0.51100000000E-03 0. -1.
        -11    1    3    3    0    0 -0.11966678773E+02  0.10293795404E+02 -0.71390583889E+01  0.17324254086E+02  0.51100000000E-03 0.  1.
         12    1    3    3    0    0 -0.12550243498E+01  0.92644240223E+01 -0.22387104503E+01  0.96133481713E+01  0.00000000000E+00 0. -1.
</event>
<event>
 7    1  0.4450624E-010  0.4778728E+02  0.7816164E-02  0.1312668E+00
        -11   -1    0    0    0    0  0.00000000000E+00  0.00000000000E+00  0.45593999997E+02  0.45594000000E+02  0.51100000000E-03 0.  1.
         11   -1    0    0    0    0 -0.00000000000E+00 -0.00000000000E+00 -0.45593999997E+02  0.45594000000E+02  0.51100000000E-03 0. -1.
    9900012    2    1    2    0    0  0.25625846803E+02 -0.19673355830E+02  0.28980991105E+02  0.47787276510E+02  0.20000024922E+02 0.  0.
         12    1    1    2    0    0 -0.25625846803E+02  0.19673355830E+02 -0.28980991105E+02  0.43400723490E+02  0.00000000000E+00 0. -1.
         11    1    3    3    0    0  0.60685162820E+01 -0.60499453039E+00  0.11540296182E+02  0.13052637453E+02  0.51100000000E-03 0. -1.
        -11    1    3    3    0    0  0.13176163465E+02 -0.17851790104E+02  0.17467517446E+02  0.28238481892E+02  0.51100000000E-03 0.  1.
         12    1    3    3    0    0  0.63811670564E+01 -0.12165711960E+01 -0.26822523108E-01  0.64961571659E+01  0.00000000000E+00 0. -1.
</event>
<event>
 7    1  0.4450624E-010  0.4778727E+02  0.7816164E-02  0.1312668E+00
        -11   -1    0    0    0    0  0.00000000000E+00  0.00000000000E+00  0.45593999997E+02  0.45594000000E+02  0.51100000000E-03 0.  1.
         11   -1    0    0    0    0 -0.00000000000E+00 -0.00000000000E+00 -0.45593999997E+02  0.45594000000E+02  0.51100000000E-03 0. -1.
    9900012    2    1    2    0    0 -0.94269209995E+01  0.33266392267E+02 -0.26231728326E+02  0.47787271148E+02  0.20000000470E+02 0.  0.
         12    1    1    2    0    0  0.94269209995E+01 -0.33266392267E+02  0.26231728326E+02  0.43400728852E+02  0.00000000000E+00 0. -1.
         11    1    3    3    0    0 -0.27480269507E+01  0.41687942530E+00 -0.29569588249E+01  0.40582072804E+01  0.51100000000E-03 0. -1.
        -11    1    3    3    0    0 -0.92937353164E+01  0.26801614201E+02 -0.12280016989E+02  0.30911144550E+02  0.51100000000E-03 0.  1.
         12    1    3    3    0    0  0.26148412675E+01  0.60478986407E+01 -0.10994752512E+02  0.12817919317E+02  0.00000000000E+00 0. -1.
</event>
<event>
 7    1  0.4450624E-010  0.4778727E+02  0.7816164E-02  0.1312668E+00
        -11   -1    0    0    0    0  0.00000000000E+00  0.00000000000E+00  0.45593999997E+02  0.45594000000E+02  0.51100000000E-03 0.  1.
         11   -1    0    0    0    0 -0.00000000000E+00 -0.00000000000E+00 -0.45593999997E+02  0.45594000000E+02  0.51100000000E-03 0. -1.
    9900012    2    1    2    0    0 -0.10201644976E+02 -0.24893508949E+02  0.34056758885E+02  0.47787272198E+02  0.20000005258E+02 0.  0.
         12    1    1    2    0    0  0.10201644976E+02  0.24893508949E+02 -0.34056758885E+02  0.43400727802E+02  0.00000000000E+00 0. -1.
         11    1    3    3    0    0 -0.77558948092E+01 -0.12492112790E+02  0.10177614007E+02  0.17882690329E+02  0.51100000000E-03 0.  1.
        -11    1    3    3    0    0 -0.74724235617E+01 -0.81417325638E+01  0.11948583656E+02  0.16275551440E+02  0.51100000000E-03 0. -1.
         12    1    3    3    0    0  0.50266733951E+01 -0.42596635955E+01  0.11930561222E+02  0.13629030429E+02  0.00000000000E+00 0. -1.
</event>
<event>
 7    1  0.4450624E-010  0.4778726E+02  0.7816164E-02  0.1312668E+00
        -11   -1    0    0    0    0  0.00000000000E+00  0.00000000000E+00  0.45593999997E+02  0.45594000000E+02  0.51100000000E-03 0.  1.
         11   -1    0    0    0    0 -0.00000000000E+00 -0.00000000000E+00 -0.45593999997E+02  0.45594000000E+02  0.51100000000E-03 0. -1.
    9900012    2    1    2    0    0  0.92934548522E+01  0.67995818967E+01  0.41845206042E+02  0.47787263996E+02  0.19999967861E+02 0.  0.
         12    1    1    2    0    0 -0.92934548522E+01 -0.67995818967E+01 -0.41845206042E+02  0.43400736004E+02  0.00000000000E+00 0. -1.
         11    1    3    3    0    0  0.17723777114E+00 -0.43080212103E+01  0.36590053607E+01  0.56549783790E+01  0.51100000000E-03 0. -1.
        -11    1    3    3    0    0  0.71846656531E+00 -0.13224860560E+01  0.10821128544E+02  0.10925291154E+02  0.51100000000E-03 0.  1.
        -12    1    3    3    0    0  0.83977505157E+01  0.12430089163E+02  0.27365072137E+02  0.31206994463E+02  0.00000000000E+00 0.  1.
</event>
<event>
 7    1  0.4450624E-010  0.4778727E+02  0.7816164E-02  0.1312668E+00
        -11   -1    0    0    0    0  0.00000000000E+00  0.00000000000E+00  0.45593999997E+02  0.45594000000E+02  0.51100000000E-03 0.  1.
         11   -1    0    0    0    0 -0.00000000000E+00 -0.00000000000E+00 -0.45593999997E+02  0.45594000000E+02  0.51100000000E-03 0. -1.
    9900012    2    1    2    0    0  0.31113012708E+02 -0.27390458019E+02  0.12859493547E+02  0.47787270460E+02  0.19999997337E+02 0.  0.
         12    1    1    2    0    0 -0.31113012708E+02  0.27390458019E+02 -0.12859493547E+02  0.43400729540E+02  0.00000000000E+00 0. -1.
         11    1    3    3    0    0  0.35896875659E+01 -0.11249256761E+01  0.17578061250E+01  0.41522520675E+01  0.51100000000E-03 0. -1.
        -11    1    3    3    0    0  0.14642681788E+02 -0.16007015002E+02  0.15414798939E+02  0.26612942074E+02  0.51100000000E-03 0.  1.
         12    1    3    3    0    0  0.12880643354E+02 -0.10258517340E+02 -0.43131115170E+01  0.17022076319E+02  0.00000000000E+00 0. -1.
</event>
<event>
 7    1  0.4450624E-010  0.4778728E+02  0.7816164E-02  0.1312668E+00
        -11   -1    0    0    0    0  0.00000000000E+00  0.00000000000E+00  0.45593999997E+02  0.45594000000E+02  0.51100000000E-03 0.  1.
         11   -1    0    0    0    0 -0.00000000000E+00 -0.00000000000E+00 -0.45593999997E+02  0.45594000000E+02  0.51100000000E-03 0. -1.
    9900012    2    1    2    0    0 -0.23191088415E+02 -0.13221546605E+02  0.34219686837E+02  0.47787276000E+02  0.20000022594E+02 0.  0.
         12    1    1    2    0    0  0.23191088415E+02  0.13221546605E+02 -0.34219686837E+02  0.43400724000E+02  0.00000000000E+00 0. -1.
         11    1    3    3    0    0 -0.13659792863E+02 -0.27722823914E+01  0.89022698733E+01  0.16538618439E+02  0.51100000000E-03 0. -1.
        -11    1    3    3    0    0 -0.11952544829E+02 -0.76925988157E+01  0.17009927559E+02  0.22167025968E+02  0.51100000000E-03 0.  1.
         12    1    3    3    0    0  0.24212492774E+01 -0.27566653981E+01  0.83074894044E+01  0.90816315926E+01  0.00000000000E+00 0. -1.
</event>
<event>
 7    1  0.4450624E-010  0.4778727E+02  0.7816164E-02  0.1312668E+00
        -11   -1    0    0    0    0  0.00000000000E+00  0.00000000000E+00  0.45593999997E+02  0.45594000000E+02  0.51100000000E-03 0.  1.
         11   -1    0    0    0    0 -0.00000000000E+00 -0.00000000000E+00 -0.45593999997E+02  0.45594000000E+02  0.51100000000E-03 0. -1.
    9900012    2    1    2    0    0  0.22001571535E+02 -0.98940547567E+01  0.36078549313E+02  0.47787272010E+02  0.20000004402E+02 0.  0.
         12    1    1    2    0    0 -0.22001571535E+02  0.98940547567E+01 -0.36078549313E+02  0.43400727990E+02  0.00000000000E+00 0. -1.
         11    1    3    3    0    0  0.55889199516E+01  0.48500425939E+00  0.12100320441E+02  0.13337503904E+02  0.51100000000E-03 0. -1.
        -11    1    3    3    0    0  0.17554641958E+02 -0.11255545052E+02  0.25094577764E+02  0.32628064333E+02  0.51100000000E-03 0.  1.
         12    1    3    3    0    0 -0.11419903744E+01  0.87648603637E+00 -0.11163488922E+01  0.18217037729E+01  0.00000000000E+00 0. -1.
</event>
<event>
 7    1  0.4450624E-010  0.4778727E+02  0.7816164E-02  0.1312668E+00
        -11   -1    0    0    0    0  0.00000000000E+00  0.00000000000E+00  0.45593999997E+02  0.45594000000E+02  0.51100000000E-03 0.  1.
         11   -1    0    0    0    0 -0.00000000000E+00 -0.00000000000E+00 -0.45593999997E+02  0.45594000000E+02  0.51100000000E-03 0. -1.
    9900012    2    1    2    0    0 -0.28704506264E+01  0.20616982520E+02  0.38083120689E+02  0.47787268019E+02  0.19999986207E+02 0.  0.
         12    1    1    2    0    0  0.28704506264E+01 -0.20616982520E+02 -0.38083120689E+02  0.43400731981E+02  0.00000000000E+00 0. -1.
         11    1    3    3    0    0 -0.31586647610E+00  0.75925633610E+01  0.25667382405E+01  0.80209061507E+01  0.51100000000E-03 0. -1.
        -11    1    3    3    0    0  0.18409551260E+01  0.16409545729E+01  0.28616331228E+00  0.24826875334E+01  0.51100000000E-03 0.  1.
        -12    1    3    3    0    0 -0.43955392762E+01  0.11383464586E+02  0.35230219137E+02  0.37283674335E+02  0.00000000000E+00 0.  1.
</event>
<event>
 7    1  0.4450624E-010  0.4778727E+02  0.7816164E-02  0.1312668E+00
        -11   -1    0    0    0    0  0.00000000000E+00  0.00000000000E+00  0.45593999997E+02  0.45594000000E+02  0.51100000000E-03 0.  1.
         11   -1    0    0    0    0 -0.00000000000E+00 -0.00000000000E+00 -0.45593999997E+02  0.45594000000E+02  0.51100000000E-03 0. -1.
    9900012    2    1    2    0    0 -0.12359039288E+02 -0.28347383387E+01  0.41507130278E+02  0.47787268929E+02  0.19999990355E+02 0.  0.
         12    1    1    2    0    0  0.12359039288E+02  0.28347383387E+01 -0.41507130278E+02  0.43400731071E+02  0.00000000000E+00 0. -1.
         11    1    3    3    0    0 -0.45914844427E+00 -0.88979388372E+01  0.14278734580E+02  0.16830519728E+02  0.51100000000E-03 0. -1.
        -11    1    3    3    0    0 -0.29138723246E+01 -0.34815631878E+00  0.10593344470E+02  0.10992306949E+02  0.51100000000E-03 0.  1.
        -12    1    3    3    0    0 -0.89860185196E+01  0.64113568173E+01  0.16635051228E+02  0.19964442252E+02  0.00000000000E+00 0.  1.
</event>
<event>
 7    1  0.4450624E-010  0.4778728E+02  0.7816164E-02  0.1312668E+00
        -11   -1    0    0    0    0  0.00000000000E+00  0.00000000000E+00  0.45593999997E+02  0.45594000000E+02  0.51100000000E-03 0.  1.
         11   -1    0    0    0    0 -0.00000000000E+00 -0.00000000000E+00 -0.45593999997E+02  0.45594000000E+02  0.51100000000E-03 0. -1.
    9900012    2    1    2    0    0  0.36682972085E+02  0.21064110134E+02  0.97100835880E+01  0.47787275352E+02  0.20000019638E+02 0.  0.
         12    1    1    2    0    0 -0.36682972085E+02 -0.21064110134E+02 -0.97100835880E+01  0.43400724648E+02  0.00000000000E+00 0. -1.
         11    1    3    3    0    0  0.10678120388E+02  0.24276508004E+01  0.67208181623E+01  0.12848546239E+02  0.51100000000E-03 0. -1.
        -11    1    3    3    0    0  0.12206988604E+02  0.14296139378E+01  0.38108548578E+01  0.12867671965E+02  0.51100000000E-03 0.  1.
         12    1    3    3    0    0  0.13797863093E+02  0.17206845395E+02 -0.82158943208E+00  0.22071057147E+02  0.00000000000E+00 0. -1.
</event>
<event>
 7    1  0.4450624E-010  0.4778726E+02  0.7816164E-02  0.1312668E+00
        -11   -1    0    0    0    0  0.00000000000E+00  0.00000000000E+00  0.45593999997E+02  0.45594000000E+02  0.51100000000E-03 0. -1.
         11   -1    0    0    0    0 -0.00000000000E+00 -0.00000000000E+00 -0.45593999997E+02  0.45594000000E+02  0.51100000000E-03 0.  1.
    9900012    2    1    2    0    0 -0.40657478281E+02  0.12819825777E+02  0.81391705158E+01  0.47787256115E+02  0.19999931929E+02 0.  0.
         12    1    1    2    0    0  0.40657478281E+02 -0.12819825777E+02 -0.81391705158E+01  0.43400743885E+02  0.00000000000E+00 0. -1.
         11    1    3    3    0    0 -0.44860853802E+01  0.52262768950E+01  0.29478837962E+01  0.74919257443E+01  0.51100000000E-03 0. -1.
        -11    1    3    3    0    0 -0.19244959754E+02  0.91485947776E+01  0.85655592185E+01  0.22965932755E+02  0.51100000000E-03 0.  1.
        -12    1    3    3    0    0 -0.16926433147E+02 -0.15550458952E+01 -0.33742724990E+01  0.17329397615E+02  0.00000000000E+00 0.  1.
</event>
<event>
 7    1  0.4450624E-010  0.4778727E+02  0.7816164E-02  0.1312668E+00
        -11   -1    0    0    0    0  0.00000000000E+00  0.00000000000E+00  0.45593999997E+02  0.45594000000E+02  0.51100000000E-03 0.  1.
         11   -1    0    0    0    0 -0.00000000000E+00 -0.00000000000E+00 -0.45593999997E+02  0.45594000000E+02  0.51100000000E-03 0. -1.
    9900012    2    1    2    0    0  0.30290630022E+02 -0.28260963762E+02  0.12939050231E+02  0.47787270044E+02  0.19999995437E+02 0.  0.
         12    1    1    2    0    0 -0.30290630022E+02  0.28260963762E+02 -0.12939050231E+02  0.43400729956E+02  0.00000000000E+00 0. -1.
         11    1    3    3    0    0 -0.10039290998E+01 -0.38166681012E+01  0.31483294091E-01  0.39466214021E+01  0.51100000000E-03 0. -1.
        -11    1    3    3    0    0  0.14313335391E+02 -0.16201149948E+02  0.12475050108E+02  0.24959481267E+02  0.51100000000E-03 0.  1.
        -12    1    3    3    0    0  0.16981223731E+02 -0.82431457121E+01  0.43251682930E+00  0.18881167375E+02  0.00000000000E+00 0.  1.
</event>
<event>
 7    1  0.4450624E-010  0.4778724E+02  0.7816164E-02  0.1312668E+00
        -11   -1    0    0    0    0  0.00000000000E+00  0.00000000000E+00  0.45593999997E+02  0.45594000000E+02  0.51100000000E-03 0.  1.
         11   -1    0    0    0    0 -0.00000000000E+00 -0.00000000000E+00 -0.45593999997E+02  0.45594000000E+02  0.51100000000E-03 0. -1.
    9900012    2    1    2    0    0 -0.20552342072E+02 -0.23096177921E+02  0.30459707842E+02  0.47787239626E+02  0.19999856752E+02 0.  0.
         12    1    1    2    0    0  0.20552342072E+02  0.23096177921E+02 -0.30459707842E+02  0.43400760374E+02  0.00000000000E+00 0. -1.
         11    1    3    3    0    0 -0.39951314138E+01  0.14289005416E+01  0.59981436723E+01  0.73471463540E+01  0.51100000000E-03 0. -1.
        -11    1    3    3    0    0 -0.60250541745E+01 -0.94990749729E+01  0.17522331355E+02  0.20822242903E+02  0.51100000000E-03 0.  1.
        -12    1    3    3    0    0 -0.10532156484E+02 -0.15026003489E+02  0.69392328151E+01  0.19617850369E+02  0.00000000000E+00 0.  1.
</event>
<event>
 7    1  0.4450624E-010  0.4778727E+02  0.7816164E-02  0.1312668E+00
        -11   -1    0    0    0    0  0.00000000000E+00  0.00000000000E+00  0.45593999997E+02  0.45594000000E+02  0.51100000000E-03 0. -1.
         11   -1    0    0    0    0 -0.00000000000E+00 -0.00000000000E+00 -0.45593999997E+02  0.45594000000E+02  0.51100000000E-03 0.  1.
    9900012    2    1    2    0    0 -0.90750800426E+01 -0.30784566501E+02 -0.29216037743E+02  0.47787268741E+02  0.19999989498E+02 0.  0.
         12    1    1    2    0    0  0.90750800426E+01  0.30784566501E+02  0.29216037743E+02  0.43400731259E+02  0.00000000000E+00 0. -1.
         11    1    3    3    0    0  0.40779003986E+01 -0.10452885061E+01 -0.49502508260E+01  0.64982215431E+01  0.51100000000E-03 0. -1.
        -11    1    3    3    0    0 -0.35488732558E+01 -0.24074867071E+01 -0.45138368723E+01  0.62261719541E+01  0.51100000000E-03 0.  1.
        -12    1    3    3    0    0 -0.96041071853E+01 -0.27331791288E+02 -0.19751950044E+02  0.35062875244E+02  0.00000000000E+00 0.  1.
</event>
<event>
 7    1  0.4450624E-010  0.4778727E+02  0.7816164E-02  0.1312668E+00
        -11   -1    0    0    0    0  0.00000000000E+00  0.00000000000E+00  0.45593999997E+02  0.45594000000E+02  0.51100000000E-03 0.  1.
         11   -1    0    0    0    0 -0.00000000000E+00 -0.00000000000E+00 -0.45593999997E+02  0.45594000000E+02  0.51100000000E-03 0. -1.
    9900012    2    1    2    0    0 -0.29472229823E+02  0.12578651953E+02  0.29270948131E+02  0.47787271663E+02  0.20000002822E+02 0.  0.
         12    1    1    2    0    0  0.29472229823E+02 -0.12578651953E+02 -0.29270948131E+02  0.43400728337E+02  0.00000000000E+00 0. -1.
         11    1    3    3    0    0 -0.15949080825E+02  0.15202292197E+02  0.15626283071E+02  0.27012285910E+02  0.51100000000E-03 0. -1.
        -11    1    3    3    0    0 -0.77961876037E+01  0.19379277124E+01  0.91833400441E+01  0.12201222873E+02  0.51100000000E-03 0.  1.
         12    1    3    3    0    0 -0.57269613946E+01 -0.45615679568E+01  0.44613250157E+01  0.85737628808E+01  0.00000000000E+00 0. -1.
</event>
<event>
 7    1  0.4450624E-010  0.4778726E+02  0.7816164E-02  0.1312668E+00
        -11   -1    0    0    0    0  0.00000000000E+00  0.00000000000E+00  0.45593999997E+02  0.45594000000E+02  0.51100000000E-03 0.  1.
         11   -1    0    0    0    0 -0.00000000000E+00 -0.00000000000E+00 -0.45593999997E+02  0.45594000000E+02  0.51100000000E-03 0. -1.
    9900012    2    1    2    0    0  0.18223130527E+02  0.17307294456E+02  0.35383599320E+02  0.47787262352E+02  0.19999960366E+02 0.  0.
         12    1    1    2    0    0 -0.18223130527E+02 -0.17307294456E+02 -0.35383599320E+02  0.43400737648E+02  0.00000000000E+00 0. -1.
         11    1    3    3    0    0  0.12029874715E+02  0.14581713544E+02  0.21713068362E+02  0.28788914420E+02  0.51100000000E-03 0. -1.
        -11    1    3    3    0    0 -0.11420534939E+01  0.35083877162E+01  0.10198045052E+02  0.10844961673E+02  0.51100000000E-03 0.  1.
         12    1    3    3    0    0  0.73353093064E+01 -0.78280680459E+00  0.34724859060E+01  0.81533862586E+01  0.00000000000E+00 0. -1.
</event>
<event>
 7    1  0.4450624E-010  0.4778728E+02  0.7816164E-02  0.1312668E+00
        -11   -1    0    0    0    0  0.00000000000E+00  0.00000000000E+00  0.45593999997E+02  0.45594000000E+02  0.51100000000E-03 0.  1.
         11   -1    0    0    0    0 -0.00000000000E+00 -0.00000000000E+00 -0.45593999997E+02  0.45594000000E+02  0.51100000000E-03 0. -1.
    9900012    2    1    2    0    0 -0.86254215407E+01 -0.25323110693E+02 -0.34175504319E+02  0.47787275036E+02  0.20000018198E+02 0.  0.
         12    1    1    2    0    0  0.86254215407E+01  0.25323110693E+02  0.34175504319E+02  0.43400724964E+02  0.00000000000E+00 0. -1.
         11    1    3    3    0    0 -0.37314618567E+01 -0.39463323072E+01 -0.63086476414E+01  0.83244448219E+01  0.51100000000E-03 0. -1.
        -11    1    3    3    0    0  0.38081741908E+01 -0.15071326187E+02 -0.96031063979E+01  0.18272020043E+02  0.51100000000E-03 0.  1.
        -12    1    3    3    0    0 -0.87021338748E+01 -0.63054521994E+01 -0.18263750280E+02  0.21190810171E+02  0.00000000000E+00 0.  1.
</event>
<event>
 7    1  0.4450624E-010  0.4778727E+02  0.7816164E-02  0.1312668E+00
        -11   -1    0    0    0    0  0.00000000000E+00  0.00000000000E+00  0.45593999997E+02  0.45594000000E+02  0.51100000000E-03 0.  1.
         11   -1    0    0    0    0 -0.00000000000E+00 -0.00000000000E+00 -0.45593999997E+02  0.45594000000E+02  0.51100000000E-03 0. -1.
    9900012    2    1    2    0    0 -0.16119068150E+02 -0.34601044306E+02  0.20653492606E+02  0.47787269800E+02  0.19999994327E+02 0.  0.
         12    1    1    2    0    0  0.16119068150E+02  0.34601044306E+02 -0.20653492606E+02  0.43400730200E+02  0.00000000000E+00 0. -1.
         11    1    3    3    0    0 -0.26813264833E+01 -0.98187789202E+01  0.42107856652E+01  0.11014928387E+02  0.51100000000E-03 0. -1.
        -11    1    3    3    0    0 -0.15783992395E+02 -0.13562436996E+02  0.71117223350E+01  0.21992060113E+02  0.51100000000E-03 0.  1.
         12    1    3    3    0    0  0.23462507289E+01 -0.11219828390E+02  0.93309846061E+01  0.14780281300E+02  0.00000000000E+00 0. -1.
</event>
<event>
 7    1  0.4450624E-010  0.4778727E+02  0.7816164E-02  0.1312668E+00
        -11   -1    0    0    0    0  0.00000000000E+00  0.00000000000E+00  0.45593999997E+02  0.45594000000E+02  0.51100000000E-03 0. -1.
         11   -1    0    0    0    0 -0.00000000000E+00 -0.00000000000E+00 -0.45593999997E+02  0.45594000000E+02  0.51100000000E-03 0.  1.
    9900012    2    1    2    0    0 -0.43775714151E+01 -0.43312435490E+01 -0.42961618155E+02  0.47787269169E+02  0.19999991450E+02 0.  0.
         12    1    1    2    0    0  0.43775714151E+01  0.43312435490E+01  0.42961618155E+02  0.43400730831E+02  0.00000000000E+00 0. -1.
         11    1    3    3    0    0 -0.51851144475E+01  0.74647361426E+00 -0.35595011659E+01  0.63334574682E+01  0.51100000000E-03 0. -1.
        -11    1    3    3    0    0 -0.46370796935E+01  0.55696843682E+00 -0.19807482520E+02  0.20350653208E+02  0.51100000000E-03 0.  1.
         12    1    3    3    0    0  0.54446227259E+01 -0.56346856001E+01 -0.19594634468E+02  0.21103158493E+02  0.00000000000E+00 0. -1.
</event>
<event>
 7    1  0.4450624E-010  0.4778727E+02  0.7816164E-02  0.1312668E+00
        -11   -1    0    0    0    0  0.00000000000E+00  0.00000000000E+00  0.45593999997E+02  0.45594000000E+02  0.51100000000E-03 0.  1.
         11   -1    0    0    0    0 -0.00000000000E+00 -0.00000000000E+00 -0.45593999997E+02  0.45594000000E+02  0.51100000000E-03 0. -1.
    9900012    2    1    2    0    0  0.42627598410E+02 -0.80662718453E+01  0.12025514537E+01  0.47787273996E+02  0.20000013456E+02 0.  0.
         12    1    1    2    0    0 -0.42627598410E+02  0.80662718453E+01 -0.12025514537E+01  0.43400726004E+02  0.00000000000E+00 0. -1.
         11    1    3    3    0    0  0.64007995459E+01  0.41153636580E+01 -0.70415234517E+00  0.76421386830E+01  0.51100000000E-03 0. -1.
        -11    1    3    3    0    0  0.14781274018E+02 -0.10422112940E+01  0.53099441243E+01  0.15740640801E+02  0.51100000000E-03 0.  1.
        -12    1    3    3    0    0  0.21445524846E+02 -0.11139424209E+02 -0.34032403254E+01  0.24404494511E+02  0.00000000000E+00 0.  1.
</event>
<event>
 7    1  0.4450624E-010  0.4778727E+02  0.7816164E-02  0.1312668E+00
        -11   -1    0    0    0    0  0.00000000000E+00  0.00000000000E+00  0.45593999997E+02  0.45594000000E+02  0.51100000000E-03 0.  1.
         11   -1    0    0    0    0 -0.00000000000E+00 -0.00000000000E+00 -0.45593999997E+02  0.45594000000E+02  0.51100000000E-03 0. -1.
    9900012    2    1    2    0    0  0.34452594316E+02  0.32576448252E+01  0.26192173524E+02  0.47787268913E+02  0.19999990284E+02 0.  0.
         12    1    1    2    0    0 -0.34452594316E+02 -0.32576448252E+01 -0.26192173524E+02  0.43400731087E+02  0.00000000000E+00 0. -1.
         11    1    3    3    0    0  0.71663564680E+01  0.42937414291E+01 -0.85769952154E+00  0.83981265302E+01  0.51100000000E-03 0. -1.
        -11    1    3    3    0    0  0.17818129381E+01  0.19502839375E+00  0.61081178135E+01  0.63656890362E+01  0.51100000000E-03 0.  1.
        -12    1    3    3    0    0  0.25504424910E+02 -0.12311249976E+01  0.20941755232E+02  0.33023453347E+02  0.00000000000E+00 0.  1.
</event>
<event>
 7    1  0.4450624E-010  0.4778727E+02  0.7816164E-02  0.1312668E+00
        -11   -1    0    0    0    0  0.00000000000E+00  0.00000000000E+00  0.45593999997E+02  0.45594000000E+02  0.51100000000E-03 0.  1.
         11   -1    0    0    0    0 -0.00000000000E+00 -0.00000000000E+00 -0.45593999997E+02  0.45594000000E+02  0.51100000000E-03 0. -1.
    9900012    2    1    2    0    0 -0.11178327797E+02 -0.40386727052E+02  0.11295159126E+02  0.47787270121E+02  0.19999995790E+02 0.  0.
         12    1    1    2    0    0  0.11178327797E+02  0.40386727052E+02 -0.11295159126E+02  0.43400729879E+02  0.00000000000E+00 0. -1.
         11    1    3    3    0    0 -0.60954263055E+00 -0.10088561669E+01  0.25063295511E+01  0.27696608211E+01  0.51100000000E-03 0. -1.
        -11    1    3    3    0    0 -0.94058222891E+01 -0.40518817869E+02  0.63403573238E+01  0.42076647035E+02  0.51100000000E-03 0.  1.
        -12    1    3    3    0    0 -0.11629628779E+01  0.11409469841E+01  0.24484722515E+01  0.29409622647E+01  0.00000000000E+00 0.  1.
</event>
<event>
 7    1  0.4450624E-010  0.4778727E+02  0.7816164E-02  0.1312668E+00
        -11   -1    0    0    0    0  0.00000000000E+00  0.00000000000E+00  0.45593999997E+02  0.45594000000E+02  0.51100000000E-03 0. -1.
         11   -1    0    0    0    0 -0.00000000000E+00 -0.00000000000E+00 -0.45593999997E+02  0.45594000000E+02  0.51100000000E-03 0.  1.
    9900012    2    1    2    0    0  0.24438936946E+02  0.11322137178E+02 -0.34031910106E+02  0.47787270342E+02  0.19999996797E+02 0.  0.
         12    1    1    2    0    0 -0.24438936946E+02 -0.11322137178E+02  0.34031910106E+02  0.43400729658E+02  0.00000000000E+00 0. -1.
         11    1    3    3    0    0  0.16402469137E+02  0.72045507818E+01 -0.11288283721E+02  0.21174793869E+02  0.51100000000E-03 0. -1.
        -11    1    3    3    0    0  0.79257393109E+00 -0.17511939658E+01  0.11513657472E+00  0.19256454591E+01  0.51100000000E-03 0.  1.
        -12    1    3    3    0    0  0.72438938783E+01  0.58687803623E+01 -0.22858762960E+02  0.24686831014E+02  0.00000000000E+00 0.  1.
</event>
<event>
 7    1  0.4450624E-010  0.4778724E+02  0.7816164E-02  0.1312668E+00
        -11   -1    0    0    0    0  0.00000000000E+00  0.00000000000E+00  0.45593999997E+02  0.45594000000E+02  0.51100000000E-03 0.  1.
         11   -1    0    0    0    0 -0.00000000000E+00 -0.00000000000E+00 -0.45593999997E+02  0.45594000000E+02  0.51100000000E-03 0. -1.
    9900012    2    1    2    0    0  0.39250368428E+02 -0.15681912358E+02  0.98545375101E+01  0.47787243020E+02  0.19999872225E+02 0.  0.
         12    1    1    2    0    0 -0.39250368428E+02  0.15681912358E+02 -0.98545375101E+01  0.43400756980E+02  0.00000000000E+00 0. -1.
         11    1    3    3    0    0  0.22946023796E+02  0.13438983906E+01  0.27739870851E+01  0.23152128964E+02  0.51100000000E-03 0. -1.
        -11    1    3    3    0    0  0.39959020920E+01 -0.40668930301E+01  0.21664689014E+01  0.60992163603E+01  0.51100000000E-03 0.  1.
         12    1    3    3    0    0  0.12308442539E+02 -0.12958917718E+02  0.49140815236E+01  0.18535897696E+02  0.00000000000E+00 0. -1.
</event>
<event>
 7    1  0.6376721E-010  0.4778727E+02  0.7816164E-02  0.1312668E+00
        -11   -1    0    0    0    0  0.00000000000E+00  0.00000000000E+00  0.45593999997E+02  0.45594000000E+02  0.51100000000E-03 0. -1.
         11   -1    0    0    0    0 -0.00000000000E+00 -0.00000000000E+00 -0.45593999997E+02  0.45594000000E+02  0.51100000000E-03 0.  1.
    9900012    2    1    2    0    0 -0.39722427907E+02  0.17071099470E+02 -0.37854892055E+01  0.47787266775E+02  0.19999980533E+02 0.  0.
         12    1    1    2    0    0  0.39722427907E+02 -0.17071099470E+02  0.37854892055E+01  0.43400733225E+02  0.00000000000E+00 0. -1.
         11    1    3    3    0    0 -0.14873082325E+01 -0.19037498914E+01  0.12222780815E+01  0.27074551515E+01  0.51100000000E-03 0. -1.
        -11    1    3    3    0    0 -0.14367163813E+01  0.28672036246E+01 -0.36899317747E+01  0.48888247410E+01  0.51100000000E-03 0.  1.
        -12    1    3    3    0    0 -0.36798403294E+02  0.16107645736E+02 -0.13178355124E+01  0.40190986882E+02  0.00000000000E+00 0.  1.
</event>
<event>
 7    1  0.4450624E-010  0.4778727E+02  0.7816164E-02  0.1312668E+00
        -11   -1    0    0    0    0  0.00000000000E+00  0.00000000000E+00  0.45593999997E+02  0.45594000000E+02  0.51100000000E-03 0.  1.
         11   -1    0    0    0    0 -0.00000000000E+00 -0.00000000000E+00 -0.45593999997E+02  0.45594000000E+02  0.51100000000E-03 0. -1.
    9900012    2    1    2    0    0 -0.31966337703E+01  0.25461648459E+01  0.43207888126E+02  0.47787273978E+02  0.20000013377E+02 0.  0.
         12    1    1    2    0    0  0.31966337703E+01 -0.25461648459E+01 -0.43207888126E+02  0.43400726022E+02  0.00000000000E+00 0. -1.
         11    1    3    3    0    0 -0.31490054139E+01 -0.12778533107E+01  0.21071023194E+02  0.21343316586E+02  0.51100000000E-03 0. -1.
        -11    1    3    3    0    0 -0.31492340492E+01 -0.17524721545E+01  0.18990408345E+02  0.19329367375E+02  0.51100000000E-03 0.  1.
         12    1    3    3    0    0  0.31016056928E+01  0.55764903110E+01  0.31464565873E+01  0.71145900176E+01  0.00000000000E+00 0. -1.
</event>
<event>
 7    1  0.4450624E-010  0.4778727E+02  0.7816164E-02  0.1312668E+00
        -11   -1    0    0    0    0  0.00000000000E+00  0.00000000000E+00  0.45593999997E+02  0.45594000000E+02  0.51100000000E-03 0.  1.
         11   -1    0    0    0    0 -0.00000000000E+00 -0.00000000000E+00 -0.45593999997E+02  0.45594000000E+02  0.51100000000E-03 0. -1.
    9900012    2    1    2    0    0  0.38715739256E+02  0.19612558414E+02  0.24911445258E+00  0.47787274526E+02  0.20000015872E+02 0.  0.
         12    1    1    2    0    0 -0.38715739256E+02 -0.19612558414E+02 -0.24911445258E+00  0.43400725474E+02  0.00000000000E+00 0. -1.
         11    1    3    3    0    0  0.69160996123E+01  0.60317335623E+01 -0.30202897941E+01  0.96610762503E+01  0.51100000000E-03 0. -1.
        -11    1    3    3    0    0  0.20281890964E+02  0.16283390416E+02  0.37889959975E+01  0.26284223318E+02  0.51100000000E-03 0.  1.
         12    1    3    3    0    0  0.11517748680E+02 -0.27025655649E+01 -0.51959175079E+00  0.11841974957E+02  0.00000000000E+00 0. -1.
</event>
<event>
 7    1  0.4450624E-010  0.4778727E+02  0.7816164E-02  0.1312668E+00
        -11   -1    0    0    0    0  0.00000000000E+00  0.00000000000E+00  0.45593999997E+02  0.45594000000E+02  0.51100000000E-03 0. -1.
         11   -1    0    0    0    0 -0.00000000000E+00 -0.00000000000E+00 -0.45593999997E+02  0.45594000000E+02  0.51100000000E-03 0.  1.
    9900012    2    1    2    0    0 -0.16501882995E+02  0.11233563808E+02 -0.38537232687E+02  0.47787269575E+02  0.19999993301E+02 0.  0.
         12    1    1    2    0    0  0.16501882995E+02 -0.11233563808E+02  0.38537232687E+02  0.43400730425E+02  0.00000000000E+00 0. -1.
         11    1    3    3    0    0 -0.84381476481E+01 -0.21143315100E+01 -0.11502694657E+02  0.14421675287E+02  0.51100000000E-03 0. -1.
        -11    1    3    3    0    0 -0.99065182471E+01  0.61619069999E+01 -0.12834657190E+02  0.17344642605E+02  0.51100000000E-03 0.  1.
         12    1    3    3    0    0  0.18427829006E+01  0.71859883185E+01 -0.14199880841E+02  0.16020951683E+02  0.00000000000E+00 0. -1.
</event>
<event>
 7    1  0.4450624E-010  0.4778727E+02  0.7816164E-02  0.1312668E+00
        -11   -1    0    0    0    0  0.00000000000E+00  0.00000000000E+00  0.45593999997E+02  0.45594000000E+02  0.51100000000E-03 0. -1.
         11   -1    0    0    0    0 -0.00000000000E+00 -0.00000000000E+00 -0.45593999997E+02  0.45594000000E+02  0.51100000000E-03 0.  1.
    9900012    2    1    2    0    0  0.34677882953E+02 -0.30745703781E+01 -0.25915538340E+02  0.47787266406E+02  0.19999978849E+02 0.  0.
         12    1    1    2    0    0 -0.34677882953E+02  0.30745703781E+01  0.25915538340E+02  0.43400733594E+02  0.00000000000E+00 0. -1.
         11    1    3    3    0    0  0.26056992446E+01  0.33564056332E+00 -0.52871553106E+01  0.59039253621E+01  0.51100000000E-03 0. -1.
        -11    1    3    3    0    0  0.27745988034E+02 -0.49997541644E+01 -0.23283365418E+02  0.36564361052E+02  0.51100000000E-03 0.  1.
         12    1    3    3    0    0  0.43261956738E+01  0.15895432230E+01  0.26549823885E+01  0.53189799914E+01  0.00000000000E+00 0. -1.
</event>
<event>
 7    1  0.4450624E-010  0.4778727E+02  0.7816164E-02  0.1312668E+00
        -11   -1    0    0    0    0  0.00000000000E+00  0.00000000000E+00  0.45593999997E+02  0.45594000000E+02  0.51100000000E-03 0.  1.
         11   -1    0    0    0    0 -0.00000000000E+00 -0.00000000000E+00 -0.45593999997E+02  0.45594000000E+02  0.51100000000E-03 0. -1.
    9900012    2    1    2    0    0  0.17699755943E+02 -0.23011656293E+02  0.32261517572E+02  0.47787271874E+02  0.20000003781E+02 0.  0.
         12    1    1    2    0    0 -0.17699755943E+02  0.23011656293E+02 -0.32261517572E+02  0.43400728126E+02  0.00000000000E+00 0. -1.
         11    1    3    3    0    0  0.48941348342E+01 -0.29829026081E+01  0.57183150483E+01  0.80962578391E+01  0.51100000000E-03 0. -1.
        -11    1    3    3    0    0 -0.36500818934E+01 -0.12145413107E+00  0.38957502214E+01  0.53399175071E+01  0.51100000000E-03 0.  1.
        -12    1    3    3    0    0  0.16455703003E+02 -0.19907299554E+02  0.22647452303E+02  0.34351096528E+02  0.00000000000E+00 0.  1.
</event>
<event>
 7    1  0.4450624E-010  0.4778726E+02  0.7816164E-02  0.1312668E+00
        -11   -1    0    0    0    0  0.00000000000E+00  0.00000000000E+00  0.45593999997E+02  0.45594000000E+02  0.51100000000E-03 0.  1.
         11   -1    0    0    0    0 -0.00000000000E+00 -0.00000000000E+00 -0.45593999997E+02  0.45594000000E+02  0.51100000000E-03 0. -1.
    9900012    2    1    2    0    0  0.21289053949E+02 -0.51748156139E+01  0.37464935557E+02  0.47787263474E+02  0.19999965485E+02 0.  0.
         12    1    1    2    0    0 -0.21289053949E+02  0.51748156139E+01 -0.37464935557E+02  0.43400736526E+02  0.00000000000E+00 0. -1.
         11    1    3    3    0    0 -0.48516342051E+00  0.16204628553E+01  0.70638955335E+01  0.72636012955E+01  0.51100000000E-03 0. -1.
        -11    1    3    3    0    0 -0.16228777850E+01 -0.17204056042E+00  0.54262946381E+01  0.56663925050E+01  0.51100000000E-03 0.  1.
         12    1    3    3    0    0  0.23397095155E+02 -0.66232379088E+01  0.24974745385E+02  0.34857269674E+02  0.00000000000E+00 0. -1.
</event>
<event>
 7    1  0.4450624E-010  0.4778727E+02  0.7816164E-02  0.1312668E+00
        -11   -1    0    0    0    0  0.00000000000E+00  0.00000000000E+00  0.45593999997E+02  0.45594000000E+02  0.51100000000E-03 0.  1.
         11   -1    0    0    0    0 -0.00000000000E+00 -0.00000000000E+00 -0.45593999997E+02  0.45594000000E+02  0.51100000000E-03 0. -1.
    9900012    2    1    2    0    0  0.33616508364E+01  0.43146084331E+02 -0.32768803123E+01  0.47787271504E+02  0.20000002093E+02 0.  0.
         12    1    1    2    0    0 -0.33616508364E+01 -0.43146084331E+02  0.32768803123E+01  0.43400728496E+02  0.00000000000E+00 0. -1.
         11    1    3    3    0    0 -0.54271631033E+00  0.28057066037E+02  0.13251117387E+00  0.28062627373E+02  0.51100000000E-03 0.  1.
        -11    1    3    3    0    0  0.24091518618E+01  0.73345860822E+01  0.41737174509E+01  0.87761086657E+01  0.51100000000E-03 0. -1.
        -12    1    3    3    0    0  0.14952152849E+01  0.77544322118E+01 -0.75831089370E+01  0.10948535465E+02  0.00000000000E+00 0.  1.
</event>
<event>
 7    1  0.4450624E-010  0.4778727E+02  0.7816164E-02  0.1312668E+00
        -11   -1    0    0    0    0  0.00000000000E+00  0.00000000000E+00  0.45593999997E+02  0.45594000000E+02  0.51100000000E-03 0.  1.
         11   -1    0    0    0    0 -0.00000000000E+00 -0.00000000000E+00 -0.45593999997E+02  0.45594000000E+02  0.51100000000E-03 0. -1.
    9900012    2    1    2    0    0  0.32086476895E+02 -0.28569986034E+02 -0.61511894805E+01  0.47787271510E+02  0.20000002122E+02 0.  0.
         12    1    1    2    0    0 -0.32086476895E+02  0.28569986034E+02  0.61511894805E+01  0.43400728490E+02  0.00000000000E+00 0. -1.
         11    1    3    3    0    0  0.10475418666E+02 -0.11550645214E+02  0.68053715324E+01  0.17013667537E+02  0.51100000000E-03 0. -1.
        -11    1    3    3    0    0  0.14024509010E+01 -0.27446097741E+01 -0.22425908859E+01  0.38116880099E+01  0.51100000000E-03 0.  1.
         12    1    3    3    0    0  0.20208607327E+02 -0.14274731045E+02 -0.10713970127E+02  0.26961915963E+02  0.00000000000E+00 0. -1.
</event>
<event>
 7    1  0.4450624E-010  0.4778726E+02  0.7816164E-02  0.1312668E+00
        -11   -1    0    0    0    0  0.00000000000E+00  0.00000000000E+00  0.45593999997E+02  0.45594000000E+02  0.51100000000E-03 0. -1.
         11   -1    0    0    0    0 -0.00000000000E+00 -0.00000000000E+00 -0.45593999997E+02  0.45594000000E+02  0.51100000000E-03 0.  1.
    9900012    2    1    2    0    0 -0.42683753161E+02 -0.59202033325E+01 -0.51645478381E+01  0.47787260999E+02  0.19999954200E+02 0.  0.
         12    1    1    2    0    0  0.42683753161E+02  0.59202033325E+01  0.51645478381E+01  0.43400739001E+02  0.00000000000E+00 0. -1.
         11    1    3    3    0    0 -0.41574824016E+01 -0.55166333614E+01  0.16613826534E+01  0.71047938848E+01  0.51100000000E-03 0. -1.
        -11    1    3    3    0    0 -0.22617143907E+02 -0.54462515158E+01 -0.22197617085E+01  0.23369300297E+02  0.51100000000E-03 0.  1.
        -12    1    3    3    0    0 -0.15909126853E+02  0.50426815447E+01 -0.46061687830E+01  0.17313166817E+02  0.00000000000E+00 0.  1.
</event>
<event>
 7    1  0.4450624E-010  0.4778727E+02  0.7816164E-02  0.1312668E+00
        -11   -1    0    0    0    0  0.00000000000E+00  0.00000000000E+00  0.45593999997E+02  0.45594000000E+02  0.51100000000E-03 0.  1.
         11   -1    0    0    0    0 -0.00000000000E+00 -0.00000000000E+00 -0.45593999997E+02  0.45594000000E+02  0.51100000000E-03 0. -1.
    9900012    2    1    2    0    0  0.45931282646E+01 -0.18546956466E+02  0.38968408979E+02  0.47787270516E+02  0.19999997592E+02 0.  0.
         12    1    1    2    0    0 -0.45931282646E+01  0.18546956466E+02 -0.38968408979E+02  0.43400729484E+02  0.00000000000E+00 0. -1.
         11    1    3    3    0    0 -0.37128691206E+01 -0.26456924699E+01  0.45138489606E+01  0.64155996175E+01  0.51100000000E-03 0. -1.
        -11    1    3    3    0    0  0.23880262012E+01  0.11351646074E+01  0.13356773347E+02  0.13615970856E+02  0.51100000000E-03 0.  1.
         12    1    3    3    0    0  0.59179711839E+01 -0.17036428603E+02  0.21097786670E+02  0.27755700043E+02  0.00000000000E+00 0. -1.
</event>
<event>
 7    1  0.4450624E-010  0.4778727E+02  0.7816164E-02  0.1312668E+00
        -11   -1    0    0    0    0  0.00000000000E+00  0.00000000000E+00  0.45593999997E+02  0.45594000000E+02  0.51100000000E-03 0. -1.
         11   -1    0    0    0    0 -0.00000000000E+00 -0.00000000000E+00 -0.45593999997E+02  0.45594000000E+02  0.51100000000E-03 0.  1.
    9900012    2    1    2    0    0  0.19300357174E+02  0.69787692948E+00 -0.38866857219E+02  0.47787269484E+02  0.19999992884E+02 0.  0.
         12    1    1    2    0    0 -0.19300357174E+02 -0.69787692948E+00  0.38866857219E+02  0.43400730516E+02  0.00000000000E+00 0. -1.
         11    1    3    3    0    0  0.11223986933E+02 -0.40009472705E+01 -0.18911485688E+02  0.22352399265E+02  0.51100000000E-03 0. -1.
        -11    1    3    3    0    0  0.70242715762E+01 -0.58458151661E+00 -0.18584180602E+02  0.19875962760E+02  0.51100000000E-03 0.  1.
         12    1    3    3    0    0  0.10520986652E+01  0.52834057166E+01 -0.13711909290E+01  0.55589074584E+01  0.00000000000E+00 0. -1.
</event>
<event>
 7    1  0.4450624E-010  0.4778726E+02  0.7816164E-02  0.1312668E+00
        -11   -1    0    0    0    0  0.00000000000E+00  0.00000000000E+00  0.45593999997E+02  0.45594000000E+02  0.51100000000E-03 0.  1.
         11   -1    0    0    0    0 -0.00000000000E+00 -0.00000000000E+00 -0.45593999997E+02  0.45594000000E+02  0.51100000000E-03 0. -1.
    9900012    2    1    2    0    0 -0.32580122328E+02 -0.28399159380E+02  0.39556786966E+01  0.47787262468E+02  0.19999960896E+02 0.  0.
         12    1    1    2    0    0  0.32580122328E+02  0.28399159380E+02 -0.39556786966E+01  0.43400737532E+02  0.00000000000E+00 0. -1.
         11    1    3    3    0    0  0.16015758429E+01 -0.13128144470E+01  0.14991408077E+01  0.25565504836E+01  0.51100000000E-03 0. -1.
        -11    1    3    3    0    0 -0.87284095633E+01 -0.63065687252E+01  0.57506288487E+01  0.12207689176E+02  0.51100000000E-03 0.  1.
        -12    1    3    3    0    0 -0.25453288608E+02 -0.20779776208E+02 -0.32940909599E+01  0.33023022809E+02  0.00000000000E+00 0.  1.
</event>
<event>
 7    1  0.4450624E-010  0.4778727E+02  0.7816164E-02  0.1312668E+00
        -11   -1    0    0    0    0  0.00000000000E+00  0.00000000000E+00  0.45593999997E+02  0.45594000000E+02  0.51100000000E-03 0.  1.
         11   -1    0    0    0    0 -0.00000000000E+00 -0.00000000000E+00 -0.45593999997E+02  0.45594000000E+02  0.51100000000E-03 0. -1.
    9900012    2    1    2    0    0  0.30491395853E+01  0.81063644996E+00  0.43285896331E+02  0.47787271839E+02  0.20000003624E+02 0.  0.
         12    1    1    2    0    0 -0.30491395853E+01 -0.81063644996E+00 -0.43285896331E+02  0.43400728161E+02  0.00000000000E+00 0. -1.
         11    1    3    3    0    0 -0.38161772197E+01  0.57291992454E+01  0.92717842029E+01  0.11547853269E+02  0.51100000000E-03 0. -1.
        -11    1    3    3    0    0 -0.80158373535E+00 -0.12516256345E+01  0.18419413743E+02  0.18479283160E+02  0.51100000000E-03 0.  1.
         12    1    3    3    0    0  0.76669005403E+01 -0.36669371609E+01  0.15594698386E+02  0.17760135410E+02  0.00000000000E+00 0. -1.
</event>
<event>
 7    1  0.4450624E-010  0.4778728E+02  0.7816164E-02  0.1312668E+00
        -11   -1    0    0    0    0  0.00000000000E+00  0.00000000000E+00  0.45593999997E+02  0.45594000000E+02  0.51100000000E-03 0.  1.
         11   -1    0    0    0    0 -0.00000000000E+00 -0.00000000000E+00 -0.45593999997E+02  0.45594000000E+02  0.51100000000E-03 0. -1.
    9900012    2    1    2    0    0  0.14838768090E+02 -0.14432413694E+02  0.38146287581E+02  0.47787275816E+02  0.20000021754E+02 0.  0.
         12    1    1    2    0    0 -0.14838768090E+02  0.14432413694E+02 -0.38146287581E+02  0.43400724184E+02  0.00000000000E+00 0. -1.
         11    1    3    3    0    0  0.63468637314E+01 -0.14629812783E+02  0.25328630892E+02  0.29930814296E+02  0.51100000000E-03 0. -1.
        -11    1    3    3    0    0  0.82650690170E+01 -0.32373392366E+01  0.81017093849E+01  0.12017879447E+02  0.51100000000E-03 0.  1.
        -12    1    3    3    0    0  0.22683534183E+00  0.34347383258E+01  0.47159473048E+01  0.58385820728E+01  0.00000000000E+00 0.  1.
</event>
<event>
 7    1  0.4450624E-010  0.4778727E+02  0.7816164E-02  0.1312668E+00
        -11   -1    0    0    0    0  0.00000000000E+00  0.00000000000E+00  0.45593999997E+02  0.45594000000E+02  0.51100000000E-03 0.  1.
         11   -1    0    0    0    0 -0.00000000000E+00 -0.00000000000E+00 -0.45593999997E+02  0.45594000000E+02  0.51100000000E-03 0. -1.
    9900012    2    1    2    0    0  0.16781440807E+02  0.17923938194E+02  0.35787413620E+02  0.47787270864E+02  0.19999999176E+02 0.  0.
         12    1    1    2    0    0 -0.16781440807E+02 -0.17923938194E+02 -0.35787413620E+02  0.43400729136E+02  0.00000000000E+00 0. -1.
         11    1    3    3    0    0  0.10723582095E+02  0.10666357225E+02  0.13724963458E+02  0.20424030249E+02  0.51100000000E-03 0. -1.
        -11    1    3    3    0    0 -0.12312277900E+01  0.86525486664E+01  0.11167859415E+02  0.14181100256E+02  0.51100000000E-03 0.  1.
        -12    1    3    3    0    0  0.72890865010E+01 -0.13949676975E+01  0.10894590747E+02  0.13182140359E+02  0.00000000000E+00 0.  1.
</event>
<event>
 7    1  0.4450624E-010  0.4778727E+02  0.7816164E-02  0.1312668E+00
        -11   -1    0    0    0    0  0.00000000000E+00  0.00000000000E+00  0.45593999997E+02  0.45594000000E+02  0.51100000000E-03 0.  1.
         11   -1    0    0    0    0 -0.00000000000E+00 -0.00000000000E+00 -0.45593999997E+02  0.45594000000E+02  0.51100000000E-03 0. -1.
    9900012    2    1    2    0    0  0.32398123665E+02  0.15664281213E+02  0.24261387667E+02  0.47787273572E+02  0.20000011524E+02 0.  0.
         12    1    1    2    0    0 -0.32398123665E+02 -0.15664281213E+02 -0.24261387667E+02  0.43400726428E+02  0.00000000000E+00 0. -1.
         11    1    3    3    0    0 -0.54202797780E+00  0.19066280139E-01 -0.53182301495E-01  0.54496465029E+00  0.51100000000E-03 0. -1.
        -11    1    3    3    0    0  0.15097919292E+02  0.10061097400E+02  0.21875517811E+01  0.18274524095E+02  0.51100000000E-03 0.  1.
        -12    1    3    3    0    0  0.17842232351E+02  0.55841175325E+01  0.22127018187E+02  0.28967784826E+02  0.00000000000E+00 0.  1.
</event>
<event>
 7    1  0.4450624E-010  0.4778727E+02  0.7816164E-02  0.1312668E+00
        -11   -1    0    0    0    0  0.00000000000E+00  0.00000000000E+00  0.45593999997E+02  0.45594000000E+02  0.51100000000E-03 0.  1.
         11   -1    0    0    0    0 -0.00000000000E+00 -0.00000000000E+00 -0.45593999997E+02  0.45594000000E+02  0.51100000000E-03 0. -1.
    9900012    2    1    2    0    0 -0.12756018709E+02  0.83679413120E+01  0.40631081814E+02  0.47787271153E+02  0.20000000495E+02 0.  0.
         12    1    1    2    0    0  0.12756018709E+02 -0.83679413120E+01 -0.40631081814E+02  0.43400728847E+02  0.00000000000E+00 0. -1.
         11    1    3    3    0    0 -0.69045895324E+01  0.45172767441E+01  0.64628156625E+01  0.10480798268E+02  0.51100000000E-03 0. -1.
        -11    1    3    3    0    0 -0.14969679289E+01  0.46457159169E+01  0.27992039212E+01  0.56266448452E+01  0.51100000000E-03 0.  1.
        -12    1    3    3    0    0 -0.43544612474E+01 -0.79505134904E+00  0.31369062230E+02  0.31679828039E+02  0.00000000000E+00 0.  1.
</event>
<event>
 7    1  0.4450624E-010  0.4778727E+02  0.7816164E-02  0.1312668E+00
        -11   -1    0    0    0    0  0.00000000000E+00  0.00000000000E+00  0.45593999997E+02  0.45594000000E+02  0.51100000000E-03 0. -1.
         11   -1    0    0    0    0 -0.00000000000E+00 -0.00000000000E+00 -0.45593999997E+02  0.45594000000E+02  0.51100000000E-03 0.  1.
    9900012    2    1    2    0    0 -0.24898333456E+02 -0.13557647938E+02 -0.32861627961E+02  0.47787269375E+02  0.19999992390E+02 0.  0.
         12    1    1    2    0    0  0.24898333456E+02  0.13557647938E+02  0.32861627961E+02  0.43400730625E+02  0.00000000000E+00 0. -1.
         11    1    3    3    0    0 -0.32584499516E+01 -0.41401671283E+01 -0.35085846554E-02  0.52686328881E+01  0.51100000000E-03 0. -1.
        -11    1    3    3    0    0 -0.69165430898E-01 -0.18090772429E+01 -0.10068928556E+02  0.10230389379E+02  0.51100000000E-03 0.  1.
        -12    1    3    3    0    0 -0.21570718074E+02 -0.76084035671E+01 -0.22789190820E+02  0.32288247108E+02  0.00000000000E+00 0.  1.
</event>
<event>
 7    1  0.4450624E-010  0.4778727E+02  0.7816164E-02  0.1312668E+00
        -11   -1    0    0    0    0  0.00000000000E+00  0.00000000000E+00  0.45593999997E+02  0.45594000000E+02  0.51100000000E-03 0.  1.
         11   -1    0    0    0    0 -0.00000000000E+00 -0.00000000000E+00 -0.45593999997E+02  0.45594000000E+02  0.51100000000E-03 0. -1.
    9900012    2    1    2    0    0 -0.36349464290E+00  0.33080227497E+01  0.43272949677E+02  0.47787270552E+02  0.19999997753E+02 0.  0.
         12    1    1    2    0    0  0.36349464290E+00 -0.33080227497E+01 -0.43272949677E+02  0.43400729448E+02  0.00000000000E+00 0. -1.
         11    1    3    3    0    0 -0.39959445887E+01  0.71433170107E+00  0.21375257821E+02  0.21757285909E+02  0.51100000000E-03 0. -1.
        -11    1    3    3    0    0  0.28750161407E+01  0.68072329312E+01  0.58607749227E+01  0.94314803156E+01  0.51100000000E-03 0.  1.
         12    1    3    3    0    0  0.75743380505E+00 -0.42135418826E+01  0.16036916934E+02  0.16598504327E+02  0.00000000000E+00 0. -1.
</event>
<event>
 7    1  0.4450624E-010  0.4778727E+02  0.7816164E-02  0.1312668E+00
        -11   -1    0    0    0    0  0.00000000000E+00  0.00000000000E+00  0.45593999997E+02  0.45594000000E+02  0.51100000000E-03 0.  1.
         11   -1    0    0    0    0 -0.00000000000E+00 -0.00000000000E+00 -0.45593999997E+02  0.45594000000E+02  0.51100000000E-03 0. -1.
    9900012    2    1    2    0    0 -0.40601195626E+02  0.14970181976E+02  0.33256413315E+01  0.47787270456E+02  0.19999997318E+02 0.  0.
         12    1    1    2    0    0  0.40601195626E+02 -0.14970181976E+02 -0.33256413315E+01  0.43400729544E+02  0.00000000000E+00 0. -1.
         11    1    3    3    0    0 -0.19770507896E+02  0.69493054910E+01 -0.22081447094E+01  0.21072297753E+02  0.51100000000E-03 0. -1.
        -11    1    3    3    0    0 -0.18703481342E+02  0.11569642803E+02  0.48553205628E+01  0.22522233169E+02  0.51100000000E-03 0.  1.
         12    1    3    3    0    0 -0.21272063878E+01 -0.35487663176E+01  0.67846547811E+00  0.41927395338E+01  0.00000000000E+00 0. -1.
</event>
<event>
 7    1  0.4450624E-010  0.4778727E+02  0.7816164E-02  0.1312668E+00
        -11   -1    0    0    0    0  0.00000000000E+00  0.00000000000E+00  0.45593999997E+02  0.45594000000E+02  0.51100000000E-03 0.  1.
         11   -1    0    0    0    0 -0.00000000000E+00 -0.00000000000E+00 -0.45593999997E+02  0.45594000000E+02  0.51100000000E-03 0. -1.
    9900012    2    1    2    0    0 -0.30901769129E+02  0.30394664528E+02 -0.22064556660E+01  0.47787269434E+02  0.19999992656E+02 0.  0.
         12    1    1    2    0    0  0.30901769129E+02 -0.30394664528E+02  0.22064556660E+01  0.43400730566E+02  0.00000000000E+00 0. -1.
         11    1    3    3    0    0 -0.79800554877E+01  0.10493477471E+02  0.11358689243E+01  0.13231951991E+02  0.51100000000E-03 0. -1.
        -11    1    3    3    0    0 -0.16191584971E+02  0.20999483694E+02 -0.60835802798E+01  0.27205802480E+02  0.51100000000E-03 0.  1.
         12    1    3    3    0    0 -0.67301286708E+01 -0.10982966373E+01  0.27412556895E+01  0.73495149626E+01  0.00000000000E+00 0. -1.
</event>
<event>
 7    1  0.4450624E-010  0.4778727E+02  0.7816164E-02  0.1312668E+00
        -11   -1    0    0    0    0  0.00000000000E+00  0.00000000000E+00  0.45593999997E+02  0.45594000000E+02  0.51100000000E-03 0. -1.
         11   -1    0    0    0    0 -0.00000000000E+00 -0.00000000000E+00 -0.45593999997E+02  0.45594000000E+02  0.51100000000E-03 0.  1.
    9900012    2    1    2    0    0 -0.26856237158E+02 -0.22670121536E+02 -0.25464316205E+02  0.47787270922E+02  0.19999999440E+02 0.  0.
         12    1    1    2    0    0  0.26856237158E+02  0.22670121536E+02  0.25464316205E+02  0.43400729078E+02  0.00000000000E+00 0. -1.
         11    1    3    3    0    0 -0.17551966712E+02 -0.14780114043E+02 -0.87926370657E+01  0.24573029390E+02  0.51100000000E-03 0. -1.
        -11    1    3    3    0    0 -0.94466382754E+01 -0.37964425660E+01 -0.60803053973E+01  0.11858417468E+02  0.51100000000E-03 0.  1.
         12    1    3    3    0    0  0.14236782951E+00 -0.40935649275E+01 -0.10591373742E+02  0.11355824063E+02  0.00000000000E+00 0. -1.
</event>
<event>
 7    1  0.4450624E-010  0.4778727E+02  0.7816164E-02  0.1312668E+00
        -11   -1    0    0    0    0  0.00000000000E+00  0.00000000000E+00  0.45593999997E+02  0.45594000000E+02  0.51100000000E-03 0.  1.
         11   -1    0    0    0    0 -0.00000000000E+00 -0.00000000000E+00 -0.45593999997E+02  0.45594000000E+02  0.51100000000E-03 0. -1.
    9900012    2    1    2    0    0  0.12358716240E+02  0.38098636027E+02  0.16714647395E+02  0.47787269917E+02  0.19999994860E+02 0.  0.
         12    1    1    2    0    0 -0.12358716240E+02 -0.38098636027E+02 -0.16714647395E+02  0.43400730083E+02  0.00000000000E+00 0. -1.
         11    1    3    3    0    0  0.81070658339E+01  0.18681187427E+02  0.17450192520E+02  0.26818286660E+02  0.51100000000E-03 0.  1.
        -11    1    3    3    0    0 -0.10270428586E+01  0.71799184570E+01  0.16281980570E+01  0.74335102917E+01  0.51100000000E-03 0. -1.
        -12    1    3    3    0    0  0.52786932643E+01  0.12237530143E+02 -0.23637431816E+01  0.13535472966E+02  0.00000000000E+00 0.  1.
</event>
<event>
 7    1  0.4450624E-010  0.4778729E+02  0.7816164E-02  0.1312668E+00
        -11   -1    0    0    0    0  0.00000000000E+00  0.00000000000E+00  0.45593999997E+02  0.45594000000E+02  0.51100000000E-03 0.  1.
         11   -1    0    0    0    0 -0.00000000000E+00 -0.00000000000E+00 -0.45593999997E+02  0.45594000000E+02  0.51100000000E-03 0. -1.
    9900012    2    1    2    0    0 -0.35588078467E+01  0.18690783996E+02  0.39007836370E+02  0.47787287818E+02  0.20000076476E+02 0.  0.
         12    1    1    2    0    0  0.35588078467E+01 -0.18690783996E+02 -0.39007836370E+02  0.43400712182E+02  0.00000000000E+00 0. -1.
         11    1    3    3    0    0 -0.45729655658E+01  0.33592214574E+00  0.42407543309E+01  0.62457069504E+01  0.51100000000E-03 0. -1.
        -11    1    3    3    0    0 -0.42272677595E+01  0.16713545459E+02  0.26711328603E+02  0.31791625792E+02  0.51100000000E-03 0.  1.
         12    1    3    3    0    0  0.52414254786E+01  0.16413163919E+01  0.80557534358E+01  0.97499550750E+01  0.00000000000E+00 0. -1.
</event>
<event>
 7    1  0.4450624E-010  0.4778726E+02  0.7816164E-02  0.1312668E+00
        -11   -1    0    0    0    0  0.00000000000E+00  0.00000000000E+00  0.45593999997E+02  0.45594000000E+02  0.51100000000E-03 0.  1.
         11   -1    0    0    0    0 -0.00000000000E+00 -0.00000000000E+00 -0.45593999997E+02  0.45594000000E+02  0.51100000000E-03 0. -1.
    9900012    2    1    2    0    0  0.10298023051E+02  0.40456792452E+02  0.11866865169E+02  0.47787264716E+02  0.19999971148E+02 0.  0.
         12    1    1    2    0    0 -0.10298023051E+02 -0.40456792452E+02 -0.11866865169E+02  0.43400735284E+02  0.00000000000E+00 0. -1.
         11    1    3    3    0    0  0.15764330377E+01  0.15027930179E+02 -0.18880958322E+01  0.15227893247E+02  0.51100000000E-03 0. -1.
        -11    1    3    3    0    0  0.90116109157E+00 -0.13174995513E+01  0.33908521473E+00  0.16318319229E+01  0.51100000000E-03 0.  1.
        -12    1    3    3    0    0  0.78204289218E+01  0.26746361823E+02  0.13415875786E+02  0.30927539547E+02  0.00000000000E+00 0.  1.
</event>
<event>
 7    1  0.4450624E-010  0.4778727E+02  0.7816164E-02  0.1312668E+00
        -11   -1    0    0    0    0  0.00000000000E+00  0.00000000000E+00  0.45593999997E+02  0.45594000000E+02  0.51100000000E-03 0. -1.
         11   -1    0    0    0    0 -0.00000000000E+00 -0.00000000000E+00 -0.45593999997E+02  0.45594000000E+02  0.51100000000E-03 0.  1.
    9900012    2    1    2    0    0 -0.31107720767E+02  0.30179912309E+02 -0.22596323761E+01  0.47787270320E+02  0.19999996697E+02 0.  0.
         12    1    1    2    0    0  0.31107720767E+02 -0.30179912309E+02  0.22596323761E+01  0.43400729680E+02  0.00000000000E+00 0. -1.
         11    1    3    3    0    0 -0.38822515506E+01  0.12297151374E+02  0.29869254884E+01  0.13236824889E+02  0.51100000000E-03 0. -1.
        -11    1    3    3    0    0 -0.14116447241E+02  0.10758346222E+02  0.21840777587E+01  0.17882569504E+02  0.51100000000E-03 0.  1.
         12    1    3    3    0    0 -0.13109021975E+02  0.71244147132E+01 -0.74306356232E+01  0.16667875927E+02  0.00000000000E+00 0. -1.
</event>
<event>
 7    1  0.4450624E-010  0.4778728E+02  0.7816164E-02  0.1312668E+00
        -11   -1    0    0    0    0  0.00000000000E+00  0.00000000000E+00  0.45593999997E+02  0.45594000000E+02  0.51100000000E-03 0.  1.
         11   -1    0    0    0    0 -0.00000000000E+00 -0.00000000000E+00 -0.45593999997E+02  0.45594000000E+02  0.51100000000E-03 0. -1.
    9900012    2    1    2    0    0  0.28975820698E+02  0.19874858396E+02  0.25475766221E+02  0.47787275974E+02  0.20000022477E+02 0.  0.
         12    1    1    2    0    0 -0.28975820698E+02 -0.19874858396E+02 -0.25475766221E+02  0.43400724026E+02  0.00000000000E+00 0. -1.
         11    1    3    3    0    0  0.25203575118E+02  0.12412390896E+02  0.11712661728E+02  0.30438036919E+02  0.51100000000E-03 0. -1.
        -11    1    3    3    0    0  0.20016922710E+01  0.60201649636E+01  0.44225454342E+01  0.77335675154E+01  0.51100000000E-03 0.  1.
         12    1    3    3    0    0  0.17705533099E+01  0.14423025367E+01  0.93405590591E+01  0.96156715401E+01  0.00000000000E+00 0. -1.
</event>
<event>
 7    1  0.4450624E-010  0.4778727E+02  0.7816164E-02  0.1312668E+00
        -11   -1    0    0    0    0  0.00000000000E+00  0.00000000000E+00  0.45593999997E+02  0.45594000000E+02  0.51100000000E-03 0.  1.
         11   -1    0    0    0    0 -0.00000000000E+00 -0.00000000000E+00 -0.45593999997E+02  0.45594000000E+02  0.51100000000E-03 0. -1.
    9900012    2    1    2    0    0 -0.93507337920E+01 -0.70730563646E+01  0.41787070855E+02  0.47787266833E+02  0.19999980800E+02 0.  0.
         12    1    1    2    0    0  0.93507337920E+01  0.70730563646E+01 -0.41787070855E+02  0.43400733167E+02  0.00000000000E+00 0. -1.
         11    1    3    3    0    0  0.11471729642E+01  0.33850053400E+01  0.81928439932E+01  0.89385099385E+01  0.51100000000E-03 0. -1.
        -11    1    3    3    0    0 -0.32839262237E+01  0.28073432467E+01  0.91119418978E+01  0.10084286438E+02  0.51100000000E-03 0.  1.
        -12    1    3    3    0    0 -0.72139805325E+01 -0.13265404951E+02  0.24482284964E+02  0.28764470457E+02  0.00000000000E+00 0.  1.
</event>
<event>
 7    1  0.4450624E-010  0.4778727E+02  0.7816164E-02  0.1312668E+00
        -11   -1    0    0    0    0  0.00000000000E+00  0.00000000000E+00  0.45593999997E+02  0.45594000000E+02  0.51100000000E-03 0.  1.
         11   -1    0    0    0    0 -0.00000000000E+00 -0.00000000000E+00 -0.45593999997E+02  0.45594000000E+02  0.51100000000E-03 0. -1.
    9900012    2    1    2    0    0  0.10321963274E+02  0.25731240095E+02  0.33391371759E+02  0.47787270161E+02  0.19999995972E+02 0.  0.
         12    1    1    2    0    0 -0.10321963274E+02 -0.25731240095E+02 -0.33391371759E+02  0.43400729839E+02  0.00000000000E+00 0. -1.
         11    1    3    3    0    0  0.40841990714E+01  0.84899968151E+01  0.20223146017E+02  0.22310005895E+02  0.51100000000E-03 0. -1.
        -11    1    3    3    0    0  0.13528867344E+01  0.15618461695E+02  0.12935370885E+02  0.20324627141E+02  0.51100000000E-03 0.  1.
         12    1    3    3    0    0  0.48848774682E+01  0.16227815846E+01  0.23285485673E+00  0.51526371244E+01  0.00000000000E+00 0. -1.
</event>
<event>
 7    1  0.4450624E-010  0.4778727E+02  0.7816164E-02  0.1312668E+00
        -11   -1    0    0    0    0  0.00000000000E+00  0.00000000000E+00  0.45593999997E+02  0.45594000000E+02  0.51100000000E-03 0.  1.
         11   -1    0    0    0    0 -0.00000000000E+00 -0.00000000000E+00 -0.45593999997E+02  0.45594000000E+02  0.51100000000E-03 0. -1.
    9900012    2    1    2    0    0  0.28794694560E+02 -0.24290479329E+02  0.21551362167E+02  0.47787273830E+02  0.20000012699E+02 0.  0.
         12    1    1    2    0    0 -0.28794694560E+02  0.24290479329E+02 -0.21551362167E+02  0.43400726170E+02  0.00000000000E+00 0. -1.
         11    1    3    3    0    0  0.35939223259E+01  0.23379270422E+01  0.20814341833E+01  0.47659782899E+01  0.51100000000E-03 0. -1.
        -11    1    3    3    0    0 -0.16933801180E+00 -0.17409112445E+01 -0.99367495043E+00  0.20116752948E+01  0.51100000000E-03 0.  1.
        -12    1    3    3    0    0  0.25370110246E+02 -0.24887495127E+02  0.20463602934E+02  0.41009620245E+02  0.00000000000E+00 0.  1.
</event>
<event>
 7    1  0.4450624E-010  0.4778728E+02  0.7816164E-02  0.1312668E+00
        -11   -1    0    0    0    0  0.00000000000E+00  0.00000000000E+00  0.45593999997E+02  0.45594000000E+02  0.51100000000E-03 0.  1.
         11   -1    0    0    0    0 -0.00000000000E+00 -0.00000000000E+00 -0.45593999997E+02  0.45594000000E+02  0.51100000000E-03 0. -1.
    9900012    2    1    2    0    0  0.41085043553E+01  0.97379866857E+01  0.42094108863E+02  0.47787283488E+02  0.20000056736E+02 0.  0.
         12    1    1    2    0    0 -0.41085043553E+01 -0.97379866857E+01 -0.42094108863E+02  0.43400716512E+02  0.00000000000E+00 0. -1.
         11    1    3    3    0    0  0.69829890692E+01  0.27432999738E+00  0.82011068239E+01  0.10774764345E+02  0.51100000000E-03 0. -1.
        -11    1    3    3    0    0 -0.83393095081E-01  0.43078566020E+01  0.23077832104E+01  0.48877854412E+01  0.51100000000E-03 0.  1.
        -12    1    3    3    0    0 -0.27910916188E+01  0.51558000863E+01  0.31585218829E+02  0.32124733702E+02  0.00000000000E+00 0.  1.
</event>
<event>
 7    1  0.4450624E-010  0.4778727E+02  0.7816164E-02  0.1312668E+00
        -11   -1    0    0    0    0  0.00000000000E+00  0.00000000000E+00  0.45593999997E+02  0.45594000000E+02  0.51100000000E-03 0.  1.
         11   -1    0    0    0    0 -0.00000000000E+00 -0.00000000000E+00 -0.45593999997E+02  0.45594000000E+02  0.51100000000E-03 0. -1.
    9900012    2    1    2    0    0  0.85736586254E+00  0.28280321695E+01  0.43300004922E+02  0.47787271107E+02  0.20000000286E+02 0.  0.
         12    1    1    2    0    0 -0.85736586254E+00 -0.28280321695E+01 -0.43300004922E+02  0.43400728893E+02  0.00000000000E+00 0. -1.
         11    1    3    3    0    0 -0.92564813085E+00 -0.26543825997E+01  0.15458312325E+02  0.15711842402E+02  0.51100000000E-03 0. -1.
        -11    1    3    3    0    0  0.32242587006E+01 -0.16502645746E+01  0.23117618848E+02  0.23399647835E+02  0.51100000000E-03 0.  1.
         12    1    3    3    0    0 -0.14412447072E+01  0.71326793438E+01  0.47240737484E+01  0.86757808702E+01  0.00000000000E+00 0. -1.
</event>
<event>
 7    1  0.4450624E-010  0.4778727E+02  0.7816164E-02  0.1312668E+00
        -11   -1    0    0    0    0  0.00000000000E+00  0.00000000000E+00  0.45593999997E+02  0.45594000000E+02  0.51100000000E-03 0.  1.
         11   -1    0    0    0    0 -0.00000000000E+00 -0.00000000000E+00 -0.45593999997E+02  0.45594000000E+02  0.51100000000E-03 0. -1.
    9900012    2    1    2    0    0 -0.34597709647E+01  0.19171854413E+02  0.38782640786E+02  0.47787271399E+02  0.20000001617E+02 0.  0.
         12    1    1    2    0    0  0.34597709647E+01 -0.19171854413E+02 -0.38782640786E+02  0.43400728601E+02  0.00000000000E+00 0. -1.
         11    1    3    3    0    0  0.10487231969E+01 -0.89913369645E-01 -0.17673568262E+01  0.20570501136E+01  0.51100000000E-03 0. -1.
        -11    1    3    3    0    0  0.11122146855E+01  0.47105306204E+01  0.52691512083E+01  0.71547239604E+01  0.51100000000E-03 0.  1.
        -12    1    3    3    0    0 -0.56207088471E+01  0.14551237162E+02  0.35280846404E+02  0.38575497325E+02  0.00000000000E+00 0.  1.
</event>
<event>
 7    1  0.4450624E-010  0.4778727E+02  0.7816164E-02  0.1312668E+00
        -11   -1    0    0    0    0  0.00000000000E+00  0.00000000000E+00  0.45593999997E+02  0.45594000000E+02  0.51100000000E-03 0. -1.
         11   -1    0    0    0    0 -0.00000000000E+00 -0.00000000000E+00 -0.45593999997E+02  0.45594000000E+02  0.51100000000E-03 0.  1.
    9900012    2    1    2    0    0 -0.53201552928E+01  0.12111142657E+02 -0.41335689483E+02  0.47787273579E+02  0.20000011556E+02 0.  0.
         12    1    1    2    0    0  0.53201552928E+01 -0.12111142657E+02  0.41335689483E+02  0.43400726421E+02  0.00000000000E+00 0. -1.
         11    1    3    3    0    0 -0.67256961934E+00  0.28525794396E+01  0.71270612666E+00  0.30162078238E+01  0.51100000000E-03 0. -1.
        -11    1    3    3    0    0 -0.36168371253E+01 -0.15585531395E+01 -0.65100917075E+01  0.76086722219E+01  0.51100000000E-03 0.  1.
        -12    1    3    3    0    0 -0.10307485481E+01  0.10817116357E+02 -0.35538303903E+02  0.37162393533E+02  0.00000000000E+00 0.  1.
</event>
<event>
 7    1  0.4450624E-010  0.4778727E+02  0.7816164E-02  0.1312668E+00
        -11   -1    0    0    0    0  0.00000000000E+00  0.00000000000E+00  0.45593999997E+02  0.45594000000E+02  0.51100000000E-03 0. -1.
         11   -1    0    0    0    0 -0.00000000000E+00 -0.00000000000E+00 -0.45593999997E+02  0.45594000000E+02  0.51100000000E-03 0.  1.
    9900012    2    1    2    0    0 -0.17933595825E+02  0.31531885331E+02 -0.23827501201E+02  0.47787268840E+02  0.19999989949E+02 0.  0.
         12    1    1    2    0    0  0.17933595825E+02 -0.31531885331E+02  0.23827501201E+02  0.43400731160E+02  0.00000000000E+00 0. -1.
         11    1    3    3    0    0 -0.49701872071E+01  0.35773594649E+01 -0.41700507160E+01  0.74087505593E+01  0.51100000000E-03 0. -1.
        -11    1    3    3    0    0 -0.10143745098E+02  0.25301314859E+02 -0.22685090005E+02  0.35463578598E+02  0.51100000000E-03 0.  1.
         12    1    3    3    0    0 -0.28196635200E+01  0.26532110075E+01  0.30276395204E+01  0.49149396824E+01  0.00000000000E+00 0. -1.
</event>
<event>
 7    1  0.4450624E-010  0.4778727E+02  0.7816164E-02  0.1312668E+00
        -11   -1    0    0    0    0  0.00000000000E+00  0.00000000000E+00  0.45593999997E+02  0.45594000000E+02  0.51100000000E-03 0.  1.
         11   -1    0    0    0    0 -0.00000000000E+00 -0.00000000000E+00 -0.45593999997E+02  0.45594000000E+02  0.51100000000E-03 0. -1.
    9900012    2    1    2    0    0  0.61423603019E+00 -0.25665660388E+02  0.34993143332E+02  0.47787268563E+02  0.19999988685E+02 0.  0.
         12    1    1    2    0    0 -0.61423603019E+00  0.25665660388E+02 -0.34993143332E+02  0.43400731437E+02  0.00000000000E+00 0. -1.
         11    1    3    3    0    0  0.22664906986E+01 -0.49036377558E+01  0.78062162764E+00  0.54582060894E+01  0.51100000000E-03 0. -1.
        -11    1    3    3    0    0  0.46231502603E+01 -0.58643613975E+01  0.17749039743E+02  0.19255977384E+02  0.51100000000E-03 0.  1.
        -12    1    3    3    0    0 -0.62754049288E+01 -0.14897661235E+02  0.16463481961E+02  0.23073085090E+02  0.00000000000E+00 0.  1.
</event>
<event>
 7    1  0.4450624E-010  0.4778727E+02  0.7816164E-02  0.1312668E+00
        -11   -1    0    0    0    0  0.00000000000E+00  0.00000000000E+00  0.45593999997E+02  0.45594000000E+02  0.51100000000E-03 0.  1.
         11   -1    0    0    0    0 -0.00000000000E+00 -0.00000000000E+00 -0.45593999997E+02  0.45594000000E+02  0.51100000000E-03 0. -1.
    9900012    2    1    2    0    0 -0.39340033720E+02  0.14606428456E+02  0.11074181839E+02  0.47787268339E+02  0.19999987665E+02 0.  0.
         12    1    1    2    0    0  0.39340033720E+02 -0.14606428456E+02 -0.11074181839E+02  0.43400731661E+02  0.00000000000E+00 0. -1.
         11    1    3    3    0    0 -0.67580727824E+01 -0.13299831204E+01  0.12443255526E+01  0.69991963235E+01  0.51100000000E-03 0. -1.
        -11    1    3    3    0    0 -0.33115743212E+02  0.14042990926E+02  0.59789151609E+01  0.36463755558E+02  0.51100000000E-03 0.  1.
         12    1    3    3    0    0  0.53378227447E+00  0.18934206503E+01  0.38509411254E+01  0.43243164578E+01  0.00000000000E+00 0. -1.
</event>
<event>
 7    1  0.4450624E-010  0.4778727E+02  0.7816164E-02  0.1312668E+00
        -11   -1    0    0    0    0  0.00000000000E+00  0.00000000000E+00  0.45593999997E+02  0.45594000000E+02  0.51100000000E-03 0.  1.
         11   -1    0    0    0    0 -0.00000000000E+00 -0.00000000000E+00 -0.45593999997E+02  0.45594000000E+02  0.51100000000E-03 0. -1.
    9900012    2    1    2    0    0  0.42713281000E+02  0.76474903589E+01 -0.84558423065E+00  0.47787268494E+02  0.19999988370E+02 0.  0.
         12    1    1    2    0    0 -0.42713281000E+02 -0.76474903589E+01  0.84558423065E+00  0.43400731506E+02  0.00000000000E+00 0. -1.
         11    1    3    3    0    0  0.34731076424E+00  0.14013639918E+01 -0.14382369653E+01  0.20378841071E+01  0.51100000000E-03 0. -1.
        -11    1    3    3    0    0  0.69370146096E+01  0.17945483728E+01 -0.61118043876E+01  0.94178940687E+01  0.51100000000E-03 0.  1.
        -12    1    3    3    0    0  0.35428955626E+02  0.44515779943E+01  0.67044571222E+01  0.36331490318E+02  0.00000000000E+00 0.  1.
</event>
<event>
 7    1  0.4450624E-010  0.4778727E+02  0.7816164E-02  0.1312668E+00
        -11   -1    0    0    0    0  0.00000000000E+00  0.00000000000E+00  0.45593999997E+02  0.45594000000E+02  0.51100000000E-03 0.  1.
         11   -1    0    0    0    0 -0.00000000000E+00 -0.00000000000E+00 -0.45593999997E+02  0.45594000000E+02  0.51100000000E-03 0. -1.
    9900012    2    1    2    0    0 -0.29147873393E+02  0.14947343108E+02  0.28471064608E+02  0.47787272941E+02  0.20000008648E+02 0.  0.
         12    1    1    2    0    0  0.29147873393E+02 -0.14947343108E+02 -0.28471064608E+02  0.43400727059E+02  0.00000000000E+00 0. -1.
         11    1    3    3    0    0 -0.16700945545E+02  0.29674671221E+01  0.18677052891E+02  0.25230135714E+02  0.51100000000E-03 0. -1.
        -11    1    3    3    0    0 -0.12999990895E+02  0.67738148950E+01  0.91550871636E+01  0.17282938198E+02  0.51100000000E-03 0.  1.
         12    1    3    3    0    0  0.55306304730E+00  0.52060610910E+01  0.63892455408E+00  0.52741990295E+01  0.00000000000E+00 0. -1.
</event>
<event>
 7    1  0.4450624E-010  0.4778727E+02  0.7816164E-02  0.1312668E+00
        -11   -1    0    0    0    0  0.00000000000E+00  0.00000000000E+00  0.45593999997E+02  0.45594000000E+02  0.51100000000E-03 0.  1.
         11   -1    0    0    0    0 -0.00000000000E+00 -0.00000000000E+00 -0.45593999997E+02  0.45594000000E+02  0.51100000000E-03 0. -1.
    9900012    2    1    2    0    0  0.20865507683E+02 -0.32738083364E+02  0.19402883612E+02  0.47787269526E+02  0.19999993078E+02 0.  0.
         12    1    1    2    0    0 -0.20865507683E+02  0.32738083364E+02 -0.19402883612E+02  0.43400730474E+02  0.00000000000E+00 0. -1.
         11    1    3    3    0    0  0.10134743402E+02 -0.23006278097E+02  0.10216787229E+02  0.27136407227E+02  0.51100000000E-03 0. -1.
        -11    1    3    3    0    0  0.46503651994E+01 -0.11289774087E+02  0.57714657148E+01  0.13505358647E+02  0.51100000000E-03 0.  1.
         12    1    3    3    0    0  0.60803990814E+01  0.15579688200E+01  0.34146306690E+01  0.71455036518E+01  0.00000000000E+00 0. -1.
</event>
<event>
 7    1  0.4450624E-010  0.4778732E+02  0.7816164E-02  0.1312668E+00
        -11   -1    0    0    0    0  0.00000000000E+00  0.00000000000E+00  0.45593999997E+02  0.45594000000E+02  0.51100000000E-03 0. -1.
         11   -1    0    0    0    0 -0.00000000000E+00 -0.00000000000E+00 -0.45593999997E+02  0.45594000000E+02  0.51100000000E-03 0.  1.
    9900012    2    1    2    0    0 -0.42541785239E+02 -0.77982147970E+01 -0.36060794459E+01  0.47787315048E+02  0.20000200630E+02 0.  0.
         12    1    1    2    0    0  0.42541785239E+02  0.77982147970E+01  0.36060794459E+01  0.43400684952E+02  0.00000000000E+00 0. -1.
         11    1    3    3    0    0 -0.65315656683E+01  0.20434658404E+01 -0.54744413296E+01  0.87639380904E+01  0.51100000000E-03 0. -1.
        -11    1    3    3    0    0 -0.14860695966E+02 -0.54186189409E+00  0.50430043976E+01  0.15702413589E+02  0.51100000000E-03 0.  1.
        -12    1    3    3    0    0 -0.21149523604E+02 -0.92998187433E+01 -0.31746425140E+01  0.23320963368E+02  0.00000000000E+00 0.  1.
</event>
<event>
 7    1  0.4450624E-010  0.4778727E+02  0.7816164E-02  0.1312668E+00
        -11   -1    0    0    0    0  0.00000000000E+00  0.00000000000E+00  0.45593999997E+02  0.45594000000E+02  0.51100000000E-03 0.  1.
         11   -1    0    0    0    0 -0.00000000000E+00 -0.00000000000E+00 -0.45593999997E+02  0.45594000000E+02  0.51100000000E-03 0. -1.
    9900012    2    1    2    0    0 -0.16116736222E+02  0.19984467310E+02  0.34992787789E+02  0.47787270544E+02  0.19999997717E+02 0.  0.
         12    1    1    2    0    0  0.16116736222E+02 -0.19984467310E+02 -0.34992787789E+02  0.43400729456E+02  0.00000000000E+00 0. -1.
         11    1    3    3    0    0  0.56607895669E-02 -0.25357029496E+01  0.34855271713E+01  0.43103040979E+01  0.51100000000E-03 0. -1.
        -11    1    3    3    0    0 -0.57217539462E+01  0.56792190958E+01  0.26548624069E+01  0.84876552957E+01  0.51100000000E-03 0.  1.
        -12    1    3    3    0    0 -0.10400643065E+02  0.16840951164E+02  0.28852398210E+02  0.34989311150E+02  0.00000000000E+00 0.  1.
</event>
<event>
 7    1  0.4450624E-010  0.4778727E+02  0.7816164E-02  0.1312668E+00
        -11   -1    0    0    0    0  0.00000000000E+00  0.00000000000E+00  0.45593999997E+02  0.45594000000E+02  0.51100000000E-03 0. -1.
         11   -1    0    0    0    0 -0.00000000000E+00 -0.00000000000E+00 -0.45593999997E+02  0.45594000000E+02  0.51100000000E-03 0.  1.
    9900012    2    1    2    0    0 -0.10724503855E+02 -0.53431800457E+01 -0.41714011483E+02  0.47787270629E+02  0.19999998106E+02 0.  0.
         12    1    1    2    0    0  0.10724503855E+02  0.53431800457E+01  0.41714011483E+02  0.43400729371E+02  0.00000000000E+00 0. -1.
         11    1    3    3    0    0 -0.93295322192E+01 -0.75036134470E+01 -0.14479605614E+02  0.18788383783E+02  0.51100000000E-03 0. -1.
        -11    1    3    3    0    0 -0.26091617707E+01 -0.30569790060E+01 -0.16747890614E+02  0.17223376152E+02  0.51100000000E-03 0.  1.
        -12    1    3    3    0    0  0.12141901353E+01  0.52174124073E+01 -0.10486515255E+02  0.11775510694E+02  0.00000000000E+00 0.  1.
</event>
<event>
 7    1  0.4450624E-010  0.4778727E+02  0.7816164E-02  0.1312668E+00
        -11   -1    0    0    0    0  0.00000000000E+00  0.00000000000E+00  0.45593999997E+02  0.45594000000E+02  0.51100000000E-03 0.  1.
         11   -1    0    0    0    0 -0.00000000000E+00 -0.00000000000E+00 -0.45593999997E+02  0.45594000000E+02  0.51100000000E-03 0. -1.
    9900012    2    1    2    0    0 -0.25587643906E+02  0.25071675209E+02  0.24501162190E+02  0.47787269970E+02  0.19999995102E+02 0.  0.
         12    1    1    2    0    0  0.25587643906E+02 -0.25071675209E+02 -0.24501162190E+02  0.43400730030E+02  0.00000000000E+00 0. -1.
         11    1    3    3    0    0  0.78069411817E+00 -0.10624570804E+01  0.20555187450E+01  0.24420188218E+01  0.51100000000E-03 0. -1.
        -11    1    3    3    0    0 -0.31816923413E+01  0.11605776970E+02  0.71564775231E+01  0.14001156954E+02  0.51100000000E-03 0.  1.
        -12    1    3    3    0    0 -0.23186645683E+02  0.14528355319E+02  0.15289165922E+02  0.31344094195E+02  0.00000000000E+00 0.  1.
</event>
<event>
 7    1  0.4450624E-010  0.4778727E+02  0.7816164E-02  0.1312668E+00
        -11   -1    0    0    0    0  0.00000000000E+00  0.00000000000E+00  0.45593999997E+02  0.45594000000E+02  0.51100000000E-03 0.  1.
         11   -1    0    0    0    0 -0.00000000000E+00 -0.00000000000E+00 -0.45593999997E+02  0.45594000000E+02  0.51100000000E-03 0. -1.
    9900012    2    1    2    0    0  0.12664172022E+01  0.43151531851E+02 -0.44682001676E+01  0.47787270440E+02  0.19999997243E+02 0.  0.
         12    1    1    2    0    0 -0.12664172022E+01 -0.43151531851E+02  0.44682001676E+01  0.43400729560E+02  0.00000000000E+00 0. -1.
         11    1    3    3    0    0 -0.15885212202E+01  0.23844200102E+01  0.10189355258E+01  0.30409025501E+01  0.51100000000E-03 0. -1.
        -11    1    3    3    0    0  0.48747669390E+01  0.13760965237E+02  0.53899168576E+01  0.15562092435E+02  0.51100000000E-03 0.  1.
         12    1    3    3    0    0 -0.20198285166E+01  0.27006146604E+02 -0.10877052551E+02  0.29184275455E+02  0.00000000000E+00 0. -1.
</event>
<event>
 7    1  0.4450624E-010  0.4778727E+02  0.7816164E-02  0.1312668E+00
        -11   -1    0    0    0    0  0.00000000000E+00  0.00000000000E+00  0.45593999997E+02  0.45594000000E+02  0.51100000000E-03 0.  1.
         11   -1    0    0    0    0 -0.00000000000E+00 -0.00000000000E+00 -0.45593999997E+02  0.45594000000E+02  0.51100000000E-03 0. -1.
    9900012    2    1    2    0    0 -0.28518434418E+02 -0.20161622680E+02  0.25764924259E+02  0.47787268983E+02  0.19999990602E+02 0.  0.
         12    1    1    2    0    0  0.28518434418E+02  0.20161622680E+02 -0.25764924259E+02  0.43400731017E+02  0.00000000000E+00 0. -1.
         11    1    3    3    0    0 -0.26142548957E+01 -0.20117498943E+01  0.24383459929E+01  0.41020723713E+01  0.51100000000E-03 0. -1.
        -11    1    3    3    0    0 -0.22572249950E+02 -0.19341139772E+02  0.25806291433E+02  0.39364334533E+02  0.51100000000E-03 0.  1.
         12    1    3    3    0    0 -0.33319295725E+01  0.11912669864E+01 -0.24797131674E+01  0.43208620785E+01  0.00000000000E+00 0. -1.
</event>
<event>
 7    1  0.4450624E-010  0.4778727E+02  0.7816164E-02  0.1312668E+00
        -11   -1    0    0    0    0  0.00000000000E+00  0.00000000000E+00  0.45593999997E+02  0.45594000000E+02  0.51100000000E-03 0. -1.
         11   -1    0    0    0    0 -0.00000000000E+00 -0.00000000000E+00 -0.45593999997E+02  0.45594000000E+02  0.51100000000E-03 0.  1.
    9900012    2    1    2    0    0 -0.34012691532E+02  0.26304518967E+02  0.59018766210E+01  0.47787273612E+02  0.20000011708E+02 0.  0.
         12    1    1    2    0    0  0.34012691532E+02 -0.26304518967E+02 -0.59018766210E+01  0.43400726388E+02  0.00000000000E+00 0. -1.
         11    1    3    3    0    0 -0.14702841754E+02  0.31172871427E+01  0.45555164647E+01  0.15704896221E+02  0.51100000000E-03 0. -1.
        -11    1    3    3    0    0 -0.10012601562E+02  0.41915176764E+01 -0.39655826851E+00  0.10861780204E+02  0.51100000000E-03 0.  1.
         12    1    3    3    0    0 -0.92972482154E+01  0.18995714148E+02  0.17429184248E+01  0.21220597188E+02  0.00000000000E+00 0. -1.
</event>
<event>
 7    1  0.4450624E-010  0.4778727E+02  0.7816164E-02  0.1312668E+00
        -11   -1    0    0    0    0  0.00000000000E+00  0.00000000000E+00  0.45593999997E+02  0.45594000000E+02  0.51100000000E-03 0.  1.
         11   -1    0    0    0    0 -0.00000000000E+00 -0.00000000000E+00 -0.45593999997E+02  0.45594000000E+02  0.51100000000E-03 0. -1.
    9900012    2    1    2    0    0 -0.25945384421E+01  0.16333552120E+02  0.40126135551E+02  0.47787270642E+02  0.19999998164E+02 0.  0.
         12    1    1    2    0    0  0.25945384421E+01 -0.16333552120E+02 -0.40126135551E+02  0.43400729358E+02  0.00000000000E+00 0. -1.
         11    1    3    3    0    0  0.50315160765E+01  0.49380821116E+01  0.97707474494E+01  0.12048581450E+02  0.51100000000E-03 0. -1.
        -11    1    3    3    0    0 -0.17232884663E+01  0.12698815022E+02  0.20902557843E+02  0.24518290127E+02  0.51100000000E-03 0.  1.
         12    1    3    3    0    0 -0.59027660524E+01 -0.13033450134E+01  0.94528302585E+01  0.11220399066E+02  0.00000000000E+00 0. -1.
</event>
<event>
 7    1  0.4450624E-010  0.4778727E+02  0.7816164E-02  0.1312668E+00
        -11   -1    0    0    0    0  0.00000000000E+00  0.00000000000E+00  0.45593999997E+02  0.45594000000E+02  0.51100000000E-03 0.  1.
         11   -1    0    0    0    0 -0.00000000000E+00 -0.00000000000E+00 -0.45593999997E+02  0.45594000000E+02  0.51100000000E-03 0. -1.
    9900012    2    1    2    0    0  0.29974797096E+02 -0.30267168623E+02 -0.83086218962E+01  0.47787272412E+02  0.20000006234E+02 0.  0.
         12    1    1    2    0    0 -0.29974797096E+02  0.30267168623E+02  0.83086218962E+01  0.43400727588E+02  0.00000000000E+00 0. -1.
         11    1    3    3    0    0 -0.13295778380E+00 -0.25861370288E+01  0.86188225755E+00  0.27292166991E+01  0.51100000000E-03 0. -1.
        -11    1    3    3    0    0  0.21707130002E+02 -0.88314876762E+01 -0.58717818980E+01  0.24159314775E+02  0.51100000000E-03 0.  1.
        -12    1    3    3    0    0  0.84006248783E+01 -0.18849543918E+02 -0.32987222558E+01  0.20898740937E+02  0.00000000000E+00 0.  1.
</event>
<event>
 7    1  0.4450624E-010  0.4778725E+02  0.7816164E-02  0.1312668E+00
        -11   -1    0    0    0    0  0.00000000000E+00  0.00000000000E+00  0.45593999997E+02  0.45594000000E+02  0.51100000000E-03 0. -1.
         11   -1    0    0    0    0 -0.00000000000E+00 -0.00000000000E+00 -0.45593999997E+02  0.45594000000E+02  0.51100000000E-03 0.  1.
    9900012    2    1    2    0    0  0.32927317083E+02  0.23190864496E+00 -0.28273014453E+02  0.47787247262E+02  0.19999891567E+02 0.  0.
         12    1    1    2    0    0 -0.32927317083E+02 -0.23190864496E+00  0.28273014453E+02  0.43400752738E+02  0.00000000000E+00 0. -1.
         11    1    3    3    0    0  0.46604603007E+01  0.43989641413E+01 -0.81065122352E+01  0.10333746494E+02  0.51100000000E-03 0. -1.
        -11    1    3    3    0    0  0.20088720223E+02  0.62958715812E+00 -0.19412144881E+02  0.27942520096E+02  0.51100000000E-03 0.  1.
        -12    1    3    3    0    0  0.81781365596E+01 -0.47966426545E+01 -0.75435733697E+00  0.95109806715E+01  0.00000000000E+00 0.  1.
</event>
<event>
 7    1  0.4450624E-010  0.4778727E+02  0.7816164E-02  0.1312668E+00
        -11   -1    0    0    0    0  0.00000000000E+00  0.00000000000E+00  0.45593999997E+02  0.45594000000E+02  0.51100000000E-03 0. -1.
         11   -1    0    0    0    0 -0.00000000000E+00 -0.00000000000E+00 -0.45593999997E+02  0.45594000000E+02  0.51100000000E-03 0.  1.
    9900012    2    1    2    0    0  0.10876444269E+02 -0.37543326649E+02 -0.18863311552E+02  0.47787274908E+02  0.20000017614E+02 0.  0.
         12    1    1    2    0    0 -0.10876444269E+02  0.37543326649E+02  0.18863311552E+02  0.43400725092E+02  0.00000000000E+00 0. -1.
         11    1    3    3    0    0 -0.53765181321E-01  0.18820373913E+01 -0.25153837505E+01  0.31419915834E+01  0.51100000000E-03 0. -1.
        -11    1    3    3    0    0 -0.70056379635E+00 -0.22426942931E+01 -0.21341409312E+01  0.31741180036E+01  0.51100000000E-03 0.  1.
        -12    1    3    3    0    0  0.11630773247E+02 -0.37182669747E+02 -0.14213786870E+02  0.41471165321E+02  0.00000000000E+00 0.  1.
</event>
<event>
 7    1  0.4450624E-010  0.4778727E+02  0.7816164E-02  0.1312668E+00
        -11   -1    0    0    0    0  0.00000000000E+00  0.00000000000E+00  0.45593999997E+02  0.45594000000E+02  0.51100000000E-03 0.  1.
         11   -1    0    0    0    0 -0.00000000000E+00 -0.00000000000E+00 -0.45593999997E+02  0.45594000000E+02  0.51100000000E-03 0. -1.
    9900012    2    1    2    0    0 -0.10873213998E+02  0.37236527773E+02  0.19463745236E+02  0.47787272335E+02  0.20000005883E+02 0.  0.
         12    1    1    2    0    0  0.10873213998E+02 -0.37236527773E+02 -0.19463745236E+02  0.43400727665E+02  0.00000000000E+00 0. -1.
         11    1    3    3    0    0 -0.36203335125E+01  0.25949218442E+01 -0.14698170898E+01  0.46905006831E+01  0.51100000000E-03 0. -1.
        -11    1    3    3    0    0 -0.24281789257E+01  0.97478501166E+01 -0.26011955153E+00  0.10049094349E+02  0.51100000000E-03 0.  1.
         12    1    3    3    0    0 -0.48247015595E+01  0.24893755812E+02  0.21193681878E+02  0.33047677303E+02  0.00000000000E+00 0. -1.
</event>
<event>
 7    1  0.4450624E-010  0.4778728E+02  0.7816164E-02  0.1312668E+00
        -11   -1    0    0    0    0  0.00000000000E+00  0.00000000000E+00  0.45593999997E+02  0.45594000000E+02  0.51100000000E-03 0.  1.
         11   -1    0    0    0    0 -0.00000000000E+00 -0.00000000000E+00 -0.45593999997E+02  0.45594000000E+02  0.51100000000E-03 0. -1.
    9900012    2    1    2    0    0  0.46486794113E+01  0.33209045508E+01  0.43023065866E+02  0.47787276229E+02  0.20000023638E+02 0.  0.
         12    1    1    2    0    0 -0.46486794113E+01 -0.33209045508E+01 -0.43023065866E+02  0.43400723771E+02  0.00000000000E+00 0. -1.
         11    1    3    3    0    0 -0.23096615730E+01 -0.86717763987E+00  0.27613629283E+02  0.27723619102E+02  0.51100000000E-03 0. -1.
        -11    1    3    3    0    0  0.26197396835E+01  0.57312087981E+01  0.13825691874E+02  0.15194062865E+02  0.51100000000E-03 0.  1.
         12    1    3    3    0    0  0.43386013008E+01 -0.15431266074E+01  0.15837447094E+01  0.48695942622E+01  0.00000000000E+00 0. -1.
</event>
<event>
 7    1  0.4450624E-010  0.4778727E+02  0.7816164E-02  0.1312668E+00
        -11   -1    0    0    0    0  0.00000000000E+00  0.00000000000E+00  0.45593999997E+02  0.45594000000E+02  0.51100000000E-03 0. -1.
         11   -1    0    0    0    0 -0.00000000000E+00 -0.00000000000E+00 -0.45593999997E+02  0.45594000000E+02  0.51100000000E-03 0.  1.
    9900012    2    1    2    0    0 -0.46202063469E+01  0.40559280340E+02  0.14738436764E+02  0.47787273663E+02  0.20000011937E+02 0.  0.
         12    1    1    2    0    0  0.46202063469E+01 -0.40559280340E+02 -0.14738436764E+02  0.43400726337E+02  0.00000000000E+00 0. -1.
         11    1    3    3    0    0  0.95559277899E+00  0.16973825515E+02 -0.12990556603E+00  0.17001199543E+02  0.51100000000E-03 0. -1.
        -11    1    3    3    0    0 -0.28664142034E+01  0.19160192338E+02  0.56040655956E+01  0.20167668489E+02  0.51100000000E-03 0.  1.
         12    1    3    3    0    0 -0.27093849224E+01  0.44252624866E+01  0.92642767339E+01  0.10618405631E+02  0.00000000000E+00 0. -1.
</event>
<event>
 7    1  0.4450624E-010  0.4778728E+02  0.7816164E-02  0.1312668E+00
        -11   -1    0    0    0    0  0.00000000000E+00  0.00000000000E+00  0.45593999997E+02  0.45594000000E+02  0.51100000000E-03 0.  1.
         11   -1    0    0    0    0 -0.00000000000E+00 -0.00000000000E+00 -0.45593999997E+02  0.45594000000E+02  0.51100000000E-03 0. -1.
    9900012    2    1    2    0    0  0.31707644108E+02 -0.18942841788E+02  0.22790721138E+02  0.47787275123E+02  0.20000018595E+02 0.  0.
         12    1    1    2    0    0 -0.31707644108E+02  0.18942841788E+02 -0.22790721138E+02  0.43400724877E+02  0.00000000000E+00 0. -1.
         11    1    3    3    0    0  0.70277509489E-01  0.10294586204E+00  0.35134651330E+01  0.35156755084E+01  0.51100000000E-03 0. -1.
        -11    1    3    3    0    0  0.16924694967E+02 -0.69595859004E+01  0.17206945339E+02  0.25118919240E+02  0.51100000000E-03 0.  1.
        -12    1    3    3    0    0  0.14712671632E+02 -0.12086201749E+02  0.20703106659E+01  0.19152680374E+02  0.00000000000E+00 0.  1.
</event>
<event>
 7    1  0.4450624E-010  0.4778727E+02  0.7816164E-02  0.1312668E+00
        -11   -1    0    0    0    0  0.00000000000E+00  0.00000000000E+00  0.45593999997E+02  0.45594000000E+02  0.51100000000E-03 0. -1.
         11   -1    0    0    0    0 -0.00000000000E+00 -0.00000000000E+00 -0.45593999997E+02  0.45594000000E+02  0.51100000000E-03 0.  1.
    9900012    2    1    2    0    0 -0.12256032457E+02  0.11988206553E+02 -0.39870988645E+02  0.47787272317E+02  0.20000005800E+02 0.  0.
         12    1    1    2    0    0  0.12256032457E+02 -0.11988206553E+02  0.39870988645E+02  0.43400727683E+02  0.00000000000E+00 0. -1.
         11    1    3    3    0    0 -0.23915404999E+00 -0.91735962674E+00 -0.15449619616E+02  0.15478678557E+02  0.51100000000E-03 0. -1.
        -11    1    3    3    0    0 -0.55321068275E+00  0.69961628157E+01 -0.14245612746E+02  0.15880485477E+02  0.51100000000E-03 0.  1.
         12    1    3    3    0    0 -0.11463667725E+02  0.59094033638E+01 -0.10175756283E+02  0.16428108283E+02  0.00000000000E+00 0. -1.
</event>
<event>
 7    1  0.4450624E-010  0.4778727E+02  0.7816164E-02  0.1312668E+00
        -11   -1    0    0    0    0  0.00000000000E+00  0.00000000000E+00  0.45593999997E+02  0.45594000000E+02  0.51100000000E-03 0.  1.
         11   -1    0    0    0    0 -0.00000000000E+00 -0.00000000000E+00 -0.45593999997E+02  0.45594000000E+02  0.51100000000E-03 0. -1.
    9900012    2    1    2    0    0 -0.81532588134E+01 -0.32902373404E+02  0.27103158794E+02  0.47787273952E+02  0.20000013257E+02 0.  0.
         12    1    1    2    0    0  0.81532588134E+01  0.32902373404E+02 -0.27103158794E+02  0.43400726048E+02  0.00000000000E+00 0. -1.
         11    1    3    3    0    0  0.92855648018E-01  0.70474680891E+00  0.36733733026E+00  0.80014199450E+00  0.51100000000E-03 0. -1.
        -11    1    3    3    0    0 -0.97188425225E+01 -0.70422034957E+01  0.91970534711E+01  0.15120658810E+02  0.51100000000E-03 0.  1.
         12    1    3    3    0    0  0.14727280611E+01 -0.26564916717E+02  0.17538767992E+02  0.31866473147E+02  0.00000000000E+00 0. -1.
</event>
<event>
 7    1  0.4450624E-010  0.4778727E+02  0.7816164E-02  0.1312668E+00
        -11   -1    0    0    0    0  0.00000000000E+00  0.00000000000E+00  0.45593999997E+02  0.45594000000E+02  0.51100000000E-03 0. -1.
         11   -1    0    0    0    0 -0.00000000000E+00 -0.00000000000E+00 -0.45593999997E+02  0.45594000000E+02  0.51100000000E-03 0.  1.
    9900012    2    1    2    0    0 -0.40270189147E+02  0.14599173260E+02  0.69856414149E+01  0.47787272128E+02  0.20000004943E+02 0.  0.
         12    1    1    2    0    0  0.40270189147E+02 -0.14599173260E+02 -0.69856414149E+01  0.43400727872E+02  0.00000000000E+00 0. -1.
         11    1    3    3    0    0 -0.22444887200E+02  0.32033284068E+01  0.58594324424E+01  0.23417242005E+02  0.51100000000E-03 0. -1.
        -11    1    3    3    0    0 -0.17692062500E+02  0.79317091975E+01  0.40826677237E+01  0.19813865405E+02  0.51100000000E-03 0.  1.
         12    1    3    3    0    0 -0.13323944678E+00  0.34641356560E+01 -0.29564587512E+01  0.45561647183E+01  0.00000000000E+00 0. -1.
</event>
<event>
 7    1  0.4450624E-010  0.4778727E+02  0.7816164E-02  0.1312668E+00
        -11   -1    0    0    0    0  0.00000000000E+00  0.00000000000E+00  0.45593999997E+02  0.45594000000E+02  0.51100000000E-03 0.  1.
         11   -1    0    0    0    0 -0.00000000000E+00 -0.00000000000E+00 -0.45593999997E+02  0.45594000000E+02  0.51100000000E-03 0. -1.
    9900012    2    1    2    0    0  0.21927476467E+02 -0.13955772098E+01  0.37428082731E+02  0.47787271470E+02  0.20000001941E+02 0.  0.
         12    1    1    2    0    0 -0.21927476467E+02  0.13955772098E+01 -0.37428082731E+02  0.43400728530E+02  0.00000000000E+00 0. -1.
         11    1    3    3    0    0 -0.30833519597E+01 -0.80586833226E+00  0.91510919716E+01  0.96901479663E+01  0.51100000000E-03 0. -1.
        -11    1    3    3    0    0  0.40942480424E+01 -0.15678694892E+01  0.32026949053E+01  0.54293956096E+01  0.51100000000E-03 0.  1.
         12    1    3    3    0    0  0.20916580385E+02  0.97816061166E+00  0.25074295854E+02  0.32667727894E+02  0.00000000000E+00 0. -1.
</event>
<event>
 7    1  0.4450624E-010  0.4778728E+02  0.7816164E-02  0.1312668E+00
        -11   -1    0    0    0    0  0.00000000000E+00  0.00000000000E+00  0.45593999997E+02  0.45594000000E+02  0.51100000000E-03 0.  1.
         11   -1    0    0    0    0 -0.00000000000E+00 -0.00000000000E+00 -0.45593999997E+02  0.45594000000E+02  0.51100000000E-03 0. -1.
    9900012    2    1    2    0    0 -0.26698314042E+02  0.18151970690E+02  0.29005666380E+02  0.47787277716E+02  0.20000030420E+02 0.  0.
         12    1    1    2    0    0  0.26698314042E+02 -0.18151970690E+02 -0.29005666380E+02  0.43400722284E+02  0.00000000000E+00 0. -1.
         11    1    3    3    0    0 -0.63872480163E+01  0.67948962774E+01  0.47554820164E+00  0.93377566361E+01  0.51100000000E-03 0. -1.
        -11    1    3    3    0    0 -0.10682255349E+02 -0.24001536519E+00  0.12537958221E+02  0.16473268751E+02  0.51100000000E-03 0.  1.
         12    1    3    3    0    0 -0.96288106769E+01  0.11597089777E+02  0.15992159957E+02  0.21976252330E+02  0.00000000000E+00 0. -1.
</event>
<event>
 7    1  0.4450624E-010  0.4778729E+02  0.7816164E-02  0.1312668E+00
        -11   -1    0    0    0    0  0.00000000000E+00  0.00000000000E+00  0.45593999997E+02  0.45594000000E+02  0.51100000000E-03 0.  1.
         11   -1    0    0    0    0 -0.00000000000E+00 -0.00000000000E+00 -0.45593999997E+02  0.45594000000E+02  0.51100000000E-03 0. -1.
    9900012    2    1    2    0    0  0.29964013915E+02 -0.26378799500E+02  0.17027584418E+02  0.47787287747E+02  0.20000076153E+02 0.  0.
         12    1    1    2    0    0 -0.29964013915E+02  0.26378799500E+02 -0.17027584418E+02  0.43400712253E+02  0.00000000000E+00 0. -1.
         11    1    3    3    0    0  0.12561916141E+02 -0.11393506001E+02 -0.17192886357E+01  0.17046104241E+02  0.51100000000E-03 0. -1.
        -11    1    3    3    0    0  0.95788543061E+01 -0.33059750152E+01  0.60712747945E+01  0.11812886968E+02  0.51100000000E-03 0.  1.
        -12    1    3    3    0    0  0.78232434675E+01 -0.11679318484E+02  0.12675598259E+02  0.18928296538E+02  0.00000000000E+00 0.  1.
</event>
<event>
 7    1  0.4450624E-010  0.4778722E+02  0.7816164E-02  0.1312668E+00
        -11   -1    0    0    0    0  0.00000000000E+00  0.00000000000E+00  0.45593999997E+02  0.45594000000E+02  0.51100000000E-03 0. -1.
         11   -1    0    0    0    0 -0.00000000000E+00 -0.00000000000E+00 -0.45593999997E+02  0.45594000000E+02  0.51100000000E-03 0.  1.
    9900012    2    1    2    0    0  0.26148220631E+02 -0.27900829841E+02 -0.20529043541E+02  0.47787223777E+02  0.19999784490E+02 0.  0.
         12    1    1    2    0    0 -0.26148220631E+02  0.27900829841E+02  0.20529043541E+02  0.43400776223E+02  0.00000000000E+00 0. -1.
         11    1    3    3    0    0  0.21088812207E+02 -0.18368728009E+02 -0.19625675443E+02  0.34165996339E+02  0.51100000000E-03 0. -1.
        -11    1    3    3    0    0  0.59711532578E+01 -0.24669406416E+01 -0.64488614597E+00  0.64927918309E+01  0.51100000000E-03 0.  1.
         12    1    3    3    0    0 -0.91174483349E+00 -0.70651611907E+01 -0.25848195175E+00  0.71284356076E+01  0.00000000000E+00 0. -1.
</event>
<event>
 7    1  0.4450624E-010  0.4778727E+02  0.7816164E-02  0.1312668E+00
        -11   -1    0    0    0    0  0.00000000000E+00  0.00000000000E+00  0.45593999997E+02  0.45594000000E+02  0.51100000000E-03 0.  1.
         11   -1    0    0    0    0 -0.00000000000E+00 -0.00000000000E+00 -0.45593999997E+02  0.45594000000E+02  0.51100000000E-03 0. -1.
    9900012    2    1    2    0    0 -0.90825853248E+01 -0.42210507545E+02 -0.44048681996E+01  0.47787272273E+02  0.20000005602E+02 0.  0.
         12    1    1    2    0    0  0.90825853248E+01  0.42210507545E+02  0.44048681996E+01  0.43400727727E+02  0.00000000000E+00 0. -1.
         11    1    3    3    0    0  0.74879566207E+00 -0.22464122517E+01 -0.36604030842E+01  0.43595428600E+01  0.51100000000E-03 0. -1.
        -11    1    3    3    0    0 -0.93717684542E+01 -0.24724472084E+02 -0.63335547662E+01  0.27189032348E+02  0.51100000000E-03 0.  1.
        -12    1    3    3    0    0 -0.45961253264E+00 -0.15239623209E+02  0.55890896509E+01  0.16238697065E+02  0.00000000000E+00 0.  1.
</event>
<event>
 7    1  0.4450624E-010  0.4778727E+02  0.7816164E-02  0.1312668E+00
        -11   -1    0    0    0    0  0.00000000000E+00  0.00000000000E+00  0.45593999997E+02  0.45594000000E+02  0.51100000000E-03 0.  1.
         11   -1    0    0    0    0 -0.00000000000E+00 -0.00000000000E+00 -0.45593999997E+02  0.45594000000E+02  0.51100000000E-03 0. -1.
    9900012    2    1    2    0    0  0.10410065686E+02  0.31667869550E+02  0.27792076379E+02  0.47787274904E+02  0.20000017598E+02 0.  0.
         12    1    1    2    0    0 -0.10410065686E+02 -0.31667869550E+02 -0.27792076379E+02  0.43400725096E+02  0.00000000000E+00 0. -1.
         11    1    3    3    0    0 -0.23338035118E+01 -0.78101298375E+00  0.22482050137E+01  0.33333235902E+01  0.51100000000E-03 0. -1.
        -11    1    3    3    0    0 -0.15372818661E+00  0.50407427561E+01  0.79772926593E+01  0.94376860682E+01  0.51100000000E-03 0.  1.
        -12    1    3    3    0    0  0.12897597385E+02  0.27408139777E+02  0.17566578706E+02  0.35016265246E+02  0.00000000000E+00 0.  1.
</event>
<event>
 7    1  0.4450624E-010  0.4778726E+02  0.7816164E-02  0.1312668E+00
        -11   -1    0    0    0    0  0.00000000000E+00  0.00000000000E+00  0.45593999997E+02  0.45594000000E+02  0.51100000000E-03 0.  1.
         11   -1    0    0    0    0 -0.00000000000E+00 -0.00000000000E+00 -0.45593999997E+02  0.45594000000E+02  0.51100000000E-03 0. -1.
    9900012    2    1    2    0    0  0.33996169543E+02  0.26120458443E+02  0.67532504728E+01  0.47787259398E+02  0.19999946898E+02 0.  0.
         12    1    1    2    0    0 -0.33996169543E+02 -0.26120458443E+02 -0.67532504728E+01  0.43400740602E+02  0.00000000000E+00 0. -1.
         11    1    3    3    0    0  0.16460744347E+02  0.16660592670E+02 -0.17723952599E+01  0.23487716743E+02  0.51100000000E-03 0. -1.
        -11    1    3    3    0    0  0.10339749872E+01  0.57450907281E+01  0.23601760735E+01  0.62964754512E+01  0.51100000000E-03 0.  1.
         12    1    3    3    0    0  0.16501450209E+02  0.37147750453E+01  0.61654696592E+01  0.18003067204E+02  0.00000000000E+00 0. -1.
</event>
<event>
 7    1  0.4450624E-010  0.4778727E+02  0.7816164E-02  0.1312668E+00
        -11   -1    0    0    0    0  0.00000000000E+00  0.00000000000E+00  0.45593999997E+02  0.45594000000E+02  0.51100000000E-03 0. -1.
         11   -1    0    0    0    0 -0.00000000000E+00 -0.00000000000E+00 -0.45593999997E+02  0.45594000000E+02  0.51100000000E-03 0.  1.
    9900012    2    1    2    0    0  0.32555846247E+02 -0.27138921698E+02 -0.93391087329E+01  0.47787272498E+02  0.20000006628E+02 0.  0.
         12    1    1    2    0    0 -0.32555846247E+02  0.27138921698E+02  0.93391087329E+01  0.43400727502E+02  0.00000000000E+00 0. -1.
         11    1    3    3    0    0  0.11088401865E+02 -0.52835400826E+01 -0.10559740764E+02  0.16198042381E+02  0.51100000000E-03 0.  1.
        -11    1    3    3    0    0  0.57389126497E+01 -0.19892926067E+01  0.14702803643E+01  0.62493302110E+01  0.51100000000E-03 0. -1.
        -12    1    3    3    0    0  0.15728531732E+02 -0.19866089009E+02 -0.24964833317E+00  0.25339899906E+02  0.00000000000E+00 0.  1.
</event>
<event>
 7    1  0.4450624E-010  0.4778728E+02  0.7816164E-02  0.1312668E+00
        -11   -1    0    0    0    0  0.00000000000E+00  0.00000000000E+00  0.45593999997E+02  0.45594000000E+02  0.51100000000E-03 0. -1.
         11   -1    0    0    0    0 -0.00000000000E+00 -0.00000000000E+00 -0.45593999997E+02  0.45594000000E+02  0.51100000000E-03 0.  1.
    9900012    2    1    2    0    0 -0.37436581979E+00  0.37196852214E+02 -0.22357927248E+02  0.47787275637E+02  0.20000020940E+02 0.  0.
         12    1    1    2    0    0  0.37436581979E+00 -0.37196852214E+02  0.22357927248E+02  0.43400724363E+02  0.00000000000E+00 0. -1.
         11    1    3    3    0    0 -0.13521829377E+01  0.77058112318E+01 -0.91777815762E+01  0.12059834176E+02  0.51100000000E-03 0. -1.
        -11    1    3    3    0    0 -0.44823756336E+01  0.11373968625E+02 -0.11410301223E+02  0.16722853460E+02  0.51100000000E-03 0.  1.
         12    1    3    3    0    0  0.54601927515E+01  0.18117072357E+02 -0.17698444487E+01  0.19004588000E+02  0.00000000000E+00 0. -1.
</event>
<event>
 7    1  0.4450624E-010  0.4778727E+02  0.7816164E-02  0.1312668E+00
        -11   -1    0    0    0    0  0.00000000000E+00  0.00000000000E+00  0.45593999997E+02  0.45594000000E+02  0.51100000000E-03 0.  1.
         11   -1    0    0    0    0 -0.00000000000E+00 -0.00000000000E+00 -0.45593999997E+02  0.45594000000E+02  0.51100000000E-03 0. -1.
    9900012    2    1    2    0    0 -0.79145242548E+01  0.32285451882E+01  0.42550672734E+02  0.47787274795E+02  0.20000017100E+02 0.  0.
         12    1    1    2    0    0  0.79145242548E+01 -0.32285451882E+01 -0.42550672734E+02  0.43400725205E+02  0.00000000000E+00 0. -1.
         11    1    3    3    0    0 -0.44811898026E+01  0.66183975099E+01  0.18194551343E+02  0.19872743809E+02  0.51100000000E-03 0. -1.
        -11    1    3    3    0    0 -0.28099822859E+01  0.26273014305E+01  0.20228753604E+02  0.20591289078E+02  0.51100000000E-03 0.  1.
         12    1    3    3    0    0 -0.62335216628E+00 -0.60171537522E+01  0.41273677865E+01  0.73232419083E+01  0.00000000000E+00 0. -1.
</event>
<event>
 7    1  0.4450624E-010  0.4778726E+02  0.7816164E-02  0.1312668E+00
        -11   -1    0    0    0    0  0.00000000000E+00  0.00000000000E+00  0.45593999997E+02  0.45594000000E+02  0.51100000000E-03 0.  1.
         11   -1    0    0    0    0 -0.00000000000E+00 -0.00000000000E+00 -0.45593999997E+02  0.45594000000E+02  0.51100000000E-03 0. -1.
    9900012    2    1    2    0    0  0.31332700000E+02  0.29664586004E+02  0.46795487901E+01  0.47787263498E+02  0.19999965593E+02 0.  0.
         12    1    1    2    0    0 -0.31332700000E+02 -0.29664586004E+02 -0.46795487901E+01  0.43400736502E+02  0.00000000000E+00 0. -1.
         11    1    3    3    0    0  0.16802235425E+01 -0.20982168799E+01  0.15881858470E+01  0.31221786902E+01  0.51100000000E-03 0. -1.
        -11    1    3    3    0    0  0.25527540293E+01  0.46239174560E+01  0.34539766570E+01  0.63108732187E+01  0.51100000000E-03 0.  1.
        -12    1    3    3    0    0  0.27099722428E+02  0.27138885428E+02 -0.36261371389E+00  0.38354211589E+02  0.00000000000E+00 0.  1.
</event>
<event>
 7    1  0.4450624E-010  0.4778727E+02  0.7816164E-02  0.1312668E+00
        -11   -1    0    0    0    0  0.00000000000E+00  0.00000000000E+00  0.45593999997E+02  0.45594000000E+02  0.51100000000E-03 0.  1.
         11   -1    0    0    0    0 -0.00000000000E+00 -0.00000000000E+00 -0.45593999997E+02  0.45594000000E+02  0.51100000000E-03 0. -1.
    9900012    2    1    2    0    0 -0.13209900940E+02 -0.41097971011E+02  0.44808836513E+01  0.47787273942E+02  0.20000013209E+02 0.  0.
         12    1    1    2    0    0  0.13209900940E+02  0.41097971011E+02 -0.44808836513E+01  0.43400726058E+02  0.00000000000E+00 0. -1.
         11    1    3    3    0    0  0.21900520945E+00 -0.13842055908E+02  0.57670043603E+01  0.14996960178E+02  0.51100000000E-03 0. -1.
        -11    1    3    3    0    0 -0.86450203547E+01 -0.24214994256E+02  0.27106473186E+01  0.25854398714E+02  0.51100000000E-03 0.  1.
        -12    1    3    3    0    0 -0.47838857947E+01 -0.30409208483E+01 -0.39967680276E+01  0.69359150491E+01  0.00000000000E+00 0.  1.
</event>
<event>
 7    1  0.4450624E-010  0.4778727E+02  0.7816164E-02  0.1312668E+00
        -11   -1    0    0    0    0  0.00000000000E+00  0.00000000000E+00  0.45593999997E+02  0.45594000000E+02  0.51100000000E-03 0.  1.
         11   -1    0    0    0    0 -0.00000000000E+00 -0.00000000000E+00 -0.45593999997E+02  0.45594000000E+02  0.51100000000E-03 0. -1.
    9900012    2    1    2    0    0 -0.25238846376E+02 -0.15971547754E+02  0.31488623892E+02  0.47787272602E+02  0.20000007102E+02 0.  0.
         12    1    1    2    0    0  0.25238846376E+02  0.15971547754E+02 -0.31488623892E+02  0.43400727398E+02  0.00000000000E+00 0. -1.
         11    1    3    3    0    0 -0.14337975099E+02 -0.50249449371E+01  0.72591461134E+01  0.16838135411E+02  0.51100000000E-03 0. -1.
        -11    1    3    3    0    0 -0.87378460023E+01 -0.61070204760E+01  0.65959032183E+01  0.12536011781E+02  0.51100000000E-03 0.  1.
         12    1    3    3    0    0 -0.21630252745E+01 -0.48395823408E+01  0.17633574561E+02  0.18413125410E+02  0.00000000000E+00 0. -1.
</event>
<event>
 7    1  0.4450624E-010  0.4778727E+02  0.7816164E-02  0.1312668E+00
        -11   -1    0    0    0    0  0.00000000000E+00  0.00000000000E+00  0.45593999997E+02  0.45594000000E+02  0.51100000000E-03 0. -1.
         11   -1    0    0    0    0 -0.00000000000E+00 -0.00000000000E+00 -0.45593999997E+02  0.45594000000E+02  0.51100000000E-03 0.  1.
    9900012    2    1    2    0    0  0.38766443195E+01  0.42814345177E+02 -0.59604370952E+01  0.47787270347E+02  0.19999996818E+02 0.  0.
         12    1    1    2    0    0 -0.38766443195E+01 -0.42814345177E+02  0.59604370952E+01  0.43400729653E+02  0.00000000000E+00 0. -1.
         11    1    3    3    0    0  0.89544381423E+00 -0.72504723908E+00  0.60774561644E+00  0.13026389057E+01  0.51100000000E-03 0. -1.
        -11    1    3    3    0    0 -0.63663721886E+00  0.25990753278E+01  0.32683608606E+01  0.42240599527E+01  0.51100000000E-03 0.  1.
        -12    1    3    3    0    0  0.36178377241E+01  0.40940317088E+02 -0.98365435722E+01  0.42260571488E+02  0.00000000000E+00 0.  1.
</event>
<event>
 7    1  0.4450624E-010  0.4778725E+02  0.7816164E-02  0.1312668E+00
        -11   -1    0    0    0    0  0.00000000000E+00  0.00000000000E+00  0.45593999997E+02  0.45594000000E+02  0.51100000000E-03 0.  1.
         11   -1    0    0    0    0 -0.00000000000E+00 -0.00000000000E+00 -0.45593999997E+02  0.45594000000E+02  0.51100000000E-03 0. -1.
    9900012    2    1    2    0    0 -0.54485646457E+01  0.43027125853E+02 -0.16138702585E+01  0.47787251239E+02  0.19999909697E+02 0.  0.
         12    1    1    2    0    0  0.54485646457E+01 -0.43027125853E+02  0.16138702585E+01  0.43400748761E+02  0.00000000000E+00 0. -1.
         11    1    3    3    0    0  0.56447976413E+00  0.10079031547E+02  0.48359270564E+01  0.11193377733E+02  0.51100000000E-03 0. -1.
        -11    1    3    3    0    0  0.22400737010E+01  0.62953521724E+01 -0.55364062509E+01  0.86776254584E+01  0.51100000000E-03 0.  1.
        -12    1    3    3    0    0 -0.82531181108E+01  0.26652742134E+02 -0.91339106399E+00  0.27916248047E+02  0.00000000000E+00 0.  1.
</event>
<event>
 7    1  0.4450624E-010  0.4778728E+02  0.7816164E-02  0.1312668E+00
        -11   -1    0    0    0    0  0.00000000000E+00  0.00000000000E+00  0.45593999997E+02  0.45594000000E+02  0.51100000000E-03 0. -1.
         11   -1    0    0    0    0 -0.00000000000E+00 -0.00000000000E+00 -0.45593999997E+02  0.45594000000E+02  0.51100000000E-03 0.  1.
    9900012    2    1    2    0    0  0.25799591139E+02  0.10346362354E+02 -0.33331017135E+02  0.47787276272E+02  0.20000023833E+02 0.  0.
         12    1    1    2    0    0 -0.25799591139E+02 -0.10346362354E+02  0.33331017135E+02  0.43400723728E+02  0.00000000000E+00 0. -1.
         11    1    3    3    0    0  0.82594992368E+01 -0.61963795352E-01 -0.74533211435E+01  0.11125428688E+02  0.51100000000E-03 0. -1.
        -11    1    3    3    0    0  0.11759876040E+02  0.58056905593E+01 -0.42179639490E+01  0.13776499827E+02  0.51100000000E-03 0.  1.
         12    1    3    3    0    0  0.57802158613E+01  0.46026355897E+01 -0.21659732043E+02  0.22885347757E+02  0.00000000000E+00 0. -1.
</event>
<event>
 7    1  0.4450624E-010  0.4778727E+02  0.7816164E-02  0.1312668E+00
        -11   -1    0    0    0    0  0.00000000000E+00  0.00000000000E+00  0.45593999997E+02  0.45594000000E+02  0.51100000000E-03 0. -1.
         11   -1    0    0    0    0 -0.00000000000E+00 -0.00000000000E+00 -0.45593999997E+02  0.45594000000E+02  0.51100000000E-03 0.  1.
    9900012    2    1    2    0    0  0.69984631903E+01 -0.57015122319E+01 -0.42451588357E+02  0.47787273246E+02  0.20000010039E+02 0.  0.
         12    1    1    2    0    0 -0.69984631903E+01  0.57015122319E+01  0.42451588357E+02  0.43400726754E+02  0.00000000000E+00 0. -1.
         11    1    3    3    0    0 -0.55273929414E+00 -0.26540695631E+01 -0.27592684056E+02  0.27725544533E+02  0.51100000000E-03 0. -1.
        -11    1    3    3    0    0  0.29738448426E+01 -0.52763080323E+01 -0.13493775256E+02  0.14790711630E+02  0.51100000000E-03 0.  1.
         12    1    3    3    0    0  0.45773576418E+01  0.22288653635E+01 -0.13651290452E+01  0.52710170840E+01  0.00000000000E+00 0. -1.
</event>
<event>
 7    1  0.4450624E-010  0.4778727E+02  0.7816164E-02  0.1312668E+00
        -11   -1    0    0    0    0  0.00000000000E+00  0.00000000000E+00  0.45593999997E+02  0.45594000000E+02  0.51100000000E-03 0.  1.
         11   -1    0    0    0    0 -0.00000000000E+00 -0.00000000000E+00 -0.45593999997E+02  0.45594000000E+02  0.51100000000E-03 0. -1.
    9900012    2    1    2    0    0  0.22998717406E+02  0.12475057973E+02  0.34627373355E+02  0.47787273517E+02  0.20000011276E+02 0.  0.
         12    1    1    2    0    0 -0.22998717406E+02 -0.12475057973E+02 -0.34627373355E+02  0.43400726483E+02  0.00000000000E+00 0. -1.
         11    1    3    3    0    0  0.30388459458E+01  0.52185677534E+01  0.48254552593E+01  0.77300098835E+01  0.51100000000E-03 0. -1.
        -11    1    3    3    0    0  0.11163183521E+02 -0.13133693322E+01  0.48402459838E+01  0.12238038518E+02  0.51100000000E-03 0.  1.
        -12    1    3    3    0    0  0.87966879397E+01  0.85698595515E+01  0.24961672112E+02  0.27819225116E+02  0.00000000000E+00 0.  1.
</event>
<event>
 7    1  0.4450624E-010  0.4778727E+02  0.7816164E-02  0.1312668E+00
        -11   -1    0    0    0    0  0.00000000000E+00  0.00000000000E+00  0.45593999997E+02  0.45594000000E+02  0.51100000000E-03 0. -1.
         11   -1    0    0    0    0 -0.00000000000E+00 -0.00000000000E+00 -0.45593999997E+02  0.45594000000E+02  0.51100000000E-03 0.  1.
    9900012    2    1    2    0    0  0.31271619569E+02  0.24813935922E+02 -0.17028734708E+02  0.47787269452E+02  0.19999992737E+02 0.  0.
         12    1    1    2    0    0 -0.31271619569E+02 -0.24813935922E+02  0.17028734708E+02  0.43400730548E+02  0.00000000000E+00 0. -1.
         11    1    3    3    0    0 -0.56704987954E+00  0.16586816838E+00 -0.50455470214E+00  0.77693855854E+00  0.51100000000E-03 0. -1.
        -11    1    3    3    0    0  0.31267503249E+02  0.16072929317E+02 -0.11186650557E+02  0.36893589785E+02  0.51100000000E-03 0.  1.
         12    1    3    3    0    0  0.57116619903E+00  0.85751384365E+01 -0.53375294488E+01  0.10116741108E+02  0.00000000000E+00 0. -1.
</event>
<event>
 7    1  0.4450624E-010  0.4778727E+02  0.7816164E-02  0.1312668E+00
        -11   -1    0    0    0    0  0.00000000000E+00  0.00000000000E+00  0.45593999997E+02  0.45594000000E+02  0.51100000000E-03 0.  1.
         11   -1    0    0    0    0 -0.00000000000E+00 -0.00000000000E+00 -0.45593999997E+02  0.45594000000E+02  0.51100000000E-03 0. -1.
    9900012    2    1    2    0    0 -0.15557478370E+02 -0.40433411795E+02 -0.25937169371E+01  0.47787270857E+02  0.19999999145E+02 0.  0.
         12    1    1    2    0    0  0.15557478370E+02  0.40433411795E+02  0.25937169371E+01  0.43400729143E+02  0.00000000000E+00 0. -1.
         11    1    3    3    0    0 -0.65593287548E+01 -0.52967044862E+01 -0.72641832635E+00  0.84621247907E+01  0.51100000000E-03 0. -1.
        -11    1    3    3    0    0 -0.12135752491E+02 -0.27048908629E+02  0.22316080505E+01  0.29730456123E+02  0.51100000000E-03 0.  1.
         12    1    3    3    0    0  0.31376028755E+01 -0.80877986794E+01 -0.40989066612E+01  0.95946899429E+01  0.00000000000E+00 0. -1.
</event>
<event>
 7    1  0.4450624E-010  0.4778727E+02  0.7816164E-02  0.1312668E+00
        -11   -1    0    0    0    0  0.00000000000E+00  0.00000000000E+00  0.45593999997E+02  0.45594000000E+02  0.51100000000E-03 0.  1.
         11   -1    0    0    0    0 -0.00000000000E+00 -0.00000000000E+00 -0.45593999997E+02  0.45594000000E+02  0.51100000000E-03 0. -1.
    9900012    2    1    2    0    0  0.45439118197E+01 -0.19543018600E+01  0.43117942531E+02  0.47787269609E+02  0.19999993456E+02 0.  0.
         12    1    1    2    0    0 -0.45439118197E+01  0.19543018600E+01 -0.43117942531E+02  0.43400730391E+02  0.00000000000E+00 0. -1.
         11    1    3    3    0    0  0.42105306549E+00 -0.50502121207E+01  0.18186109940E+02  0.18878996879E+02  0.51100000000E-03 0. -1.
        -11    1    3    3    0    0  0.89746153245E+01  0.39043444295E+00  0.16955290401E+02  0.19187965815E+02  0.51100000000E-03 0.  1.
         12    1    3    3    0    0 -0.48517565703E+01  0.27054758178E+01  0.79765421898E+01  0.97203069151E+01  0.00000000000E+00 0. -1.
</event>
<event>
 7    1  0.4450624E-010  0.4778727E+02  0.7816164E-02  0.1312668E+00
        -11   -1    0    0    0    0  0.00000000000E+00  0.00000000000E+00  0.45593999997E+02  0.45594000000E+02  0.51100000000E-03 0.  1.
         11   -1    0    0    0    0 -0.00000000000E+00 -0.00000000000E+00 -0.45593999997E+02  0.45594000000E+02  0.51100000000E-03 0. -1.
    9900012    2    1    2    0    0 -0.29211904516E+02 -0.11132159287E+02  0.30105861305E+02  0.47787271656E+02  0.20000002790E+02 0.  0.
         12    1    1    2    0    0  0.29211904516E+02  0.11132159287E+02 -0.30105861305E+02  0.43400728344E+02  0.00000000000E+00 0. -1.
         11    1    3    3    0    0 -0.12083299810E+02 -0.10676845494E+02  0.14901186930E+02  0.21955558207E+02  0.51100000000E-03 0. -1.
        -11    1    3    3    0    0 -0.14549748528E+02 -0.52103326534E+01  0.11739358968E+02  0.19407609276E+02  0.51100000000E-03 0.  1.
         12    1    3    3    0    0 -0.25788561783E+01  0.47550188608E+01  0.34653154083E+01  0.64241041736E+01  0.00000000000E+00 0. -1.
</event>
<event>
 7    1  0.4450624E-010  0.4778727E+02  0.7816164E-02  0.1312668E+00
        -11   -1    0    0    0    0  0.00000000000E+00  0.00000000000E+00  0.45593999997E+02  0.45594000000E+02  0.51100000000E-03 0. -1.
         11   -1    0    0    0    0 -0.00000000000E+00 -0.00000000000E+00 -0.45593999997E+02  0.45594000000E+02  0.51100000000E-03 0.  1.
    9900012    2    1    2    0    0  0.31926985626E+02 -0.38705564221E+01 -0.29142920712E+02  0.47787269064E+02  0.19999990969E+02 0.  0.
         12    1    1    2    0    0 -0.31926985626E+02  0.38705564221E+01  0.29142920712E+02  0.43400730936E+02  0.00000000000E+00 0. -1.
         11    1    3    3    0    0  0.59027544610E+01  0.32845807318E+01 -0.13471507465E+01  0.68880908970E+01  0.51100000000E-03 0. -1.
        -11    1    3    3    0    0  0.13975208613E+02 -0.32568673604E+01 -0.57175632335E+01  0.15446817484E+02  0.51100000000E-03 0.  1.
         12    1    3    3    0    0  0.12049022552E+02 -0.38982697934E+01 -0.22078206732E+02  0.25452360683E+02  0.00000000000E+00 0. -1.
</event>
<event>
 7    1  0.4450624E-010  0.4778727E+02  0.7816164E-02  0.1312668E+00
        -11   -1    0    0    0    0  0.00000000000E+00  0.00000000000E+00  0.45593999997E+02  0.45594000000E+02  0.51100000000E-03 0.  1.
         11   -1    0    0    0    0 -0.00000000000E+00 -0.00000000000E+00 -0.45593999997E+02  0.45594000000E+02  0.51100000000E-03 0. -1.
    9900012    2    1    2    0    0  0.19383583148E+02 -0.30661443216E+02  0.23828054551E+02  0.47787267524E+02  0.19999983951E+02 0.  0.
         12    1    1    2    0    0 -0.19383583148E+02  0.30661443216E+02 -0.23828054551E+02  0.43400732476E+02  0.00000000000E+00 0. -1.
         11    1    3    3    0    0  0.12545283490E+02 -0.10976320844E+02  0.12624121134E+02  0.20910097842E+02  0.51100000000E-03 0. -1.
        -11    1    3    3    0    0  0.67926870263E+01 -0.18730450334E+02  0.13716404444E+02  0.24189049545E+02  0.51100000000E-03 0.  1.
         12    1    3    3    0    0  0.45612631960E-01 -0.95467203869E+00 -0.25124710271E+01  0.26881201379E+01  0.00000000000E+00 0. -1.
</event>
<event>
 7    1  0.4450624E-010  0.4778727E+02  0.7816164E-02  0.1312668E+00
        -11   -1    0    0    0    0  0.00000000000E+00  0.00000000000E+00  0.45593999997E+02  0.45594000000E+02  0.51100000000E-03 0.  1.
         11   -1    0    0    0    0 -0.00000000000E+00 -0.00000000000E+00 -0.45593999997E+02  0.45594000000E+02  0.51100000000E-03 0. -1.
    9900012    2    1    2    0    0  0.22292312073E+02 -0.13029645205E+02  0.34884161154E+02  0.47787268081E+02  0.19999986487E+02 0.  0.
         12    1    1    2    0    0 -0.22292312073E+02  0.13029645205E+02 -0.34884161154E+02  0.43400731919E+02  0.00000000000E+00 0. -1.
         11    1    3    3    0    0  0.40320982772E+01  0.43514045707E+00  0.32432577104E+01  0.51928686264E+01  0.51100000000E-03 0. -1.
        -11    1    3    3    0    0  0.18700416324E+02 -0.10462771907E+02  0.32937821956E+02  0.39294723337E+02  0.51100000000E-03 0.  1.
         12    1    3    3    0    0 -0.44020252876E+00 -0.30020137549E+01 -0.12969185122E+01  0.32996761172E+01  0.00000000000E+00 0. -1.
</event>
<event>
 7    1  0.4450624E-010  0.4778727E+02  0.7816164E-02  0.1312668E+00
        -11   -1    0    0    0    0  0.00000000000E+00  0.00000000000E+00  0.45593999997E+02  0.45594000000E+02  0.51100000000E-03 0. -1.
         11   -1    0    0    0    0 -0.00000000000E+00 -0.00000000000E+00 -0.45593999997E+02  0.45594000000E+02  0.51100000000E-03 0.  1.
    9900012    2    1    2    0    0  0.37204533174E+01 -0.31028039276E+02 -0.30117139718E+02  0.47787273059E+02  0.20000009186E+02 0.  0.
         12    1    1    2    0    0 -0.37204533174E+01  0.31028039276E+02  0.30117139718E+02  0.43400726941E+02  0.00000000000E+00 0. -1.
         11    1    3    3    0    0  0.51086668539E+01 -0.50155464471E+01 -0.93203001043E+01  0.11752539193E+02  0.51100000000E-03 0. -1.
        -11    1    3    3    0    0  0.34316216904E+01 -0.11167450151E+02 -0.24317098847E+01  0.11933196702E+02  0.51100000000E-03 0.  1.
         12    1    3    3    0    0 -0.48198352269E+01 -0.14845042677E+02 -0.18365129729E+02  0.24101537164E+02  0.00000000000E+00 0. -1.
</event>
<event>
 7    1  0.4450624E-010  0.4778727E+02  0.7816164E-02  0.1312668E+00
        -11   -1    0    0    0    0  0.00000000000E+00  0.00000000000E+00  0.45593999997E+02  0.45594000000E+02  0.51100000000E-03 0.  1.
         11   -1    0    0    0    0 -0.00000000000E+00 -0.00000000000E+00 -0.45593999997E+02  0.45594000000E+02  0.51100000000E-03 0. -1.
    9900012    2    1    2    0    0 -0.10551147210E+02 -0.27632421298E+02  0.31760755683E+02  0.47787274017E+02  0.20000013555E+02 0.  0.
         12    1    1    2    0    0  0.10551147210E+02  0.27632421298E+02 -0.31760755683E+02  0.43400725983E+02  0.00000000000E+00 0. -1.
         11    1    3    3    0    0  0.35423618154E+01 -0.53115616745E+01  0.41474064249E+01  0.76132775444E+01  0.51100000000E-03 0. -1.
        -11    1    3    3    0    0 -0.10451278078E+02 -0.18030183196E+02  0.27551355238E+02  0.34545533651E+02  0.51100000000E-03 0.  1.
         12    1    3    3    0    0 -0.36422309473E+01 -0.42906764272E+01  0.61994020870E-01  0.56284628216E+01  0.00000000000E+00 0. -1.
</event>
<event>
 7    1  0.4450624E-010  0.4778727E+02  0.7816164E-02  0.1312668E+00
        -11   -1    0    0    0    0  0.00000000000E+00  0.00000000000E+00  0.45593999997E+02  0.45594000000E+02  0.51100000000E-03 0.  1.
         11   -1    0    0    0    0 -0.00000000000E+00 -0.00000000000E+00 -0.45593999997E+02  0.45594000000E+02  0.51100000000E-03 0. -1.
    9900012    2    1    2    0    0  0.12567094195E+02  0.24529962391E+02  0.33525697067E+02  0.47787271028E+02  0.19999999926E+02 0.  0.
         12    1    1    2    0    0 -0.12567094195E+02 -0.24529962391E+02 -0.33525697067E+02  0.43400728972E+02  0.00000000000E+00 0. -1.
         11    1    3    3    0    0  0.27756181958E+00 -0.57790162932E+00  0.44589750549E+01  0.45048273727E+01  0.51100000000E-03 0. -1.
        -11    1    3    3    0    0  0.40753700560E+01  0.21212230779E+02  0.25738723440E+02  0.33601328252E+02  0.51100000000E-03 0.  1.
         12    1    3    3    0    0  0.82141623193E+01  0.38956332419E+01  0.33279985728E+01  0.96811154040E+01  0.00000000000E+00 0. -1.
</event>
<event>
 7    1  0.4450624E-010  0.4778727E+02  0.7816164E-02  0.1312668E+00
        -11   -1    0    0    0    0  0.00000000000E+00  0.00000000000E+00  0.45593999997E+02  0.45594000000E+02  0.51100000000E-03 0.  1.
         11   -1    0    0    0    0 -0.00000000000E+00 -0.00000000000E+00 -0.45593999997E+02  0.45594000000E+02  0.51100000000E-03 0. -1.
    9900012    2    1    2    0    0 -0.23484571747E+02 -0.32930468211E+02  0.15737924709E+02  0.47787272807E+02  0.20000008034E+02 0.  0.
         12    1    1    2    0    0  0.23484571747E+02  0.32930468211E+02 -0.15737924709E+02  0.43400727193E+02  0.00000000000E+00 0. -1.
         11    1    3    3    0    0 -0.27740539264E+01 -0.13866054679E+01  0.49650141383E+00  0.31407903186E+01  0.51100000000E-03 0. -1.
        -11    1    3    3    0    0  0.17442619502E+01 -0.99409461404E+01  0.31806057849E+00  0.10097822672E+02  0.51100000000E-03 0.  1.
        -12    1    3    3    0    0 -0.22454779771E+02 -0.21602916603E+02  0.14923362717E+02  0.34548659816E+02  0.00000000000E+00 0.  1.
</event>
<event>
 7    1  0.4450624E-010  0.4778725E+02  0.7816164E-02  0.1312668E+00
        -11   -1    0    0    0    0  0.00000000000E+00  0.00000000000E+00  0.45593999997E+02  0.45594000000E+02  0.51100000000E-03 0.  1.
         11   -1    0    0    0    0 -0.00000000000E+00 -0.00000000000E+00 -0.45593999997E+02  0.45594000000E+02  0.51100000000E-03 0. -1.
    9900012    2    1    2    0    0  0.30081471332E+02  0.16949892999E+02  0.26295075550E+02  0.47787253597E+02  0.19999920449E+02 0.  0.
         12    1    1    2    0    0 -0.30081471332E+02 -0.16949892999E+02 -0.26295075550E+02  0.43400746403E+02  0.00000000000E+00 0. -1.
         11    1    3    3    0    0  0.90913122275E+01  0.12355669520E+02  0.88697665914E+01  0.17719686424E+02  0.51100000000E-03 0. -1.
        -11    1    3    3    0    0  0.10732766330E+02  0.58972953079E+01  0.35253457590E+01  0.12743564181E+02  0.51100000000E-03 0.  1.
        -12    1    3    3    0    0  0.10257392774E+02 -0.13030718293E+01  0.13899963200E+02  0.17324002992E+02  0.00000000000E+00 0.  1.
</event>
<event>
 7    1  0.4450624E-010  0.4778728E+02  0.7816164E-02  0.1312668E+00
        -11   -1    0    0    0    0  0.00000000000E+00  0.00000000000E+00  0.45593999997E+02  0.45594000000E+02  0.51100000000E-03 0.  1.
         11   -1    0    0    0    0 -0.00000000000E+00 -0.00000000000E+00 -0.45593999997E+02  0.45594000000E+02  0.51100000000E-03 0. -1.
    9900012    2    1    2    0    0  0.24633285206E+02 -0.30621881047E+02  0.18415332434E+02  0.47787276417E+02  0.20000024495E+02 0.  0.
         12    1    1    2    0    0 -0.24633285206E+02  0.30621881047E+02 -0.18415332434E+02  0.43400723583E+02  0.00000000000E+00 0. -1.
         11    1    3    3    0    0  0.10277449448E+00 -0.23818882021E+01  0.64455522367E+01  0.68723429703E+01  0.51100000000E-03 0. -1.
        -11    1    3    3    0    0  0.13742752872E+02 -0.79411702209E+01  0.25648654704E+01  0.16078058842E+02  0.51100000000E-03 0.  1.
         12    1    3    3    0    0  0.10787757840E+02 -0.20298822624E+02  0.94049147265E+01  0.24836874605E+02  0.00000000000E+00 0. -1.
</event>
<event>
 7    1  0.4450624E-010  0.4778725E+02  0.7816164E-02  0.1312668E+00
        -11   -1    0    0    0    0  0.00000000000E+00  0.00000000000E+00  0.45593999997E+02  0.45594000000E+02  0.51100000000E-03 0.  1.
         11   -1    0    0    0    0 -0.00000000000E+00 -0.00000000000E+00 -0.45593999997E+02  0.45594000000E+02  0.51100000000E-03 0. -1.
    9900012    2    1    2    0    0 -0.24789246953E+02 -0.31106777176E+02  0.17363385576E+02  0.47787245289E+02  0.19999882571E+02 0.  0.
         12    1    1    2    0    0  0.24789246953E+02  0.31106777176E+02 -0.17363385576E+02  0.43400754711E+02  0.00000000000E+00 0. -1.
         11    1    3    3    0    0 -0.15057670117E+02 -0.24285299021E+02  0.35428863306E+01  0.28793423237E+02  0.51100000000E-03 0. -1.
        -11    1    3    3    0    0 -0.54404284024E+01 -0.29200668349E+01  0.33508801602E+01  0.70252010385E+01  0.51100000000E-03 0.  1.
         12    1    3    3    0    0 -0.42911484339E+01 -0.39014113203E+01  0.10469619086E+02  0.11968621014E+02  0.00000000000E+00 0. -1.
</event>
<event>
 7    1  0.4450624E-010  0.4778728E+02  0.7816164E-02  0.1312668E+00
        -11   -1    0    0    0    0  0.00000000000E+00  0.00000000000E+00  0.45593999997E+02  0.45594000000E+02  0.51100000000E-03 0.  1.
         11   -1    0    0    0    0 -0.00000000000E+00 -0.00000000000E+00 -0.45593999997E+02  0.45594000000E+02  0.51100000000E-03 0. -1.
    9900012    2    1    2    0    0 -0.88018863793E+01 -0.26631287931E+02  0.33119839051E+02  0.47787280658E+02  0.20000043830E+02 0.  0.
         12    1    1    2    0    0  0.88018863793E+01  0.26631287931E+02 -0.33119839051E+02  0.43400719342E+02  0.00000000000E+00 0. -1.
         11    1    3    3    0    0 -0.28956129959E+01  0.54104004632E+00  0.30007334269E+00  0.29609699805E+01  0.51100000000E-03 0. -1.
        -11    1    3    3    0    0 -0.18786415745E+01  0.85492117289E+00  0.35195949293E+01  0.40801633674E+01  0.51100000000E-03 0.  1.
        -12    1    3    3    0    0 -0.40276318089E+01 -0.28027249150E+02  0.29300170779E+02  0.40746147310E+02  0.00000000000E+00 0.  1.
</event>
<event>
 7    1  0.4450624E-010  0.4778727E+02  0.7816164E-02  0.1312668E+00
        -11   -1    0    0    0    0  0.00000000000E+00  0.00000000000E+00  0.45593999997E+02  0.45594000000E+02  0.51100000000E-03 0.  1.
         11   -1    0    0    0    0 -0.00000000000E+00 -0.00000000000E+00 -0.45593999997E+02  0.45594000000E+02  0.51100000000E-03 0. -1.
    9900012    2    1    2    0    0 -0.19538675130E+02  0.17595965155E+02  0.34528908262E+02  0.47787270498E+02  0.19999997508E+02 0.  0.
         12    1    1    2    0    0  0.19538675130E+02 -0.17595965155E+02 -0.34528908262E+02  0.43400729502E+02  0.00000000000E+00 0. -1.
         11    1    3    3    0    0  0.15114891309E+01  0.27813113869E+01  0.45549026942E+01  0.55468397524E+01  0.51100000000E-03 0. -1.
        -11    1    3    3    0    0 -0.15859125112E+02  0.17528508761E+02  0.26123103326E+02  0.35230341984E+02  0.51100000000E-03 0.  1.
        -12    1    3    3    0    0 -0.51910391484E+01 -0.27138549925E+01  0.38509022418E+01  0.70100887610E+01  0.00000000000E+00 0.  1.
</event>
<event>
 7    1  0.4450624E-010  0.4778727E+02  0.7816164E-02  0.1312668E+00
        -11   -1    0    0    0    0  0.00000000000E+00  0.00000000000E+00  0.45593999997E+02  0.45594000000E+02  0.51100000000E-03 0. -1.
         11   -1    0    0    0    0 -0.00000000000E+00 -0.00000000000E+00 -0.45593999997E+02  0.45594000000E+02  0.51100000000E-03 0.  1.
    9900012    2    1    2    0    0 -0.23374792753E+02 -0.36547530810E+02  0.12330292774E+01  0.47787270678E+02  0.19999998327E+02 0.  0.
         12    1    1    2    0    0  0.23374792753E+02  0.36547530810E+02 -0.12330292774E+01  0.43400729322E+02  0.00000000000E+00 0. -1.
         11    1    3    3    0    0 -0.36543538362E+01 -0.74886288093E+01  0.76214300276E+01  0.11292477998E+02  0.51100000000E-03 0.  1.
        -11    1    3    3    0    0 -0.59978368138E+01 -0.40112220724E+01  0.58681042079E-01  0.72157738798E+01  0.51100000000E-03 0. -1.
        -12    1    3    3    0    0 -0.13722602103E+02 -0.25047679928E+02 -0.64470817923E+01  0.29279018800E+02  0.00000000000E+00 0.  1.
</event>
<event>
 7    1  0.4450624E-010  0.4778726E+02  0.7816164E-02  0.1312668E+00
        -11   -1    0    0    0    0  0.00000000000E+00  0.00000000000E+00  0.45593999997E+02  0.45594000000E+02  0.51100000000E-03 0.  1.
         11   -1    0    0    0    0 -0.00000000000E+00 -0.00000000000E+00 -0.45593999997E+02  0.45594000000E+02  0.51100000000E-03 0. -1.
    9900012    2    1    2    0    0  0.59992415868E+01  0.31867719611E+02  0.28845828962E+02  0.47787259208E+02  0.19999946032E+02 0.  0.
         12    1    1    2    0    0 -0.59992415868E+01 -0.31867719611E+02 -0.28845828962E+02  0.43400740792E+02  0.00000000000E+00 0. -1.
         11    1    3    3    0    0  0.10996481654E+02  0.19653513842E+02  0.11453675090E+02  0.25265982832E+02  0.51100000000E-03 0. -1.
        -11    1    3    3    0    0  0.74703051199E+00  0.43799166869E+01  0.40123377381E+01  0.59867001892E+01  0.51100000000E-03 0.  1.
        -12    1    3    3    0    0 -0.57442705796E+01  0.78342890812E+01  0.13379816134E+02  0.16534576187E+02  0.00000000000E+00 0.  1.
</event>
<event>
 7    1  0.4450624E-010  0.4778727E+02  0.7816164E-02  0.1312668E+00
        -11   -1    0    0    0    0  0.00000000000E+00  0.00000000000E+00  0.45593999997E+02  0.45594000000E+02  0.51100000000E-03 0.  1.
         11   -1    0    0    0    0 -0.00000000000E+00 -0.00000000000E+00 -0.45593999997E+02  0.45594000000E+02  0.51100000000E-03 0. -1.
    9900012    2    1    2    0    0 -0.42594056307E+02 -0.72597085854E+01  0.40824098753E+01  0.47787273372E+02  0.20000010612E+02 0.  0.
         12    1    1    2    0    0  0.42594056307E+02  0.72597085854E+01 -0.40824098753E+01  0.43400726628E+02  0.00000000000E+00 0. -1.
         11    1    3    3    0    0 -0.12830825377E+01 -0.31831897913E+01  0.32472351157E+00  0.34473821468E+01  0.51100000000E-03 0. -1.
        -11    1    3    3    0    0 -0.30993931987E+02 -0.95704382232E+01  0.37260918390E+01  0.32651200107E+02  0.51100000000E-03 0.  1.
         12    1    3    3    0    0 -0.10317041783E+02  0.54939194291E+01  0.31594524702E-01  0.11688691118E+02  0.00000000000E+00 0. -1.
</event>
<event>
 7    1  0.4450624E-010  0.4778727E+02  0.7816164E-02  0.1312668E+00
        -11   -1    0    0    0    0  0.00000000000E+00  0.00000000000E+00  0.45593999997E+02  0.45594000000E+02  0.51100000000E-03 0. -1.
         11   -1    0    0    0    0 -0.00000000000E+00 -0.00000000000E+00 -0.45593999997E+02  0.45594000000E+02  0.51100000000E-03 0.  1.
    9900012    2    1    2    0    0  0.20123003408E+00 -0.20764892648E+02 -0.38110392526E+02  0.47787270988E+02  0.19999999744E+02 0.  0.
         12    1    1    2    0    0 -0.20123003408E+00  0.20764892648E+02  0.38110392526E+02  0.43400729012E+02  0.00000000000E+00 0. -1.
         11    1    3    3    0    0  0.23675092935E+01 -0.15298648571E+01 -0.78482558203E+01  0.83391070516E+01  0.51100000000E-03 0. -1.
        -11    1    3    3    0    0  0.56532597414E+01 -0.15683287977E+02 -0.21080570014E+02  0.26875924167E+02  0.51100000000E-03 0.  1.
         12    1    3    3    0    0 -0.78195390008E+01 -0.35517398139E+01 -0.91815666923E+01  0.12572239769E+02  0.00000000000E+00 0. -1.
</event>
<event>
 7    1  0.4450624E-010  0.4778727E+02  0.7816164E-02  0.1312668E+00
        -11   -1    0    0    0    0  0.00000000000E+00  0.00000000000E+00  0.45593999997E+02  0.45594000000E+02  0.51100000000E-03 0.  1.
         11   -1    0    0    0    0 -0.00000000000E+00 -0.00000000000E+00 -0.45593999997E+02  0.45594000000E+02  0.51100000000E-03 0. -1.
    9900012    2    1    2    0    0  0.10070934989E+02  0.17441327708E+02  0.38444760926E+02  0.47787270900E+02  0.19999999340E+02 0.  0.
         12    1    1    2    0    0 -0.10070934989E+02 -0.17441327708E+02 -0.38444760926E+02  0.43400729100E+02  0.00000000000E+00 0. -1.
         11    1    3    3    0    0  0.87393233043E+01  0.56179068641E+01  0.88271899908E+01  0.13632898912E+02  0.51100000000E-03 0. -1.
        -11    1    3    3    0    0  0.67197361186E+01  0.69166791925E+01  0.15227459491E+02  0.18024173417E+02  0.51100000000E-03 0.  1.
        -12    1    3    3    0    0 -0.53881244336E+01  0.49067416513E+01  0.14390111445E+02  0.16130198571E+02  0.00000000000E+00 0.  1.
</event>
<event>
 7    1  0.4450624E-010  0.4778727E+02  0.7816164E-02  0.1312668E+00
        -11   -1    0    0    0    0  0.00000000000E+00  0.00000000000E+00  0.45593999997E+02  0.45594000000E+02  0.51100000000E-03 0.  1.
         11   -1    0    0    0    0 -0.00000000000E+00 -0.00000000000E+00 -0.45593999997E+02  0.45594000000E+02  0.51100000000E-03 0. -1.
    9900012    2    1    2    0    0  0.19266054375E+02 -0.11214498156E+02  0.37238118710E+02  0.47787270684E+02  0.19999998357E+02 0.  0.
         12    1    1    2    0    0 -0.19266054375E+02  0.11214498156E+02 -0.37238118710E+02  0.43400729316E+02  0.00000000000E+00 0. -1.
         11    1    3    3    0    0  0.83414141540E+01  0.12787237471E+01  0.87403716812E+01  0.12149420640E+02  0.51100000000E-03 0. -1.
        -11    1    3    3    0    0  0.96769625818E+01 -0.55908433582E+01  0.25810985321E+02  0.28126643912E+02  0.51100000000E-03 0.  1.
         12    1    3    3    0    0  0.12476776390E+01 -0.69023785454E+01  0.26867617085E+01  0.75112061317E+01  0.00000000000E+00 0. -1.
</event>
<event>
 7    1  0.4450624E-010  0.4778727E+02  0.7816164E-02  0.1312668E+00
        -11   -1    0    0    0    0  0.00000000000E+00  0.00000000000E+00  0.45593999997E+02  0.45594000000E+02  0.51100000000E-03 0. -1.
         11   -1    0    0    0    0 -0.00000000000E+00 -0.00000000000E+00 -0.45593999997E+02  0.45594000000E+02  0.51100000000E-03 0.  1.
    9900012    2    1    2    0    0 -0.22462678889E+02 -0.28245046030E+02 -0.24109522477E+02  0.47787266801E+02  0.19999980653E+02 0.  0.
         12    1    1    2    0    0  0.22462678889E+02  0.28245046030E+02  0.24109522477E+02  0.43400733199E+02  0.00000000000E+00 0. -1.
         11    1    3    3    0    0 -0.13578968754E+02 -0.10802727509E+02 -0.66494707435E+01  0.18582324276E+02  0.51100000000E-03 0. -1.
        -11    1    3    3    0    0 -0.23170070752E+01 -0.97548601604E+01 -0.12548285844E+01  0.10104474928E+02  0.51100000000E-03 0.  1.
         12    1    3    3    0    0 -0.65667030602E+01 -0.76874583610E+01 -0.16205223149E+02  0.19100467597E+02  0.00000000000E+00 0. -1.
</event>
<event>
 7    1  0.4450624E-010  0.4778727E+02  0.7816164E-02  0.1312668E+00
        -11   -1    0    0    0    0  0.00000000000E+00  0.00000000000E+00  0.45593999997E+02  0.45594000000E+02  0.51100000000E-03 0.  1.
         11   -1    0    0    0    0 -0.00000000000E+00 -0.00000000000E+00 -0.45593999997E+02  0.45594000000E+02  0.51100000000E-03 0. -1.
    9900012    2    1    2    0    0 -0.14322070772E+02  0.42341880707E+01  0.40750130218E+02  0.47787272211E+02  0.20000005319E+02 0.  0.
         12    1    1    2    0    0  0.14322070772E+02 -0.42341880707E+01 -0.40750130218E+02  0.43400727789E+02  0.00000000000E+00 0. -1.
         11    1    3    3    0    0  0.15353317790E+01  0.94343170339E+00  0.52583828248E+00  0.18771822530E+01  0.51100000000E-03 0. -1.
        -11    1    3    3    0    0 -0.48823229827E+00  0.59138990462E+01  0.67799886505E+01  0.90100399038E+01  0.51100000000E-03 0.  1.
        -12    1    3    3    0    0 -0.15369170252E+02 -0.26231426789E+01  0.33444303285E+02  0.36900050054E+02  0.00000000000E+00 0.  1.
</event>
<event>
 7    1  0.4450624E-010  0.4778727E+02  0.7816164E-02  0.1312668E+00
        -11   -1    0    0    0    0  0.00000000000E+00  0.00000000000E+00  0.45593999997E+02  0.45594000000E+02  0.51100000000E-03 0.  1.
         11   -1    0    0    0    0 -0.00000000000E+00 -0.00000000000E+00 -0.45593999997E+02  0.45594000000E+02  0.51100000000E-03 0. -1.
    9900012    2    1    2    0    0  0.22249136548E+02 -0.25770040794E+02  0.26916617560E+02  0.47787269815E+02  0.19999994396E+02 0.  0.
         12    1    1    2    0    0 -0.22249136548E+02  0.25770040794E+02 -0.26916617560E+02  0.43400730185E+02  0.00000000000E+00 0. -1.
         11    1    3    3    0    0  0.91062013316E+00  0.11612852187E+01  0.20466311428E+01  0.25231947372E+01  0.51100000000E-03 0. -1.
        -11    1    3    3    0    0  0.57575573713E+01 -0.45056943800E+00  0.63740563106E-01  0.57755123428E+01  0.51100000000E-03 0.  1.
        -12    1    3    3    0    0  0.15580959044E+02 -0.26480756575E+02  0.24806245854E+02  0.39488562735E+02  0.00000000000E+00 0.  1.
</event>
<event>
 7    1  0.4450624E-010  0.4778727E+02  0.7816164E-02  0.1312668E+00
        -11   -1    0    0    0    0  0.00000000000E+00  0.00000000000E+00  0.45593999997E+02  0.45594000000E+02  0.51100000000E-03 0.  1.
         11   -1    0    0    0    0 -0.00000000000E+00 -0.00000000000E+00 -0.45593999997E+02  0.45594000000E+02  0.51100000000E-03 0. -1.
    9900012    2    1    2    0    0 -0.19926389876E+02  0.11681413824E+01  0.38538266109E+02  0.47787268181E+02  0.19999986943E+02 0.  0.
         12    1    1    2    0    0  0.19926389876E+02 -0.11681413824E+01 -0.38538266109E+02  0.43400731819E+02  0.00000000000E+00 0. -1.
         11    1    3    3    0    0 -0.11882047985E+01  0.62780771700E+01  0.28684204587E+01  0.70038503542E+01  0.51100000000E-03 0. -1.
        -11    1    3    3    0    0 -0.42160852727E+01 -0.23812859439E+01  0.67470538985E+01  0.83047356577E+01  0.51100000000E-03 0.  1.
         12    1    3    3    0    0 -0.14522099805E+02 -0.27286498437E+01  0.28922791752E+02  0.32478682169E+02  0.00000000000E+00 0. -1.
</event>
<event>
 7    1  0.4450624E-010  0.4778727E+02  0.7816164E-02  0.1312668E+00
        -11   -1    0    0    0    0  0.00000000000E+00  0.00000000000E+00  0.45593999997E+02  0.45594000000E+02  0.51100000000E-03 0.  1.
         11   -1    0    0    0    0 -0.00000000000E+00 -0.00000000000E+00 -0.45593999997E+02  0.45594000000E+02  0.51100000000E-03 0. -1.
    9900012    2    1    2    0    0 -0.89189215145E+01  0.17055652041E+02  0.38899629937E+02  0.47787266864E+02  0.19999980939E+02 0.  0.
         12    1    1    2    0    0  0.89189215145E+01 -0.17055652041E+02 -0.38899629937E+02  0.43400733136E+02  0.00000000000E+00 0. -1.
         11    1    3    3    0    0  0.23137544934E+01 -0.12825130424E+00  0.26152598865E+01  0.34942084638E+01  0.51100000000E-03 0.  1.
        -11    1    3    3    0    0  0.62197948562E+00  0.81974143156E+01  0.49225683409E+01  0.95820738504E+01  0.51100000000E-03 0. -1.
         12    1    3    3    0    0 -0.11854655494E+02  0.89864890299E+01  0.31361801709E+02  0.34710984550E+02  0.00000000000E+00 0. -1.
</event>
<event>
 7    1  0.4450624E-010  0.4778727E+02  0.7816164E-02  0.1312668E+00
        -11   -1    0    0    0    0  0.00000000000E+00  0.00000000000E+00  0.45593999997E+02  0.45594000000E+02  0.51100000000E-03 0. -1.
         11   -1    0    0    0    0 -0.00000000000E+00 -0.00000000000E+00 -0.45593999997E+02  0.45594000000E+02  0.51100000000E-03 0.  1.
    9900012    2    1    2    0    0 -0.13926999857E+02  0.25995825622E+02 -0.31841464211E+02  0.47787272841E+02  0.20000008191E+02 0.  0.
         12    1    1    2    0    0  0.13926999857E+02 -0.25995825622E+02  0.31841464211E+02  0.43400727159E+02  0.00000000000E+00 0. -1.
         11    1    3    3    0    0 -0.48228755299E+01  0.13399926242E+02 -0.15838289804E+02  0.21299520554E+02  0.51100000000E-03 0. -1.
        -11    1    3    3    0    0 -0.80135997961E+01  0.12663978349E+02 -0.18472711580E+02  0.23787290781E+02  0.51100000000E-03 0.  1.
         12    1    3    3    0    0 -0.10905245313E+01 -0.68078968698E-01  0.24695371723E+01  0.27004615059E+01  0.00000000000E+00 0. -1.
</event>
<event>
 7    1  0.4450624E-010  0.4778727E+02  0.7816164E-02  0.1312668E+00
        -11   -1    0    0    0    0  0.00000000000E+00  0.00000000000E+00  0.45593999997E+02  0.45594000000E+02  0.51100000000E-03 0. -1.
         11   -1    0    0    0    0 -0.00000000000E+00 -0.00000000000E+00 -0.45593999997E+02  0.45594000000E+02  0.51100000000E-03 0.  1.
    9900012    2    1    2    0    0 -0.15841376190E+02 -0.27121009334E+02 -0.29952045231E+02  0.47787270048E+02  0.19999995457E+02 0.  0.
         12    1    1    2    0    0  0.15841376190E+02  0.27121009334E+02  0.29952045231E+02  0.43400729952E+02  0.00000000000E+00 0. -1.
         11    1    3    3    0    0 -0.25883486387E+01 -0.79256829173E+01 -0.53300385842E+01  0.98957218004E+01  0.51100000000E-03 0. -1.
        -11    1    3    3    0    0 -0.15731120836E+01 -0.16765181529E+02 -0.13518520364E+02  0.21593896971E+02  0.51100000000E-03 0.  1.
         12    1    3    3    0    0 -0.11679915467E+02 -0.24301448878E+01 -0.11103486283E+02  0.16297651276E+02  0.00000000000E+00 0. -1.
</event>
<event>
 7    1  0.4450624E-010  0.4778728E+02  0.7816164E-02  0.1312668E+00
        -11   -1    0    0    0    0  0.00000000000E+00  0.00000000000E+00  0.45593999997E+02  0.45594000000E+02  0.51100000000E-03 0.  1.
         11   -1    0    0    0    0 -0.00000000000E+00 -0.00000000000E+00 -0.45593999997E+02  0.45594000000E+02  0.51100000000E-03 0. -1.
    9900012    2    1    2    0    0 -0.21071450183E+02  0.37274116416E+02  0.70892048744E+01  0.47787278887E+02  0.20000035756E+02 0.  0.
         12    1    1    2    0    0  0.21071450183E+02 -0.37274116416E+02 -0.70892048744E+01  0.43400721113E+02  0.00000000000E+00 0. -1.
         11    1    3    3    0    0 -0.26300380335E+01 -0.19285416799E+00 -0.23975657848E+01  0.35640727744E+01  0.51100000000E-03 0. -1.
        -11    1    3    3    0    0 -0.28134780543E+01  0.57869015510E+01  0.58764246784E+01  0.87141411273E+01  0.51100000000E-03 0.  1.
        -12    1    3    3    0    0 -0.15627934095E+02  0.31680069033E+02  0.36103459808E+01  0.35509064985E+02  0.00000000000E+00 0.  1.
</event>
<event>
 7    1  0.4450624E-010  0.4778727E+02  0.7816164E-02  0.1312668E+00
        -11   -1    0    0    0    0  0.00000000000E+00  0.00000000000E+00  0.45593999997E+02  0.45594000000E+02  0.51100000000E-03 0.  1.
         11   -1    0    0    0    0 -0.00000000000E+00 -0.00000000000E+00 -0.45593999997E+02  0.45594000000E+02  0.51100000000E-03 0. -1.
    9900012    2    1    2    0    0  0.17349776444E+02 -0.38849425506E+02 -0.85633322638E+01  0.47787271155E+02  0.20000000504E+02 0.  0.
         12    1    1    2    0    0 -0.17349776444E+02  0.38849425506E+02  0.85633322638E+01  0.43400728845E+02  0.00000000000E+00 0. -1.
         11    1    3    3    0    0  0.60837266700E+01 -0.11135980745E+02 -0.91165607687E+01  0.15624771290E+02  0.51100000000E-03 0. -1.
        -11    1    3    3    0    0  0.93510434277E+00 -0.18727282600E+01 -0.34613992408E+01  0.40450978026E+01  0.51100000000E-03 0.  1.
        -12    1    3    3    0    0  0.10330945431E+02 -0.25840716502E+02  0.40146277456E+01  0.28117402063E+02  0.00000000000E+00 0.  1.
</event>
<event>
 7    1  0.4450624E-010  0.4778727E+02  0.7816164E-02  0.1312668E+00
        -11   -1    0    0    0    0  0.00000000000E+00  0.00000000000E+00  0.45593999997E+02  0.45594000000E+02  0.51100000000E-03 0. -1.
         11   -1    0    0    0    0 -0.00000000000E+00 -0.00000000000E+00 -0.45593999997E+02  0.45594000000E+02  0.51100000000E-03 0.  1.
    9900012    2    1    2    0    0  0.31871271781E+02 -0.23803318532E+02 -0.17356483412E+02  0.47787268964E+02  0.19999990514E+02 0.  0.
         12    1    1    2    0    0 -0.31871271781E+02  0.23803318532E+02  0.17356483412E+02  0.43400731036E+02  0.00000000000E+00 0. -1.
         11    1    3    3    0    0  0.11021931180E+02 -0.24200531147E+00 -0.25618148709E+01  0.11318322721E+02  0.51100000000E-03 0. -1.
        -11    1    3    3    0    0  0.14460062628E+02 -0.85297741062E+01 -0.54461286217E+01  0.17649667836E+02  0.51100000000E-03 0.  1.
         12    1    3    3    0    0  0.63892779731E+01 -0.15031539114E+02 -0.93485399191E+01  0.18819278407E+02  0.00000000000E+00 0. -1.
</event>
<event>
 7    1  0.4450624E-010  0.4778727E+02  0.7816164E-02  0.1312668E+00
        -11   -1    0    0    0    0  0.00000000000E+00  0.00000000000E+00  0.45593999997E+02  0.45594000000E+02  0.51100000000E-03 0.  1.
         11   -1    0    0    0    0 -0.00000000000E+00 -0.00000000000E+00 -0.45593999997E+02  0.45594000000E+02  0.51100000000E-03 0. -1.
    9900012    2    1    2    0    0 -0.93287798679E+00  0.10394156993E+02  0.42127356797E+02  0.47787274757E+02  0.20000016927E+02 0.  0.
         12    1    1    2    0    0  0.93287798679E+00 -0.10394156993E+02 -0.42127356797E+02  0.43400725243E+02  0.00000000000E+00 0. -1.
         11    1    3    3    0    0  0.61786177210E+00 -0.71048865188E+00  0.25048752444E+02  0.25066442638E+02  0.51100000000E-03 0.  1.
        -11    1    3    3    0    0 -0.47745573079E+01  0.52813352283E+01  0.13251294025E+02  0.15042795381E+02  0.51100000000E-03 0. -1.
        -12    1    3    3    0    0  0.32238175490E+01  0.58233104166E+01  0.38273103279E+01  0.76780367376E+01  0.00000000000E+00 0.  1.
</event>
<event>
 7    1  0.4450624E-010  0.4778727E+02  0.7816164E-02  0.1312668E+00
        -11   -1    0    0    0    0  0.00000000000E+00  0.00000000000E+00  0.45593999997E+02  0.45594000000E+02  0.51100000000E-03 0.  1.
         11   -1    0    0    0    0 -0.00000000000E+00 -0.00000000000E+00 -0.45593999997E+02  0.45594000000E+02  0.51100000000E-03 0. -1.
    9900012    2    1    2    0    0  0.35796802331E+02  0.19061607201E+02  0.15455348761E+02  0.47787265772E+02  0.19999975962E+02 0.  0.
         12    1    1    2    0    0 -0.35796802331E+02 -0.19061607201E+02 -0.15455348761E+02  0.43400734228E+02  0.00000000000E+00 0. -1.
         11    1    3    3    0    0 -0.76556147072E+00  0.40820023825E+00  0.60124344402E+00  0.10555594441E+01  0.51100000000E-03 0. -1.
        -11    1    3    3    0    0  0.11142609969E+02  0.10249227363E+02  0.12895515690E+02  0.19887150214E+02  0.51100000000E-03 0.  1.
         12    1    3    3    0    0  0.25419753832E+02  0.84041796000E+01  0.19585896273E+01  0.26844556114E+02  0.00000000000E+00 0. -1.
</event>
<event>
 7    1  0.4450624E-010  0.4778727E+02  0.7816164E-02  0.1312668E+00
        -11   -1    0    0    0    0  0.00000000000E+00  0.00000000000E+00  0.45593999997E+02  0.45594000000E+02  0.51100000000E-03 0.  1.
         11   -1    0    0    0    0 -0.00000000000E+00 -0.00000000000E+00 -0.45593999997E+02  0.45594000000E+02  0.51100000000E-03 0. -1.
    9900012    2    1    2    0    0 -0.23642976911E+02 -0.16627063617E+02  0.32375511429E+02  0.47787270259E+02  0.19999996420E+02 0.  0.
         12    1    1    2    0    0  0.23642976911E+02  0.16627063617E+02 -0.32375511429E+02  0.43400729741E+02  0.00000000000E+00 0. -1.
         11    1    3    3    0    0 -0.12336101414E+02 -0.10982765996E+01  0.23312214373E+02  0.26397820910E+02  0.51100000000E-03 0. -1.
        -11    1    3    3    0    0 -0.34637600967E+01 -0.42593748338E+01  0.38388777056E+01  0.66990215914E+01  0.51100000000E-03 0.  1.
        -12    1    3    3    0    0 -0.78431154004E+01 -0.11269412184E+02  0.52244193505E+01  0.14690427757E+02  0.00000000000E+00 0.  1.
</event>
<event>
 7    1  0.4450624E-010  0.4778727E+02  0.7816164E-02  0.1312668E+00
        -11   -1    0    0    0    0  0.00000000000E+00  0.00000000000E+00  0.45593999997E+02  0.45594000000E+02  0.51100000000E-03 0.  1.
         11   -1    0    0    0    0 -0.00000000000E+00 -0.00000000000E+00 -0.45593999997E+02  0.45594000000E+02  0.51100000000E-03 0. -1.
    9900012    2    1    2    0    0  0.19639255008E+02 -0.29318918350E+02  0.25265077667E+02  0.47787268900E+02  0.19999990221E+02 0.  0.
         12    1    1    2    0    0 -0.19639255008E+02  0.29318918350E+02 -0.25265077667E+02  0.43400731100E+02  0.00000000000E+00 0. -1.
         11    1    3    3    0    0  0.80284609584E+01 -0.31829079399E+01  0.10827034321E+02  0.13849612296E+02  0.51100000000E-03 0. -1.
        -11    1    3    3    0    0  0.89113985339E+01 -0.11333631865E+02  0.11866647745E+02  0.18673017004E+02  0.51100000000E-03 0.  1.
         12    1    3    3    0    0  0.26993955161E+01 -0.14802378545E+02  0.25713956017E+01  0.15264639599E+02  0.00000000000E+00 0. -1.
</event>
<event>
 7    1 -0.4450624E-010  0.4778728E+02  0.7816164E-02  0.1312668E+00
        -11   -1    0    0    0    0  0.00000000000E+00  0.00000000000E+00  0.45593999997E+02  0.45594000000E+02  0.51100000000E-03 0. -1.
         11   -1    0    0    0    0 -0.00000000000E+00 -0.00000000000E+00 -0.45593999997E+02  0.45594000000E+02  0.51100000000E-03 0.  1.
    9900012    2    1    2    0    0 -0.14666824047E+02  0.40785267259E+02 -0.22513538374E+01  0.47787281721E+02  0.20000048678E+02 0.  0.
         12    1    1    2    0    0  0.14666824047E+02 -0.40785267259E+02  0.22513538374E+01  0.43400718279E+02  0.00000000000E+00 0. -1.
         11    1    3    3    0    0  0.18725456133E+01  0.36808581662E+00 -0.19679072148E+01  0.27412722064E+01  0.51100000000E-03 0. -1.
        -11    1    3    3    0    0 -0.48009888025E+01  0.89066738405E+01  0.45142421812E+01  0.11079562948E+02  0.51100000000E-03 0.  1.
         12    1    3    3    0    0 -0.11738380858E+02  0.31510507602E+02 -0.47976888038E+01  0.33966446567E+02  0.00000000000E+00 0. -1.
</event>
<event>
 7    1  0.4450624E-010  0.4778724E+02  0.7816164E-02  0.1312668E+00
        -11   -1    0    0    0    0  0.00000000000E+00  0.00000000000E+00  0.45593999997E+02  0.45594000000E+02  0.51100000000E-03 0.  1.
         11   -1    0    0    0    0 -0.00000000000E+00 -0.00000000000E+00 -0.45593999997E+02  0.45594000000E+02  0.51100000000E-03 0. -1.
    9900012    2    1    2    0    0  0.31540302811E+02 -0.29685908068E+02 -0.27536322829E+01  0.47787235836E+02  0.19999839472E+02 0.  0.
         12    1    1    2    0    0 -0.31540302811E+02  0.29685908068E+02  0.27536322829E+01  0.43400764164E+02  0.00000000000E+00 0. -1.
         11    1    3    3    0    0 -0.10176376901E+01 -0.24867391789E+01 -0.12431195142E+01  0.29605412681E+01  0.51100000000E-03 0. -1.
        -11    1    3    3    0    0  0.47603880352E+01 -0.12276522637E+02  0.80719798615E+00  0.13191886565E+02  0.51100000000E-03 0.  1.
        -12    1    3    3    0    0  0.27797552466E+02 -0.14922646252E+02 -0.23177107549E+01  0.31634808003E+02  0.00000000000E+00 0.  1.
</event>
<event>
 7    1  0.4450624E-010  0.4778727E+02  0.7816164E-02  0.1312668E+00
        -11   -1    0    0    0    0  0.00000000000E+00  0.00000000000E+00  0.45593999997E+02  0.45594000000E+02  0.51100000000E-03 0.  1.
         11   -1    0    0    0    0 -0.00000000000E+00 -0.00000000000E+00 -0.45593999997E+02  0.45594000000E+02  0.51100000000E-03 0. -1.
    9900012    2    1    2    0    0 -0.43350767031E+01 -0.36452584198E+02  0.23152529694E+02  0.47787269407E+02  0.19999992536E+02 0.  0.
         12    1    1    2    0    0  0.43350767031E+01  0.36452584198E+02 -0.23152529694E+02  0.43400730593E+02  0.00000000000E+00 0. -1.
         11    1    3    3    0    0  0.23209531716E+01 -0.19031703678E+01  0.37423570905E+01  0.47973031932E+01  0.51100000000E-03 0. -1.
        -11    1    3    3    0    0 -0.37423664315E+01 -0.52138174330E+01  0.10297473465E+02  0.12133719906E+02  0.51100000000E-03 0.  1.
         12    1    3    3    0    0 -0.29136634433E+01 -0.29335596397E+02  0.91126991390E+01  0.30856246308E+02  0.00000000000E+00 0. -1.
</event>
<event>
 7    1  0.4450624E-010  0.4778728E+02  0.7816164E-02  0.1312668E+00
        -11   -1    0    0    0    0  0.00000000000E+00  0.00000000000E+00  0.45593999997E+02  0.45594000000E+02  0.51100000000E-03 0.  1.
         11   -1    0    0    0    0 -0.00000000000E+00 -0.00000000000E+00 -0.45593999997E+02  0.45594000000E+02  0.51100000000E-03 0. -1.
    9900012    2    1    2    0    0  0.11743695162E+02 -0.27577685144E+02  0.31387572339E+02  0.47787276604E+02  0.20000025350E+02 0.  0.
         12    1    1    2    0    0 -0.11743695162E+02  0.27577685144E+02 -0.31387572339E+02  0.43400723396E+02  0.00000000000E+00 0. -1.
         11    1    3    3    0    0 -0.36887328503E+01 -0.43872847045E+01  0.27515159887E+00  0.57385299322E+01  0.51100000000E-03 0. -1.
        -11    1    3    3    0    0  0.16674784502E+01 -0.81663516217E+00  0.33368657006E+01  0.38186450916E+01  0.51100000000E-03 0.  1.
        -12    1    3    3    0    0  0.13764949562E+02 -0.22373765277E+02  0.27775555039E+02  0.38230101581E+02  0.00000000000E+00 0.  1.
</event>
<event>
 7    1  0.4450624E-010  0.4778727E+02  0.7816164E-02  0.1312668E+00
        -11   -1    0    0    0    0  0.00000000000E+00  0.00000000000E+00  0.45593999997E+02  0.45594000000E+02  0.51100000000E-03 0.  1.
         11   -1    0    0    0    0 -0.00000000000E+00 -0.00000000000E+00 -0.45593999997E+02  0.45594000000E+02  0.51100000000E-03 0. -1.
    9900012    2    1    2    0    0  0.29102805818E+02 -0.26748184084E+02 -0.17921632224E+02  0.47787267750E+02  0.19999984979E+02 0.  0.
         12    1    1    2    0    0 -0.29102805818E+02  0.26748184084E+02  0.17921632224E+02  0.43400732250E+02  0.00000000000E+00 0. -1.
         11    1    3    3    0    0  0.72510552676E+01 -0.15827355170E+02 -0.52343902336E+01  0.18179158824E+02  0.51100000000E-03 0. -1.
        -11    1    3    3    0    0  0.14163544944E+02 -0.11708747205E+02 -0.11776197554E+02  0.21826121863E+02  0.51100000000E-03 0.  1.
         12    1    3    3    0    0  0.76882056059E+01  0.78791829146E+00 -0.91104443659E+00  0.77819870623E+01  0.00000000000E+00 0. -1.
</event>
<event>
 7    1  0.4450624E-010  0.4778727E+02  0.7816164E-02  0.1312668E+00
        -11   -1    0    0    0    0  0.00000000000E+00  0.00000000000E+00  0.45593999997E+02  0.45594000000E+02  0.51100000000E-03 0.  1.
         11   -1    0    0    0    0 -0.00000000000E+00 -0.00000000000E+00 -0.45593999997E+02  0.45594000000E+02  0.51100000000E-03 0. -1.
    9900012    2    1    2    0    0  0.43924006179E+01  0.36329195477E+02  0.23334947086E+02  0.47787269791E+02  0.19999994284E+02 0.  0.
         12    1    1    2    0    0 -0.43924006179E+01 -0.36329195477E+02 -0.23334947086E+02  0.43400730209E+02  0.00000000000E+00 0. -1.
         11    1    3    3    0    0  0.56287265641E+01  0.69639663295E+01  0.10404505111E+02  0.13727094253E+02  0.51100000000E-03 0. -1.
        -11    1    3    3    0    0  0.20670384212E+01  0.18729950452E+02  0.13053000889E+02  0.22923012983E+02  0.51100000000E-03 0.  1.
        -12    1    3    3    0    0 -0.33033643674E+01  0.10635278696E+02 -0.12255891395E+00  0.11137162554E+02  0.00000000000E+00 0.  1.
</event>
<event>
 7    1  0.4450624E-010  0.4778727E+02  0.7816164E-02  0.1312668E+00
        -11   -1    0    0    0    0  0.00000000000E+00  0.00000000000E+00  0.45593999997E+02  0.45594000000E+02  0.51100000000E-03 0.  1.
         11   -1    0    0    0    0 -0.00000000000E+00 -0.00000000000E+00 -0.45593999997E+02  0.45594000000E+02  0.51100000000E-03 0. -1.
    9900012    2    1    2    0    0 -0.43336111893E+02 -0.17287102803E+01 -0.16175031281E+01  0.47787270172E+02  0.19999996022E+02 0.  0.
         12    1    1    2    0    0  0.43336111893E+02  0.17287102803E+01  0.16175031281E+01  0.43400729828E+02  0.00000000000E+00 0. -1.
         11    1    3    3    0    0 -0.14558088364E+02  0.48585235627E+01 -0.21969083617E+01  0.15503857412E+02  0.51100000000E-03 0. -1.
        -11    1    3    3    0    0 -0.10199562186E+02  0.27294660416E+01  0.38610565360E+01  0.11242277860E+02  0.51100000000E-03 0.  1.
         12    1    3    3    0    0 -0.18578461343E+02 -0.93166998846E+01 -0.32816513023E+01  0.21041134900E+02  0.00000000000E+00 0. -1.
</event>
<event>
 7    1  0.4450624E-010  0.4778727E+02  0.7816164E-02  0.1312668E+00
        -11   -1    0    0    0    0  0.00000000000E+00  0.00000000000E+00  0.45593999997E+02  0.45594000000E+02  0.51100000000E-03 0.  1.
         11   -1    0    0    0    0 -0.00000000000E+00 -0.00000000000E+00 -0.45593999997E+02  0.45594000000E+02  0.51100000000E-03 0. -1.
    9900012    2    1    2    0    0 -0.21682129516E+01  0.23707523609E+02  0.36288775942E+02  0.47787273250E+02  0.20000010056E+02 0.  0.
         12    1    1    2    0    0  0.21682129516E+01 -0.23707523609E+02 -0.36288775942E+02  0.43400726750E+02  0.00000000000E+00 0. -1.
         11    1    3    3    0    0 -0.72079289257E+00  0.19121913796E+02  0.11626383551E+02  0.22390621348E+02  0.51100000000E-03 0. -1.
        -11    1    3    3    0    0  0.17617568313E-01  0.32787134423E+01  0.84169632094E+01  0.90330250827E+01  0.51100000000E-03 0.  1.
         12    1    3    3    0    0 -0.14650376273E+01  0.13068963701E+01  0.16245429182E+02  0.16363626819E+02  0.00000000000E+00 0. -1.
</event>
<event>
 7    1  0.4450624E-010  0.4778727E+02  0.7816164E-02  0.1312668E+00
        -11   -1    0    0    0    0  0.00000000000E+00  0.00000000000E+00  0.45593999997E+02  0.45594000000E+02  0.51100000000E-03 0. -1.
         11   -1    0    0    0    0 -0.00000000000E+00 -0.00000000000E+00 -0.45593999997E+02  0.45594000000E+02  0.51100000000E-03 0.  1.
    9900012    2    1    2    0    0  0.38446461755E+02 -0.45058813233E+01 -0.19626261079E+02  0.47787268302E+02  0.19999987498E+02 0.  0.
         12    1    1    2    0    0 -0.38446461755E+02  0.45058813233E+01  0.19626261079E+02  0.43400731698E+02  0.00000000000E+00 0. -1.
         11    1    3    3    0    0  0.14737068386E+02  0.15555262171E+01 -0.46427771087E+01  0.15529205580E+02  0.51100000000E-03 0. -1.
        -11    1    3    3    0    0  0.63651554268E+01  0.30619298917E+01  0.78182338619E+00  0.71064665156E+01  0.51100000000E-03 0.  1.
         12    1    3    3    0    0  0.17344237942E+02 -0.91233374321E+01 -0.15765307356E+02  0.25151596206E+02  0.00000000000E+00 0. -1.
</event>
<event>
 7    1  0.4450624E-010  0.4778727E+02  0.7816164E-02  0.1312668E+00
        -11   -1    0    0    0    0  0.00000000000E+00  0.00000000000E+00  0.45593999997E+02  0.45594000000E+02  0.51100000000E-03 0.  1.
         11   -1    0    0    0    0 -0.00000000000E+00 -0.00000000000E+00 -0.45593999997E+02  0.45594000000E+02  0.51100000000E-03 0. -1.
    9900012    2    1    2    0    0  0.18028055745E+02  0.20025988568E+02  0.34023117655E+02  0.47787267898E+02  0.19999985652E+02 0.  0.
         12    1    1    2    0    0 -0.18028055745E+02 -0.20025988568E+02 -0.34023117655E+02  0.43400732102E+02  0.00000000000E+00 0. -1.
         11    1    3    3    0    0  0.21505158155E+01  0.13876211011E+02  0.13286574054E+02  0.19331502803E+02  0.51100000000E-03 0. -1.
        -11    1    3    3    0    0  0.59385887065E+00 -0.42769005224E+00  0.65477821730E+01  0.65885536186E+01  0.51100000000E-03 0.  1.
         12    1    3    3    0    0  0.15283681059E+02  0.65774676100E+01  0.14188761428E+02  0.21867211476E+02  0.00000000000E+00 0. -1.
</event>
<event>
 7    1  0.4450624E-010  0.4778727E+02  0.7816164E-02  0.1312668E+00
        -11   -1    0    0    0    0  0.00000000000E+00  0.00000000000E+00  0.45593999997E+02  0.45594000000E+02  0.51100000000E-03 0.  1.
         11   -1    0    0    0    0 -0.00000000000E+00 -0.00000000000E+00 -0.45593999997E+02  0.45594000000E+02  0.51100000000E-03 0. -1.
    9900012    2    1    2    0    0 -0.31101672554E+02  0.55638119340E+01  0.29754880457E+02  0.47787274777E+02  0.20000017016E+02 0.  0.
         12    1    1    2    0    0  0.31101672554E+02 -0.55638119340E+01 -0.29754880457E+02  0.43400725223E+02  0.00000000000E+00 0. -1.
         11    1    3    3    0    0 -0.14325023283E+02  0.10580241825E+02  0.14838015952E+02  0.23180045875E+02  0.51100000000E-03 0. -1.
        -11    1    3    3    0    0 -0.10042450653E+01  0.81741442629E+00  0.48228957410E+01  0.49936958343E+01  0.51100000000E-03 0.  1.
        -12    1    3    3    0    0 -0.15772404206E+02 -0.58338443175E+01  0.10093968764E+02  0.19613533067E+02  0.00000000000E+00 0.  1.
</event>
<event>
 7    1  0.4450624E-010  0.4778727E+02  0.7816164E-02  0.1312668E+00
        -11   -1    0    0    0    0  0.00000000000E+00  0.00000000000E+00  0.45593999997E+02  0.45594000000E+02  0.51100000000E-03 0.  1.
         11   -1    0    0    0    0 -0.00000000000E+00 -0.00000000000E+00 -0.45593999997E+02  0.45594000000E+02  0.51100000000E-03 0. -1.
    9900012    2    1    2    0    0  0.20505137709E+02  0.39526091262E+01  0.38046542267E+02  0.47787272243E+02  0.20000005463E+02 0.  0.
         12    1    1    2    0    0 -0.20505137709E+02 -0.39526091262E+01 -0.38046542267E+02  0.43400727757E+02  0.00000000000E+00 0. -1.
         11    1    3    3    0    0  0.84262568269E+01  0.39529777108E+01  0.11864080246E+02  0.15079265143E+02  0.51100000000E-03 0. -1.
        -11    1    3    3    0    0  0.85530260758E+01  0.67255057398E+01  0.20551598487E+02  0.23254136904E+02  0.51100000000E-03 0.  1.
         12    1    3    3    0    0  0.35258548063E+01 -0.67258743244E+01  0.56308635339E+01  0.94538701958E+01  0.00000000000E+00 0. -1.
</event>
<event>
 7    1  0.4450624E-010  0.4778727E+02  0.7816164E-02  0.1312668E+00
        -11   -1    0    0    0    0  0.00000000000E+00  0.00000000000E+00  0.45593999997E+02  0.45594000000E+02  0.51100000000E-03 0. -1.
         11   -1    0    0    0    0 -0.00000000000E+00 -0.00000000000E+00 -0.45593999997E+02  0.45594000000E+02  0.51100000000E-03 0.  1.
    9900012    2    1    2    0    0 -0.23790903831E+02 -0.30453050917E+02 -0.19754189689E+02  0.47787269297E+02  0.19999992034E+02 0.  0.
         12    1    1    2    0    0  0.23790903831E+02  0.30453050917E+02  0.19754189689E+02  0.43400730703E+02  0.00000000000E+00 0. -1.
         11    1    3    3    0    0  0.96776045882E+00 -0.54694679486E+00 -0.12319749628E+01  0.16593594162E+01  0.51100000000E-03 0. -1.
        -11    1    3    3    0    0  0.68716929846E+00 -0.57110391129E+01 -0.72407521991E+01  0.92475219418E+01  0.51100000000E-03 0.  1.
        -12    1    3    3    0    0 -0.25445833588E+02 -0.24195065009E+02 -0.11281462528E+02  0.36880387939E+02  0.00000000000E+00 0.  1.
</event>
<event>
 7    1  0.4450624E-010  0.4778728E+02  0.7816164E-02  0.1312668E+00
        -11   -1    0    0    0    0  0.00000000000E+00  0.00000000000E+00  0.45593999997E+02  0.45594000000E+02  0.51100000000E-03 0.  1.
         11   -1    0    0    0    0 -0.00000000000E+00 -0.00000000000E+00 -0.45593999997E+02  0.45594000000E+02  0.51100000000E-03 0. -1.
    9900012    2    1    2    0    0 -0.25592456290E+02 -0.30955748631E+02  0.16443561227E+02  0.47787275374E+02  0.20000019738E+02 0.  0.
         12    1    1    2    0    0  0.25592456290E+02  0.30955748631E+02 -0.16443561227E+02  0.43400724626E+02  0.00000000000E+00 0. -1.
         11    1    3    3    0    0 -0.39526790475E+01 -0.89256921819E+01 -0.26506569963E+00  0.97653424244E+01  0.51100000000E-03 0. -1.
        -11    1    3    3    0    0 -0.12793361948E+02 -0.19031901194E+02  0.57875406245E+01  0.23651194467E+02  0.51100000000E-03 0.  1.
        -12    1    3    3    0    0 -0.88464152948E+01 -0.29981552554E+01  0.10921086302E+02  0.14370738482E+02  0.00000000000E+00 0.  1.
</event>
<event>
 7    1  0.4450624E-010  0.4778727E+02  0.7816164E-02  0.1312668E+00
        -11   -1    0    0    0    0  0.00000000000E+00  0.00000000000E+00  0.45593999997E+02  0.45594000000E+02  0.51100000000E-03 0.  1.
         11   -1    0    0    0    0 -0.00000000000E+00 -0.00000000000E+00 -0.45593999997E+02  0.45594000000E+02  0.51100000000E-03 0. -1.
    9900012    2    1    2    0    0 -0.61206184146E+01 -0.29351143034E+02  0.31379478353E+02  0.47787271563E+02  0.20000002364E+02 0.  0.
         12    1    1    2    0    0  0.61206184146E+01  0.29351143034E+02 -0.31379478353E+02  0.43400728437E+02  0.00000000000E+00 0. -1.
         11    1    3    3    0    0 -0.55539585895E+01 -0.77266656101E+01  0.16718988946E+01  0.96614214088E+01  0.51100000000E-03 0. -1.
        -11    1    3    3    0    0 -0.10538653651E+01  0.69702736695E+00  0.49231289894E+00  0.13560426282E+01  0.51100000000E-03 0.  1.
        -12    1    3    3    0    0  0.48720554000E+00 -0.22321504790E+02  0.29215266560E+02  0.36769807526E+02  0.00000000000E+00 0.  1.
</event>
<event>
 7    1  0.4450624E-010  0.4778730E+02  0.7816164E-02  0.1312668E+00
        -11   -1    0    0    0    0  0.00000000000E+00  0.00000000000E+00  0.45593999997E+02  0.45594000000E+02  0.51100000000E-03 0.  1.
         11   -1    0    0    0    0 -0.00000000000E+00 -0.00000000000E+00 -0.45593999997E+02  0.45594000000E+02  0.51100000000E-03 0. -1.
    9900012    2    1    2    0    0  0.42197127683E+02  0.35247113235E+01  0.95183634996E+01  0.47787303942E+02  0.20000149991E+02 0.  0.
         12    1    1    2    0    0 -0.42197127683E+02 -0.35247113235E+01 -0.95183634996E+01  0.43400696058E+02  0.00000000000E+00 0. -1.
         11    1    3    3    0    0  0.15065625523E+02 -0.53351340453E+00  0.71714446485E+01  0.16693930860E+02  0.51100000000E-03 0. -1.
        -11    1    3    3    0    0  0.82448803113E+01  0.68360948477E+01  0.50003025071E+01  0.11820036782E+02  0.51100000000E-03 0.  1.
         12    1    3    3    0    0  0.18886621849E+02 -0.27778701197E+01 -0.26533836561E+01  0.19273336299E+02  0.00000000000E+00 0. -1.
</event>
<event>
 7    1  0.4450624E-010  0.4778729E+02  0.7816164E-02  0.1312668E+00
        -11   -1    0    0    0    0  0.00000000000E+00  0.00000000000E+00  0.45593999997E+02  0.45594000000E+02  0.51100000000E-03 0. -1.
         11   -1    0    0    0    0 -0.00000000000E+00 -0.00000000000E+00 -0.45593999997E+02  0.45594000000E+02  0.51100000000E-03 0.  1.
    9900012    2    1    2    0    0  0.54518128261E+00 -0.26188842624E+02 -0.34604468809E+02  0.47787286156E+02  0.20000068899E+02 0.  0.
         12    1    1    2    0    0 -0.54518128261E+00  0.26188842624E+02  0.34604468809E+02  0.43400713844E+02  0.00000000000E+00 0. -1.
         11    1    3    3    0    0  0.37401183657E+01 -0.55468424953E+00 -0.59805489745E+00  0.38280321221E+01  0.51100000000E-03 0. -1.
        -11    1    3    3    0    0  0.19170854627E+01 -0.16608659520E+01 -0.72073091491E+01  0.76406150154E+01  0.51100000000E-03 0.  1.
        -12    1    3    3    0    0 -0.51120225458E+01 -0.23973292423E+02 -0.26799104762E+02  0.36318639018E+02  0.00000000000E+00 0.  1.
</event>
<event>
 7    1  0.4450624E-010  0.4778728E+02  0.7816164E-02  0.1312668E+00
        -11   -1    0    0    0    0  0.00000000000E+00  0.00000000000E+00  0.45593999997E+02  0.45594000000E+02  0.51100000000E-03 0.  1.
         11   -1    0    0    0    0 -0.00000000000E+00 -0.00000000000E+00 -0.45593999997E+02  0.45594000000E+02  0.51100000000E-03 0. -1.
    9900012    2    1    2    0    0  0.61163132213E+01  0.84742763028E+01  0.42123630248E+02  0.47787275680E+02  0.20000021133E+02 0.  0.
         12    1    1    2    0    0 -0.61163132213E+01 -0.84742763028E+01 -0.42123630248E+02  0.43400724320E+02  0.00000000000E+00 0. -1.
         11    1    3    3    0    0  0.57300623579E+01 -0.74037680645E+00  0.95273113259E+01  0.11142326229E+02  0.51100000000E-03 0. -1.
        -11    1    3    3    0    0 -0.19108190517E+01 -0.30340018130E+01  0.35856317893E+01  0.50708137453E+01  0.51100000000E-03 0.  1.
        -12    1    3    3    0    0  0.22970699152E+01  0.12248654922E+02  0.29010687133E+02  0.31574135705E+02  0.00000000000E+00 0.  1.
</event>
<event>
 7    1  0.4450624E-010  0.4778728E+02  0.7816164E-02  0.1312668E+00
        -11   -1    0    0    0    0  0.00000000000E+00  0.00000000000E+00  0.45593999997E+02  0.45594000000E+02  0.51100000000E-03 0.  1.
         11   -1    0    0    0    0 -0.00000000000E+00 -0.00000000000E+00 -0.45593999997E+02  0.45594000000E+02  0.51100000000E-03 0. -1.
    9900012    2    1    2    0    0  0.33009447750E+02  0.23325815351E+02  0.15808397959E+02  0.47787277096E+02  0.20000027591E+02 0.  0.
         12    1    1    2    0    0 -0.33009447750E+02 -0.23325815351E+02 -0.15808397959E+02  0.43400722904E+02  0.00000000000E+00 0. -1.
         11    1    3    3    0    0  0.50243042910E+01 -0.34942386232E+01  0.22036901701E+01  0.65045820612E+01  0.51100000000E-03 0. -1.
        -11    1    3    3    0    0  0.32168606370E+01  0.30426847502E+01  0.29988288478E+01  0.53478124095E+01  0.51100000000E-03 0.  1.
         12    1    3    3    0    0  0.24768282822E+02  0.23777369224E+02  0.10605878941E+02  0.35934882625E+02  0.00000000000E+00 0. -1.
</event>
<event>
 7    1  0.4450624E-010  0.4778727E+02  0.7816164E-02  0.1312668E+00
        -11   -1    0    0    0    0  0.00000000000E+00  0.00000000000E+00  0.45593999997E+02  0.45594000000E+02  0.51100000000E-03 0.  1.
         11   -1    0    0    0    0 -0.00000000000E+00 -0.00000000000E+00 -0.45593999997E+02  0.45594000000E+02  0.51100000000E-03 0. -1.
    9900012    2    1    2    0    0  0.19611049454E+02  0.25039717549E+01  0.38636253063E+02  0.47787272057E+02  0.20000004618E+02 0.  0.
         12    1    1    2    0    0 -0.19611049454E+02 -0.25039717549E+01 -0.38636253063E+02  0.43400727943E+02  0.00000000000E+00 0. -1.
         11    1    3    3    0    0 -0.10529825584E+01 -0.17981706283E+01  0.87707832827E+01  0.90149226025E+01  0.51100000000E-03 0. -1.
        -11    1    3    3    0    0 -0.66684512546E+00 -0.19710655203E+01  0.50012787398E+01  0.54168783447E+01  0.51100000000E-03 0.  1.
         12    1    3    3    0    0  0.21330877138E+02  0.62732079036E+01  0.24864191040E+02  0.33355471110E+02  0.00000000000E+00 0. -1.
</event>
<event>
 7    1  0.4450624E-010  0.4778729E+02  0.7816164E-02  0.1312668E+00
        -11   -1    0    0    0    0  0.00000000000E+00  0.00000000000E+00  0.45593999997E+02  0.45594000000E+02  0.51100000000E-03 0.  1.
         11   -1    0    0    0    0 -0.00000000000E+00 -0.00000000000E+00 -0.45593999997E+02  0.45594000000E+02  0.51100000000E-03 0. -1.
    9900012    2    1    2    0    0  0.41108796617E+02  0.10164488419E+02 -0.95063942314E+01  0.47787291303E+02  0.20000092367E+02 0.  0.
         12    1    1    2    0    0 -0.41108796617E+02 -0.10164488419E+02  0.95063942314E+01  0.43400708697E+02  0.00000000000E+00 0. -1.
         11    1    3    3    0    0  0.28868956909E-01 -0.22951894169E+00  0.46408594661E+00  0.51854449012E+00  0.51100000000E-03 0. -1.
        -11    1    3    3    0    0  0.18416430924E+02  0.14064344276E+02 -0.36727388625E+01  0.23461877992E+02  0.51100000000E-03 0.  1.
        -12    1    3    3    0    0  0.22663496736E+02 -0.36703369159E+01 -0.62977413155E+01  0.23806868821E+02  0.00000000000E+00 0.  1.
</event>
<event>
 7    1  0.4450624E-010  0.4778725E+02  0.7816164E-02  0.1312668E+00
        -11   -1    0    0    0    0  0.00000000000E+00  0.00000000000E+00  0.45593999997E+02  0.45594000000E+02  0.51100000000E-03 0. -1.
         11   -1    0    0    0    0 -0.00000000000E+00 -0.00000000000E+00 -0.45593999997E+02  0.45594000000E+02  0.51100000000E-03 0.  1.
    9900012    2    1    2    0    0  0.36039190546E+00 -0.26645524066E+02 -0.34256549138E+02  0.47787251229E+02  0.19999909652E+02 0.  0.
         12    1    1    2    0    0 -0.36039190546E+00  0.26645524066E+02  0.34256549138E+02  0.43400748771E+02  0.00000000000E+00 0. -1.
         11    1    3    3    0    0  0.35164308166E-01 -0.62282650647E+01 -0.14786366201E+02  0.16044598715E+02  0.51100000000E-03 0.  1.
        -11    1    3    3    0    0 -0.47281325975E+01 -0.10488735680E+02 -0.16671296624E+02  0.20255886685E+02  0.51100000000E-03 0. -1.
         12    1    3    3    0    0  0.50533601948E+01 -0.99285233217E+01 -0.27988863133E+01  0.11486765829E+02  0.00000000000E+00 0. -1.
</event>
<event>
 7    1  0.4450624E-010  0.4778727E+02  0.7816164E-02  0.1312668E+00
        -11   -1    0    0    0    0  0.00000000000E+00  0.00000000000E+00  0.45593999997E+02  0.45594000000E+02  0.51100000000E-03 0.  1.
         11   -1    0    0    0    0 -0.00000000000E+00 -0.00000000000E+00 -0.45593999997E+02  0.45594000000E+02  0.51100000000E-03 0. -1.
    9900012    2    1    2    0    0 -0.21325769685E+02 -0.26830117681E+02  0.26626668888E+02  0.47787272316E+02  0.20000005798E+02 0.  0.
         12    1    1    2    0    0  0.21325769685E+02  0.26830117681E+02 -0.26626668888E+02  0.43400727684E+02  0.00000000000E+00 0. -1.
         11    1    3    3    0    0 -0.49592997294E+01 -0.16992634310E+00  0.50195961869E+01  0.70583195528E+01  0.51100000000E-03 0. -1.
        -11    1    3    3    0    0 -0.14657016017E+02 -0.20273426119E+02  0.22987866489E+02  0.33974724887E+02  0.51100000000E-03 0.  1.
        -12    1    3    3    0    0 -0.17094539378E+01 -0.63867652186E+01 -0.13807937878E+01  0.67542278765E+01  0.00000000000E+00 0.  1.
</event>
<event>
 7    1  0.4450624E-010  0.4778727E+02  0.7816164E-02  0.1312668E+00
        -11   -1    0    0    0    0  0.00000000000E+00  0.00000000000E+00  0.45593999997E+02  0.45594000000E+02  0.51100000000E-03 0. -1.
         11   -1    0    0    0    0 -0.00000000000E+00 -0.00000000000E+00 -0.45593999997E+02  0.45594000000E+02  0.51100000000E-03 0.  1.
    9900012    2    1    2    0    0 -0.21021197978E+01  0.36782446456E+02 -0.22940269262E+02  0.47787271565E+02  0.20000002372E+02 0.  0.
         12    1    1    2    0    0  0.21021197978E+01 -0.36782446456E+02  0.22940269262E+02  0.43400728435E+02  0.00000000000E+00 0. -1.
         11    1    3    3    0    0  0.47488067916E+01  0.22387394951E+02 -0.45023152452E+01  0.23324181903E+02  0.51100000000E-03 0. -1.
        -11    1    3    3    0    0 -0.20014331512E+01  0.34012780973E+01 -0.33610636385E+01  0.51837415442E+01  0.51100000000E-03 0.  1.
         12    1    3    3    0    0 -0.48494934381E+01  0.10993773407E+02 -0.15076890378E+02  0.19279348117E+02  0.00000000000E+00 0. -1.
</event>
<event>
 7    1  0.4450624E-010  0.4778727E+02  0.7816164E-02  0.1312668E+00
        -11   -1    0    0    0    0  0.00000000000E+00  0.00000000000E+00  0.45593999997E+02  0.45594000000E+02  0.51100000000E-03 0.  1.
         11   -1    0    0    0    0 -0.00000000000E+00 -0.00000000000E+00 -0.45593999997E+02  0.45594000000E+02  0.51100000000E-03 0. -1.
    9900012    2    1    2    0    0 -0.17223626857E+02 -0.35855336155E+02  0.17359866672E+02  0.47787269317E+02  0.19999992124E+02 0.  0.
         12    1    1    2    0    0  0.17223626857E+02  0.35855336155E+02 -0.17359866672E+02  0.43400730683E+02  0.00000000000E+00 0. -1.
         11    1    3    3    0    0  0.16423076933E+01 -0.67791296297E+01  0.34315790107E+01  0.77736418662E+01  0.51100000000E-03 0. -1.
        -11    1    3    3    0    0 -0.10932058977E+02 -0.16500751815E+02  0.15390391699E+02  0.25072871412E+02  0.51100000000E-03 0.  1.
        -12    1    3    3    0    0 -0.79338755741E+01 -0.12575454711E+02 -0.14621040370E+01  0.14940756039E+02  0.00000000000E+00 0.  1.
</event>
<event>
 7    1  0.4450624E-010  0.4778726E+02  0.7816164E-02  0.1312668E+00
        -11   -1    0    0    0    0  0.00000000000E+00  0.00000000000E+00  0.45593999997E+02  0.45594000000E+02  0.51100000000E-03 0.  1.
         11   -1    0    0    0    0 -0.00000000000E+00 -0.00000000000E+00 -0.45593999997E+02  0.45594000000E+02  0.51100000000E-03 0. -1.
    9900012    2    1    2    0    0  0.31503282014E+02  0.14914318800E+02  0.25859817457E+02  0.47787264501E+02  0.19999970167E+02 0.  0.
         12    1    1    2    0    0 -0.31503282014E+02 -0.14914318800E+02 -0.25859817457E+02  0.43400735499E+02  0.00000000000E+00 0. -1.
         11    1    3    3    0    0  0.14928885098E+02  0.72615309249E+01  0.56393824370E+01  0.17532942599E+02  0.51100000000E-03 0. -1.
        -11    1    3    3    0    0  0.11012088013E-01  0.48339526162E+01  0.14155536108E+01  0.50369645073E+01  0.51100000000E-03 0.  1.
        -12    1    3    3    0    0  0.16563384827E+02  0.28188352590E+01  0.18804881410E+02  0.25217357395E+02  0.00000000000E+00 0.  1.
</event>
<event>
 7    1  0.4450624E-010  0.4778729E+02  0.7816164E-02  0.1312668E+00
        -11   -1    0    0    0    0  0.00000000000E+00  0.00000000000E+00  0.45593999997E+02  0.45594000000E+02  0.51100000000E-03 0.  1.
         11   -1    0    0    0    0 -0.00000000000E+00 -0.00000000000E+00 -0.45593999997E+02  0.45594000000E+02  0.51100000000E-03 0. -1.
    9900012    2    1    2    0    0  0.34057696167E+02 -0.25889090161E+02  0.73109538205E+01  0.47787289138E+02  0.20000082495E+02 0.  0.
         12    1    1    2    0    0 -0.34057696167E+02  0.25889090161E+02 -0.73109538205E+01  0.43400710862E+02  0.00000000000E+00 0. -1.
         11    1    3    3    0    0  0.27451727785E+02 -0.26233631497E+02  0.11028443361E+02  0.39540199078E+02  0.51100000000E-03 0. -1.
        -11    1    3    3    0    0  0.27605620786E+01  0.33553779598E+00  0.16084057676E+00  0.27855266207E+01  0.51100000000E-03 0.  1.
         12    1    3    3    0    0  0.38454063034E+01  0.90035399702E-02 -0.38783301173E+01  0.54615634393E+01  0.00000000000E+00 0. -1.
</event>
<event>
 7    1  0.4450624E-010  0.4778727E+02  0.7816164E-02  0.1312668E+00
        -11   -1    0    0    0    0  0.00000000000E+00  0.00000000000E+00  0.45593999997E+02  0.45594000000E+02  0.51100000000E-03 0.  1.
         11   -1    0    0    0    0 -0.00000000000E+00 -0.00000000000E+00 -0.45593999997E+02  0.45594000000E+02  0.51100000000E-03 0. -1.
    9900012    2    1    2    0    0  0.97535150451E-01  0.39219586771E+02  0.18585951229E+02  0.47787273247E+02  0.20000010043E+02 0.  0.
         12    1    1    2    0    0 -0.97535150451E-01 -0.39219586771E+02 -0.18585951229E+02  0.43400726753E+02  0.00000000000E+00 0. -1.
         11    1    3    3    0    0  0.20776911537E+01  0.76043903848E+01  0.42049914343E+00  0.78943253952E+01  0.51100000000E-03 0. -1.
        -11    1    3    3    0    0 -0.86706589839E+01  0.19245249280E+02  0.81468086599E+01  0.22625879843E+02  0.51100000000E-03 0.  1.
        -12    1    3    3    0    0  0.66905029806E+01  0.12369947106E+02  0.10018643425E+02  0.17267068009E+02  0.00000000000E+00 0.  1.
</event>
<event>
 7    1  0.4450624E-010  0.4778727E+02  0.7816164E-02  0.1312668E+00
        -11   -1    0    0    0    0  0.00000000000E+00  0.00000000000E+00  0.45593999997E+02  0.45594000000E+02  0.51100000000E-03 0.  1.
         11   -1    0    0    0    0 -0.00000000000E+00 -0.00000000000E+00 -0.45593999997E+02  0.45594000000E+02  0.51100000000E-03 0. -1.
    9900012    2    1    2    0    0 -0.95612400793E+01 -0.26635280795E+02  0.32905441067E+02  0.47787267902E+02  0.19999985670E+02 0.  0.
         12    1    1    2    0    0  0.95612400793E+01  0.26635280795E+02 -0.32905441067E+02  0.43400732098E+02  0.00000000000E+00 0. -1.
         11    1    3    3    0    0  0.10351732886E+00 -0.59911327294E+01  0.27290572654E+01  0.65842342787E+01  0.51100000000E-03 0. -1.
        -11    1    3    3    0    0  0.39261356557E+01 -0.55342862352E+01  0.12700716157E+02  0.14399689458E+02  0.51100000000E-03 0.  1.
         12    1    3    3    0    0 -0.13590893064E+02 -0.15109861831E+02  0.17475667644E+02  0.26803344165E+02  0.00000000000E+00 0. -1.
</event>
<event>
 7    1  0.4450624E-010  0.4778727E+02  0.7816164E-02  0.1312668E+00
        -11   -1    0    0    0    0  0.00000000000E+00  0.00000000000E+00  0.45593999997E+02  0.45594000000E+02  0.51100000000E-03 0. -1.
         11   -1    0    0    0    0 -0.00000000000E+00 -0.00000000000E+00 -0.45593999997E+02  0.45594000000E+02  0.51100000000E-03 0.  1.
    9900012    2    1    2    0    0  0.26043745441E+01  0.42902128780E+02 -0.60206199550E+01  0.47787270914E+02  0.19999999403E+02 0.  0.
         12    1    1    2    0    0 -0.26043745441E+01 -0.42902128780E+02  0.60206199550E+01  0.43400729086E+02  0.00000000000E+00 0. -1.
         11    1    3    3    0    0  0.60832249719E+01  0.24120843161E+02 -0.52658950172E+01  0.25427354394E+02  0.51100000000E-03 0. -1.
        -11    1    3    3    0    0 -0.38370266789E+01  0.18561069120E+02 -0.37621031624E+01  0.19323288568E+02  0.51100000000E-03 0.  1.
        -12    1    3    3    0    0  0.35817625111E+00  0.22021649832E+00  0.30073782246E+01  0.30366279520E+01  0.00000000000E+00 0.  1.
</event>
<event>
 7    1  0.4450624E-010  0.4778727E+02  0.7816164E-02  0.1312668E+00
        -11   -1    0    0    0    0  0.00000000000E+00  0.00000000000E+00  0.45593999997E+02  0.45594000000E+02  0.51100000000E-03 0. -1.
         11   -1    0    0    0    0 -0.00000000000E+00 -0.00000000000E+00 -0.45593999997E+02  0.45594000000E+02  0.51100000000E-03 0.  1.
    9900012    2    1    2    0    0  0.25915975939E+02  0.30905372151E+02  0.16026341659E+02  0.47787268858E+02  0.19999990030E+02 0.  0.
         12    1    1    2    0    0 -0.25915975939E+02 -0.30905372151E+02 -0.16026341659E+02  0.43400731142E+02  0.00000000000E+00 0. -1.
         11    1    3    3    0    0  0.61176940528E+01  0.82785357041E+01  0.63070679484E+01  0.12072259121E+02  0.51100000000E-03 0. -1.
        -11    1    3    3    0    0  0.11665070031E+02  0.21419283408E+01  0.63868727158E+00  0.11877273995E+02  0.51100000000E-03 0.  1.
        -12    1    3    3    0    0  0.81332118551E+01  0.20484908106E+02  0.90805864393E+01  0.23837735742E+02  0.00000000000E+00 0.  1.
</event>
<event>
 7    1  0.4450624E-010  0.4778727E+02  0.7816164E-02  0.1312668E+00
        -11   -1    0    0    0    0  0.00000000000E+00  0.00000000000E+00  0.45593999997E+02  0.45594000000E+02  0.51100000000E-03 0.  1.
         11   -1    0    0    0    0 -0.00000000000E+00 -0.00000000000E+00 -0.45593999997E+02  0.45594000000E+02  0.51100000000E-03 0. -1.
    9900012    2    1    2    0    0  0.28479052791E+02 -0.15632801617E+02  0.28778159135E+02  0.47787269850E+02  0.19999994556E+02 0.  0.
         12    1    1    2    0    0 -0.28479052791E+02  0.15632801617E+02 -0.28778159135E+02  0.43400730150E+02  0.00000000000E+00 0. -1.
         11    1    3    3    0    0  0.12460616835E+02 -0.11798794090E+02  0.80735078405E+01  0.18964705192E+02  0.51100000000E-03 0. -1.
        -11    1    3    3    0    0  0.12306346951E+02 -0.11156946639E+01  0.66470604069E+01  0.14031192471E+02  0.51100000000E-03 0.  1.
         12    1    3    3    0    0  0.37120890051E+01 -0.27183128629E+01  0.14057590888E+02  0.14791372187E+02  0.00000000000E+00 0. -1.
</event>
<event>
 7    1  0.4450624E-010  0.4778727E+02  0.7816164E-02  0.1312668E+00
        -11   -1    0    0    0    0  0.00000000000E+00  0.00000000000E+00  0.45593999997E+02  0.45594000000E+02  0.51100000000E-03 0. -1.
         11   -1    0    0    0    0 -0.00000000000E+00 -0.00000000000E+00 -0.45593999997E+02  0.45594000000E+02  0.51100000000E-03 0.  1.
    9900012    2    1    2    0    0  0.23531610095E+02 -0.34813805547E+02  0.10857510528E+02  0.47787271144E+02  0.20000000455E+02 0.  0.
         12    1    1    2    0    0 -0.23531610095E+02  0.34813805547E+02 -0.10857510528E+02  0.43400728856E+02  0.00000000000E+00 0. -1.
         11    1    3    3    0    0  0.64091847932E+01 -0.73929866396E+01 -0.18483327825E+01  0.99574211271E+01  0.51100000000E-03 0. -1.
        -11    1    3    3    0    0  0.18877906542E+02 -0.26489224573E+02  0.92064694558E+01  0.33805524016E+02  0.51100000000E-03 0.  1.
        -12    1    3    3    0    0 -0.17554812403E+01 -0.93159433475E+00  0.34993738549E+01  0.40243260014E+01  0.00000000000E+00 0.  1.
</event>
<event>
 7    1  0.4450624E-010  0.4778727E+02  0.7816164E-02  0.1312668E+00
        -11   -1    0    0    0    0  0.00000000000E+00  0.00000000000E+00  0.45593999997E+02  0.45594000000E+02  0.51100000000E-03 0. -1.
         11   -1    0    0    0    0 -0.00000000000E+00 -0.00000000000E+00 -0.45593999997E+02  0.45594000000E+02  0.51100000000E-03 0.  1.
    9900012    2    1    2    0    0 -0.35692647497E+02  0.83987891842E+01 -0.23218937212E+02  0.47787265094E+02  0.19999972870E+02 0.  0.
         12    1    1    2    0    0  0.35692647497E+02 -0.83987891842E+01  0.23218937212E+02  0.43400734906E+02  0.00000000000E+00 0. -1.
         11    1    3    3    0    0 -0.31230398578E+01 -0.32094085857E+01 -0.40150427806E+01  0.60145033224E+01  0.51100000000E-03 0. -1.
        -11    1    3    3    0    0  0.13163109663E+01  0.74336355178E+00 -0.78382301974E+00  0.17028337316E+01  0.51100000000E-03 0.  1.
        -12    1    3    3    0    0 -0.33885918606E+02  0.10864834218E+02 -0.18420071411E+02  0.40069928040E+02  0.00000000000E+00 0.  1.
</event>
<event>
 7    1  0.4450624E-010  0.4778727E+02  0.7816164E-02  0.1312668E+00
        -11   -1    0    0    0    0  0.00000000000E+00  0.00000000000E+00  0.45593999997E+02  0.45594000000E+02  0.51100000000E-03 0. -1.
         11   -1    0    0    0    0 -0.00000000000E+00 -0.00000000000E+00 -0.45593999997E+02  0.45594000000E+02  0.51100000000E-03 0.  1.
    9900012    2    1    2    0    0  0.22634115838E+02 -0.34988785114E+02 -0.12128680166E+02  0.47787272286E+02  0.20000005661E+02 0.  0.
         12    1    1    2    0    0 -0.22634115838E+02  0.34988785114E+02  0.12128680166E+02  0.43400727714E+02  0.00000000000E+00 0. -1.
         11    1    3    3    0    0  0.86872695026E+01 -0.23473855854E+02 -0.14235803131E+02  0.28794941415E+02  0.51100000000E-03 0. -1.
        -11    1    3    3    0    0  0.26435013163E+01 -0.53689791763E+01  0.11196702084E+01  0.60883247483E+01  0.51100000000E-03 0.  1.
        -12    1    3    3    0    0  0.11303345020E+02 -0.61459500836E+01  0.98745275631E+00  0.12904006122E+02  0.00000000000E+00 0.  1.
</event>
<event>
 7    1  0.4450624E-010  0.4778727E+02  0.7816164E-02  0.1312668E+00
        -11   -1    0    0    0    0  0.00000000000E+00  0.00000000000E+00  0.45593999997E+02  0.45594000000E+02  0.51100000000E-03 0. -1.
         11   -1    0    0    0    0 -0.00000000000E+00 -0.00000000000E+00 -0.45593999997E+02  0.45594000000E+02  0.51100000000E-03 0.  1.
    9900012    2    1    2    0    0  0.96612318467E+01 -0.14050279139E+02 -0.39910819927E+02  0.47787270836E+02  0.19999999051E+02 0.  0.
         12    1    1    2    0    0 -0.96612318467E+01  0.14050279139E+02  0.39910819927E+02  0.43400729164E+02  0.00000000000E+00 0. -1.
         11    1    3    3    0    0 -0.90585913360E+00 -0.11069037564E+01  0.74485319426E+00  0.16126447960E+01  0.51100000000E-03 0.  1.
        -11    1    3    3    0    0 -0.34011222516E+01 -0.34812910348E+01 -0.11534327744E+02  0.12519094880E+02  0.51100000000E-03 0. -1.
        -12    1    3    3    0    0  0.13968213232E+02 -0.94620843478E+01 -0.29121345377E+02  0.33655531160E+02  0.00000000000E+00 0.  1.
</event>
<event>
 7    1  0.4450624E-010  0.4778727E+02  0.7816164E-02  0.1312668E+00
        -11   -1    0    0    0    0  0.00000000000E+00  0.00000000000E+00  0.45593999997E+02  0.45594000000E+02  0.51100000000E-03 0.  1.
         11   -1    0    0    0    0 -0.00000000000E+00 -0.00000000000E+00 -0.45593999997E+02  0.45594000000E+02  0.51100000000E-03 0. -1.
    9900012    2    1    2    0    0 -0.29407681132E+02  0.82804980141E+01  0.30826050489E+02  0.47787265610E+02  0.19999975220E+02 0.  0.
         12    1    1    2    0    0  0.29407681132E+02 -0.82804980141E+01 -0.30826050489E+02  0.43400734390E+02  0.00000000000E+00 0. -1.
         11    1    3    3    0    0 -0.42010344818E+01  0.30558479882E+00  0.61179584347E+01  0.74277512382E+01  0.51100000000E-03 0. -1.
        -11    1    3    3    0    0  0.23741579786E+01  0.40824844907E+00 -0.22203526911E+00  0.24192132658E+01  0.51100000000E-03 0.  1.
        -12    1    3    3    0    0 -0.27580804628E+02  0.75666647662E+01  0.24930127323E+02  0.37940301106E+02  0.00000000000E+00 0.  1.
</event>
<event>
 7    1  0.4450624E-010  0.4778727E+02  0.7816164E-02  0.1312668E+00
        -11   -1    0    0    0    0  0.00000000000E+00  0.00000000000E+00  0.45593999997E+02  0.45594000000E+02  0.51100000000E-03 0.  1.
         11   -1    0    0    0    0 -0.00000000000E+00 -0.00000000000E+00 -0.45593999997E+02  0.45594000000E+02  0.51100000000E-03 0. -1.
    9900012    2    1    2    0    0 -0.36546836514E+02  0.21901974548E+01  0.23305688769E+02  0.47787270132E+02  0.19999995839E+02 0.  0.
         12    1    1    2    0    0  0.36546836514E+02 -0.21901974548E+01 -0.23305688769E+02  0.43400729868E+02  0.00000000000E+00 0. -1.
         11    1    3    3    0    0 -0.37048170379E+01  0.26882715388E+01  0.53977755198E+01  0.70773196885E+01  0.51100000000E-03 0. -1.
        -11    1    3    3    0    0 -0.20131518401E+02 -0.28571751684E+01  0.18878518921E+02  0.27745989980E+02  0.51100000000E-03 0.  1.
         12    1    3    3    0    0 -0.12710501076E+02  0.23591010845E+01 -0.97060567153E+00  0.12963960463E+02  0.00000000000E+00 0. -1.
</event>
<event>
 7    1  0.4450624E-010  0.4778728E+02  0.7816164E-02  0.1312668E+00
        -11   -1    0    0    0    0  0.00000000000E+00  0.00000000000E+00  0.45593999997E+02  0.45594000000E+02  0.51100000000E-03 0. -1.
         11   -1    0    0    0    0 -0.00000000000E+00 -0.00000000000E+00 -0.45593999997E+02  0.45594000000E+02  0.51100000000E-03 0.  1.
    9900012    2    1    2    0    0 -0.40772732801E+02 -0.72954672772E+01  0.12960833360E+02  0.47787276685E+02  0.20000025718E+02 0.  0.
         12    1    1    2    0    0  0.40772732801E+02  0.72954672772E+01 -0.12960833360E+02  0.43400723315E+02  0.00000000000E+00 0. -1.
         11    1    3    3    0    0 -0.22514024228E+02 -0.59668397364E+01  0.11615630857E+02  0.26027050233E+02  0.51100000000E-03 0. -1.
        -11    1    3    3    0    0 -0.14810575383E+02 -0.16095999461E+01  0.59145888239E+01  0.16028921248E+02  0.51100000000E-03 0.  1.
         12    1    3    3    0    0 -0.34481331904E+01  0.28097240532E+00 -0.45693863207E+01  0.57313052038E+01  0.00000000000E+00 0. -1.
</event>
<event>
 7    1  0.4450624E-010  0.4778727E+02  0.7816164E-02  0.1312668E+00
        -11   -1    0    0    0    0  0.00000000000E+00  0.00000000000E+00  0.45593999997E+02  0.45594000000E+02  0.51100000000E-03 0. -1.
         11   -1    0    0    0    0 -0.00000000000E+00 -0.00000000000E+00 -0.45593999997E+02  0.45594000000E+02  0.51100000000E-03 0.  1.
    9900012    2    1    2    0    0  0.30080319598E+02 -0.14513254609E+02 -0.27715756272E+02  0.47787270373E+02  0.19999996939E+02 0.  0.
         12    1    1    2    0    0 -0.30080319598E+02  0.14513254609E+02  0.27715756272E+02  0.43400729627E+02  0.00000000000E+00 0. -1.
         11    1    3    3    0    0  0.11860154070E+01 -0.92456887528E+00  0.17854661014E+01  0.23343842038E+01  0.51100000000E-03 0. -1.
        -11    1    3    3    0    0  0.56735330476E+01 -0.77042907073E+01 -0.37338353830E+01  0.10270666944E+02  0.51100000000E-03 0.  1.
         12    1    3    3    0    0  0.23220771143E+02 -0.58843950262E+01 -0.25767386990E+02  0.35182219225E+02  0.00000000000E+00 0. -1.
</event>
<event>
 7    1  0.4450624E-010  0.4778727E+02  0.7816164E-02  0.1312668E+00
        -11   -1    0    0    0    0  0.00000000000E+00  0.00000000000E+00  0.45593999997E+02  0.45594000000E+02  0.51100000000E-03 0.  1.
         11   -1    0    0    0    0 -0.00000000000E+00 -0.00000000000E+00 -0.45593999997E+02  0.45594000000E+02  0.51100000000E-03 0. -1.
    9900012    2    1    2    0    0 -0.40966722725E+02  0.11826646374E+02  0.80920449004E+01  0.47787272748E+02  0.20000007769E+02 0.  0.
         12    1    1    2    0    0  0.40966722725E+02 -0.11826646374E+02 -0.80920449004E+01  0.43400727252E+02  0.00000000000E+00 0. -1.
         11    1    3    3    0    0 -0.17961759147E+02  0.59058633038E+01  0.14711599243E+01  0.18964923538E+02  0.51100000000E-03 0. -1.
        -11    1    3    3    0    0 -0.24520894963E+02  0.72120563054E+01  0.75122607963E+01  0.26640610137E+02  0.51100000000E-03 0.  1.
         12    1    3    3    0    0  0.15159313849E+01 -0.12912732350E+01 -0.89137582018E+00  0.21817390733E+01  0.00000000000E+00 0. -1.
</event>
<event>
 7    1  0.4450624E-010  0.4778727E+02  0.7816164E-02  0.1312668E+00
        -11   -1    0    0    0    0  0.00000000000E+00  0.00000000000E+00  0.45593999997E+02  0.45594000000E+02  0.51100000000E-03 0.  1.
         11   -1    0    0    0    0 -0.00000000000E+00 -0.00000000000E+00 -0.45593999997E+02  0.45594000000E+02  0.51100000000E-03 0. -1.
    9900012    2    1    2    0    0 -0.51297028177E+01 -0.25979992744E+01  0.43018132928E+02  0.47787271759E+02  0.20000003258E+02 0.  0.
         12    1    1    2    0    0  0.51297028177E+01  0.25979992744E+01 -0.43018132928E+02  0.43400728241E+02  0.00000000000E+00 0. -1.
         11    1    3    3    0    0 -0.48330288206E+00  0.23316360302E+01  0.15653725294E+01  0.28496490433E+01  0.51100000000E-03 0. -1.
        -11    1    3    3    0    0 -0.50637961097E+01  0.50786662295E+01  0.14335654098E+02  0.16029530885E+02  0.51100000000E-03 0.  1.
        -12    1    3    3    0    0  0.41739617406E+00 -0.10008301534E+02  0.27117106301E+02  0.28908091831E+02  0.00000000000E+00 0.  1.
</event>
<event>
 7    1  0.4450624E-010  0.4778727E+02  0.7816164E-02  0.1312668E+00
        -11   -1    0    0    0    0  0.00000000000E+00  0.00000000000E+00  0.45593999997E+02  0.45594000000E+02  0.51100000000E-03 0.  1.
         11   -1    0    0    0    0 -0.00000000000E+00 -0.00000000000E+00 -0.45593999997E+02  0.45594000000E+02  0.51100000000E-03 0. -1.
    9900012    2    1    2    0    0  0.11320874283E+02  0.19049582951E+02  0.37317213375E+02  0.47787271674E+02  0.20000002872E+02 0.  0.
         12    1    1    2    0    0 -0.11320874283E+02 -0.19049582951E+02 -0.37317213375E+02  0.43400728326E+02  0.00000000000E+00 0. -1.
         11    1    3    3    0    0 -0.96093369677E+00  0.12090294743E+01 -0.12258024279E+00  0.15492488555E+01  0.51100000000E-03 0. -1.
        -11    1    3    3    0    0  0.84391486820E+01  0.20691304446E+02  0.31076124711E+02  0.38276296026E+02  0.51100000000E-03 0.  1.
        -12    1    3    3    0    0  0.38426592983E+01 -0.28507509695E+01  0.63636689059E+01  0.79617267924E+01  0.00000000000E+00 0.  1.
</event>
<event>
 7    1  0.4450624E-010  0.4778727E+02  0.7816164E-02  0.1312668E+00
        -11   -1    0    0    0    0  0.00000000000E+00  0.00000000000E+00  0.45593999997E+02  0.45594000000E+02  0.51100000000E-03 0.  1.
         11   -1    0    0    0    0 -0.00000000000E+00 -0.00000000000E+00 -0.45593999997E+02  0.45594000000E+02  0.51100000000E-03 0. -1.
    9900012    2    1    2    0    0 -0.97519131456E+01 -0.12705836183E+02  0.40337149842E+02  0.47787265669E+02  0.19999975490E+02 0.  0.
         12    1    1    2    0    0  0.97519131456E+01  0.12705836183E+02 -0.40337149842E+02  0.43400734331E+02  0.00000000000E+00 0. -1.
         11    1    3    3    0    0  0.33657490179E+00 -0.51624999902E+01  0.10140078945E+01  0.52718972946E+01  0.51100000000E-03 0. -1.
        -11    1    3    3    0    0  0.18488405723E+01  0.12208327482E+00  0.64697577220E+01  0.67298500006E+01  0.51100000000E-03 0.  1.
        -12    1    3    3    0    0 -0.11937328620E+02 -0.76654194679E+01  0.32853384225E+02  0.35785518374E+02  0.00000000000E+00 0.  1.
</event>
<event>
 7    1  0.4450624E-010  0.4778727E+02  0.7816164E-02  0.1312668E+00
        -11   -1    0    0    0    0  0.00000000000E+00  0.00000000000E+00  0.45593999997E+02  0.45594000000E+02  0.51100000000E-03 0. -1.
         11   -1    0    0    0    0 -0.00000000000E+00 -0.00000000000E+00 -0.45593999997E+02  0.45594000000E+02  0.51100000000E-03 0.  1.
    9900012    2    1    2    0    0  0.39641137448E+02 -0.12379175522E+02 -0.12607916293E+02  0.47787270536E+02  0.19999997680E+02 0.  0.
         12    1    1    2    0    0 -0.39641137448E+02  0.12379175522E+02  0.12607916293E+02  0.43400729464E+02  0.00000000000E+00 0. -1.
         11    1    3    3    0    0  0.87793662380E+00 -0.25747095804E+01  0.30608052328E+00  0.27374418143E+01  0.51100000000E-03 0. -1.
        -11    1    3    3    0    0  0.12865204444E+02  0.35037127781E+01 -0.35217172932E+00  0.13338422463E+02  0.51100000000E-03 0.  1.
         12    1    3    3    0    0  0.25897996380E+02 -0.13308178719E+02 -0.12561825087E+02  0.31711406258E+02  0.00000000000E+00 0. -1.
</event>
<event>
 7    1  0.4450624E-010  0.4778727E+02  0.7816164E-02  0.1312668E+00
        -11   -1    0    0    0    0  0.00000000000E+00  0.00000000000E+00  0.45593999997E+02  0.45594000000E+02  0.51100000000E-03 0.  1.
         11   -1    0    0    0    0 -0.00000000000E+00 -0.00000000000E+00 -0.45593999997E+02  0.45594000000E+02  0.51100000000E-03 0. -1.
    9900012    2    1    2    0    0 -0.16127859463E+02  0.26732196787E+02  0.30148055414E+02  0.47787269117E+02  0.19999991212E+02 0.  0.
         12    1    1    2    0    0  0.16127859463E+02 -0.26732196787E+02 -0.30148055414E+02  0.43400730883E+02  0.00000000000E+00 0. -1.
         11    1    3    3    0    0 -0.37086270971E+01  0.76470505856E+00  0.88810903687E+01  0.96546597647E+01  0.51100000000E-03 0. -1.
        -11    1    3    3    0    0 -0.74372243135E+01  0.34156206065E+01  0.82526942468E+01  0.11622638780E+02  0.51100000000E-03 0.  1.
        -12    1    3    3    0    0 -0.49820080525E+01  0.22551871122E+02  0.13014270799E+02  0.26509970572E+02  0.00000000000E+00 0.  1.
</event>
<event>
 7    1  0.4450624E-010  0.4778727E+02  0.7816164E-02  0.1312668E+00
        -11   -1    0    0    0    0  0.00000000000E+00  0.00000000000E+00  0.45593999997E+02  0.45594000000E+02  0.51100000000E-03 0.  1.
         11   -1    0    0    0    0 -0.00000000000E+00 -0.00000000000E+00 -0.45593999997E+02  0.45594000000E+02  0.51100000000E-03 0. -1.
    9900012    2    1    2    0    0  0.39739056438E+02 -0.15682419894E+02  0.76480468357E+01  0.47787268200E+02  0.19999987032E+02 0.  0.
         12    1    1    2    0    0 -0.39739056438E+02  0.15682419894E+02 -0.76480468357E+01  0.43400731800E+02  0.00000000000E+00 0. -1.
         11    1    3    3    0    0  0.33761828840E+02 -0.95023619278E+01  0.94238649672E+01  0.36317560491E+02  0.51100000000E-03 0. -1.
        -11    1    3    3    0    0  0.70663321958E+01 -0.59592987587E+01  0.15151870936E+00  0.92449581165E+01  0.51100000000E-03 0.  1.
         12    1    3    3    0    0 -0.10891045975E+01 -0.22075920751E+00 -0.19273368409E+01  0.22247495927E+01  0.00000000000E+00 0. -1.
</event>
<event>
 7    1  0.4450624E-010  0.4778729E+02  0.7816164E-02  0.1312668E+00
        -11   -1    0    0    0    0  0.00000000000E+00  0.00000000000E+00  0.45593999997E+02  0.45594000000E+02  0.51100000000E-03 0. -1.
         11   -1    0    0    0    0 -0.00000000000E+00 -0.00000000000E+00 -0.45593999997E+02  0.45594000000E+02  0.51100000000E-03 0.  1.
    9900012    2    1    2    0    0  0.48303291746E+01 -0.39143317461E+02  0.18113268620E+02  0.47787287080E+02  0.20000073114E+02 0.  0.
         12    1    1    2    0    0 -0.48303291746E+01  0.39143317461E+02 -0.18113268620E+02  0.43400712920E+02  0.00000000000E+00 0. -1.
         11    1    3    3    0    0 -0.25028156619E+01 -0.40117275727E+01  0.17035665259E+01  0.50259510070E+01  0.51100000000E-03 0. -1.
        -11    1    3    3    0    0  0.49856359351E+01 -0.27688856861E+02  0.19644013891E+02  0.34313505242E+02  0.51100000000E-03 0.  1.
         12    1    3    3    0    0  0.23475089014E+01 -0.74427330277E+01 -0.32343117968E+01  0.84478308318E+01  0.00000000000E+00 0. -1.
</event>
<event>
 7    1  0.4450624E-010  0.4778728E+02  0.7816164E-02  0.1312668E+00
        -11   -1    0    0    0    0  0.00000000000E+00  0.00000000000E+00  0.45593999997E+02  0.45594000000E+02  0.51100000000E-03 0.  1.
         11   -1    0    0    0    0 -0.00000000000E+00 -0.00000000000E+00 -0.45593999997E+02  0.45594000000E+02  0.51100000000E-03 0. -1.
    9900012    2    1    2    0    0  0.12980503548E+02  0.34114497847E+02  0.23480426636E+02  0.47787275689E+02  0.20000021176E+02 0.  0.
         12    1    1    2    0    0 -0.12980503548E+02 -0.34114497847E+02 -0.23480426636E+02  0.43400724311E+02  0.00000000000E+00 0. -1.
         11    1    3    3    0    0  0.78478512563E+01  0.34894138165E+01  0.21933903871E+01  0.88642957856E+01  0.51100000000E-03 0. -1.
        -11    1    3    3    0    0  0.45763048155E+01  0.61844215946E+01  0.79976663321E+01  0.11097400743E+02  0.51100000000E-03 0.  1.
        -12    1    3    3    0    0  0.55634747616E+00  0.24440662436E+02  0.13289369916E+02  0.27825579161E+02  0.00000000000E+00 0.  1.
</event>
<event>
 7    1  0.4450624E-010  0.4778727E+02  0.7816164E-02  0.1312668E+00
        -11   -1    0    0    0    0  0.00000000000E+00  0.00000000000E+00  0.45593999997E+02  0.45594000000E+02  0.51100000000E-03 0. -1.
         11   -1    0    0    0    0 -0.00000000000E+00 -0.00000000000E+00 -0.45593999997E+02  0.45594000000E+02  0.51100000000E-03 0.  1.
    9900012    2    1    2    0    0 -0.24984696663E+02  0.29127026162E+02 -0.20273249162E+02  0.47787270144E+02  0.19999995896E+02 0.  0.
         12    1    1    2    0    0  0.24984696663E+02 -0.29127026162E+02  0.20273249162E+02  0.43400729856E+02  0.00000000000E+00 0. -1.
         11    1    3    3    0    0 -0.83388297118E+01  0.74076207376E+01 -0.71276942787E+01  0.13236802935E+02  0.51100000000E-03 0. -1.
        -11    1    3    3    0    0 -0.26227251446E+01  0.14848098017E+02 -0.11265254833E+02  0.18821547987E+02  0.51100000000E-03 0.  1.
         12    1    3    3    0    0 -0.14023141807E+02  0.68713074072E+01 -0.18803000513E+01  0.15728919223E+02  0.00000000000E+00 0. -1.
</event>
<event>
 7    1  0.4450624E-010  0.4778727E+02  0.7816164E-02  0.1312668E+00
        -11   -1    0    0    0    0  0.00000000000E+00  0.00000000000E+00  0.45593999997E+02  0.45594000000E+02  0.51100000000E-03 0.  1.
         11   -1    0    0    0    0 -0.00000000000E+00 -0.00000000000E+00 -0.45593999997E+02  0.45594000000E+02  0.51100000000E-03 0. -1.
    9900012    2    1    2    0    0 -0.39737202452E+02 -0.57698382277E+00  0.17442621684E+02  0.47787271662E+02  0.20000002816E+02 0.  0.
         12    1    1    2    0    0  0.39737202452E+02  0.57698382277E+00 -0.17442621684E+02  0.43400728338E+02  0.00000000000E+00 0. -1.
         11    1    3    3    0    0  0.43276210089E+00  0.98813345985E+00 -0.13561785799E+00  0.10872365129E+01  0.51100000000E-03 0. -1.
        -11    1    3    3    0    0 -0.13148416600E+02  0.69541257834E+01  0.49043084766E+01  0.15661831515E+02  0.51100000000E-03 0.  1.
        -12    1    3    3    0    0 -0.27021547953E+02 -0.85192430660E+01  0.12673931066E+02  0.31038203634E+02  0.00000000000E+00 0.  1.
</event>
<event>
 7    1  0.4450624E-010  0.4778727E+02  0.7816164E-02  0.1312668E+00
        -11   -1    0    0    0    0  0.00000000000E+00  0.00000000000E+00  0.45593999997E+02  0.45594000000E+02  0.51100000000E-03 0. -1.
         11   -1    0    0    0    0 -0.00000000000E+00 -0.00000000000E+00 -0.45593999997E+02  0.45594000000E+02  0.51100000000E-03 0.  1.
    9900012    2    1    2    0    0  0.40949478601E+02 -0.12203419196E+02  0.76052439225E+01  0.47787274512E+02  0.20000015812E+02 0.  0.
         12    1    1    2    0    0 -0.40949478601E+02  0.12203419196E+02 -0.76052439225E+01  0.43400725488E+02  0.00000000000E+00 0. -1.
         11    1    3    3    0    0  0.13361199349E+02  0.34086710770E+01  0.24546001275E+01  0.14005918342E+02  0.51100000000E-03 0. -1.
        -11    1    3    3    0    0  0.83155578496E+01  0.38600593500E+00  0.85684526217E+00  0.83684937113E+01  0.51100000000E-03 0.  1.
         12    1    3    3    0    0  0.19272721402E+02 -0.15998096208E+02  0.42937985328E+01  0.25412862459E+02  0.00000000000E+00 0. -1.
</event>
<event>
 7    1  0.4450624E-010  0.4778727E+02  0.7816164E-02  0.1312668E+00
        -11   -1    0    0    0    0  0.00000000000E+00  0.00000000000E+00  0.45593999997E+02  0.45594000000E+02  0.51100000000E-03 0.  1.
         11   -1    0    0    0    0 -0.00000000000E+00 -0.00000000000E+00 -0.45593999997E+02  0.45594000000E+02  0.51100000000E-03 0. -1.
    9900012    2    1    2    0    0 -0.24167883544E+01 -0.36774657782E+02  0.22921762695E+02  0.47787268140E+02  0.19999986758E+02 0.  0.
         12    1    1    2    0    0  0.24167883544E+01  0.36774657782E+02 -0.22921762695E+02  0.43400731860E+02  0.00000000000E+00 0. -1.
         11    1    3    3    0    0  0.15121469827E+01 -0.21277529469E+01 -0.19444152481E+01  0.32549457781E+01  0.51100000000E-03 0. -1.
        -11    1    3    3    0    0 -0.60988331058E+01 -0.78256844411E+01  0.82775786979E+01  0.12921122691E+02  0.51100000000E-03 0.  1.
         12    1    3    3    0    0  0.21698977686E+01 -0.26821220394E+02  0.16588599245E+02  0.31611199671E+02  0.00000000000E+00 0. -1.
</event>
<event>
 7    1  0.4450624E-010  0.4778727E+02  0.7816164E-02  0.1312668E+00
        -11   -1    0    0    0    0  0.00000000000E+00  0.00000000000E+00  0.45593999997E+02  0.45594000000E+02  0.51100000000E-03 0. -1.
         11   -1    0    0    0    0 -0.00000000000E+00 -0.00000000000E+00 -0.45593999997E+02  0.45594000000E+02  0.51100000000E-03 0.  1.
    9900012    2    1    2    0    0 -0.40651507132E+02 -0.11802110004E+02 -0.95806252252E+01  0.47787271753E+02  0.20000003232E+02 0.  0.
         12    1    1    2    0    0  0.40651507132E+02  0.11802110004E+02  0.95806252252E+01  0.43400728247E+02  0.00000000000E+00 0. -1.
         11    1    3    3    0    0 -0.32070655091E+01  0.17654385761E+01 -0.30857419070E+00  0.36738618425E+01  0.51100000000E-03 0. -1.
        -11    1    3    3    0    0 -0.24484863596E+02 -0.14273172760E+02 -0.31355449956E+00  0.28343082447E+02  0.51100000000E-03 0.  1.
        -12    1    3    3    0    0 -0.12959578027E+02  0.70562418063E+00 -0.89584965349E+01  0.15770327463E+02  0.00000000000E+00 0.  1.
</event>
<event>
 7    1  0.4450624E-010  0.4778727E+02  0.7816164E-02  0.1312668E+00
        -11   -1    0    0    0    0  0.00000000000E+00  0.00000000000E+00  0.45593999997E+02  0.45594000000E+02  0.51100000000E-03 0.  1.
         11   -1    0    0    0    0 -0.00000000000E+00 -0.00000000000E+00 -0.45593999997E+02  0.45594000000E+02  0.51100000000E-03 0. -1.
    9900012    2    1    2    0    0 -0.64711079442E+01 -0.27296139863E+02  0.33115990136E+02  0.47787270834E+02  0.19999999040E+02 0.  0.
         12    1    1    2    0    0  0.64711079442E+01  0.27296139863E+02 -0.33115990136E+02  0.43400729166E+02  0.00000000000E+00 0. -1.
         11    1    3    3    0    0 -0.93473882583E+00 -0.67443999663E+01  0.69358845869E+01  0.97194219397E+01  0.51100000000E-03 0. -1.
        -11    1    3    3    0    0 -0.42145244914E+01 -0.10883992879E+02  0.25783425488E+02  0.28302094407E+02  0.51100000000E-03 0.  1.
         12    1    3    3    0    0 -0.13218446269E+01 -0.96677470183E+01  0.39668006093E+00  0.97657544869E+01  0.00000000000E+00 0. -1.
</event>
<event>
 7    1  0.4450624E-010  0.4778727E+02  0.7816164E-02  0.1312668E+00
        -11   -1    0    0    0    0  0.00000000000E+00  0.00000000000E+00  0.45593999997E+02  0.45594000000E+02  0.51100000000E-03 0.  1.
         11   -1    0    0    0    0 -0.00000000000E+00 -0.00000000000E+00 -0.45593999997E+02  0.45594000000E+02  0.51100000000E-03 0. -1.
    9900012    2    1    2    0    0  0.19008099566E+02 -0.27608388301E+02  0.27569768700E+02  0.47787273049E+02  0.20000009141E+02 0.  0.
         12    1    1    2    0    0 -0.19008099566E+02  0.27608388301E+02 -0.27569768700E+02  0.43400726951E+02  0.00000000000E+00 0. -1.
         11    1    3    3    0    0 -0.53150750991E+00 -0.10767707941E+02  0.10203109237E+02  0.14843499348E+02  0.51100000000E-03 0.  1.
        -11    1    3    3    0    0  0.51230137799E+01 -0.88390214325E+01  0.20108799104E+01  0.10412358443E+02  0.51100000000E-03 0. -1.
         12    1    3    3    0    0  0.14416593296E+02 -0.80016589266E+01  0.15355779553E+02  0.22531415258E+02  0.00000000000E+00 0. -1.
</event>
<event>
 7    1  0.4450624E-010  0.4778727E+02  0.7816164E-02  0.1312668E+00
        -11   -1    0    0    0    0  0.00000000000E+00  0.00000000000E+00  0.45593999997E+02  0.45594000000E+02  0.51100000000E-03 0.  1.
         11   -1    0    0    0    0 -0.00000000000E+00 -0.00000000000E+00 -0.45593999997E+02  0.45594000000E+02  0.51100000000E-03 0. -1.
    9900012    2    1    2    0    0  0.82525775335E+01 -0.14411930987E+02  0.40097562080E+02  0.47787271026E+02  0.19999999915E+02 0.  0.
         12    1    1    2    0    0 -0.82525775335E+01  0.14411930987E+02 -0.40097562080E+02  0.43400728974E+02  0.00000000000E+00 0. -1.
         11    1    3    3    0    0 -0.99104516809E+00  0.62120471984E+00  0.52119260702E+01  0.53415577738E+01  0.51100000000E-03 0. -1.
        -11    1    3    3    0    0  0.11497452367E+02 -0.90601928415E+01  0.12764885209E+02  0.19422172894E+02  0.51100000000E-03 0.  1.
        -12    1    3    3    0    0 -0.22538296652E+01 -0.59729428652E+01  0.22120750801E+02  0.23023540359E+02  0.00000000000E+00 0.  1.
</event>
<event>
 7    1  0.4450624E-010  0.4778727E+02  0.7816164E-02  0.1312668E+00
        -11   -1    0    0    0    0  0.00000000000E+00  0.00000000000E+00  0.45593999997E+02  0.45594000000E+02  0.51100000000E-03 0. -1.
         11   -1    0    0    0    0 -0.00000000000E+00 -0.00000000000E+00 -0.45593999997E+02  0.45594000000E+02  0.51100000000E-03 0.  1.
    9900012    2    1    2    0    0 -0.35914495377E+02 -0.17344719880E+02 -0.17115282536E+02  0.47787272100E+02  0.20000004814E+02 0.  0.
         12    1    1    2    0    0  0.35914495377E+02  0.17344719880E+02  0.17115282536E+02  0.43400727900E+02  0.00000000000E+00 0. -1.
         11    1    3    3    0    0 -0.33482587392E+01 -0.92932061536E+01 -0.55146609345E+01  0.11313089882E+02  0.51100000000E-03 0. -1.
        -11    1    3    3    0    0 -0.21084744583E+01  0.15702503421E+01 -0.11160810021E+01  0.28560440723E+01  0.51100000000E-03 0.  1.
        -12    1    3    3    0    0 -0.30457762180E+02 -0.96217640686E+01 -0.10484540600E+02  0.33618138146E+02  0.00000000000E+00 0.  1.
</event>
<event>
 7    1  0.4450624E-010  0.4778727E+02  0.7816164E-02  0.1312668E+00
        -11   -1    0    0    0    0  0.00000000000E+00  0.00000000000E+00  0.45593999997E+02  0.45594000000E+02  0.51100000000E-03 0. -1.
         11   -1    0    0    0    0 -0.00000000000E+00 -0.00000000000E+00 -0.45593999997E+02  0.45594000000E+02  0.51100000000E-03 0.  1.
    9900012    2    1    2    0    0  0.17709017237E+02 -0.37613510198E+02 -0.12459443305E+02  0.47787272260E+02  0.20000005541E+02 0.  0.
         12    1    1    2    0    0 -0.17709017237E+02  0.37613510198E+02  0.12459443305E+02  0.43400727740E+02  0.00000000000E+00 0. -1.
         11    1    3    3    0    0  0.76958003345E+01 -0.78733522132E+01 -0.44444348675E+01  0.11872995385E+02  0.51100000000E-03 0. -1.
        -11    1    3    3    0    0  0.30797984999E+01 -0.20357114775E+02 -0.11698015552E+02  0.23679967249E+02  0.51100000000E-03 0.  1.
         12    1    3    3    0    0  0.69334184025E+01 -0.93830432097E+01  0.36830071147E+01  0.12234309626E+02  0.00000000000E+00 0. -1.
</event>
<event>
 7    1  0.4450624E-010  0.4778727E+02  0.7816164E-02  0.1312668E+00
        -11   -1    0    0    0    0  0.00000000000E+00  0.00000000000E+00  0.45593999997E+02  0.45594000000E+02  0.51100000000E-03 0.  1.
         11   -1    0    0    0    0 -0.00000000000E+00 -0.00000000000E+00 -0.45593999997E+02  0.45594000000E+02  0.51100000000E-03 0. -1.
    9900012    2    1    2    0    0  0.36823129317E+02 -0.30414213701E+01  0.22769058310E+02  0.47787272898E+02  0.20000008453E+02 0.  0.
         12    1    1    2    0    0 -0.36823129317E+02  0.30414213701E+01 -0.22769058310E+02  0.43400727102E+02  0.00000000000E+00 0. -1.
         11    1    3    3    0    0  0.59239370377E+01 -0.66119926402E+01  0.48282519364E+01  0.10105616939E+02  0.51100000000E-03 0. -1.
        -11    1    3    3    0    0  0.19361060774E+02 -0.25194167503E+01  0.72946610404E+01  0.20842509806E+02  0.51100000000E-03 0.  1.
         12    1    3    3    0    0  0.11538131505E+02  0.60899880204E+01  0.10646145333E+02  0.16839146153E+02  0.00000000000E+00 0. -1.
</event>
<event>
 7    1  0.4450624E-010  0.4778727E+02  0.7816164E-02  0.1312668E+00
        -11   -1    0    0    0    0  0.00000000000E+00  0.00000000000E+00  0.45593999997E+02  0.45594000000E+02  0.51100000000E-03 0. -1.
         11   -1    0    0    0    0 -0.00000000000E+00 -0.00000000000E+00 -0.45593999997E+02  0.45594000000E+02  0.51100000000E-03 0.  1.
    9900012    2    1    2    0    0 -0.29101657478E+01  0.30863773321E+02 -0.30374030458E+02  0.47787270806E+02  0.19999998914E+02 0.  0.
         12    1    1    2    0    0  0.29101657478E+01 -0.30863773321E+02  0.30374030458E+02  0.43400729194E+02  0.00000000000E+00 0. -1.
         11    1    3    3    0    0  0.10307887386E+01  0.22419043795E+01 -0.45555885046E+01  0.51809311474E+01  0.51100000000E-03 0. -1.
        -11    1    3    3    0    0 -0.12987335070E+01  0.28701717011E+02 -0.27251469840E+02  0.39599468138E+02  0.51100000000E-03 0.  1.
         12    1    3    3    0    0 -0.26422209794E+01 -0.79848069992E-01  0.14330278866E+01  0.30068715207E+01  0.00000000000E+00 0. -1.
</event>
<event>
 7    1  0.4450624E-010  0.4778727E+02  0.7816164E-02  0.1312668E+00
        -11   -1    0    0    0    0  0.00000000000E+00  0.00000000000E+00  0.45593999997E+02  0.45594000000E+02  0.51100000000E-03 0.  1.
         11   -1    0    0    0    0 -0.00000000000E+00 -0.00000000000E+00 -0.45593999997E+02  0.45594000000E+02  0.51100000000E-03 0. -1.
    9900012    2    1    2    0    0 -0.20126440566E+02  0.35945167161E+02  0.13656306644E+02  0.47787270015E+02  0.19999995307E+02 0.  0.
         12    1    1    2    0    0  0.20126440566E+02 -0.35945167161E+02 -0.13656306644E+02  0.43400729985E+02  0.00000000000E+00 0. -1.
         11    1    3    3    0    0  0.85087305384E+00  0.10556449045E+01 -0.16548726629E+01  0.21393865732E+01  0.51100000000E-03 0. -1.
        -11    1    3    3    0    0 -0.67630765654E+01  0.18613242966E+02  0.12019399681E+01  0.19840279188E+02  0.51100000000E-03 0.  1.
        -12    1    3    3    0    0 -0.14214237054E+02  0.16276279291E+02  0.14109239339E+02  0.25807604253E+02  0.00000000000E+00 0.  1.
</event>
<event>
 7    1  0.4450624E-010  0.4778728E+02  0.7816164E-02  0.1312668E+00
        -11   -1    0    0    0    0  0.00000000000E+00  0.00000000000E+00  0.45593999997E+02  0.45594000000E+02  0.51100000000E-03 0.  1.
         11   -1    0    0    0    0 -0.00000000000E+00 -0.00000000000E+00 -0.45593999997E+02  0.45594000000E+02  0.51100000000E-03 0. -1.
    9900012    2    1    2    0    0 -0.31299368566E+01  0.26981185038E+02  0.33850287698E+02  0.47787276181E+02  0.20000023418E+02 0.  0.
         12    1    1    2    0    0  0.31299368566E+01 -0.26981185038E+02 -0.33850287698E+02  0.43400723819E+02  0.00000000000E+00 0. -1.
         11    1    3    3    0    0  0.12195466837E+01  0.37504714528E+01  0.10708342819E+02  0.11411482656E+02  0.51100000000E-03 0. -1.
        -11    1    3    3    0    0  0.28716218437E-02 -0.18503005062E+01  0.43740691054E+01  0.47493263743E+01  0.51100000000E-03 0.  1.
        -12    1    3    3    0    0 -0.43523551621E+01  0.25081014092E+02  0.18767875774E+02  0.31626467150E+02  0.00000000000E+00 0.  1.
</event>
<event>
 7    1  0.4450624E-010  0.4778727E+02  0.7816164E-02  0.1312668E+00
        -11   -1    0    0    0    0  0.00000000000E+00  0.00000000000E+00  0.45593999997E+02  0.45594000000E+02  0.51100000000E-03 0.  1.
         11   -1    0    0    0    0 -0.00000000000E+00 -0.00000000000E+00 -0.45593999997E+02  0.45594000000E+02  0.51100000000E-03 0. -1.
    9900012    2    1    2    0    0 -0.18834949949E+02 -0.77240072548E+01  0.38330244752E+02  0.47787270854E+02  0.19999999132E+02 0.  0.
         12    1    1    2    0    0  0.18834949949E+02  0.77240072548E+01 -0.38330244752E+02  0.43400729146E+02  0.00000000000E+00 0. -1.
         11    1    3    3    0    0 -0.22376458866E+01 -0.45570712488E+01  0.92270355033E+01  0.10531483368E+02  0.51100000000E-03 0. -1.
        -11    1    3    3    0    0 -0.19381220168E+02 -0.82893207986E+00  0.26218667944E+02  0.32614986933E+02  0.51100000000E-03 0.  1.
         12    1    3    3    0    0  0.27839161057E+01 -0.23380039262E+01  0.28845413042E+01  0.46408005536E+01  0.00000000000E+00 0. -1.
</event>
<event>
 7    1  0.4450624E-010  0.4778727E+02  0.7816164E-02  0.1312668E+00
        -11   -1    0    0    0    0  0.00000000000E+00  0.00000000000E+00  0.45593999997E+02  0.45594000000E+02  0.51100000000E-03 0. -1.
         11   -1    0    0    0    0 -0.00000000000E+00 -0.00000000000E+00 -0.45593999997E+02  0.45594000000E+02  0.51100000000E-03 0.  1.
    9900012    2    1    2    0    0 -0.38341366877E+02 -0.58960503427E+01  0.19462773444E+02  0.47787269894E+02  0.19999994753E+02 0.  0.
         12    1    1    2    0    0  0.38341366877E+02  0.58960503427E+01 -0.19462773444E+02  0.43400730106E+02  0.00000000000E+00 0. -1.
         11    1    3    3    0    0 -0.24485653762E+02 -0.12214846268E+02  0.84778671281E+01  0.28646534534E+02  0.51100000000E-03 0. -1.
        -11    1    3    3    0    0 -0.42748935883E+01  0.42244989906E+00  0.19766612729E+01  0.47286752011E+01  0.51100000000E-03 0.  1.
         12    1    3    3    0    0 -0.95808195268E+01  0.58963460260E+01  0.90082450429E+01  0.14412060159E+02  0.00000000000E+00 0. -1.
</event>
<event>
 7    1  0.4450624E-010  0.4778727E+02  0.7816164E-02  0.1312668E+00
        -11   -1    0    0    0    0  0.00000000000E+00  0.00000000000E+00  0.45593999997E+02  0.45594000000E+02  0.51100000000E-03 0. -1.
         11   -1    0    0    0    0 -0.00000000000E+00 -0.00000000000E+00 -0.45593999997E+02  0.45594000000E+02  0.51100000000E-03 0.  1.
    9900012    2    1    2    0    0 -0.32113367180E+02 -0.12757004700E+01 -0.29167239493E+02  0.47787267023E+02  0.19999981665E+02 0.  0.
         12    1    1    2    0    0  0.32113367180E+02  0.12757004700E+01  0.29167239493E+02  0.43400732977E+02  0.00000000000E+00 0. -1.
         11    1    3    3    0    0 -0.19323363516E+02 -0.87769260001E-01 -0.14996101282E+02  0.24459826961E+02  0.51100000000E-03 0. -1.
        -11    1    3    3    0    0 -0.13773347413E+02  0.30488907888E+01 -0.99198632003E+01  0.17245420267E+02  0.51100000000E-03 0.  1.
         12    1    3    3    0    0  0.98334374965E+00 -0.42368219988E+01 -0.42512750104E+01  0.60820197955E+01  0.00000000000E+00 0. -1.
</event>
<event>
 7    1  0.4450624E-010  0.4778727E+02  0.7816164E-02  0.1312668E+00
        -11   -1    0    0    0    0  0.00000000000E+00  0.00000000000E+00  0.45593999997E+02  0.45594000000E+02  0.51100000000E-03 0. -1.
         11   -1    0    0    0    0 -0.00000000000E+00 -0.00000000000E+00 -0.45593999997E+02  0.45594000000E+02  0.51100000000E-03 0.  1.
    9900012    2    1    2    0    0  0.24980990736E+02  0.33999751846E+02 -0.10177915585E+02  0.47787274322E+02  0.20000014945E+02 0.  0.
         12    1    1    2    0    0 -0.24980990736E+02 -0.33999751846E+02  0.10177915585E+02  0.43400725678E+02  0.00000000000E+00 0. -1.
         11    1    3    3    0    0  0.18570260659E+02  0.15888895418E+02 -0.32621489468E+01  0.24656706888E+02  0.51100000000E-03 0. -1.
        -11    1    3    3    0    0  0.72889317008E+01  0.79003851940E+01 -0.70971976012E+01  0.12880792895E+02  0.51100000000E-03 0.  1.
         12    1    3    3    0    0 -0.87820162430E+00  0.10210471234E+02  0.18143096327E+00  0.10249774539E+02  0.00000000000E+00 0. -1.
</event>
<event>
 7    1  0.4450624E-010  0.4778727E+02  0.7816164E-02  0.1312668E+00
        -11   -1    0    0    0    0  0.00000000000E+00  0.00000000000E+00  0.45593999997E+02  0.45594000000E+02  0.51100000000E-03 0.  1.
         11   -1    0    0    0    0 -0.00000000000E+00 -0.00000000000E+00 -0.45593999997E+02  0.45594000000E+02  0.51100000000E-03 0. -1.
    9900012    2    1    2    0    0 -0.36134144313E+02 -0.21940229673E+02  0.98271680655E+01  0.47787270795E+02  0.19999998862E+02 0.  0.
         12    1    1    2    0    0  0.36134144313E+02  0.21940229673E+02 -0.98271680655E+01  0.43400729205E+02  0.00000000000E+00 0. -1.
         11    1    3    3    0    0 -0.14177309486E+02 -0.50771789516E+01  0.16495454757E+01  0.15149087462E+02  0.51100000000E-03 0. -1.
        -11    1    3    3    0    0 -0.88578559537E+01 -0.11202038392E+01  0.82527265906E+01  0.12158287921E+02  0.51100000000E-03 0.  1.
        -12    1    3    3    0    0 -0.13098978873E+02 -0.15742846882E+02 -0.75104000766E-01  0.20479895412E+02  0.00000000000E+00 0.  1.
</event>
<event>
 7    1  0.4450624E-010  0.4778732E+02  0.7816164E-02  0.1312668E+00
        -11   -1    0    0    0    0  0.00000000000E+00  0.00000000000E+00  0.45593999997E+02  0.45594000000E+02  0.51100000000E-03 0.  1.
         11   -1    0    0    0    0 -0.00000000000E+00 -0.00000000000E+00 -0.45593999997E+02  0.45594000000E+02  0.51100000000E-03 0. -1.
    9900012    2    1    2    0    0  0.17914752868E+02 -0.37866437670E+02  0.11349588579E+02  0.47787324509E+02  0.20000243766E+02 0.  0.
         12    1    1    2    0    0 -0.17914752868E+02  0.37866437670E+02 -0.11349588579E+02  0.43400675491E+02  0.00000000000E+00 0. -1.
         11    1    3    3    0    0  0.63455346202E+01 -0.12928742207E+02  0.52622961451E+01  0.15333295329E+02  0.51100000000E-03 0. -1.
        -11    1    3    3    0    0  0.10100134011E+02 -0.21334461970E+02  0.11119838692E+02  0.26092581079E+02  0.51100000000E-03 0.  1.
         12    1    3    3    0    0  0.14690842365E+01 -0.36032334934E+01 -0.50325462579E+01  0.63614481008E+01  0.00000000000E+00 0. -1.
</event>
<event>
 7    1  0.4450624E-010  0.4778728E+02  0.7816164E-02  0.1312668E+00
        -11   -1    0    0    0    0  0.00000000000E+00  0.00000000000E+00  0.45593999997E+02  0.45594000000E+02  0.51100000000E-03 0. -1.
         11   -1    0    0    0    0 -0.00000000000E+00 -0.00000000000E+00 -0.45593999997E+02  0.45594000000E+02  0.51100000000E-03 0.  1.
    9900012    2    1    2    0    0 -0.23877258005E+02 -0.25309557873E+02 -0.25940809492E+02  0.47787276887E+02  0.20000026641E+02 0.  0.
         12    1    1    2    0    0  0.23877258005E+02  0.25309557873E+02  0.25940809492E+02  0.43400723113E+02  0.00000000000E+00 0. -1.
         11    1    3    3    0    0 -0.75878134530E+01 -0.47677761063E+01 -0.13512606003E+02  0.16214102604E+02  0.51100000000E-03 0. -1.
        -11    1    3    3    0    0 -0.62528313862E+00 -0.40244203966E+00 -0.49222408967E+01  0.49780914320E+01  0.51100000000E-03 0.  1.
        -12    1    3    3    0    0 -0.15664161414E+02 -0.20139339727E+02 -0.75059625922E+01  0.26595082851E+02  0.00000000000E+00 0.  1.
</event>
<event>
 7    1  0.4450624E-010  0.4778727E+02  0.7816164E-02  0.1312668E+00
        -11   -1    0    0    0    0  0.00000000000E+00  0.00000000000E+00  0.45593999997E+02  0.45594000000E+02  0.51100000000E-03 0.  1.
         11   -1    0    0    0    0 -0.00000000000E+00 -0.00000000000E+00 -0.45593999997E+02  0.45594000000E+02  0.51100000000E-03 0. -1.
    9900012    2    1    2    0    0 -0.21363946780E+01  0.41454790891E+02  0.12671212304E+02  0.47787268539E+02  0.19999988578E+02 0.  0.
         12    1    1    2    0    0  0.21363946780E+01 -0.41454790891E+02 -0.12671212304E+02  0.43400731461E+02  0.00000000000E+00 0. -1.
         11    1    3    3    0    0 -0.45231779364E+01  0.22256021865E+02  0.14888458674E+02  0.27156138346E+02  0.51100000000E-03 0. -1.
        -11    1    3    3    0    0  0.26751841252E+01  0.14566793917E+02  0.12131329948E+01  0.14860006294E+02  0.51100000000E-03 0.  1.
         12    1    3    3    0    0 -0.28840086675E+00  0.46319751091E+01 -0.34303793655E+01  0.57711238994E+01  0.00000000000E+00 0. -1.
</event>
<event>
 7    1  0.4450624E-010  0.4778727E+02  0.7816164E-02  0.1312668E+00
        -11   -1    0    0    0    0  0.00000000000E+00  0.00000000000E+00  0.45593999997E+02  0.45594000000E+02  0.51100000000E-03 0.  1.
         11   -1    0    0    0    0 -0.00000000000E+00 -0.00000000000E+00 -0.45593999997E+02  0.45594000000E+02  0.51100000000E-03 0. -1.
    9900012    2    1    2    0    0 -0.71862781008E+01 -0.20205014398E+02  0.37732456592E+02  0.47787268667E+02  0.19999989159E+02 0.  0.
         12    1    1    2    0    0  0.71862781008E+01  0.20205014398E+02 -0.37732456592E+02  0.43400731333E+02  0.00000000000E+00 0. -1.
         11    1    3    3    0    0 -0.41186955536E+01 -0.40922155541E+01  0.52849888414E+01  0.78511775244E+01  0.51100000000E-03 0. -1.
        -11    1    3    3    0    0 -0.37066996138E+01 -0.14574996666E+02  0.34295760515E+02  0.37448222113E+02  0.51100000000E-03 0.  1.
        -12    1    3    3    0    0  0.63911706666E+00 -0.15378021784E+01 -0.18482927644E+01  0.24878690294E+01  0.00000000000E+00 0.  1.
</event>
<event>
 7    1  0.4450624E-010  0.4778727E+02  0.7816164E-02  0.1312668E+00
        -11   -1    0    0    0    0  0.00000000000E+00  0.00000000000E+00  0.45593999997E+02  0.45594000000E+02  0.51100000000E-03 0.  1.
         11   -1    0    0    0    0 -0.00000000000E+00 -0.00000000000E+00 -0.45593999997E+02  0.45594000000E+02  0.51100000000E-03 0. -1.
    9900012    2    1    2    0    0 -0.29939545397E+02 -0.17396408952E+02  0.26165097136E+02  0.47787265777E+02  0.19999975982E+02 0.  0.
         12    1    1    2    0    0  0.29939545397E+02  0.17396408952E+02 -0.26165097136E+02  0.43400734223E+02  0.00000000000E+00 0. -1.
         11    1    3    3    0    0 -0.96989931972E+01 -0.39593965620E+01 -0.47130048371E+00  0.10486630278E+02  0.51100000000E-03 0. -1.
        -11    1    3    3    0    0 -0.13362489881E+02 -0.10415768640E+02  0.11725359755E+02  0.20604087794E+02  0.51100000000E-03 0.  1.
        -12    1    3    3    0    0 -0.68780623186E+01 -0.30212437498E+01  0.14911037865E+02  0.16696547705E+02  0.00000000000E+00 0.  1.
</event>
<event>
 7    1  0.4450624E-010  0.4778728E+02  0.7816164E-02  0.1312668E+00
        -11   -1    0    0    0    0  0.00000000000E+00  0.00000000000E+00  0.45593999997E+02  0.45594000000E+02  0.51100000000E-03 0.  1.
         11   -1    0    0    0    0 -0.00000000000E+00 -0.00000000000E+00 -0.45593999997E+02  0.45594000000E+02  0.51100000000E-03 0. -1.
    9900012    2    1    2    0    0 -0.10242777337E+02 -0.26894751838E+02  0.32486620323E+02  0.47787278071E+02  0.20000032036E+02 0.  0.
         12    1    1    2    0    0  0.10242777337E+02  0.26894751838E+02 -0.32486620323E+02  0.43400721929E+02  0.00000000000E+00 0. -1.
         11    1    3    3    0    0  0.10510430303E+01 -0.11742980299E+01  0.27302947033E+01  0.31524873898E+01  0.51100000000E-03 0. -1.
        -11    1    3    3    0    0  0.38221904906E+01 -0.12174862000E+02  0.90846618857E+01  0.15664210376E+02  0.51100000000E-03 0.  1.
         12    1    3    3    0    0 -0.15116010858E+02 -0.13545591808E+02  0.20671663734E+02  0.28970580305E+02  0.00000000000E+00 0. -1.
</event>
<event>
 7    1  0.4450624E-010  0.4778730E+02  0.7816164E-02  0.1312668E+00
        -11   -1    0    0    0    0  0.00000000000E+00  0.00000000000E+00  0.45593999997E+02  0.45594000000E+02  0.51100000000E-03 0.  1.
         11   -1    0    0    0    0 -0.00000000000E+00 -0.00000000000E+00 -0.45593999997E+02  0.45594000000E+02  0.51100000000E-03 0. -1.
    9900012    2    1    2    0    0 -0.13949020193E+02 -0.38683431684E+02  0.13879404560E+02  0.47787298138E+02  0.20000123528E+02 0.  0.
         12    1    1    2    0    0  0.13949020193E+02  0.38683431684E+02 -0.13879404560E+02  0.43400701862E+02  0.00000000000E+00 0. -1.
         11    1    3    3    0    0 -0.36289838382E+01 -0.19893712455E+02  0.14781929200E+02  0.25048647670E+02  0.51100000000E-03 0. -1.
        -11    1    3    3    0    0  0.72770192645E+00 -0.46090134660E+01  0.57694096402E+00  0.47016397523E+01  0.51100000000E-03 0.  1.
         12    1    3    3    0    0 -0.11047738282E+02 -0.14180705763E+02 -0.14794656040E+01  0.18037010715E+02  0.00000000000E+00 0. -1.
</event>
<event>
 7    1  0.4450624E-010  0.4778727E+02  0.7816164E-02  0.1312668E+00
        -11   -1    0    0    0    0  0.00000000000E+00  0.00000000000E+00  0.45593999997E+02  0.45594000000E+02  0.51100000000E-03 0. -1.
         11   -1    0    0    0    0 -0.00000000000E+00 -0.00000000000E+00 -0.45593999997E+02  0.45594000000E+02  0.51100000000E-03 0.  1.
    9900012    2    1    2    0    0  0.10360965580E+02 -0.22537248678E+02 -0.35613844718E+02  0.47787272802E+02  0.20000008011E+02 0.  0.
         12    1    1    2    0    0 -0.10360965580E+02  0.22537248678E+02  0.35613844718E+02  0.43400727198E+02  0.00000000000E+00 0. -1.
         11    1    3    3    0    0  0.56140270375E+01 -0.19665040717E+02 -0.14695298824E+02  0.25182988976E+02  0.51100000000E-03 0. -1.
        -11    1    3    3    0    0  0.30568432830E+01 -0.44623779415E+01 -0.18404853130E+02  0.19183214714E+02  0.51100000000E-03 0.  1.
        -12    1    3    3    0    0  0.16900952597E+01  0.15901699805E+01 -0.25136927639E+01  0.34210691114E+01  0.00000000000E+00 0.  1.
</event>
<event>
 7    1  0.4450624E-010  0.4778728E+02  0.7816164E-02  0.1312668E+00
        -11   -1    0    0    0    0  0.00000000000E+00  0.00000000000E+00  0.45593999997E+02  0.45594000000E+02  0.51100000000E-03 0. -1.
         11   -1    0    0    0    0 -0.00000000000E+00 -0.00000000000E+00 -0.45593999997E+02  0.45594000000E+02  0.51100000000E-03 0.  1.
    9900012    2    1    2    0    0 -0.22266531044E+02  0.37146169765E+02 -0.28259655665E+01  0.47787280947E+02  0.20000045150E+02 0.  0.
         12    1    1    2    0    0  0.22266531044E+02 -0.37146169765E+02  0.28259655665E+01  0.43400719053E+02  0.00000000000E+00 0. -1.
         11    1    3    3    0    0 -0.32703170186E+00  0.16401541644E+02  0.12444433229E+01  0.16451934764E+02  0.51100000000E-03 0. -1.
        -11    1    3    3    0    0 -0.10474491910E+02  0.50552242228E+01 -0.11967598688E+01  0.11691984740E+02  0.51100000000E-03 0.  1.
        -12    1    3    3    0    0 -0.11465007432E+02  0.15689403898E+02 -0.28736490206E+01  0.19643361443E+02  0.00000000000E+00 0.  1.
</event>
<event>
 7    1  0.4450624E-010  0.4778727E+02  0.7816164E-02  0.1312668E+00
        -11   -1    0    0    0    0  0.00000000000E+00  0.00000000000E+00  0.45593999997E+02  0.45594000000E+02  0.51100000000E-03 0.  1.
         11   -1    0    0    0    0 -0.00000000000E+00 -0.00000000000E+00 -0.45593999997E+02  0.45594000000E+02  0.51100000000E-03 0. -1.
    9900012    2    1    2    0    0  0.23315125592E+02  0.35867721999E+02 -0.73167301968E+01  0.47787273006E+02  0.20000008945E+02 0.  0.
         12    1    1    2    0    0 -0.23315125592E+02 -0.35867721999E+02  0.73167301968E+01  0.43400726994E+02  0.00000000000E+00 0. -1.
         11    1    3    3    0    0  0.75252175400E+00  0.29119357462E+01  0.35725225995E+01  0.46699653923E+01  0.51100000000E-03 0. -1.
        -11    1    3    3    0    0  0.13225042086E+00  0.66759824832E+01  0.60551918578E+00  0.67046913453E+01  0.51100000000E-03 0.  1.
        -12    1    3    3    0    0  0.22430353417E+02  0.26279803770E+02 -0.11494771982E+02  0.36412616269E+02  0.00000000000E+00 0.  1.
</event>
<event>
 7    1  0.4450624E-010  0.4778727E+02  0.7816164E-02  0.1312668E+00
        -11   -1    0    0    0    0  0.00000000000E+00  0.00000000000E+00  0.45593999997E+02  0.45594000000E+02  0.51100000000E-03 0.  1.
         11   -1    0    0    0    0 -0.00000000000E+00 -0.00000000000E+00 -0.45593999997E+02  0.45594000000E+02  0.51100000000E-03 0. -1.
    9900012    2    1    2    0    0  0.37155663971E+02  0.70629248439E+01  0.21288372388E+02  0.47787273377E+02  0.20000010636E+02 0.  0.
         12    1    1    2    0    0 -0.37155663971E+02 -0.70629248439E+01 -0.21288372388E+02  0.43400726623E+02  0.00000000000E+00 0. -1.
         11    1    3    3    0    0  0.23466098148E+02  0.55896138742E+01  0.13768564132E+02  0.27775437063E+02  0.51100000000E-03 0. -1.
        -11    1    3    3    0    0  0.32801064904E+01  0.42969462333E+01  0.74765287240E+01  0.92261220208E+01  0.51100000000E-03 0.  1.
         12    1    3    3    0    0  0.10409459333E+02 -0.28236352636E+01  0.43279532413E-01  0.10785714293E+02  0.00000000000E+00 0. -1.
</event>
<event>
 7    1  0.4450624E-010  0.4778727E+02  0.7816164E-02  0.1312668E+00
        -11   -1    0    0    0    0  0.00000000000E+00  0.00000000000E+00  0.45593999997E+02  0.45594000000E+02  0.51100000000E-03 0.  1.
         11   -1    0    0    0    0 -0.00000000000E+00 -0.00000000000E+00 -0.45593999997E+02  0.45594000000E+02  0.51100000000E-03 0. -1.
    9900012    2    1    2    0    0 -0.36965839153E+02 -0.15221879524E+02  0.16895107680E+02  0.47787267931E+02  0.19999985806E+02 0.  0.
         12    1    1    2    0    0  0.36965839153E+02  0.15221879524E+02 -0.16895107680E+02  0.43400732069E+02  0.00000000000E+00 0. -1.
         11    1    3    3    0    0 -0.42337317149E+01 -0.82904311352E+01  0.58072318960E+01  0.10971767187E+02  0.51100000000E-03 0. -1.
        -11    1    3    3    0    0 -0.14091715489E+01 -0.27897197908E+01  0.26881915738E+01  0.41224598438E+01  0.51100000000E-03 0.  1.
        -12    1    3    3    0    0 -0.31322935890E+02 -0.41417285983E+01  0.83996842105E+01  0.32693040901E+02  0.00000000000E+00 0.  1.
</event>
<event>
 7    1  0.4450624E-010  0.4778727E+02  0.7816164E-02  0.1312668E+00
        -11   -1    0    0    0    0  0.00000000000E+00  0.00000000000E+00  0.45593999997E+02  0.45594000000E+02  0.51100000000E-03 0. -1.
         11   -1    0    0    0    0 -0.00000000000E+00 -0.00000000000E+00 -0.45593999997E+02  0.45594000000E+02  0.51100000000E-03 0.  1.
    9900012    2    1    2    0    0 -0.37466353417E+02  0.78603686656E+00 -0.21892413216E+02  0.47787271334E+02  0.20000001320E+02 0.  0.
         12    1    1    2    0    0  0.37466353417E+02 -0.78603686656E+00  0.21892413216E+02  0.43400728666E+02  0.00000000000E+00 0. -1.
         11    1    3    3    0    0 -0.16946497138E+02  0.47647388648E+01 -0.78712963448E+01  0.19283252011E+02  0.51100000000E-03 0. -1.
        -11    1    3    3    0    0 -0.18669274445E+02 -0.27729278755E+01 -0.54388667540E+01  0.19642102971E+02  0.51100000000E-03 0.  1.
         12    1    3    3    0    0 -0.18505818340E+01 -0.12057741227E+01 -0.85822501172E+01  0.88619163522E+01  0.00000000000E+00 0. -1.
</event>
<event>
 7    1  0.4450624E-010  0.4778727E+02  0.7816164E-02  0.1312668E+00
        -11   -1    0    0    0    0  0.00000000000E+00  0.00000000000E+00  0.45593999997E+02  0.45594000000E+02  0.51100000000E-03 0. -1.
         11   -1    0    0    0    0 -0.00000000000E+00 -0.00000000000E+00 -0.45593999997E+02  0.45594000000E+02  0.51100000000E-03 0.  1.
    9900012    2    1    2    0    0  0.34189453888E+02  0.90080381769E+01 -0.25170610913E+02  0.47787272326E+02  0.20000005841E+02 0.  0.
         12    1    1    2    0    0 -0.34189453888E+02 -0.90080381769E+01  0.25170610913E+02  0.43400727674E+02  0.00000000000E+00 0. -1.
         11    1    3    3    0    0  0.26402361169E+01 -0.34677371379E+01 -0.46858932016E+01  0.63995033376E+01  0.51100000000E-03 0. -1.
        -11    1    3    3    0    0  0.86800614771E+00  0.35628360930E+01 -0.49570742606E+00  0.37004002232E+01  0.51100000000E-03 0.  1.
         12    1    3    3    0    0  0.30681211623E+02  0.89129392217E+01 -0.19989010285E+02  0.37687368765E+02  0.00000000000E+00 0. -1.
</event>
<event>
 7    1  0.4450624E-010  0.4778727E+02  0.7816164E-02  0.1312668E+00
        -11   -1    0    0    0    0  0.00000000000E+00  0.00000000000E+00  0.45593999997E+02  0.45594000000E+02  0.51100000000E-03 0.  1.
         11   -1    0    0    0    0 -0.00000000000E+00 -0.00000000000E+00 -0.45593999997E+02  0.45594000000E+02  0.51100000000E-03 0. -1.
    9900012    2    1    2    0    0 -0.38979692885E+02 -0.22333047524E+01  0.18953079654E+02  0.47787270329E+02  0.19999996740E+02 0.  0.
         12    1    1    2    0    0  0.38979692885E+02  0.22333047524E+01 -0.18953079654E+02  0.43400729671E+02  0.00000000000E+00 0. -1.
         11    1    3    3    0    0  0.14148601555E+00 -0.19399138804E+01 -0.17751843625E+01  0.26333560219E+01  0.51100000000E-03 0. -1.
        -11    1    3    3    0    0 -0.76459815989E-01  0.85358979062E+00 -0.13856231474E+00  0.86813674631E+00  0.51100000000E-03 0.  1.
        -12    1    3    3    0    0 -0.39044719085E+02 -0.11469806626E+01  0.20866826331E+02  0.44285777561E+02  0.00000000000E+00 0.  1.
</event>
<event>
 7    1  0.4450624E-010  0.4778727E+02  0.7816164E-02  0.1312668E+00
        -11   -1    0    0    0    0  0.00000000000E+00  0.00000000000E+00  0.45593999997E+02  0.45594000000E+02  0.51100000000E-03 0.  1.
         11   -1    0    0    0    0 -0.00000000000E+00 -0.00000000000E+00 -0.45593999997E+02  0.45594000000E+02  0.51100000000E-03 0. -1.
    9900012    2    1    2    0    0 -0.88381437129E+01  0.72139448197E+01  0.41874448691E+02  0.47787271465E+02  0.20000001919E+02 0.  0.
         12    1    1    2    0    0  0.88381437129E+01 -0.72139448197E+01 -0.41874448691E+02  0.43400728535E+02  0.00000000000E+00 0. -1.
         11    1    3    3    0    0 -0.50886469734E+01 -0.27440409169E+01  0.39262316397E+01  0.69885179919E+01  0.51100000000E-03 0. -1.
        -11    1    3    3    0    0  0.32995190622E+01  0.77441041456E+00  0.78220138645E+01  0.85246958121E+01  0.51100000000E-03 0.  1.
        -12    1    3    3    0    0 -0.70490158017E+01  0.91835753220E+01  0.30126203187E+02  0.32274057661E+02  0.00000000000E+00 0.  1.
</event>
<event>
 7    1  0.4450624E-010  0.4778727E+02  0.7816164E-02  0.1312668E+00
        -11   -1    0    0    0    0  0.00000000000E+00  0.00000000000E+00  0.45593999997E+02  0.45594000000E+02  0.51100000000E-03 0. -1.
         11   -1    0    0    0    0 -0.00000000000E+00 -0.00000000000E+00 -0.45593999997E+02  0.45594000000E+02  0.51100000000E-03 0.  1.
    9900012    2    1    2    0    0  0.38970255554E+02 -0.12443768466E+02 -0.14494661315E+02  0.47787269612E+02  0.19999993467E+02 0.  0.
         12    1    1    2    0    0 -0.38970255554E+02  0.12443768466E+02  0.14494661315E+02  0.43400730388E+02  0.00000000000E+00 0. -1.
         11    1    3    3    0    0  0.17692691389E+01  0.17535815664E+01  0.12171756411E+01  0.27725220285E+01  0.51100000000E-03 0. -1.
        -11    1    3    3    0    0  0.15149728597E+01 -0.50237347105E+01 -0.10088972901E+01  0.53433067674E+01  0.51100000000E-03 0.  1.
        -12    1    3    3    0    0  0.35686013556E+02 -0.91736153222E+01 -0.14702939666E+02  0.39671440816E+02  0.00000000000E+00 0.  1.
</event>
<event>
 7    1  0.4450624E-010  0.4778727E+02  0.7816164E-02  0.1312668E+00
        -11   -1    0    0    0    0  0.00000000000E+00  0.00000000000E+00  0.45593999997E+02  0.45594000000E+02  0.51100000000E-03 0.  1.
         11   -1    0    0    0    0 -0.00000000000E+00 -0.00000000000E+00 -0.45593999997E+02  0.45594000000E+02  0.51100000000E-03 0. -1.
    9900012    2    1    2    0    0  0.23209160276E+02  0.12219385873E+02  0.34578099635E+02  0.47787268598E+02  0.19999988848E+02 0.  0.
         12    1    1    2    0    0 -0.23209160276E+02 -0.12219385873E+02 -0.34578099635E+02  0.43400731402E+02  0.00000000000E+00 0. -1.
         11    1    3    3    0    0  0.38839884201E+01  0.13926626314E+01  0.56511011580E+01  0.69971293979E+01  0.51100000000E-03 0. -1.
        -11    1    3    3    0    0  0.22640062415E+02  0.10703626294E+02  0.23020673994E+02  0.34016047292E+02  0.51100000000E-03 0.  1.
         12    1    3    3    0    0 -0.33148905593E+01  0.12309694761E+00  0.59063244833E+01  0.67740919082E+01  0.00000000000E+00 0. -1.
</event>
<event>
 7    1  0.4450624E-010  0.4778727E+02  0.7816164E-02  0.1312668E+00
        -11   -1    0    0    0    0  0.00000000000E+00  0.00000000000E+00  0.45593999997E+02  0.45594000000E+02  0.51100000000E-03 0. -1.
         11   -1    0    0    0    0 -0.00000000000E+00 -0.00000000000E+00 -0.45593999997E+02  0.45594000000E+02  0.51100000000E-03 0.  1.
    9900012    2    1    2    0    0  0.98770183873E+01  0.28263244920E+02 -0.31420643808E+02  0.47787270018E+02  0.19999995320E+02 0.  0.
         12    1    1    2    0    0 -0.98770183873E+01 -0.28263244920E+02  0.31420643808E+02  0.43400729982E+02  0.00000000000E+00 0. -1.
         11    1    3    3    0    0  0.78803607110E+00  0.11721426221E+02 -0.19172668639E+02  0.22485641118E+02  0.51100000000E-03 0.  1.
        -11    1    3    3    0    0  0.36677887014E+01 -0.83874470189E+00 -0.33476540783E+01  0.50361646838E+01  0.51100000000E-03 0. -1.
         12    1    3    3    0    0  0.54211936148E+01  0.17380563401E+02 -0.89003210909E+01  0.20265464216E+02  0.00000000000E+00 0. -1.
</event>
<event>
 7    1  0.4450624E-010  0.4778727E+02  0.7816164E-02  0.1312668E+00
        -11   -1    0    0    0    0  0.00000000000E+00  0.00000000000E+00  0.45593999997E+02  0.45594000000E+02  0.51100000000E-03 0.  1.
         11   -1    0    0    0    0 -0.00000000000E+00 -0.00000000000E+00 -0.45593999997E+02  0.45594000000E+02  0.51100000000E-03 0. -1.
    9900012    2    1    2    0    0 -0.22302775962E+02  0.34984323543E+01  0.37067108073E+02  0.47787270220E+02  0.19999996242E+02 0.  0.
         12    1    1    2    0    0  0.22302775962E+02 -0.34984323543E+01 -0.37067108073E+02  0.43400729780E+02  0.00000000000E+00 0. -1.
         11    1    3    3    0    0 -0.28982436405E+01 -0.32708072792E+01  0.14899534891E+01  0.46171374376E+01  0.51100000000E-03 0. -1.
        -11    1    3    3    0    0 -0.22181453465E+01  0.77007562813E+00  0.16998771835E+02  0.17160169853E+02  0.51100000000E-03 0.  1.
        -12    1    3    3    0    0 -0.17186386975E+02  0.59991640054E+01  0.18578382749E+02  0.26009962929E+02  0.00000000000E+00 0.  1.
</event>
<event>
 7    1  0.4450624E-010  0.4778727E+02  0.7816164E-02  0.1312668E+00
        -11   -1    0    0    0    0  0.00000000000E+00  0.00000000000E+00  0.45593999997E+02  0.45594000000E+02  0.51100000000E-03 0.  1.
         11   -1    0    0    0    0 -0.00000000000E+00 -0.00000000000E+00 -0.45593999997E+02  0.45594000000E+02  0.51100000000E-03 0. -1.
    9900012    2    1    2    0    0 -0.88138315260E+01  0.41523383707E+02  0.90415003618E+01  0.47787265566E+02  0.19999975020E+02 0.  0.
         12    1    1    2    0    0  0.88138315260E+01 -0.41523383707E+02 -0.90415003618E+01  0.43400734434E+02  0.00000000000E+00 0. -1.
         11    1    3    3    0    0 -0.88489634020E+00  0.31418914563E+01  0.30780244996E+01  0.44865085019E+01  0.51100000000E-03 0. -1.
        -11    1    3    3    0    0 -0.55970460205E+01  0.38336965777E+02  0.86969233615E+01  0.39707509936E+02  0.51100000000E-03 0.  1.
         12    1    3    3    0    0 -0.23318891653E+01  0.44526473826E-01 -0.27334474994E+01  0.35932471273E+01  0.00000000000E+00 0. -1.
</event>
<event>
 7    1  0.4450624E-010  0.4778730E+02  0.7816164E-02  0.1312668E+00
        -11   -1    0    0    0    0  0.00000000000E+00  0.00000000000E+00  0.45593999997E+02  0.45594000000E+02  0.51100000000E-03 0.  1.
         11   -1    0    0    0    0 -0.00000000000E+00 -0.00000000000E+00 -0.45593999997E+02  0.45594000000E+02  0.51100000000E-03 0. -1.
    9900012    2    1    2    0    0  0.18061368957E+02 -0.21032825602E+02  0.33392035079E+02  0.47787299451E+02  0.20000129518E+02 0.  0.
         12    1    1    2    0    0 -0.18061368957E+02  0.21032825602E+02 -0.33392035079E+02  0.43400700549E+02  0.00000000000E+00 0. -1.
         11    1    3    3    0    0  0.33631626010E+00 -0.84421790716E+01  0.84611705921E+01  0.11957211387E+02  0.51100000000E-03 0. -1.
        -11    1    3    3    0    0  0.14667358983E+02 -0.13776052615E+02  0.25519181382E+02  0.32498302477E+02  0.51100000000E-03 0.  1.
         12    1    3    3    0    0  0.30576937137E+01  0.11854060846E+01 -0.58831689557E+00  0.33317855876E+01  0.00000000000E+00 0. -1.
</event>
<event>
 7    1  0.4450624E-010  0.4778727E+02  0.7816164E-02  0.1312668E+00
        -11   -1    0    0    0    0  0.00000000000E+00  0.00000000000E+00  0.45593999997E+02  0.45594000000E+02  0.51100000000E-03 0.  1.
         11   -1    0    0    0    0 -0.00000000000E+00 -0.00000000000E+00 -0.45593999997E+02  0.45594000000E+02  0.51100000000E-03 0. -1.
    9900012    2    1    2    0    0 -0.80270201717E+00 -0.42739875959E+02 -0.75021244241E+01  0.47787271914E+02  0.20000003965E+02 0.  0.
         12    1    1    2    0    0  0.80270201717E+00  0.42739875959E+02  0.75021244241E+01  0.43400728086E+02  0.00000000000E+00 0. -1.
         11    1    3    3    0    0  0.29344181720E+01 -0.34331782818E+01  0.12298176787E+01  0.46808092149E+01  0.51100000000E-03 0.  1.
        -11    1    3    3    0    0 -0.67340845036E+01 -0.70669628369E+01 -0.96525464425E+00  0.98092596371E+01  0.51100000000E-03 0. -1.
        -12    1    3    3    0    0  0.29969643144E+01 -0.32239734840E+02 -0.77666874586E+01  0.33297203062E+02  0.00000000000E+00 0.  1.
</event>
<event>
 7    1  0.4450624E-010  0.4778722E+02  0.7816164E-02  0.1312668E+00
        -11   -1    0    0    0    0  0.00000000000E+00  0.00000000000E+00  0.45593999997E+02  0.45594000000E+02  0.51100000000E-03 0. -1.
         11   -1    0    0    0    0 -0.00000000000E+00 -0.00000000000E+00 -0.45593999997E+02  0.45594000000E+02  0.51100000000E-03 0.  1.
    9900012    2    1    2    0    0 -0.10079625250E+01 -0.43350767975E+02 -0.18228154866E+01  0.47787219721E+02  0.19999765996E+02 0.  0.
         12    1    1    2    0    0  0.10079625250E+01  0.43350767975E+02  0.18228154866E+01  0.43400780279E+02  0.00000000000E+00 0. -1.
         11    1    3    3    0    0  0.47316228677E+00 -0.72097920986E+00  0.19934152171E+01  0.21719571956E+01  0.51100000000E-03 0. -1.
        -11    1    3    3    0    0  0.42941444281E+01 -0.82306608338E+01  0.35963480554E+01  0.99557608311E+01  0.51100000000E-03 0.  1.
        -12    1    3    3    0    0 -0.57752692399E+01 -0.34399127932E+02 -0.74125787590E+01  0.35659501695E+02  0.00000000000E+00 0.  1.
</event>
<event>
 7    1  0.4450624E-010  0.4778727E+02  0.7816164E-02  0.1312668E+00
        -11   -1    0    0    0    0  0.00000000000E+00  0.00000000000E+00  0.45593999997E+02  0.45594000000E+02  0.51100000000E-03 0.  1.
         11   -1    0    0    0    0 -0.00000000000E+00 -0.00000000000E+00 -0.45593999997E+02  0.45594000000E+02  0.51100000000E-03 0. -1.
    9900012    2    1    2    0    0  0.34471756130E+02 -0.37382779385E+01  0.26102615834E+02  0.47787271365E+02  0.20000001462E+02 0.  0.
         12    1    1    2    0    0 -0.34471756130E+02  0.37382779385E+01 -0.26102615834E+02  0.43400728635E+02  0.00000000000E+00 0. -1.
         11    1    3    3    0    0  0.12699497862E+02 -0.13058013726E+01  0.30309573843E+01  0.13121321050E+02  0.51100000000E-03 0. -1.
        -11    1    3    3    0    0  0.14231101020E+02 -0.22931991793E+00  0.52165022968E+01  0.15158783604E+02  0.51100000000E-03 0.  1.
         12    1    3    3    0    0  0.75411572485E+01 -0.22031566480E+01  0.17855156153E+02  0.19507166712E+02  0.00000000000E+00 0. -1.
</event>
<event>
 7    1  0.4450624E-010  0.4778727E+02  0.7816164E-02  0.1312668E+00
        -11   -1    0    0    0    0  0.00000000000E+00  0.00000000000E+00  0.45593999997E+02  0.45594000000E+02  0.51100000000E-03 0.  1.
         11   -1    0    0    0    0 -0.00000000000E+00 -0.00000000000E+00 -0.45593999997E+02  0.45594000000E+02  0.51100000000E-03 0. -1.
    9900012    2    1    2    0    0 -0.37285172157E+02  0.16420961771E+02  0.14959648331E+02  0.47787272743E+02  0.20000007743E+02 0.  0.
         12    1    1    2    0    0  0.37285172157E+02 -0.16420961771E+02 -0.14959648331E+02  0.43400727257E+02  0.00000000000E+00 0. -1.
         11    1    3    3    0    0 -0.95441518844E+01  0.10561229343E+01  0.11079541178E+02  0.14661598269E+02  0.51100000000E-03 0. -1.
        -11    1    3    3    0    0 -0.65673352181E+00  0.11430109307E+01 -0.15729439528E+01  0.20522976991E+01  0.51100000000E-03 0.  1.
        -12    1    3    3    0    0 -0.27084286751E+02  0.14221827906E+02  0.54530511066E+01  0.31073376774E+02  0.00000000000E+00 0.  1.
</event>
<event>
 7    1  0.4450624E-010  0.4778727E+02  0.7816164E-02  0.1312668E+00
        -11   -1    0    0    0    0  0.00000000000E+00  0.00000000000E+00  0.45593999997E+02  0.45594000000E+02  0.51100000000E-03 0. -1.
         11   -1    0    0    0    0 -0.00000000000E+00 -0.00000000000E+00 -0.45593999997E+02  0.45594000000E+02  0.51100000000E-03 0.  1.
    9900012    2    1    2    0    0 -0.28214794162E+02 -0.32883474215E+02 -0.24951249764E+01  0.47787272648E+02  0.20000007311E+02 0.  0.
         12    1    1    2    0    0  0.28214794162E+02  0.32883474215E+02  0.24951249764E+01  0.43400727352E+02  0.00000000000E+00 0. -1.
         11    1    3    3    0    0 -0.16583661500E+02 -0.85159830153E+01 -0.29947676710E+01  0.18881430802E+02  0.51100000000E-03 0. -1.
        -11    1    3    3    0    0 -0.10692492901E+02 -0.13710032743E+02 -0.30119414080E+01  0.17645571500E+02  0.51100000000E-03 0.  1.
         12    1    3    3    0    0 -0.93863976075E+00 -0.10657458456E+02  0.35115841026E+01  0.11260270346E+02  0.00000000000E+00 0. -1.
</event>
<event>
 7    1  0.4450624E-010  0.4778727E+02  0.7816164E-02  0.1312668E+00
        -11   -1    0    0    0    0  0.00000000000E+00  0.00000000000E+00  0.45593999997E+02  0.45594000000E+02  0.51100000000E-03 0. -1.
         11   -1    0    0    0    0 -0.00000000000E+00 -0.00000000000E+00 -0.45593999997E+02  0.45594000000E+02  0.51100000000E-03 0.  1.
    9900012    2    1    2    0    0  0.10088540570E+02 -0.29863328702E+02 -0.29833307238E+02  0.47787271058E+02  0.20000000062E+02 0.  0.
         12    1    1    2    0    0 -0.10088540570E+02  0.29863328702E+02  0.29833307238E+02  0.43400728942E+02  0.00000000000E+00 0. -1.
         11    1    3    3    0    0  0.99225926001E+00 -0.50947320202E+01 -0.77526295967E+01  0.93297448369E+01  0.51100000000E-03 0. -1.
        -11    1    3    3    0    0  0.43044879066E+00  0.23100856900E+01  0.16751706773E+00  0.23558107491E+01  0.51100000000E-03 0.  1.
        -12    1    3    3    0    0  0.86658325189E+01 -0.27078682371E+02 -0.22248194709E+02  0.36101715472E+02  0.00000000000E+00 0.  1.
</event>
<event>
 7    1  0.4450624E-010  0.4778727E+02  0.7816164E-02  0.1312668E+00
        -11   -1    0    0    0    0  0.00000000000E+00  0.00000000000E+00  0.45593999997E+02  0.45594000000E+02  0.51100000000E-03 0. -1.
         11   -1    0    0    0    0 -0.00000000000E+00 -0.00000000000E+00 -0.45593999997E+02  0.45594000000E+02  0.51100000000E-03 0.  1.
    9900012    2    1    2    0    0 -0.11760193883E+02 -0.25284712436E+02 -0.33256639926E+02  0.47787274864E+02  0.20000017414E+02 0.  0.
         12    1    1    2    0    0  0.11760193883E+02  0.25284712436E+02  0.33256639926E+02  0.43400725136E+02  0.00000000000E+00 0. -1.
         11    1    3    3    0    0 -0.35459228965E+01 -0.63800788176E+01 -0.22477389480E+01  0.76374934073E+01  0.51100000000E-03 0. -1.
        -11    1    3    3    0    0 -0.10635700238E+02 -0.81522731464E+01 -0.11130180733E+02  0.17420063158E+02  0.51100000000E-03 0.  1.
         12    1    3    3    0    0  0.24214292516E+01 -0.10752360472E+02 -0.19878720245E+02  0.22729718299E+02  0.00000000000E+00 0. -1.
</event>
<event>
 7    1  0.4450624E-010  0.4778727E+02  0.7816164E-02  0.1312668E+00
        -11   -1    0    0    0    0  0.00000000000E+00  0.00000000000E+00  0.45593999997E+02  0.45594000000E+02  0.51100000000E-03 0.  1.
         11   -1    0    0    0    0 -0.00000000000E+00 -0.00000000000E+00 -0.45593999997E+02  0.45594000000E+02  0.51100000000E-03 0. -1.
    9900012    2    1    2    0    0  0.17733159616E+02 -0.89083783845E+01  0.38597917824E+02  0.47787269410E+02  0.19999992546E+02 0.  0.
         12    1    1    2    0    0 -0.17733159616E+02  0.89083783845E+01 -0.38597917824E+02  0.43400730590E+02  0.00000000000E+00 0. -1.
         11    1    3    3    0    0  0.18995816314E+01  0.35435982142E+01  0.88327090100E+01  0.97047538554E+01  0.51100000000E-03 0. -1.
        -11    1    3    3    0    0  0.64183118722E+01  0.18027081151E+01  0.80024327381E+01  0.10415537136E+02  0.51100000000E-03 0.  1.
        -12    1    3    3    0    0  0.94152661129E+01 -0.14254684714E+02  0.21762776076E+02  0.27666978418E+02  0.00000000000E+00 0.  1.
</event>
<event>
 7    1  0.4450624E-010  0.4778727E+02  0.7816164E-02  0.1312668E+00
        -11   -1    0    0    0    0  0.00000000000E+00  0.00000000000E+00  0.45593999997E+02  0.45594000000E+02  0.51100000000E-03 0.  1.
         11   -1    0    0    0    0 -0.00000000000E+00 -0.00000000000E+00 -0.45593999997E+02  0.45594000000E+02  0.51100000000E-03 0. -1.
    9900012    2    1    2    0    0 -0.31768497661E+02  0.29554977179E+02 -0.94286784763E+00  0.47787272823E+02  0.20000008109E+02 0.  0.
         12    1    1    2    0    0  0.31768497661E+02 -0.29554977179E+02  0.94286784763E+00  0.43400727177E+02  0.00000000000E+00 0. -1.
         11    1    3    3    0    0 -0.13288640115E+02  0.20695891225E+02  0.26929600317E+01  0.24741865404E+02  0.51100000000E-03 0. -1.
        -11    1    3    3    0    0 -0.14745399556E+01  0.48427376601E+01 -0.21799793316E+01  0.55116863366E+01  0.51100000000E-03 0.  1.
        -12    1    3    3    0    0 -0.17005317591E+02  0.40163482939E+01 -0.14558485477E+01  0.17533721082E+02  0.00000000000E+00 0.  1.
</event>
<event>
 7    1  0.4450624E-010  0.4778727E+02  0.7816164E-02  0.1312668E+00
        -11   -1    0    0    0    0  0.00000000000E+00  0.00000000000E+00  0.45593999997E+02  0.45594000000E+02  0.51100000000E-03 0.  1.
         11   -1    0    0    0    0 -0.00000000000E+00 -0.00000000000E+00 -0.45593999997E+02  0.45594000000E+02  0.51100000000E-03 0. -1.
    9900012    2    1    2    0    0 -0.22118613300E+02  0.29165355159E+01  0.37227464071E+02  0.47787270572E+02  0.19999997846E+02 0.  0.
         12    1    1    2    0    0  0.22118613300E+02 -0.29165355159E+01 -0.37227464071E+02  0.43400729428E+02  0.00000000000E+00 0. -1.
         11    1    3    3    0    0 -0.48554618361E+00  0.28478478482E+01  0.28962928037E+01  0.40907828992E+01  0.51100000000E-03 0.  1.
        -11    1    3    3    0    0 -0.20285490990E+02  0.58369514483E+01  0.26720238345E+02  0.34052052572E+02  0.51100000000E-03 0. -1.
         12    1    3    3    0    0 -0.13475761265E+01 -0.57682637805E+01  0.76109329224E+01  0.96444351005E+01  0.00000000000E+00 0. -1.
</event>
<event>
 7    1  0.4450624E-010  0.4778730E+02  0.7816164E-02  0.1312668E+00
        -11   -1    0    0    0    0  0.00000000000E+00  0.00000000000E+00  0.45593999997E+02  0.45594000000E+02  0.51100000000E-03 0. -1.
         11   -1    0    0    0    0 -0.00000000000E+00 -0.00000000000E+00 -0.45593999997E+02  0.45594000000E+02  0.51100000000E-03 0.  1.
    9900012    2    1    2    0    0 -0.21442898500E+02  0.28344050401E+02 -0.24908593627E+02  0.47787295793E+02  0.20000112838E+02 0.  0.
         12    1    1    2    0    0  0.21442898500E+02 -0.28344050401E+02  0.24908593627E+02  0.43400704207E+02  0.00000000000E+00 0. -1.
         11    1    3    3    0    0 -0.10819376634E+02  0.64590531366E+01 -0.14742897624E+02  0.19394105001E+02  0.51100000000E-03 0. -1.
        -11    1    3    3    0    0 -0.43191847647E+01  0.82720881565E+01 -0.95889579975E+01  0.13380243467E+02  0.51100000000E-03 0.  1.
        -12    1    3    3    0    0 -0.63043371018E+01  0.13612909107E+02 -0.57673800524E+00  0.15012947325E+02  0.00000000000E+00 0.  1.
</event>
<event>
 7    1  0.4450624E-010  0.4778730E+02  0.7816164E-02  0.1312668E+00
        -11   -1    0    0    0    0  0.00000000000E+00  0.00000000000E+00  0.45593999997E+02  0.45594000000E+02  0.51100000000E-03 0.  1.
         11   -1    0    0    0    0 -0.00000000000E+00 -0.00000000000E+00 -0.45593999997E+02  0.45594000000E+02  0.51100000000E-03 0. -1.
    9900012    2    1    2    0    0 -0.17885486077E+01 -0.20182138216E+02  0.38381031445E+02  0.47787295122E+02  0.20000109781E+02 0.  0.
         12    1    1    2    0    0  0.17885486077E+01  0.20182138216E+02 -0.38381031445E+02  0.43400704878E+02  0.00000000000E+00 0. -1.
         11    1    3    3    0    0  0.56337846362E+01 -0.93085083778E+01  0.16229231467E+02  0.19539084211E+02  0.51100000000E-03 0. -1.
        -11    1    3    3    0    0 -0.12115890774E+00  0.16445762706E+01  0.73523851880E+01  0.75350433844E+01  0.51100000000E-03 0.  1.
        -12    1    3    3    0    0 -0.73011743361E+01 -0.12518206109E+02  0.14799414790E+02  0.20713167527E+02  0.00000000000E+00 0.  1.
</event>
<event>
 7    1  0.4450624E-010  0.4778727E+02  0.7816164E-02  0.1312668E+00
        -11   -1    0    0    0    0  0.00000000000E+00  0.00000000000E+00  0.45593999997E+02  0.45594000000E+02  0.51100000000E-03 0.  1.
         11   -1    0    0    0    0 -0.00000000000E+00 -0.00000000000E+00 -0.45593999997E+02  0.45594000000E+02  0.51100000000E-03 0. -1.
    9900012    2    1    2    0    0  0.12964695293E+01 -0.43235835999E+02  0.35503308326E+01  0.47787271932E+02  0.20000004048E+02 0.  0.
         12    1    1    2    0    0 -0.12964695293E+01  0.43235835999E+02 -0.35503308326E+01  0.43400728068E+02  0.00000000000E+00 0. -1.
         11    1    3    3    0    0  0.46880783444E+01 -0.27855377235E+01  0.79725616812E+00  0.55111629109E+01  0.51100000000E-03 0. -1.
        -11    1    3    3    0    0  0.15955524518E-01 -0.27264920769E+02 -0.31244030378E+01  0.27443360832E+02  0.51100000000E-03 0.  1.
        -12    1    3    3    0    0 -0.34075643396E+01 -0.13185377506E+02  0.58774777023E+01  0.14832748190E+02  0.00000000000E+00 0.  1.
</event>
<event>
 7    1  0.4450624E-010  0.4778727E+02  0.7816164E-02  0.1312668E+00
        -11   -1    0    0    0    0  0.00000000000E+00  0.00000000000E+00  0.45593999997E+02  0.45594000000E+02  0.51100000000E-03 0.  1.
         11   -1    0    0    0    0 -0.00000000000E+00 -0.00000000000E+00 -0.45593999997E+02  0.45594000000E+02  0.51100000000E-03 0. -1.
    9900012    2    1    2    0    0 -0.19731340567E+02 -0.11232588594E+02  0.36988194238E+02  0.47787270051E+02  0.19999995469E+02 0.  0.
         12    1    1    2    0    0  0.19731340567E+02  0.11232588594E+02 -0.36988194238E+02  0.43400729949E+02  0.00000000000E+00 0. -1.
         11    1    3    3    0    0 -0.58032246880E+01 -0.75562576138E+01  0.14440862203E+02  0.17300663205E+02  0.51100000000E-03 0. -1.
        -11    1    3    3    0    0 -0.56707416944E+01 -0.57656412593E+01  0.20035991709E+02  0.21606501210E+02  0.51100000000E-03 0.  1.
        -12    1    3    3    0    0 -0.82573741849E+01  0.20893102792E+01  0.25113403264E+01  0.88801056361E+01  0.00000000000E+00 0.  1.
</event>
<event>
 7    1  0.4450624E-010  0.4778728E+02  0.7816164E-02  0.1312668E+00
        -11   -1    0    0    0    0  0.00000000000E+00  0.00000000000E+00  0.45593999997E+02  0.45594000000E+02  0.51100000000E-03 0.  1.
         11   -1    0    0    0    0 -0.00000000000E+00 -0.00000000000E+00 -0.45593999997E+02  0.45594000000E+02  0.51100000000E-03 0. -1.
    9900012    2    1    2    0    0 -0.42970304317E+02  0.33577433183E+01 -0.50893197002E+01  0.47787278021E+02  0.20000031811E+02 0.  0.
         12    1    1    2    0    0  0.42970304317E+02 -0.33577433183E+01  0.50893197002E+01  0.43400721979E+02  0.00000000000E+00 0. -1.
         11    1    3    3    0    0 -0.19418698643E+00  0.37134749634E+01  0.61080462263E-01  0.37190504129E+01  0.51100000000E-03 0. -1.
        -11    1    3    3    0    0 -0.71706986014E+01  0.29958396998E+01 -0.26788548304E+01  0.82201117634E+01  0.51100000000E-03 0.  1.
        -12    1    3    3    0    0 -0.35605418729E+02 -0.33515713449E+01 -0.24715453321E+01  0.35848115845E+02  0.00000000000E+00 0.  1.
</event>
<event>
 7    1  0.4450624E-010  0.4778727E+02  0.7816164E-02  0.1312668E+00
        -11   -1    0    0    0    0  0.00000000000E+00  0.00000000000E+00  0.45593999997E+02  0.45594000000E+02  0.51100000000E-03 0.  1.
         11   -1    0    0    0    0 -0.00000000000E+00 -0.00000000000E+00 -0.45593999997E+02  0.45594000000E+02  0.51100000000E-03 0. -1.
    9900012    2    1    2    0    0  0.34850822058E+02  0.51750959228E+01  0.25342882386E+02  0.47787273007E+02  0.20000008946E+02 0.  0.
         12    1    1    2    0    0 -0.34850822058E+02 -0.51750959228E+01 -0.25342882386E+02  0.43400726993E+02  0.00000000000E+00 0. -1.
         11    1    3    3    0    0  0.21260114806E+02  0.16266260581E+01  0.42612086030E+01  0.21743879435E+02  0.51100000000E-03 0. -1.
        -11    1    3    3    0    0  0.31868651114E+01  0.28488176482E+01  0.31853322534E+01  0.53308735735E+01  0.51100000000E-03 0.  1.
        -12    1    3    3    0    0  0.10403842141E+02  0.69965221650E+00  0.17896341529E+02  0.20712519998E+02  0.00000000000E+00 0.  1.
</event>
<event>
 7    1  0.4450624E-010  0.4778729E+02  0.7816164E-02  0.1312668E+00
        -11   -1    0    0    0    0  0.00000000000E+00  0.00000000000E+00  0.45593999997E+02  0.45594000000E+02  0.51100000000E-03 0.  1.
         11   -1    0    0    0    0 -0.00000000000E+00 -0.00000000000E+00 -0.45593999997E+02  0.45594000000E+02  0.51100000000E-03 0. -1.
    9900012    2    1    2    0    0 -0.10102811147E+02  0.21636565188E+02  0.36241055355E+02  0.47787287570E+02  0.20000075347E+02 0.  0.
         12    1    1    2    0    0  0.10102811147E+02 -0.21636565188E+02 -0.36241055355E+02  0.43400712430E+02  0.00000000000E+00 0. -1.
         11    1    3    3    0    0 -0.46292124104E+00 -0.21992182521E+01  0.83004644058E+01  0.85993352423E+01  0.51100000000E-03 0. -1.
        -11    1    3    3    0    0  0.16410042848E+01  0.82601392222E+00  0.15671727992E+01  0.24147929323E+01  0.51100000000E-03 0.  1.
        -12    1    3    3    0    0 -0.11280894191E+02  0.23009769518E+02  0.26373418150E+02  0.36773159395E+02  0.00000000000E+00 0.  1.
</event>
<event>
 7    1  0.4450624E-010  0.4778727E+02  0.7816164E-02  0.1312668E+00
        -11   -1    0    0    0    0  0.00000000000E+00  0.00000000000E+00  0.45593999997E+02  0.45594000000E+02  0.51100000000E-03 0. -1.
         11   -1    0    0    0    0 -0.00000000000E+00 -0.00000000000E+00 -0.45593999997E+02  0.45594000000E+02  0.51100000000E-03 0.  1.
    9900012    2    1    2    0    0  0.13659074456E+02  0.34352479670E+01 -0.41051826928E+02  0.47787265700E+02  0.19999975634E+02 0.  0.
         12    1    1    2    0    0 -0.13659074456E+02 -0.34352479670E+01  0.41051826928E+02  0.43400734300E+02  0.00000000000E+00 0. -1.
         11    1    3    3    0    0 -0.91516419238E+00  0.99529996462E+00 -0.10971215611E+01  0.17412132263E+01  0.51100000000E-03 0. -1.
        -11    1    3    3    0    0 -0.35882193782E+01 -0.72216437035E+00 -0.29413468414E+01  0.46955682495E+01  0.51100000000E-03 0.  1.
        -12    1    3    3    0    0  0.18162458027E+02  0.31621123728E+01 -0.37013358526E+02  0.41350484224E+02  0.00000000000E+00 0.  1.
</event>
<event>
 7    1  0.4450624E-010  0.4778727E+02  0.7816164E-02  0.1312668E+00
        -11   -1    0    0    0    0  0.00000000000E+00  0.00000000000E+00  0.45593999997E+02  0.45594000000E+02  0.51100000000E-03 0. -1.
         11   -1    0    0    0    0 -0.00000000000E+00 -0.00000000000E+00 -0.45593999997E+02  0.45594000000E+02  0.51100000000E-03 0.  1.
    9900012    2    1    2    0    0 -0.42258178943E+02  0.54734771760E+01 -0.82407878789E+01  0.47787271609E+02  0.20000002575E+02 0.  0.
         12    1    1    2    0    0  0.42258178943E+02 -0.54734771760E+01  0.82407878789E+01  0.43400728391E+02  0.00000000000E+00 0. -1.
         11    1    3    3    0    0 -0.16845561964E+01  0.14258855846E+01 -0.65119436188E+01  0.68757755370E+01  0.51100000000E-03 0. -1.
        -11    1    3    3    0    0 -0.99935383018E+01  0.14099532402E+01  0.73434630408E+00  0.10119191701E+02  0.51100000000E-03 0.  1.
        -12    1    3    3    0    0 -0.30580084445E+02  0.26376383513E+01 -0.24631905641E+01  0.30792304371E+02  0.00000000000E+00 0.  1.
</event>
<event>
 7    1  0.4450624E-010  0.4778730E+02  0.7816164E-02  0.1312668E+00
        -11   -1    0    0    0    0  0.00000000000E+00  0.00000000000E+00  0.45593999997E+02  0.45594000000E+02  0.51100000000E-03 0.  1.
         11   -1    0    0    0    0 -0.00000000000E+00 -0.00000000000E+00 -0.45593999997E+02  0.45594000000E+02  0.51100000000E-03 0. -1.
    9900012    2    1    2    0    0  0.19670980000E+02 -0.84045537755E+01  0.37762902033E+02  0.47787300141E+02  0.20000132664E+02 0.  0.
         12    1    1    2    0    0 -0.19670980000E+02  0.84045537755E+01 -0.37762902033E+02  0.43400699859E+02  0.00000000000E+00 0. -1.
         11    1    3    3    0    0  0.11093398143E+02 -0.48026701132E+01  0.87227461221E+01  0.14906891787E+02  0.51100000000E-03 0. -1.
        -11    1    3    3    0    0  0.10685923011E+01  0.38340196928E+01  0.37388533763E+01  0.54608260677E+01  0.51100000000E-03 0.  1.
        -12    1    3    3    0    0  0.75089895555E+01 -0.74359033551E+01  0.25301302534E+02  0.27419582287E+02  0.00000000000E+00 0.  1.
</event>
<event>
 7    1  0.4450624E-010  0.4778727E+02  0.7816164E-02  0.1312668E+00
        -11   -1    0    0    0    0  0.00000000000E+00  0.00000000000E+00  0.45593999997E+02  0.45594000000E+02  0.51100000000E-03 0. -1.
         11   -1    0    0    0    0 -0.00000000000E+00 -0.00000000000E+00 -0.45593999997E+02  0.45594000000E+02  0.51100000000E-03 0.  1.
    9900012    2    1    2    0    0  0.40944697567E+01 -0.24576897828E+02 -0.35536386706E+02  0.47787269942E+02  0.19999994972E+02 0.  0.
         12    1    1    2    0    0 -0.40944697567E+01  0.24576897828E+02  0.35536386706E+02  0.43400730058E+02  0.00000000000E+00 0. -1.
         11    1    3    3    0    0 -0.30568255634E+01 -0.72344747523E+01 -0.78450079306E+01  0.11100718768E+02  0.51100000000E-03 0. -1.
        -11    1    3    3    0    0  0.24038328543E+01 -0.18451226810E+02 -0.18262810254E+02  0.26072138804E+02  0.51100000000E-03 0.  1.
         12    1    3    3    0    0  0.47474624659E+01  0.11088037344E+01 -0.94285685219E+01  0.10614412370E+02  0.00000000000E+00 0. -1.
</event>
<event>
 7    1  0.4450624E-010  0.4778726E+02  0.7816164E-02  0.1312668E+00
        -11   -1    0    0    0    0  0.00000000000E+00  0.00000000000E+00  0.45593999997E+02  0.45594000000E+02  0.51100000000E-03 0.  1.
         11   -1    0    0    0    0 -0.00000000000E+00 -0.00000000000E+00 -0.45593999997E+02  0.45594000000E+02  0.51100000000E-03 0. -1.
    9900012    2    1    2    0    0 -0.24987235096E+02  0.20926133416E+02  0.28659359703E+02  0.47787264107E+02  0.19999968368E+02 0.  0.
         12    1    1    2    0    0  0.24987235096E+02 -0.20926133416E+02 -0.28659359703E+02  0.43400735893E+02  0.00000000000E+00 0. -1.
         11    1    3    3    0    0 -0.27468559460E+01 -0.86000981181E+00  0.69144882837E+01  0.74896584002E+01  0.51100000000E-03 0. -1.
        -11    1    3    3    0    0 -0.55491600742E+01  0.12884273025E+02  0.14113967153E+02  0.19899792410E+02  0.51100000000E-03 0.  1.
         12    1    3    3    0    0 -0.16691219076E+02  0.89018702029E+01  0.76309042659E+01  0.20397813296E+02  0.00000000000E+00 0. -1.
</event>
<event>
 7    1  0.4450624E-010  0.4778727E+02  0.7816164E-02  0.1312668E+00
        -11   -1    0    0    0    0  0.00000000000E+00  0.00000000000E+00  0.45593999997E+02  0.45594000000E+02  0.51100000000E-03 0.  1.
         11   -1    0    0    0    0 -0.00000000000E+00 -0.00000000000E+00 -0.45593999997E+02  0.45594000000E+02  0.51100000000E-03 0. -1.
    9900012    2    1    2    0    0 -0.22993665740E+02 -0.25304135159E+02  0.26732296209E+02  0.47787267508E+02  0.19999983875E+02 0.  0.
         12    1    1    2    0    0  0.22993665740E+02  0.25304135159E+02 -0.26732296209E+02  0.43400732492E+02  0.00000000000E+00 0. -1.
         11    1    3    3    0    0 -0.20154625846E+02 -0.23286043587E+02  0.16020256563E+02  0.34714512665E+02  0.51100000000E-03 0. -1.
        -11    1    3    3    0    0 -0.34430697011E+01 -0.39547667935E+01  0.61627142302E+01  0.80915978831E+01  0.51100000000E-03 0.  1.
         12    1    3    3    0    0  0.60402980787E+00  0.19366752222E+01  0.45493254150E+01  0.49811569597E+01  0.00000000000E+00 0. -1.
</event>
<event>
 7    1  0.4450624E-010  0.4778727E+02  0.7816164E-02  0.1312668E+00
        -11   -1    0    0    0    0  0.00000000000E+00  0.00000000000E+00  0.45593999997E+02  0.45594000000E+02  0.51100000000E-03 0.  1.
         11   -1    0    0    0    0 -0.00000000000E+00 -0.00000000000E+00 -0.45593999997E+02  0.45594000000E+02  0.51100000000E-03 0. -1.
    9900012    2    1    2    0    0  0.51836211256E+01  0.30231096807E+02  0.30705603918E+02  0.47787271272E+02  0.20000001038E+02 0.  0.
         12    1    1    2    0    0 -0.51836211256E+01 -0.30231096807E+02 -0.30705603918E+02  0.43400728728E+02  0.00000000000E+00 0. -1.
         11    1    3    3    0    0 -0.23852345466E+01  0.44483746322E+00  0.71804588449E+01  0.75793280504E+01  0.51100000000E-03 0. -1.
        -11    1    3    3    0    0  0.48961372229E+00  0.16470930984E+02  0.17304318507E+02  0.23894993792E+02  0.51100000000E-03 0.  1.
        -12    1    3    3    0    0  0.70792419499E+01  0.13315328360E+02  0.62208265659E+01  0.16312949429E+02  0.00000000000E+00 0.  1.
</event>
<event>
 7    1  0.4450624E-010  0.4778727E+02  0.7816164E-02  0.1312668E+00
        -11   -1    0    0    0    0  0.00000000000E+00  0.00000000000E+00  0.45593999997E+02  0.45594000000E+02  0.51100000000E-03 0.  1.
         11   -1    0    0    0    0 -0.00000000000E+00 -0.00000000000E+00 -0.45593999997E+02  0.45594000000E+02  0.51100000000E-03 0. -1.
    9900012    2    1    2    0    0  0.20691461614E+02  0.25637962133E+02  0.28252109241E+02  0.47787270023E+02  0.19999995341E+02 0.  0.
         12    1    1    2    0    0 -0.20691461614E+02 -0.25637962133E+02 -0.28252109241E+02  0.43400729977E+02  0.00000000000E+00 0. -1.
         11    1    3    3    0    0  0.74804261036E+01  0.95449788624E+01  0.11497882794E+02  0.16711214952E+02  0.51100000000E-03 0. -1.
        -11    1    3    3    0    0  0.16593997634E+02  0.15542329725E+02  0.14274340663E+02  0.26845513077E+02  0.51100000000E-03 0.  1.
         12    1    3    3    0    0 -0.33829621235E+01  0.55065354542E+00  0.24798857835E+01  0.42305419931E+01  0.00000000000E+00 0. -1.
</event>
<event>
 7    1  0.4450624E-010  0.4778727E+02  0.7816164E-02  0.1312668E+00
        -11   -1    0    0    0    0  0.00000000000E+00  0.00000000000E+00  0.45593999997E+02  0.45594000000E+02  0.51100000000E-03 0.  1.
         11   -1    0    0    0    0 -0.00000000000E+00 -0.00000000000E+00 -0.45593999997E+02  0.45594000000E+02  0.51100000000E-03 0. -1.
    9900012    2    1    2    0    0  0.16809260536E+02 -0.34849984036E+02  0.19660886096E+02  0.47787273403E+02  0.20000010753E+02 0.  0.
         12    1    1    2    0    0 -0.16809260536E+02  0.34849984036E+02 -0.19660886096E+02  0.43400726597E+02  0.00000000000E+00 0. -1.
         11    1    3    3    0    0  0.76525911960E+01 -0.71416293354E+01  0.74130823754E+01  0.12826488691E+02  0.51100000000E-03 0. -1.
        -11    1    3    3    0    0  0.11604211983E+02 -0.23367384947E+02  0.56541055984E+01  0.26695717361E+02  0.51100000000E-03 0.  1.
        -12    1    3    3    0    0 -0.24475426432E+01 -0.43409697538E+01  0.65936981220E+01  0.82650673511E+01  0.00000000000E+00 0.  1.
</event>
<event>
 7    1  0.4450624E-010  0.4778726E+02  0.7816164E-02  0.1312668E+00
        -11   -1    0    0    0    0  0.00000000000E+00  0.00000000000E+00  0.45593999997E+02  0.45594000000E+02  0.51100000000E-03 0.  1.
         11   -1    0    0    0    0 -0.00000000000E+00 -0.00000000000E+00 -0.45593999997E+02  0.45594000000E+02  0.51100000000E-03 0. -1.
    9900012    2    1    2    0    0  0.54385998422E+01  0.10681962331E+02  0.41712605685E+02  0.47787260830E+02  0.19999953428E+02 0.  0.
         12    1    1    2    0    0 -0.54385998422E+01 -0.10681962331E+02 -0.41712605685E+02  0.43400739170E+02  0.00000000000E+00 0. -1.
         11    1    3    3    0    0  0.22321498010E+01  0.10966172423E+02  0.31892429321E+02  0.33798912388E+02  0.51100000000E-03 0. -1.
        -11    1    3    3    0    0  0.58243803235E+01  0.15267637991E+01  0.87666963239E+01  0.10635289303E+02  0.51100000000E-03 0.  1.
         12    1    3    3    0    0 -0.26179302824E+01 -0.18109738913E+01  0.10534800397E+01  0.33530591394E+01  0.00000000000E+00 0. -1.
</event>
<event>
 7    1  0.4450624E-010  0.4778727E+02  0.7816164E-02  0.1312668E+00
        -11   -1    0    0    0    0  0.00000000000E+00  0.00000000000E+00  0.45593999997E+02  0.45594000000E+02  0.51100000000E-03 0.  1.
         11   -1    0    0    0    0 -0.00000000000E+00 -0.00000000000E+00 -0.45593999997E+02  0.45594000000E+02  0.51100000000E-03 0. -1.
    9900012    2    1    2    0    0  0.28907256403E+02  0.30935799925E+02 -0.95378182430E+01  0.47787272280E+02  0.20000005635E+02 0.  0.
         12    1    1    2    0    0 -0.28907256403E+02 -0.30935799925E+02  0.95378182430E+01  0.43400727720E+02  0.00000000000E+00 0. -1.
         11    1    3    3    0    0  0.10820209521E+02  0.24651007357E+01 -0.15088819629E+01  0.11199570561E+02  0.51100000000E-03 0.  1.
        -11    1    3    3    0    0  0.43524791578E+01  0.15798495722E+01  0.15925467113E+01  0.48965502937E+01  0.51100000000E-03 0. -1.
        -12    1    3    3    0    0  0.13734567724E+02  0.26890849617E+02 -0.96214829914E+01  0.31691151425E+02  0.00000000000E+00 0.  1.
</event>
<event>
 7    1  0.4450624E-010  0.4778727E+02  0.7816164E-02  0.1312668E+00
        -11   -1    0    0    0    0  0.00000000000E+00  0.00000000000E+00  0.45593999997E+02  0.45594000000E+02  0.51100000000E-03 0.  1.
         11   -1    0    0    0    0 -0.00000000000E+00 -0.00000000000E+00 -0.45593999997E+02  0.45594000000E+02  0.51100000000E-03 0. -1.
    9900012    2    1    2    0    0 -0.21683332983E+02 -0.28126439384E+02  0.24947137300E+02  0.47787272113E+02  0.20000004871E+02 0.  0.
         12    1    1    2    0    0  0.21683332983E+02  0.28126439384E+02 -0.24947137300E+02  0.43400727887E+02  0.00000000000E+00 0. -1.
         11    1    3    3    0    0  0.19552264726E+01 -0.69164502177E+01  0.37159529999E+00  0.71971020210E+01  0.51100000000E-03 0. -1.
        -11    1    3    3    0    0 -0.48530936534E+01 -0.73111747559E+01  0.85726208172E+01  0.12267665722E+02  0.51100000000E-03 0.  1.
         12    1    3    3    0    0 -0.18785465802E+02 -0.13898814410E+02  0.16002921183E+02  0.28322504370E+02  0.00000000000E+00 0. -1.
</event>
<event>
 7    1  0.4450624E-010  0.4778727E+02  0.7816164E-02  0.1312668E+00
        -11   -1    0    0    0    0  0.00000000000E+00  0.00000000000E+00  0.45593999997E+02  0.45594000000E+02  0.51100000000E-03 0.  1.
         11   -1    0    0    0    0 -0.00000000000E+00 -0.00000000000E+00 -0.45593999997E+02  0.45594000000E+02  0.51100000000E-03 0. -1.
    9900012    2    1    2    0    0 -0.88322309558E+01  0.24884149059E+02  0.34444072017E+02  0.47787271030E+02  0.19999999932E+02 0.  0.
         12    1    1    2    0    0  0.88322309558E+01 -0.24884149059E+02 -0.34444072017E+02  0.43400728970E+02  0.00000000000E+00 0. -1.
         11    1    3    3    0    0 -0.62251281481E+00 -0.14025430317E+01  0.26108932474E+01  0.30284340790E+01  0.51100000000E-03 0. -1.
        -11    1    3    3    0    0  0.13467018685E+01 -0.14130145293E+01  0.34514696201E+01  0.39652060201E+01  0.51100000000E-03 0.  1.
        -12    1    3    3    0    0 -0.95564200095E+01  0.27699706620E+02  0.28381709150E+02  0.40793630930E+02  0.00000000000E+00 0.  1.
</event>
<event>
 7    1  0.4450624E-010  0.4778732E+02  0.7816164E-02  0.1312668E+00
        -11   -1    0    0    0    0  0.00000000000E+00  0.00000000000E+00  0.45593999997E+02  0.45594000000E+02  0.51100000000E-03 0.  1.
         11   -1    0    0    0    0 -0.00000000000E+00 -0.00000000000E+00 -0.45593999997E+02  0.45594000000E+02  0.51100000000E-03 0. -1.
    9900012    2    1    2    0    0  0.17376270509E+02  0.25647468459E+02  0.30395587432E+02  0.47787318548E+02  0.20000216587E+02 0.  0.
         12    1    1    2    0    0 -0.17376270509E+02 -0.25647468459E+02 -0.30395587432E+02  0.43400681452E+02  0.00000000000E+00 0. -1.
         11    1    3    3    0    0  0.87474022291E+01  0.61050460998E+01  0.40903504256E+01  0.11424517517E+02  0.51100000000E-03 0. -1.
        -11    1    3    3    0    0  0.86777626952E+01  0.12844858084E+02  0.92785528931E+01  0.18066142052E+02  0.51100000000E-03 0.  1.
        -12    1    3    3    0    0 -0.48894415368E-01  0.66975642752E+01  0.17026684114E+02  0.18296658979E+02  0.00000000000E+00 0.  1.
</event>
<event>
 7    1  0.4450624E-010  0.4778727E+02  0.7816164E-02  0.1312668E+00
        -11   -1    0    0    0    0  0.00000000000E+00  0.00000000000E+00  0.45593999997E+02  0.45594000000E+02  0.51100000000E-03 0.  1.
         11   -1    0    0    0    0 -0.00000000000E+00 -0.00000000000E+00 -0.45593999997E+02  0.45594000000E+02  0.51100000000E-03 0. -1.
    9900012    2    1    2    0    0 -0.30232132809E+02  0.19908674246E+02  0.23943400401E+02  0.47787267435E+02  0.19999983541E+02 0.  0.
         12    1    1    2    0    0  0.30232132809E+02 -0.19908674246E+02 -0.23943400401E+02  0.43400732565E+02  0.00000000000E+00 0. -1.
         11    1    3    3    0    0 -0.15255756518E+02  0.17047142001E+01  0.16005742074E+02  0.22177194075E+02  0.51100000000E-03 0. -1.
        -11    1    3    3    0    0  0.29936919239E+00  0.17515942827E+01 -0.58644531458E-01  0.17779605976E+01  0.51100000000E-03 0.  1.
         12    1    3    3    0    0 -0.15275745483E+02  0.16452365763E+02  0.79963028587E+01  0.23832112762E+02  0.00000000000E+00 0. -1.
</event>
<event>
 7    1  0.4450624E-010  0.4778727E+02  0.7816164E-02  0.1312668E+00
        -11   -1    0    0    0    0  0.00000000000E+00  0.00000000000E+00  0.45593999997E+02  0.45594000000E+02  0.51100000000E-03 0.  1.
         11   -1    0    0    0    0 -0.00000000000E+00 -0.00000000000E+00 -0.45593999997E+02  0.45594000000E+02  0.51100000000E-03 0. -1.
    9900012    2    1    2    0    0  0.53730376663E+01  0.18620416528E+02  0.38833407158E+02  0.47787274696E+02  0.20000016649E+02 0.  0.
         12    1    1    2    0    0 -0.53730376663E+01 -0.18620416528E+02 -0.38833407158E+02  0.43400725304E+02  0.00000000000E+00 0. -1.
         11    1    3    3    0    0  0.63046839317E+01  0.57915880835E+01  0.30540847395E+02  0.31718053091E+02  0.51100000000E-03 0. -1.
        -11    1    3    3    0    0  0.67687642082E+00  0.51851050935E+01  0.59351816993E+01  0.79101111613E+01  0.51100000000E-03 0.  1.
         12    1    3    3    0    0 -0.16085226862E+01  0.76437233508E+01  0.23573780630E+01  0.81591104434E+01  0.00000000000E+00 0. -1.
</event>
<event>
 7    1  0.4450624E-010  0.4778726E+02  0.7816164E-02  0.1312668E+00
        -11   -1    0    0    0    0  0.00000000000E+00  0.00000000000E+00  0.45593999997E+02  0.45594000000E+02  0.51100000000E-03 0.  1.
         11   -1    0    0    0    0 -0.00000000000E+00 -0.00000000000E+00 -0.45593999997E+02  0.45594000000E+02  0.51100000000E-03 0. -1.
    9900012    2    1    2    0    0 -0.31647993006E+02  0.21304370491E+02  0.20691841722E+02  0.47787262942E+02  0.19999963057E+02 0.  0.
         12    1    1    2    0    0  0.31647993006E+02 -0.21304370491E+02 -0.20691841722E+02  0.43400737058E+02  0.00000000000E+00 0. -1.
         11    1    3    3    0    0 -0.29189487756E+02  0.17059049575E+02  0.11279579090E+02  0.35640795061E+02  0.51100000000E-03 0. -1.
        -11    1    3    3    0    0 -0.21679543282E+01  0.48911381117E+01  0.39796636071E+01  0.66679067693E+01  0.51100000000E-03 0.  1.
         12    1    3    3    0    0 -0.29055092144E+00 -0.64581719522E+00  0.54325990249E+01  0.54785611115E+01  0.00000000000E+00 0. -1.
</event>
<event>
 7    1  0.4450624E-010  0.4778728E+02  0.7816164E-02  0.1312668E+00
        -11   -1    0    0    0    0  0.00000000000E+00  0.00000000000E+00  0.45593999997E+02  0.45594000000E+02  0.51100000000E-03 0.  1.
         11   -1    0    0    0    0 -0.00000000000E+00 -0.00000000000E+00 -0.45593999997E+02  0.45594000000E+02  0.51100000000E-03 0. -1.
    9900012    2    1    2    0    0  0.24295002957E+02  0.29273353682E+02  0.20891299429E+02  0.47787276547E+02  0.20000025088E+02 0.  0.
         12    1    1    2    0    0 -0.24295002957E+02 -0.29273353682E+02 -0.20891299429E+02  0.43400723453E+02  0.00000000000E+00 0. -1.
         11    1    3    3    0    0  0.16566040506E+02  0.15675817108E+02  0.10216206219E+02  0.24990714472E+02  0.51100000000E-03 0. -1.
        -11    1    3    3    0    0  0.77332557590E+01  0.15086366881E+02  0.61518717001E+01  0.18034612166E+02  0.51100000000E-03 0.  1.
         12    1    3    3    0    0 -0.42933081096E-02 -0.14888303070E+01  0.45232215097E+01  0.47619499096E+01  0.00000000000E+00 0. -1.
</event>
<event>
 7    1  0.4450624E-010  0.4778727E+02  0.7816164E-02  0.1312668E+00
        -11   -1    0    0    0    0  0.00000000000E+00  0.00000000000E+00  0.45593999997E+02  0.45594000000E+02  0.51100000000E-03 0.  1.
         11   -1    0    0    0    0 -0.00000000000E+00 -0.00000000000E+00 -0.45593999997E+02  0.45594000000E+02  0.51100000000E-03 0. -1.
    9900012    2    1    2    0    0  0.79867000874E+01  0.30577861223E+02  0.29746102065E+02  0.47787267710E+02  0.19999984797E+02 0.  0.
         12    1    1    2    0    0 -0.79867000874E+01 -0.30577861223E+02 -0.29746102065E+02  0.43400732290E+02  0.00000000000E+00 0. -1.
         11    1    3    3    0    0  0.41968004604E+01  0.57893282443E+01  0.13716780525E+01  0.72808623504E+01  0.51100000000E-03 0. -1.
        -11    1    3    3    0    0  0.49190231809E+01  0.60078239089E+01  0.18421547471E+01  0.79802425745E+01  0.51100000000E-03 0.  1.
        -12    1    3    3    0    0 -0.11291235539E+01  0.18780709070E+02  0.26532269265E+02  0.32526162785E+02  0.00000000000E+00 0.  1.
</event>
<event>
 7    1  0.4450624E-010  0.4778724E+02  0.7816164E-02  0.1312668E+00
        -11   -1    0    0    0    0  0.00000000000E+00  0.00000000000E+00  0.45593999997E+02  0.45594000000E+02  0.51100000000E-03 0. -1.
         11   -1    0    0    0    0 -0.00000000000E+00 -0.00000000000E+00 -0.45593999997E+02  0.45594000000E+02  0.51100000000E-03 0.  1.
    9900012    2    1    2    0    0  0.20768115256E+02 -0.88924254256E+01 -0.37057196310E+02  0.47787243791E+02  0.19999875739E+02 0.  0.
         12    1    1    2    0    0 -0.20768115256E+02  0.88924254256E+01  0.37057196310E+02  0.43400756209E+02  0.00000000000E+00 0. -1.
         11    1    3    3    0    0 -0.21345320370E+01  0.73581554089E+00 -0.62017172198E+00  0.23414236595E+01  0.51100000000E-03 0. -1.
        -11    1    3    3    0    0  0.47245849333E+01 -0.74513690136E+01 -0.12848382540E+02  0.15586068687E+02  0.51100000000E-03 0.  1.
        -12    1    3    3    0    0  0.18178062359E+02 -0.21768719528E+01 -0.23588642048E+02  0.29859751444E+02  0.00000000000E+00 0.  1.
</event>
<event>
 7    1  0.4450624E-010  0.4778727E+02  0.7816164E-02  0.1312668E+00
        -11   -1    0    0    0    0  0.00000000000E+00  0.00000000000E+00  0.45593999997E+02  0.45594000000E+02  0.51100000000E-03 0. -1.
         11   -1    0    0    0    0 -0.00000000000E+00 -0.00000000000E+00 -0.45593999997E+02  0.45594000000E+02  0.51100000000E-03 0.  1.
    9900012    2    1    2    0    0  0.17183325745E+02  0.31096049161E+02 -0.24927742267E+02  0.47787270840E+02  0.19999999069E+02 0.  0.
         12    1    1    2    0    0 -0.17183325745E+02 -0.31096049161E+02  0.24927742267E+02  0.43400729160E+02  0.00000000000E+00 0. -1.
         11    1    3    3    0    0  0.55848760876E+01  0.95511897378E+01 -0.19991543334E+01  0.11243339568E+02  0.51100000000E-03 0. -1.
        -11    1    3    3    0    0  0.48108350348E+01  0.19595626125E+02 -0.11832032060E+02  0.23390803318E+02  0.51100000000E-03 0.  1.
         12    1    3    3    0    0  0.67876146228E+01  0.19492332980E+01 -0.11096555874E+02  0.13153127954E+02  0.00000000000E+00 0. -1.
</event>
<event>
 7    1  0.4450624E-010  0.4778727E+02  0.7816164E-02  0.1312668E+00
        -11   -1    0    0    0    0  0.00000000000E+00  0.00000000000E+00  0.45593999997E+02  0.45594000000E+02  0.51100000000E-03 0.  1.
         11   -1    0    0    0    0 -0.00000000000E+00 -0.00000000000E+00 -0.45593999997E+02  0.45594000000E+02  0.51100000000E-03 0. -1.
    9900012    2    1    2    0    0 -0.11387968692E+02  0.19315202035E+02  0.37159930358E+02  0.47787270919E+02  0.19999999427E+02 0.  0.
         12    1    1    2    0    0  0.11387968692E+02 -0.19315202035E+02 -0.37159930358E+02  0.43400729081E+02  0.00000000000E+00 0. -1.
         11    1    3    3    0    0  0.21679414702E+01  0.24919644800E+01 -0.40074698081E+00  0.33272294168E+01  0.51100000000E-03 0. -1.
        -11    1    3    3    0    0 -0.11972758732E+00  0.90481210256E+00  0.93370497792E+01  0.93815520292E+01  0.51100000000E-03 0.  1.
        -12    1    3    3    0    0 -0.13436182575E+02  0.15918425452E+02  0.28223627560E+02  0.35078489473E+02  0.00000000000E+00 0.  1.
</event>
<event>
 7    1  0.4450624E-010  0.4778727E+02  0.7816164E-02  0.1312668E+00
        -11   -1    0    0    0    0  0.00000000000E+00  0.00000000000E+00  0.45593999997E+02  0.45594000000E+02  0.51100000000E-03 0.  1.
         11   -1    0    0    0    0 -0.00000000000E+00 -0.00000000000E+00 -0.45593999997E+02  0.45594000000E+02  0.51100000000E-03 0. -1.
    9900012    2    1    2    0    0 -0.12049270276E+02 -0.37687479876E+02  0.17835141744E+02  0.47787270345E+02  0.19999996810E+02 0.  0.
         12    1    1    2    0    0  0.12049270276E+02  0.37687479876E+02 -0.17835141744E+02  0.43400729655E+02  0.00000000000E+00 0. -1.
         11    1    3    3    0    0 -0.20374552887E+01 -0.13137800667E+02  0.88210066069E+01  0.15955036454E+02  0.51100000000E-03 0. -1.
        -11    1    3    3    0    0  0.35496869333E+01 -0.99272749799E+01  0.39275399767E+01  0.11250628266E+02  0.51100000000E-03 0.  1.
        -12    1    3    3    0    0 -0.13561501921E+02 -0.14622404229E+02  0.50865951604E+01  0.20581605625E+02  0.00000000000E+00 0.  1.
</event>
<event>
 7    1  0.4450624E-010  0.4778727E+02  0.7816164E-02  0.1312668E+00
        -11   -1    0    0    0    0  0.00000000000E+00  0.00000000000E+00  0.45593999997E+02  0.45594000000E+02  0.51100000000E-03 0.  1.
         11   -1    0    0    0    0 -0.00000000000E+00 -0.00000000000E+00 -0.45593999997E+02  0.45594000000E+02  0.51100000000E-03 0. -1.
    9900012    2    1    2    0    0  0.18006492124E+02  0.29862066495E+02  0.25838854491E+02  0.47787272180E+02  0.20000005176E+02 0.  0.
         12    1    1    2    0    0 -0.18006492124E+02 -0.29862066495E+02 -0.25838854491E+02  0.43400727820E+02  0.00000000000E+00 0. -1.
         11    1    3    3    0    0  0.96110400817E+01  0.14933500017E+02  0.86378608168E+01  0.19748269645E+02  0.51100000000E-03 0. -1.
        -11    1    3    3    0    0  0.11777291159E+02  0.10460856596E+02  0.15695462281E+02  0.22236943231E+02  0.51100000000E-03 0.  1.
        -12    1    3    3    0    0 -0.33818391166E+01  0.44677098815E+01  0.15055313928E+01  0.58020593043E+01  0.00000000000E+00 0.  1.
</event>
<event>
 7    1  0.4450624E-010  0.4778728E+02  0.7816164E-02  0.1312668E+00
        -11   -1    0    0    0    0  0.00000000000E+00  0.00000000000E+00  0.45593999997E+02  0.45594000000E+02  0.51100000000E-03 0. -1.
         11   -1    0    0    0    0 -0.00000000000E+00 -0.00000000000E+00 -0.45593999997E+02  0.45594000000E+02  0.51100000000E-03 0.  1.
    9900012    2    1    2    0    0  0.19708825701E+02  0.25140802569E+02 -0.29378985540E+02  0.47787279318E+02  0.20000037723E+02 0.  0.
         12    1    1    2    0    0 -0.19708825701E+02 -0.25140802569E+02  0.29378985540E+02  0.43400720682E+02  0.00000000000E+00 0. -1.
         11    1    3    3    0    0  0.29584961460E+01  0.57127285474E+00  0.53291528942E+00  0.30599103071E+01  0.51100000000E-03 0. -1.
        -11    1    3    3    0    0  0.79030369009E+01  0.23443576737E+01 -0.31298206105E+01  0.88175837095E+01  0.51100000000E-03 0.  1.
        -12    1    3    3    0    0  0.88472926539E+01  0.22225172041E+02 -0.26782080219E+02  0.35909785302E+02  0.00000000000E+00 0.  1.
</event>
<event>
 7    1  0.4450624E-010  0.4778727E+02  0.7816164E-02  0.1312668E+00
        -11   -1    0    0    0    0  0.00000000000E+00  0.00000000000E+00  0.45593999997E+02  0.45594000000E+02  0.51100000000E-03 0. -1.
         11   -1    0    0    0    0 -0.00000000000E+00 -0.00000000000E+00 -0.45593999997E+02  0.45594000000E+02  0.51100000000E-03 0.  1.
    9900012    2    1    2    0    0  0.14749416421E+02 -0.30449563911E+02 -0.27182752964E+02  0.47787270906E+02  0.19999999370E+02 0.  0.
         12    1    1    2    0    0 -0.14749416421E+02  0.30449563911E+02  0.27182752964E+02  0.43400729094E+02  0.00000000000E+00 0. -1.
         11    1    3    3    0    0  0.11428227010E+02 -0.20974697978E+02 -0.88781917291E+01  0.25482633626E+02  0.51100000000E-03 0. -1.
        -11    1    3    3    0    0 -0.10536100967E+01  0.67754177638E+00 -0.50319179661E+00  0.13499479027E+01  0.51100000000E-03 0.  1.
        -12    1    3    3    0    0  0.43747995077E+01 -0.10152407710E+02 -0.17801369438E+02  0.20954689378E+02  0.00000000000E+00 0.  1.
</event>
<event>
 7    1  0.4450624E-010  0.4778726E+02  0.7816164E-02  0.1312668E+00
        -11   -1    0    0    0    0  0.00000000000E+00  0.00000000000E+00  0.45593999997E+02  0.45594000000E+02  0.51100000000E-03 0.  1.
         11   -1    0    0    0    0 -0.00000000000E+00 -0.00000000000E+00 -0.45593999997E+02  0.45594000000E+02  0.51100000000E-03 0. -1.
    9900012    2    1    2    0    0 -0.19960060754E+02  0.19094625714E+02  0.33475591583E+02  0.47787262814E+02  0.19999962476E+02 0.  0.
         12    1    1    2    0    0  0.19960060754E+02 -0.19094625714E+02 -0.33475591583E+02  0.43400737186E+02  0.00000000000E+00 0. -1.
         11    1    3    3    0    0 -0.79437810839E+01  0.10498411949E+01  0.11002955940E+01  0.80880451964E+01  0.51100000000E-03 0. -1.
        -11    1    3    3    0    0 -0.72916941717E+01  0.43561046463E+01  0.11841431453E+02  0.14572712537E+02  0.51100000000E-03 0.  1.
        -12    1    3    3    0    0 -0.47245854979E+01  0.13688679872E+02  0.20533864536E+02  0.25126505080E+02  0.00000000000E+00 0.  1.
</event>
<event>
 7    1  0.4450624E-010  0.4778728E+02  0.7816164E-02  0.1312668E+00
        -11   -1    0    0    0    0  0.00000000000E+00  0.00000000000E+00  0.45593999997E+02  0.45594000000E+02  0.51100000000E-03 0.  1.
         11   -1    0    0    0    0 -0.00000000000E+00 -0.00000000000E+00 -0.45593999997E+02  0.45594000000E+02  0.51100000000E-03 0. -1.
    9900012    2    1    2    0    0  0.26471422589E+02  0.11239062774E+02  0.32504914910E+02  0.47787282964E+02  0.20000054346E+02 0.  0.
         12    1    1    2    0    0 -0.26471422589E+02 -0.11239062774E+02 -0.32504914910E+02  0.43400717036E+02  0.00000000000E+00 0. -1.
         11    1    3    3    0    0  0.45253259357E+01  0.93713866608E+00  0.19559086126E+02  0.20097628070E+02  0.51100000000E-03 0. -1.
        -11    1    3    3    0    0  0.57964593258E+01  0.20997614220E+01  0.48756981446E+01  0.78600490713E+01  0.51100000000E-03 0.  1.
         12    1    3    3    0    0  0.16149637327E+02  0.82021626864E+01  0.80701306396E+01  0.19829605823E+02  0.00000000000E+00 0. -1.
</event>
<event>
 7    1  0.4450624E-010  0.4778728E+02  0.7816164E-02  0.1312668E+00
        -11   -1    0    0    0    0  0.00000000000E+00  0.00000000000E+00  0.45593999997E+02  0.45594000000E+02  0.51100000000E-03 0. -1.
         11   -1    0    0    0    0 -0.00000000000E+00 -0.00000000000E+00 -0.45593999997E+02  0.45594000000E+02  0.51100000000E-03 0.  1.
    9900012    2    1    2    0    0 -0.24568917266E+02  0.20285093443E+01  0.35719408423E+02  0.47787277841E+02  0.20000030988E+02 0.  0.
         12    1    1    2    0    0  0.24568917266E+02 -0.20285093443E+01 -0.35719408423E+02  0.43400722159E+02  0.00000000000E+00 0. -1.
         11    1    3    3    0    0  0.21901414972E+01 -0.99975704451E+00  0.22480997886E+01  0.32939621805E+01  0.51100000000E-03 0. -1.
        -11    1    3    3    0    0 -0.10966003175E+02 -0.44462208002E+01  0.14047993471E+02  0.18367586283E+02  0.51100000000E-03 0.  1.
         12    1    3    3    0    0 -0.15793055589E+02  0.74744871890E+01  0.19423315164E+02  0.26125729378E+02  0.00000000000E+00 0. -1.
</event>
<event>
 7    1  0.4450624E-010  0.4778727E+02  0.7816164E-02  0.1312668E+00
        -11   -1    0    0    0    0  0.00000000000E+00  0.00000000000E+00  0.45593999997E+02  0.45594000000E+02  0.51100000000E-03 0.  1.
         11   -1    0    0    0    0 -0.00000000000E+00 -0.00000000000E+00 -0.45593999997E+02  0.45594000000E+02  0.51100000000E-03 0. -1.
    9900012    2    1    2    0    0 -0.12591652280E+02  0.34064115398E+01  0.41394081330E+02  0.47787270560E+02  0.19999997793E+02 0.  0.
         12    1    1    2    0    0  0.12591652280E+02 -0.34064115398E+01 -0.41394081330E+02  0.43400729440E+02  0.00000000000E+00 0. -1.
         11    1    3    3    0    0  0.72554847428E-01 -0.43282009790E+01  0.20756995528E+02  0.21203571669E+02  0.51100000000E-03 0. -1.
        -11    1    3    3    0    0 -0.23695473640E+01  0.43188756210E+01  0.11086440911E+02  0.12131636892E+02  0.51100000000E-03 0.  1.
         12    1    3    3    0    0 -0.10294659764E+02  0.34157368978E+01  0.95506448916E+01  0.14452062000E+02  0.00000000000E+00 0. -1.
</event>
<event>
 7    1  0.4450624E-010  0.4778727E+02  0.7816164E-02  0.1312668E+00
        -11   -1    0    0    0    0  0.00000000000E+00  0.00000000000E+00  0.45593999997E+02  0.45594000000E+02  0.51100000000E-03 0. -1.
         11   -1    0    0    0    0 -0.00000000000E+00 -0.00000000000E+00 -0.45593999997E+02  0.45594000000E+02  0.51100000000E-03 0.  1.
    9900012    2    1    2    0    0  0.27278756112E+01  0.42200058696E+02  0.97640576275E+01  0.47787273271E+02  0.20000010151E+02 0.  0.
         12    1    1    2    0    0 -0.27278756112E+01 -0.42200058696E+02 -0.97640576275E+01  0.43400726729E+02  0.00000000000E+00 0. -1.
         11    1    3    3    0    0  0.71369978657E+00 -0.28499816542E+00 -0.14753442864E+01  0.16635000343E+01  0.51100000000E-03 0. -1.
        -11    1    3    3    0    0  0.41774177084E-01  0.16069295582E+02 -0.25335296388E+01  0.16267844918E+02  0.51100000000E-03 0.  1.
         12    1    3    3    0    0  0.19724016476E+01  0.26415761279E+02  0.13772931553E+02  0.29855928319E+02  0.00000000000E+00 0. -1.
</event>
<event>
 7    1  0.4450624E-010  0.4778728E+02  0.7816164E-02  0.1312668E+00
        -11   -1    0    0    0    0  0.00000000000E+00  0.00000000000E+00  0.45593999997E+02  0.45594000000E+02  0.51100000000E-03 0.  1.
         11   -1    0    0    0    0 -0.00000000000E+00 -0.00000000000E+00 -0.45593999997E+02  0.45594000000E+02  0.51100000000E-03 0. -1.
    9900012    2    1    2    0    0  0.61947391945E+01  0.23729016470E+02  0.35807559153E+02  0.47787282163E+02  0.20000050694E+02 0.  0.
         12    1    1    2    0    0 -0.61947391945E+01 -0.23729016470E+02 -0.35807559153E+02  0.43400717837E+02  0.00000000000E+00 0. -1.
         11    1    3    3    0    0  0.76266725497E+01  0.16362290871E+02  0.11261352970E+02  0.21276953910E+02  0.51100000000E-03 0. -1.
        -11    1    3    3    0    0 -0.18687081890E+01  0.58421498143E+01  0.90474905144E+01  0.10930684773E+02  0.51100000000E-03 0.  1.
        -12    1    3    3    0    0  0.43677483381E+00  0.15245757845E+01  0.15498715668E+02  0.15579643479E+02  0.00000000000E+00 0.  1.
</event>
<event>
 7    1  0.4450624E-010  0.4778726E+02  0.7816164E-02  0.1312668E+00
        -11   -1    0    0    0    0  0.00000000000E+00  0.00000000000E+00  0.45593999997E+02  0.45594000000E+02  0.51100000000E-03 0.  1.
         11   -1    0    0    0    0 -0.00000000000E+00 -0.00000000000E+00 -0.45593999997E+02  0.45594000000E+02  0.51100000000E-03 0. -1.
    9900012    2    1    2    0    0  0.24386125411E+02  0.28744866074E+02  0.21509851629E+02  0.47787260890E+02  0.19999953702E+02 0.  0.
         12    1    1    2    0    0 -0.24386125411E+02 -0.28744866074E+02 -0.21509851629E+02  0.43400739110E+02  0.00000000000E+00 0. -1.
         11    1    3    3    0    0  0.92196819518E+01  0.58959827347E+01  0.11815176004E+01  0.11007321736E+02  0.51100000000E-03 0. -1.
        -11    1    3    3    0    0 -0.92672542494E+00 -0.11628363609E+01  0.22145796348E+01  0.26674653953E+01  0.51100000000E-03 0.  1.
        -12    1    3    3    0    0  0.16093168884E+02  0.24011719700E+02  0.18113754394E+02  0.34112473759E+02  0.00000000000E+00 0.  1.
</event>
<event>
 7    1  0.4450624E-010  0.4778726E+02  0.7816164E-02  0.1312668E+00
        -11   -1    0    0    0    0  0.00000000000E+00  0.00000000000E+00  0.45593999997E+02  0.45594000000E+02  0.51100000000E-03 0.  1.
         11   -1    0    0    0    0 -0.00000000000E+00 -0.00000000000E+00 -0.45593999997E+02  0.45594000000E+02  0.51100000000E-03 0. -1.
    9900012    2    1    2    0    0  0.32535536811E+02 -0.98687237322E+01  0.26975378331E+02  0.47787263834E+02  0.19999967123E+02 0.  0.
         12    1    1    2    0    0 -0.32535536811E+02  0.98687237322E+01 -0.26975378331E+02  0.43400736166E+02  0.00000000000E+00 0. -1.
         11    1    3    3    0    0  0.37658609816E+01 -0.47909061936E+00 -0.73813456785E+00  0.38673090975E+01  0.51100000000E-03 0. -1.
        -11    1    3    3    0    0  0.54514448092E+01 -0.32912719023E+00 -0.12964674797E+01  0.56131455889E+01  0.51100000000E-03 0.  1.
        -12    1    3    3    0    0  0.23318231020E+02 -0.90605059226E+01  0.29009980379E+02  0.38306809147E+02  0.00000000000E+00 0.  1.
</event>
<event>
 7    1  0.4450624E-010  0.4778727E+02  0.7816164E-02  0.1312668E+00
        -11   -1    0    0    0    0  0.00000000000E+00  0.00000000000E+00  0.45593999997E+02  0.45594000000E+02  0.51100000000E-03 0.  1.
         11   -1    0    0    0    0 -0.00000000000E+00 -0.00000000000E+00 -0.45593999997E+02  0.45594000000E+02  0.51100000000E-03 0. -1.
    9900012    2    1    2    0    0 -0.12281891695E+02  0.21773533031E+02  0.35478051881E+02  0.47787265334E+02  0.19999973966E+02 0.  0.
         12    1    1    2    0    0  0.12281891695E+02 -0.21773533031E+02 -0.35478051881E+02  0.43400734666E+02  0.00000000000E+00 0. -1.
         11    1    3    3    0    0 -0.60898659627E+01  0.54135783164E-01  0.16211135452E+02  0.17317341338E+02  0.51100000000E-03 0. -1.
        -11    1    3    3    0    0 -0.32591676776E+01  0.23765369488E+01  0.35878863625E+01  0.53984285335E+01  0.51100000000E-03 0.  1.
        -12    1    3    3    0    0 -0.29328580548E+01  0.19342860299E+02  0.15679030067E+02  0.25071495463E+02  0.00000000000E+00 0.  1.
</event>
<event>
 7    1  0.4450624E-010  0.4778727E+02  0.7816164E-02  0.1312668E+00
        -11   -1    0    0    0    0  0.00000000000E+00  0.00000000000E+00  0.45593999997E+02  0.45594000000E+02  0.51100000000E-03 0. -1.
         11   -1    0    0    0    0 -0.00000000000E+00 -0.00000000000E+00 -0.45593999997E+02  0.45594000000E+02  0.51100000000E-03 0.  1.
    9900012    2    1    2    0    0 -0.55545333271E+01 -0.79280016812E+01 -0.42307409847E+02  0.47787274440E+02  0.20000015483E+02 0.  0.
         12    1    1    2    0    0  0.55545333271E+01  0.79280016812E+01  0.42307409847E+02  0.43400725560E+02  0.00000000000E+00 0. -1.
         11    1    3    3    0    0 -0.18985176657E+01 -0.22057575245E+01 -0.14997006529E+01  0.32739636366E+01  0.51100000000E-03 0. -1.
        -11    1    3    3    0    0  0.47006751299E+01 -0.56537549459E+01 -0.29794578859E+02  0.30688405323E+02  0.51100000000E-03 0.  1.
         12    1    3    3    0    0 -0.83566907912E+01 -0.68489210668E-01 -0.11013130335E+02  0.13824905480E+02  0.00000000000E+00 0. -1.
</event>
<event>
 7    1  0.4450624E-010  0.4778726E+02  0.7816164E-02  0.1312668E+00
        -11   -1    0    0    0    0  0.00000000000E+00  0.00000000000E+00  0.45593999997E+02  0.45594000000E+02  0.51100000000E-03 0.  1.
         11   -1    0    0    0    0 -0.00000000000E+00 -0.00000000000E+00 -0.45593999997E+02  0.45594000000E+02  0.51100000000E-03 0. -1.
    9900012    2    1    2    0    0 -0.28259960292E+02 -0.32843302890E+02  0.25132031429E+01  0.47787261637E+02  0.19999957107E+02 0.  0.
         12    1    1    2    0    0  0.28259960292E+02  0.32843302890E+02 -0.25132031429E+01  0.43400738363E+02  0.00000000000E+00 0. -1.
         11    1    3    3    0    0 -0.99206012147E+01 -0.38290172691E+01 -0.34309238282E+01  0.11173671746E+02  0.51100000000E-03 0. -1.
        -11    1    3    3    0    0 -0.12695703352E+02 -0.17866024523E+02 -0.16701725940E+01  0.21981018916E+02  0.51100000000E-03 0.  1.
        -12    1    3    3    0    0 -0.56436557254E+01 -0.11148261098E+02  0.76142995651E+01  0.14632570975E+02  0.00000000000E+00 0.  1.
</event>
<event>
 7    1  0.4450624E-010  0.4778727E+02  0.7816164E-02  0.1312668E+00
        -11   -1    0    0    0    0  0.00000000000E+00  0.00000000000E+00  0.45593999997E+02  0.45594000000E+02  0.51100000000E-03 0.  1.
         11   -1    0    0    0    0 -0.00000000000E+00 -0.00000000000E+00 -0.45593999997E+02  0.45594000000E+02  0.51100000000E-03 0. -1.
    9900012    2    1    2    0    0 -0.22750163950E+01 -0.42001918905E+02 -0.10690474556E+02  0.47787272616E+02  0.20000007163E+02 0.  0.
         12    1    1    2    0    0  0.22750163950E+01  0.42001918905E+02  0.10690474556E+02  0.43400727384E+02  0.00000000000E+00 0. -1.
         11    1    3    3    0    0  0.37410800522E+00  0.17832415497E+01 -0.16472620977E+01  0.24562939368E+01  0.51100000000E-03 0. -1.
        -11    1    3    3    0    0 -0.24689450701E+01 -0.48774173693E+01 -0.17917299327E+01  0.57528415906E+01  0.51100000000E-03 0.  1.
        -12    1    3    3    0    0 -0.18017933018E+00 -0.38907743085E+02 -0.72514825254E+01  0.39578137088E+02  0.00000000000E+00 0.  1.
</event>
<event>
 7    1  0.4450624E-010  0.4778728E+02  0.7816164E-02  0.1312668E+00
        -11   -1    0    0    0    0  0.00000000000E+00  0.00000000000E+00  0.45593999997E+02  0.45594000000E+02  0.51100000000E-03 0.  1.
         11   -1    0    0    0    0 -0.00000000000E+00 -0.00000000000E+00 -0.45593999997E+02  0.45594000000E+02  0.51100000000E-03 0. -1.
    9900012    2    1    2    0    0  0.41979639041E+02 -0.75150404996E+01  0.80533745724E+01  0.47787276853E+02  0.20000026483E+02 0.  0.
         12    1    1    2    0    0 -0.41979639041E+02  0.75150404996E+01 -0.80533745724E+01  0.43400723147E+02  0.00000000000E+00 0. -1.
         11    1    3    3    0    0  0.81705147894E+01 -0.17349128323E+01  0.71843359622E+01  0.11017346229E+02  0.51100000000E-03 0. -1.
        -11    1    3    3    0    0  0.10326751249E+02  0.32783787455E+01  0.36843924530E+01  0.11443963761E+02  0.51100000000E-03 0.  1.
        -12    1    3    3    0    0  0.23482373002E+02 -0.90585064128E+01 -0.28153538429E+01  0.25325966862E+02  0.00000000000E+00 0.  1.
</event>
<event>
 7    1  0.4450624E-010  0.4778728E+02  0.7816164E-02  0.1312668E+00
        -11   -1    0    0    0    0  0.00000000000E+00  0.00000000000E+00  0.45593999997E+02  0.45594000000E+02  0.51100000000E-03 0. -1.
         11   -1    0    0    0    0 -0.00000000000E+00 -0.00000000000E+00 -0.45593999997E+02  0.45594000000E+02  0.51100000000E-03 0.  1.
    9900012    2    1    2    0    0 -0.15011853879E+02  0.38262627011E+02  0.13936937626E+02  0.47787278658E+02  0.20000034711E+02 0.  0.
         12    1    1    2    0    0  0.15011853879E+02 -0.38262627011E+02 -0.13936937626E+02  0.43400721342E+02  0.00000000000E+00 0. -1.
         11    1    3    3    0    0 -0.66927650848E+00  0.57677338264E+01  0.63574754366E+01  0.86100045717E+01  0.51100000000E-03 0. -1.
        -11    1    3    3    0    0 -0.14302236291E+01  0.12201449349E+02  0.87708574328E+01  0.15094662838E+02  0.51100000000E-03 0.  1.
         12    1    3    3    0    0 -0.12912353742E+02  0.20293443836E+02 -0.11913952438E+01  0.24082611248E+02  0.00000000000E+00 0. -1.
</event>
<event>
 7    1  0.6369088E-010  0.4778727E+02  0.7816164E-02  0.1312668E+00
        -11   -1    0    0    0    0  0.00000000000E+00  0.00000000000E+00  0.45593999997E+02  0.45594000000E+02  0.51100000000E-03 0.  1.
         11   -1    0    0    0    0 -0.00000000000E+00 -0.00000000000E+00 -0.45593999997E+02  0.45594000000E+02  0.51100000000E-03 0. -1.
    9900012    2    1    2    0    0 -0.21557892753E+02 -0.37238344606E+02 -0.56732791667E+01  0.47787272524E+02  0.20000006745E+02 0.  0.
         12    1    1    2    0    0  0.21557892753E+02  0.37238344606E+02  0.56732791667E+01  0.43400727476E+02  0.00000000000E+00 0. -1.
         11    1    3    3    0    0 -0.63841651575E+00 -0.61590453533E+01  0.47046120209E+01  0.77765538537E+01  0.51100000000E-03 0. -1.
        -11    1    3    3    0    0 -0.21379558396E+01 -0.87316518480E+01 -0.51318485860E+01  0.10351254481E+02  0.51100000000E-03 0.  1.
        -12    1    3    3    0    0 -0.18781520397E+02 -0.22347647405E+02 -0.52460426016E+01  0.29659464189E+02  0.00000000000E+00 0.  1.
</event>
<event>
 7    1  0.4450624E-010  0.4778728E+02  0.7816164E-02  0.1312668E+00
        -11   -1    0    0    0    0  0.00000000000E+00  0.00000000000E+00  0.45593999997E+02  0.45594000000E+02  0.51100000000E-03 0. -1.
         11   -1    0    0    0    0 -0.00000000000E+00 -0.00000000000E+00 -0.45593999997E+02  0.45594000000E+02  0.51100000000E-03 0.  1.
    9900012    2    1    2    0    0 -0.34036468997E+02 -0.20892673577E+02 -0.16989340608E+02  0.47787277365E+02  0.20000028816E+02 0.  0.
         12    1    1    2    0    0  0.34036468997E+02  0.20892673577E+02  0.16989340608E+02  0.43400722635E+02  0.00000000000E+00 0. -1.
         11    1    3    3    0    0 -0.24544737412E+02 -0.16266040043E+02 -0.10317125371E+02  0.31200501110E+02  0.51100000000E-03 0. -1.
        -11    1    3    3    0    0 -0.96801645267E+01 -0.75354302182E+01 -0.52531075855E+01  0.13344790497E+02  0.51100000000E-03 0.  1.
         12    1    3    3    0    0  0.18843294206E+00  0.29087966846E+01 -0.14191076514E+01  0.32419857576E+01  0.00000000000E+00 0. -1.
</event>
<event>
 7    1  0.4450624E-010  0.4778727E+02  0.7816164E-02  0.1312668E+00
        -11   -1    0    0    0    0  0.00000000000E+00  0.00000000000E+00  0.45593999997E+02  0.45594000000E+02  0.51100000000E-03 0. -1.
         11   -1    0    0    0    0 -0.00000000000E+00 -0.00000000000E+00 -0.45593999997E+02  0.45594000000E+02  0.51100000000E-03 0.  1.
    9900012    2    1    2    0    0 -0.35680565121E+02 -0.15705820888E+01 -0.24658748052E+02  0.47787270617E+02  0.19999998053E+02 0.  0.
         12    1    1    2    0    0  0.35680565121E+02  0.15705820888E+01  0.24658748052E+02  0.43400729383E+02  0.00000000000E+00 0. -1.
         11    1    3    3    0    0 -0.26191366842E+00 -0.29407887304E+00 -0.74378251886E+00  0.84160195447E+00  0.51100000000E-03 0. -1.
        -11    1    3    3    0    0 -0.18571485348E+02  0.45162092313E+01 -0.21821001952E+02  0.29007797922E+02  0.51100000000E-03 0.  1.
         12    1    3    3    0    0 -0.16847166104E+02 -0.57927124471E+01 -0.20939635818E+01  0.17937870741E+02  0.00000000000E+00 0. -1.
</event>
<event>
 7    1  0.4450624E-010  0.4778727E+02  0.7816164E-02  0.1312668E+00
        -11   -1    0    0    0    0  0.00000000000E+00  0.00000000000E+00  0.45593999997E+02  0.45594000000E+02  0.51100000000E-03 0.  1.
         11   -1    0    0    0    0 -0.00000000000E+00 -0.00000000000E+00 -0.45593999997E+02  0.45594000000E+02  0.51100000000E-03 0. -1.
    9900012    2    1    2    0    0 -0.49068001514E+01 -0.19093924376E+02  0.38664822142E+02  0.47787272966E+02  0.20000008762E+02 0.  0.
         12    1    1    2    0    0  0.49068001514E+01  0.19093924376E+02 -0.38664822142E+02  0.43400727034E+02  0.00000000000E+00 0. -1.
         11    1    3    3    0    0 -0.18990145891E+01 -0.11043148586E+01 -0.86464943021E+00  0.23608021126E+01  0.51100000000E-03 0. -1.
        -11    1    3    3    0    0 -0.72945532480E+01 -0.10915297249E+02  0.17367875050E+02  0.21771479168E+02  0.51100000000E-03 0.  1.
         12    1    3    3    0    0  0.42867676857E+01 -0.70743122679E+01  0.22161596522E+02  0.23654991686E+02  0.00000000000E+00 0. -1.
</event>
<event>
 7    1  0.4450624E-010  0.4778727E+02  0.7816164E-02  0.1312668E+00
        -11   -1    0    0    0    0  0.00000000000E+00  0.00000000000E+00  0.45593999997E+02  0.45594000000E+02  0.51100000000E-03 0.  1.
         11   -1    0    0    0    0 -0.00000000000E+00 -0.00000000000E+00 -0.45593999997E+02  0.45594000000E+02  0.51100000000E-03 0. -1.
    9900012    2    1    2    0    0  0.25736527704E+02  0.15052071807E+02  0.31538702279E+02  0.47787268838E+02  0.19999989939E+02 0.  0.
         12    1    1    2    0    0 -0.25736527704E+02 -0.15052071807E+02 -0.31538702279E+02  0.43400731162E+02  0.00000000000E+00 0. -1.
         11    1    3    3    0    0  0.22424267825E+01  0.57446819443E+00 -0.68053485111E+00  0.24128032506E+01  0.51100000000E-03 0. -1.
        -11    1    3    3    0    0  0.12947550906E+02  0.16175174758E+02  0.25056084425E+02  0.32512808552E+02  0.51100000000E-03 0.  1.
        -12    1    3    3    0    0  0.10546550015E+02 -0.16975711463E+01  0.71631527055E+01  0.12861657036E+02  0.00000000000E+00 0.  1.
</event>
<event>
 7    1  0.4450624E-010  0.4778727E+02  0.7816164E-02  0.1312668E+00
        -11   -1    0    0    0    0  0.00000000000E+00  0.00000000000E+00  0.45593999997E+02  0.45594000000E+02  0.51100000000E-03 0.  1.
         11   -1    0    0    0    0 -0.00000000000E+00 -0.00000000000E+00 -0.45593999997E+02  0.45594000000E+02  0.51100000000E-03 0. -1.
    9900012    2    1    2    0    0  0.17215402418E+02 -0.15859220187E+02  0.36547752184E+02  0.47787272644E+02  0.20000007292E+02 0.  0.
         12    1    1    2    0    0 -0.17215402418E+02  0.15859220187E+02 -0.36547752184E+02  0.43400727356E+02  0.00000000000E+00 0. -1.
         11    1    3    3    0    0  0.33125245025E+00  0.74641869067E+00 -0.86850155968E+00  0.11921259446E+01  0.51100000000E-03 0. -1.
        -11    1    3    3    0    0  0.36491690623E+01  0.82427169188E-01  0.15922953041E+02  0.16335962258E+02  0.51100000000E-03 0.  1.
        -12    1    3    3    0    0  0.13234980905E+02 -0.16688066047E+02  0.21493300703E+02  0.30259184441E+02  0.00000000000E+00 0.  1.
</event>
<event>
 7    1  0.4450624E-010  0.4778727E+02  0.7816164E-02  0.1312668E+00
        -11   -1    0    0    0    0  0.00000000000E+00  0.00000000000E+00  0.45593999997E+02  0.45594000000E+02  0.51100000000E-03 0. -1.
         11   -1    0    0    0    0 -0.00000000000E+00 -0.00000000000E+00 -0.45593999997E+02  0.45594000000E+02  0.51100000000E-03 0.  1.
    9900012    2    1    2    0    0  0.29765767096E+02 -0.14986304131E+02 -0.27803472700E+02  0.47787270784E+02  0.19999998813E+02 0.  0.
         12    1    1    2    0    0 -0.29765767096E+02  0.14986304131E+02  0.27803472700E+02  0.43400729216E+02  0.00000000000E+00 0. -1.
         11    1    3    3    0    0  0.12743596652E+02 -0.47540913464E+00 -0.11508358723E+02  0.17177531553E+02  0.51100000000E-03 0. -1.
        -11    1    3    3    0    0  0.12518437707E+02 -0.51160267393E+01 -0.14860604957E+02  0.20092849280E+02  0.51100000000E-03 0.  1.
         12    1    3    3    0    0  0.45037327368E+01 -0.93948682569E+01 -0.14345090189E+01  0.10516889952E+02  0.00000000000E+00 0. -1.
</event>
<event>
 7    1  0.4450624E-010  0.4778727E+02  0.7816164E-02  0.1312668E+00
        -11   -1    0    0    0    0  0.00000000000E+00  0.00000000000E+00  0.45593999997E+02  0.45594000000E+02  0.51100000000E-03 0.  1.
         11   -1    0    0    0    0 -0.00000000000E+00 -0.00000000000E+00 -0.45593999997E+02  0.45594000000E+02  0.51100000000E-03 0. -1.
    9900012    2    1    2    0    0  0.23504109167E+02 -0.31824287247E+02 -0.17843622490E+02  0.47787271089E+02  0.20000000202E+02 0.  0.
         12    1    1    2    0    0 -0.23504109167E+02  0.31824287247E+02  0.17843622490E+02  0.43400728911E+02  0.00000000000E+00 0. -1.
         11    1    3    3    0    0  0.55182124216E+01 -0.12858185537E+02 -0.64094377983E+01  0.15390402750E+02  0.51100000000E-03 0. -1.
        -11    1    3    3    0    0  0.11486513795E+02 -0.18184765281E+02 -0.29947698368E+01  0.21716222832E+02  0.51100000000E-03 0.  1.
         12    1    3    3    0    0  0.64993829503E+01 -0.78133642875E+00 -0.84394148549E+01  0.10680645507E+02  0.00000000000E+00 0. -1.
</event>
<event>
 7    1  0.4450624E-010  0.4778727E+02  0.7816164E-02  0.1312668E+00
        -11   -1    0    0    0    0  0.00000000000E+00  0.00000000000E+00  0.45593999997E+02  0.45594000000E+02  0.51100000000E-03 0. -1.
         11   -1    0    0    0    0 -0.00000000000E+00 -0.00000000000E+00 -0.45593999997E+02  0.45594000000E+02  0.51100000000E-03 0.  1.
    9900012    2    1    2    0    0  0.38518987414E+01 -0.43132825914E+02 -0.28888504448E+01  0.47787271294E+02  0.20000001140E+02 0.  0.
         12    1    1    2    0    0 -0.38518987414E+01  0.43132825914E+02  0.28888504448E+01  0.43400728706E+02  0.00000000000E+00 0. -1.
         11    1    3    3    0    0 -0.11035174959E+00 -0.18033850925E+00  0.25258700275E+01  0.25347029695E+01  0.51100000000E-03 0. -1.
        -11    1    3    3    0    0 -0.42574916097E+01 -0.19454499242E+02 -0.40393450090E+01  0.20320435131E+02  0.51100000000E-03 0.  1.
         12    1    3    3    0    0  0.82197421007E+01 -0.23497988163E+02 -0.13753754633E+01  0.24932133194E+02  0.00000000000E+00 0. -1.
</event>
<event>
 7    1  0.4450624E-010  0.4778728E+02  0.7816164E-02  0.1312668E+00
        -11   -1    0    0    0    0  0.00000000000E+00  0.00000000000E+00  0.45593999997E+02  0.45594000000E+02  0.51100000000E-03 0. -1.
         11   -1    0    0    0    0 -0.00000000000E+00 -0.00000000000E+00 -0.45593999997E+02  0.45594000000E+02  0.51100000000E-03 0.  1.
    9900012    2    1    2    0    0  0.40615771956E+02  0.89817066355E+01 -0.12381879042E+02  0.47787275187E+02  0.20000018890E+02 0.  0.
         12    1    1    2    0    0 -0.40615771956E+02 -0.89817066355E+01  0.12381879042E+02  0.43400724813E+02  0.00000000000E+00 0. -1.
         11    1    3    3    0    0  0.17897841754E+01  0.70928549138E+00  0.17144116873E+01  0.25779101997E+01  0.51100000000E-03 0. -1.
        -11    1    3    3    0    0  0.13117659512E+02  0.58581314709E+01 -0.12983531617E+02  0.19363955921E+02  0.51100000000E-03 0.  1.
         12    1    3    3    0    0  0.25708328268E+02  0.24142896732E+01 -0.11127591122E+01  0.25845409067E+02  0.00000000000E+00 0. -1.
</event>
<event>
 7    1  0.4450624E-010  0.4778727E+02  0.7816164E-02  0.1312668E+00
        -11   -1    0    0    0    0  0.00000000000E+00  0.00000000000E+00  0.45593999997E+02  0.45594000000E+02  0.51100000000E-03 0.  1.
         11   -1    0    0    0    0 -0.00000000000E+00 -0.00000000000E+00 -0.45593999997E+02  0.45594000000E+02  0.51100000000E-03 0. -1.
    9900012    2    1    2    0    0  0.10970578373E+02  0.32274884484E+02  0.26862639751E+02  0.47787272210E+02  0.20000005314E+02 0.  0.
         12    1    1    2    0    0 -0.10970578373E+02 -0.32274884484E+02 -0.26862639751E+02  0.43400727790E+02  0.00000000000E+00 0. -1.
         11    1    3    3    0    0  0.44567911928E+01 -0.16430354707E+00  0.51038111897E+01  0.67778220922E+01  0.51100000000E-03 0. -1.
        -11    1    3    3    0    0 -0.15221287083E+01  0.25652207392E+00  0.14347851906E+01  0.21074364008E+01  0.51100000000E-03 0.  1.
        -12    1    3    3    0    0  0.80359158889E+01  0.32182665957E+02  0.20324043371E+02  0.38902013717E+02  0.00000000000E+00 0.  1.
</event>
<event>
 7    1  0.4450624E-010  0.4778728E+02  0.7816164E-02  0.1312668E+00
        -11   -1    0    0    0    0  0.00000000000E+00  0.00000000000E+00  0.45593999997E+02  0.45594000000E+02  0.51100000000E-03 0.  1.
         11   -1    0    0    0    0 -0.00000000000E+00 -0.00000000000E+00 -0.45593999997E+02  0.45594000000E+02  0.51100000000E-03 0. -1.
    9900012    2    1    2    0    0 -0.25333997428E+02  0.35235598146E+02  0.51356223164E+00  0.47787279401E+02  0.20000038099E+02 0.  0.
         12    1    1    2    0    0  0.25333997428E+02 -0.35235598146E+02 -0.51356223164E+00  0.43400720599E+02  0.00000000000E+00 0. -1.
         11    1    3    3    0    0 -0.38239654241E+00 -0.61111610730E+00  0.19416031748E+00  0.74658455801E+00  0.51100000000E-03 0. -1.
        -11    1    3    3    0    0 -0.25761964579E+02  0.27083278759E+02 -0.33008168794E+01  0.37524368078E+02  0.51100000000E-03 0.  1.
        -12    1    3    3    0    0  0.81036369375E+00  0.87634354944E+01  0.36202187935E+01  0.95163267647E+01  0.00000000000E+00 0.  1.
</event>
<event>
 7    1  0.4450624E-010  0.4778727E+02  0.7816164E-02  0.1312668E+00
        -11   -1    0    0    0    0  0.00000000000E+00  0.00000000000E+00  0.45593999997E+02  0.45594000000E+02  0.51100000000E-03 0. -1.
         11   -1    0    0    0    0 -0.00000000000E+00 -0.00000000000E+00 -0.45593999997E+02  0.45594000000E+02  0.51100000000E-03 0.  1.
    9900012    2    1    2    0    0  0.29467972114E+01 -0.26448013611E+02 -0.34284720517E+02  0.47787273062E+02  0.20000009201E+02 0.  0.
         12    1    1    2    0    0 -0.29467972114E+01  0.26448013611E+02  0.34284720517E+02  0.43400726938E+02  0.00000000000E+00 0. -1.
         11    1    3    3    0    0  0.70127725186E+00 -0.26196574774E+01  0.21637177677E+00  0.27205168792E+01  0.51100000000E-03 0. -1.
        -11    1    3    3    0    0  0.86966549406E+01 -0.17002628992E+02 -0.26870307628E+02  0.32965658375E+02  0.51100000000E-03 0.  1.
        -12    1    3    3    0    0 -0.64511349811E+01 -0.68257271412E+01 -0.76307846663E+01  0.12101097809E+02  0.00000000000E+00 0.  1.
</event>
<event>
 7    1  0.4450624E-010  0.4778727E+02  0.7816164E-02  0.1312668E+00
        -11   -1    0    0    0    0  0.00000000000E+00  0.00000000000E+00  0.45593999997E+02  0.45594000000E+02  0.51100000000E-03 0. -1.
         11   -1    0    0    0    0 -0.00000000000E+00 -0.00000000000E+00 -0.45593999997E+02  0.45594000000E+02  0.51100000000E-03 0.  1.
    9900012    2    1    2    0    0  0.93240708970E+01 -0.25104306273E+02 -0.34153455365E+02  0.47787274143E+02  0.20000014128E+02 0.  0.
         12    1    1    2    0    0 -0.93240708970E+01  0.25104306273E+02  0.34153455365E+02  0.43400725857E+02  0.00000000000E+00 0. -1.
         11    1    3    3    0    0  0.23153721365E+01  0.10603696618E+01 -0.88009189126E+00  0.26944190372E+01  0.51100000000E-03 0. -1.
        -11    1    3    3    0    0  0.77361434141E+01 -0.23425447194E+02 -0.34147796943E+02  0.42126850434E+02  0.51100000000E-03 0.  1.
        -12    1    3    3    0    0 -0.72744465364E+00 -0.27392287409E+01  0.87443346971E+00  0.29660046716E+01  0.00000000000E+00 0.  1.
</event>
<event>
 7    1  0.4450624E-010  0.4778727E+02  0.7816164E-02  0.1312668E+00
        -11   -1    0    0    0    0  0.00000000000E+00  0.00000000000E+00  0.45593999997E+02  0.45594000000E+02  0.51100000000E-03 0. -1.
         11   -1    0    0    0    0 -0.00000000000E+00 -0.00000000000E+00 -0.45593999997E+02  0.45594000000E+02  0.51100000000E-03 0.  1.
    9900012    2    1    2    0    0 -0.17809197636E+02 -0.35314972358E+02 -0.17869209606E+02  0.47787269073E+02  0.19999991011E+02 0.  0.
         12    1    1    2    0    0  0.17809197636E+02  0.35314972358E+02  0.17869209606E+02  0.43400730927E+02  0.00000000000E+00 0. -1.
         11    1    3    3    0    0 -0.44260203926E+01 -0.10878544962E+02  0.22376010420E+01  0.11955720626E+02  0.51100000000E-03 0. -1.
        -11    1    3    3    0    0 -0.44936071300E+00  0.26294623097E+00 -0.31636403838E+01  0.32061950205E+01  0.51100000000E-03 0.  1.
        -12    1    3    3    0    0 -0.12933816530E+02 -0.24699373627E+02 -0.16943170264E+02  0.32625353426E+02  0.00000000000E+00 0.  1.
</event>
<event>
 7    1  0.4450624E-010  0.4778728E+02  0.7816164E-02  0.1312668E+00
        -11   -1    0    0    0    0  0.00000000000E+00  0.00000000000E+00  0.45593999997E+02  0.45594000000E+02  0.51100000000E-03 0.  1.
         11   -1    0    0    0    0 -0.00000000000E+00 -0.00000000000E+00 -0.45593999997E+02  0.45594000000E+02  0.51100000000E-03 0. -1.
    9900012    2    1    2    0    0  0.11029867178E+02  0.20516817058E+02  0.36620006505E+02  0.47787278479E+02  0.20000033895E+02 0.  0.
         12    1    1    2    0    0 -0.11029867178E+02 -0.20516817058E+02 -0.36620006505E+02  0.43400721521E+02  0.00000000000E+00 0. -1.
         11    1    3    3    0    0 -0.38830396233E+01  0.59228453136E+01  0.10689475838E+02  0.12822752719E+02  0.51100000000E-03 0. -1.
        -11    1    3    3    0    0  0.39963809176E+01 -0.11866330667E+01  0.59199040494E+01  0.72404711649E+01  0.51100000000E-03 0.  1.
         12    1    3    3    0    0  0.10916525884E+02  0.15780604811E+02  0.20010626617E+02  0.27724054595E+02  0.00000000000E+00 0. -1.
</event>
<event>
 7    1  0.4450624E-010  0.4778727E+02  0.7816164E-02  0.1312668E+00
        -11   -1    0    0    0    0  0.00000000000E+00  0.00000000000E+00  0.45593999997E+02  0.45594000000E+02  0.51100000000E-03 0.  1.
         11   -1    0    0    0    0 -0.00000000000E+00 -0.00000000000E+00 -0.45593999997E+02  0.45594000000E+02  0.51100000000E-03 0. -1.
    9900012    2    1    2    0    0  0.41597403825E+00  0.20858867384E+02  0.38057299219E+02  0.47787269513E+02  0.19999993018E+02 0.  0.
         12    1    1    2    0    0 -0.41597403825E+00 -0.20858867384E+02 -0.38057299219E+02  0.43400730487E+02  0.00000000000E+00 0. -1.
         11    1    3    3    0    0 -0.11545085143E+01  0.11210844415E+02  0.12532141409E+02  0.16854390851E+02  0.51100000000E-03 0. -1.
        -11    1    3    3    0    0  0.43029833809E+01  0.11747643043E+02  0.24196586466E+02  0.27239632522E+02  0.51100000000E-03 0.  1.
         12    1    3    3    0    0 -0.27325008283E+01 -0.20996200744E+01  0.13285713440E+01  0.36932461399E+01  0.00000000000E+00 0. -1.
</event>
<event>
 7    1  0.4450624E-010  0.4778726E+02  0.7816164E-02  0.1312668E+00
        -11   -1    0    0    0    0  0.00000000000E+00  0.00000000000E+00  0.45593999997E+02  0.45594000000E+02  0.51100000000E-03 0. -1.
         11   -1    0    0    0    0 -0.00000000000E+00 -0.00000000000E+00 -0.45593999997E+02  0.45594000000E+02  0.51100000000E-03 0.  1.
    9900012    2    1    2    0    0 -0.26147683075E+02  0.25407700314E+02 -0.23545094044E+02  0.47787262461E+02  0.19999960863E+02 0.  0.
         12    1    1    2    0    0  0.26147683075E+02 -0.25407700314E+02  0.23545094044E+02  0.43400737539E+02  0.00000000000E+00 0. -1.
         11    1    3    3    0    0  0.17399333475E+00  0.68876230167E+01 -0.55870013059E-01  0.68900468953E+01  0.51100000000E-03 0. -1.
        -11    1    3    3    0    0 -0.16737012687E+01 -0.10641109280E+01 -0.11170363871E+01  0.22762641664E+01  0.51100000000E-03 0.  1.
        -12    1    3    3    0    0 -0.24647975141E+02  0.19584188225E+02 -0.22372187644E+02  0.38620951399E+02  0.00000000000E+00 0.  1.
</event>
<event>
 7    1  0.4450624E-010  0.4778727E+02  0.7816164E-02  0.1312668E+00
        -11   -1    0    0    0    0  0.00000000000E+00  0.00000000000E+00  0.45593999997E+02  0.45594000000E+02  0.51100000000E-03 0.  1.
         11   -1    0    0    0    0 -0.00000000000E+00 -0.00000000000E+00 -0.45593999997E+02  0.45594000000E+02  0.51100000000E-03 0. -1.
    9900012    2    1    2    0    0  0.51377323240E+01 -0.39795291789E+02  0.16539716812E+02  0.47787265280E+02  0.19999973715E+02 0.  0.
         12    1    1    2    0    0 -0.51377323240E+01  0.39795291789E+02 -0.16539716812E+02  0.43400734720E+02  0.00000000000E+00 0. -1.
         11    1    3    3    0    0  0.35383984427E+00  0.10721902052E+01  0.47063529224E+00  0.12232302771E+01  0.51100000000E-03 0. -1.
        -11    1    3    3    0    0  0.70057019827E+00 -0.19395615405E+02  0.15265763780E+02  0.24692594833E+02  0.51100000000E-03 0.  1.
        -12    1    3    3    0    0  0.40833222815E+01 -0.21471866590E+02  0.80331774063E+00  0.21871440170E+02  0.00000000000E+00 0.  1.
</event>
<event>
 7    1  0.4450624E-010  0.4778729E+02  0.7816164E-02  0.1312668E+00
        -11   -1    0    0    0    0  0.00000000000E+00  0.00000000000E+00  0.45593999997E+02  0.45594000000E+02  0.51100000000E-03 0. -1.
         11   -1    0    0    0    0 -0.00000000000E+00 -0.00000000000E+00 -0.45593999997E+02  0.45594000000E+02  0.51100000000E-03 0.  1.
    9900012    2    1    2    0    0 -0.34561381552E+02  0.26123543468E+02 -0.25871344011E+01  0.47787287074E+02  0.20000073084E+02 0.  0.
         12    1    1    2    0    0  0.34561381552E+02 -0.26123543468E+02  0.25871344011E+01  0.43400712926E+02  0.00000000000E+00 0. -1.
         11    1    3    3    0    0 -0.38902562429E+01  0.44969036238E+01  0.24278232541E+01  0.64226600293E+01  0.51100000000E-03 0. -1.
        -11    1    3    3    0    0 -0.32757920407E+02  0.20369047045E+02 -0.42336135591E+01  0.38805964889E+02  0.51100000000E-03 0.  1.
        -12    1    3    3    0    0  0.20867950982E+01  0.12575927992E+01 -0.78134409618E+00  0.25586621557E+01  0.00000000000E+00 0.  1.
</event>
<event>
 7    1  0.4450624E-010  0.4778727E+02  0.7816164E-02  0.1312668E+00
        -11   -1    0    0    0    0  0.00000000000E+00  0.00000000000E+00  0.45593999997E+02  0.45594000000E+02  0.51100000000E-03 0.  1.
         11   -1    0    0    0    0 -0.00000000000E+00 -0.00000000000E+00 -0.45593999997E+02  0.45594000000E+02  0.51100000000E-03 0. -1.
    9900012    2    1    2    0    0 -0.33391650200E+02  0.78557689086E+01  0.26587738100E+02  0.47787271602E+02  0.20000002542E+02 0.  0.
         12    1    1    2    0    0  0.33391650200E+02 -0.78557689086E+01 -0.26587738100E+02  0.43400728398E+02  0.00000000000E+00 0. -1.
         11    1    3    3    0    0 -0.11110929585E+02  0.44334508559E+01  0.87361199548E+01  0.14813103485E+02  0.51100000000E-03 0. -1.
        -11    1    3    3    0    0 -0.21156856335E+02  0.82222655598E+01  0.15677557512E+02  0.27586301505E+02  0.51100000000E-03 0.  1.
         12    1    3    3    0    0 -0.11238642798E+01 -0.47999475071E+01  0.21740606326E+01  0.53878666116E+01  0.00000000000E+00 0. -1.
</event>
<event>
 7    1  0.4450624E-010  0.4778727E+02  0.7816164E-02  0.1312668E+00
        -11   -1    0    0    0    0  0.00000000000E+00  0.00000000000E+00  0.45593999997E+02  0.45594000000E+02  0.51100000000E-03 0. -1.
         11   -1    0    0    0    0 -0.00000000000E+00 -0.00000000000E+00 -0.45593999997E+02  0.45594000000E+02  0.51100000000E-03 0.  1.
    9900012    2    1    2    0    0  0.30275334913E+02  0.30674086740E+02 -0.51115484300E+01  0.47787269260E+02  0.19999991865E+02 0.  0.
         12    1    1    2    0    0 -0.30275334913E+02 -0.30674086740E+02  0.51115484300E+01  0.43400730740E+02  0.00000000000E+00 0. -1.
         11    1    3    3    0    0  0.12673573716E+02  0.57686473049E+01  0.19738383848E+01  0.14063882846E+02  0.51100000000E-03 0. -1.
        -11    1    3    3    0    0  0.73605976111E+01  0.20329601448E+01 -0.35273255659E+01  0.84115010582E+01  0.51100000000E-03 0.  1.
         12    1    3    3    0    0  0.10241163586E+02  0.22872479290E+02 -0.35580612489E+01  0.25311885357E+02  0.00000000000E+00 0. -1.
</event>
<event>
 7    1  0.4450624E-010  0.4778727E+02  0.7816164E-02  0.1312668E+00
        -11   -1    0    0    0    0  0.00000000000E+00  0.00000000000E+00  0.45593999997E+02  0.45594000000E+02  0.51100000000E-03 0.  1.
         11   -1    0    0    0    0 -0.00000000000E+00 -0.00000000000E+00 -0.45593999997E+02  0.45594000000E+02  0.51100000000E-03 0. -1.
    9900012    2    1    2    0    0 -0.18208728757E+02  0.37906052577E+02  0.10732967345E+02  0.47787271746E+02  0.20000003200E+02 0.  0.
         12    1    1    2    0    0  0.18208728757E+02 -0.37906052577E+02 -0.10732967345E+02  0.43400728254E+02  0.00000000000E+00 0. -1.
         11    1    3    3    0    0 -0.15909422735E+01  0.52464477870E+01  0.86118031250E+01  0.10208793515E+02  0.51100000000E-03 0. -1.
        -11    1    3    3    0    0 -0.55899117083E+00  0.84095314988E+01  0.21461413727E+00  0.84308214693E+01  0.51100000000E-03 0.  1.
         12    1    3    3    0    0 -0.16058795312E+02  0.24250073291E+02  0.19065500826E+01  0.29147656762E+02  0.00000000000E+00 0. -1.
</event>
<event>
 7    1  0.4450624E-010  0.4778728E+02  0.7816164E-02  0.1312668E+00
        -11   -1    0    0    0    0  0.00000000000E+00  0.00000000000E+00  0.45593999997E+02  0.45594000000E+02  0.51100000000E-03 0.  1.
         11   -1    0    0    0    0 -0.00000000000E+00 -0.00000000000E+00 -0.45593999997E+02  0.45594000000E+02  0.51100000000E-03 0. -1.
    9900012    2    1    2    0    0  0.49076383054E+01  0.27147106885E+02  0.33504811352E+02  0.47787277544E+02  0.20000029634E+02 0.  0.
         12    1    1    2    0    0 -0.49076383054E+01 -0.27147106885E+02 -0.33504811352E+02  0.43400722456E+02  0.00000000000E+00 0. -1.
         11    1    3    3    0    0 -0.28688670084E+00 -0.46726886288E+00 -0.43068402144E+00  0.69723249837E+00  0.51100000000E-03 0. -1.
        -11    1    3    3    0    0  0.50564703496E+01  0.44765395408E+00  0.29094183226E+01  0.58508975120E+01  0.51100000000E-03 0.  1.
         12    1    3    3    0    0  0.13805465665E+00  0.27166721794E+02  0.31026077051E+02  0.41239147534E+02  0.00000000000E+00 0. -1.
</event>
<event>
 7    1  0.4450624E-010  0.4778728E+02  0.7816164E-02  0.1312668E+00
        -11   -1    0    0    0    0  0.00000000000E+00  0.00000000000E+00  0.45593999997E+02  0.45594000000E+02  0.51100000000E-03 0.  1.
         11   -1    0    0    0    0 -0.00000000000E+00 -0.00000000000E+00 -0.45593999997E+02  0.45594000000E+02  0.51100000000E-03 0. -1.
    9900012    2    1    2    0    0 -0.26026962197E+01  0.38092242566E+02 -0.20635641177E+02  0.47787278138E+02  0.20000032344E+02 0.  0.
         12    1    1    2    0    0  0.26026962197E+01 -0.38092242566E+02  0.20635641177E+02  0.43400721862E+02  0.00000000000E+00 0. -1.
         11    1    3    3    0    0 -0.67183422152E+00  0.45090212828E+01  0.17082856690E+01  0.48683543768E+01  0.51100000000E-03 0. -1.
        -11    1    3    3    0    0 -0.19889431529E+01  0.27873406467E+02 -0.10649249279E+02  0.29904668421E+02  0.51100000000E-03 0.  1.
         12    1    3    3    0    0  0.58081154705E-01  0.57098148166E+01 -0.11694677567E+02  0.13014255340E+02  0.00000000000E+00 0. -1.
</event>
<event>
 7    1  0.4450624E-010  0.4778726E+02  0.7816164E-02  0.1312668E+00
        -11   -1    0    0    0    0  0.00000000000E+00  0.00000000000E+00  0.45593999997E+02  0.45594000000E+02  0.51100000000E-03 0.  1.
         11   -1    0    0    0    0 -0.00000000000E+00 -0.00000000000E+00 -0.45593999997E+02  0.45594000000E+02  0.51100000000E-03 0. -1.
    9900012    2    1    2    0    0  0.11258599545E+02  0.11971996084E+02  0.40168884861E+02  0.47787261931E+02  0.19999958447E+02 0.  0.
         12    1    1    2    0    0 -0.11258599545E+02 -0.11971996084E+02 -0.40168884861E+02  0.43400738069E+02  0.00000000000E+00 0. -1.
         11    1    3    3    0    0 -0.62649089911E+00  0.98888648588E+00 -0.13140435702E+01  0.17598574073E+01  0.51100000000E-03 0. -1.
        -11    1    3    3    0    0  0.47628216641E+01  0.53297658099E+00  0.33371998495E+01  0.58399860733E+01  0.51100000000E-03 0.  1.
        -12    1    3    3    0    0  0.71222687805E+01  0.10450133017E+02  0.38145728582E+02  0.40187418450E+02  0.00000000000E+00 0.  1.
</event>
<event>
 7    1  0.4450624E-010  0.4778727E+02  0.7816164E-02  0.1312668E+00
        -11   -1    0    0    0    0  0.00000000000E+00  0.00000000000E+00  0.45593999997E+02  0.45594000000E+02  0.51100000000E-03 0.  1.
         11   -1    0    0    0    0 -0.00000000000E+00 -0.00000000000E+00 -0.45593999997E+02  0.45594000000E+02  0.51100000000E-03 0. -1.
    9900012    2    1    2    0    0 -0.17291300324E+02 -0.24391696752E+02  0.31459171865E+02  0.47787269225E+02  0.19999991704E+02 0.  0.
         12    1    1    2    0    0  0.17291300324E+02  0.24391696752E+02 -0.31459171865E+02  0.43400730775E+02  0.00000000000E+00 0. -1.
         11    1    3    3    0    0 -0.28438868208E+01 -0.50451472072E+01 -0.12273129152E+01  0.59200928915E+01  0.51100000000E-03 0. -1.
        -11    1    3    3    0    0 -0.53820989894E+01 -0.99994389364E+01  0.77892817670E+01  0.13770572947E+02  0.51100000000E-03 0.  1.
        -12    1    3    3    0    0 -0.90653145138E+01 -0.93471106088E+01  0.24897203014E+02  0.28096603387E+02  0.00000000000E+00 0.  1.
</event>
<event>
 7    1  0.4450624E-010  0.4778727E+02  0.7816164E-02  0.1312668E+00
        -11   -1    0    0    0    0  0.00000000000E+00  0.00000000000E+00  0.45593999997E+02  0.45594000000E+02  0.51100000000E-03 0.  1.
         11   -1    0    0    0    0 -0.00000000000E+00 -0.00000000000E+00 -0.45593999997E+02  0.45594000000E+02  0.51100000000E-03 0. -1.
    9900012    2    1    2    0    0 -0.37854492973E+02 -0.17325381426E+02  0.12267507922E+02  0.47787271545E+02  0.20000002282E+02 0.  0.
         12    1    1    2    0    0  0.37854492973E+02  0.17325381426E+02 -0.12267507922E+02  0.43400728455E+02  0.00000000000E+00 0. -1.
         11    1    3    3    0    0 -0.13888705431E+02 -0.77353758595E+01  0.28892777230E+01  0.16157973396E+02  0.51100000000E-03 0. -1.
        -11    1    3    3    0    0 -0.25473756198E+02 -0.11347856676E+02  0.87936355029E+01  0.29240624678E+02  0.51100000000E-03 0.  1.
         12    1    3    3    0    0  0.15079686557E+01  0.17578511098E+01  0.58459469608E+00  0.23886734706E+01  0.00000000000E+00 0. -1.
</event>
<event>
 7    1  0.4450624E-010  0.4778727E+02  0.7816164E-02  0.1312668E+00
        -11   -1    0    0    0    0  0.00000000000E+00  0.00000000000E+00  0.45593999997E+02  0.45594000000E+02  0.51100000000E-03 0.  1.
         11   -1    0    0    0    0 -0.00000000000E+00 -0.00000000000E+00 -0.45593999997E+02  0.45594000000E+02  0.51100000000E-03 0. -1.
    9900012    2    1    2    0    0 -0.41421437308E+02  0.13495713162E+01  0.12886684087E+02  0.47787269152E+02  0.19999991371E+02 0.  0.
         12    1    1    2    0    0  0.41421437308E+02 -0.13495713162E+01 -0.12886684087E+02  0.43400730848E+02  0.00000000000E+00 0. -1.
         11    1    3    3    0    0 -0.14849962420E+02 -0.88521311717E+00  0.11568773489E+02  0.18845198498E+02  0.51100000000E-03 0. -1.
        -11    1    3    3    0    0 -0.16806687300E+02 -0.37071979621E+01  0.27254309220E+01  0.17425155055E+02  0.51100000000E-03 0.  1.
         12    1    3    3    0    0 -0.97647875886E+01  0.59419823955E+01 -0.14075203246E+01  0.11516915598E+02  0.00000000000E+00 0. -1.
</event>
<event>
 7    1  0.4450624E-010  0.4778733E+02  0.7816164E-02  0.1312667E+00
        -11   -1    0    0    0    0  0.00000000000E+00  0.00000000000E+00  0.45593999997E+02  0.45594000000E+02  0.51100000000E-03 0.  1.
         11   -1    0    0    0    0 -0.00000000000E+00 -0.00000000000E+00 -0.45593999997E+02  0.45594000000E+02  0.51100000000E-03 0. -1.
    9900012    2    1    2    0    0  0.18254208134E+01  0.19765595689E+02  0.38595429915E+02  0.47787330139E+02  0.20000269434E+02 0.  0.
         12    1    1    2    0    0 -0.18254208134E+01 -0.19765595689E+02 -0.38595429915E+02  0.43400669861E+02  0.00000000000E+00 0. -1.
         11    1    3    3    0    0  0.30167404744E+01  0.12201309933E+02  0.12094802067E+02  0.17442962032E+02  0.51100000000E-03 0.  1.
        -11    1    3    3    0    0 -0.42090696573E+00  0.42452294847E+01  0.70406355126E+00  0.43237532072E+01  0.51100000000E-03 0. -1.
         12    1    3    3    0    0 -0.77041269526E+00  0.33190562720E+01  0.25796564296E+02  0.26020614899E+02  0.00000000000E+00 0. -1.
</event>
<event>
 7    1  0.4450624E-010  0.4778727E+02  0.7816164E-02  0.1312668E+00
        -11   -1    0    0    0    0  0.00000000000E+00  0.00000000000E+00  0.45593999997E+02  0.45594000000E+02  0.51100000000E-03 0.  1.
         11   -1    0    0    0    0 -0.00000000000E+00 -0.00000000000E+00 -0.45593999997E+02  0.45594000000E+02  0.51100000000E-03 0. -1.
    9900012    2    1    2    0    0  0.25856955199E+02  0.15449762012E+02  0.31246536030E+02  0.47787270833E+02  0.19999999036E+02 0.  0.
         12    1    1    2    0    0 -0.25856955199E+02 -0.15449762012E+02 -0.31246536030E+02  0.43400729167E+02  0.00000000000E+00 0. -1.
         11    1    3    3    0    0  0.23317727156E+01  0.43292937930E+01  0.38588814957E+01  0.62506731959E+01  0.51100000000E-03 0. -1.
        -11    1    3    3    0    0  0.15536205336E+02  0.64111685621E+01  0.27537975207E+02  0.32261693032E+02  0.51100000000E-03 0.  1.
         12    1    3    3    0    0  0.79889771473E+01  0.47092996572E+01 -0.15032067271E+00  0.92749046047E+01  0.00000000000E+00 0. -1.
</event>
<event>
 7    1  0.4450624E-010  0.4778727E+02  0.7816164E-02  0.1312668E+00
        -11   -1    0    0    0    0  0.00000000000E+00  0.00000000000E+00  0.45593999997E+02  0.45594000000E+02  0.51100000000E-03 0. -1.
         11   -1    0    0    0    0 -0.00000000000E+00 -0.00000000000E+00 -0.45593999997E+02  0.45594000000E+02  0.51100000000E-03 0.  1.
    9900012    2    1    2    0    0  0.59100840839E+01  0.42455378377E+02 -0.67996198756E+01  0.47787273307E+02  0.20000010316E+02 0.  0.
         12    1    1    2    0    0 -0.59100840839E+01 -0.42455378377E+02  0.67996198756E+01  0.43400726693E+02  0.00000000000E+00 0. -1.
         11    1    3    3    0    0 -0.58506711051E+00 -0.12769940429E+01 -0.13320298239E+01  0.19357998404E+01  0.51100000000E-03 0. -1.
        -11    1    3    3    0    0  0.18720825966E+00  0.35229814247E+01 -0.36993499197E+01  0.51119111046E+01  0.51100000000E-03 0.  1.
         12    1    3    3    0    0  0.63079429348E+01  0.40209390995E+02 -0.17682401320E+01  0.40739562362E+02  0.00000000000E+00 0. -1.
</event>
<event>
 7    1  0.4450624E-010  0.4778728E+02  0.7816164E-02  0.1312668E+00
        -11   -1    0    0    0    0  0.00000000000E+00  0.00000000000E+00  0.45593999997E+02  0.45594000000E+02  0.51100000000E-03 0. -1.
         11   -1    0    0    0    0 -0.00000000000E+00 -0.00000000000E+00 -0.45593999997E+02  0.45594000000E+02  0.51100000000E-03 0.  1.
    9900012    2    1    2    0    0 -0.20364802024E+02 -0.38310037362E+02  0.11129674628E+01  0.47787276264E+02  0.20000023800E+02 0.  0.
         12    1    1    2    0    0  0.20364802024E+02  0.38310037362E+02 -0.11129674628E+01  0.43400723736E+02  0.00000000000E+00 0. -1.
         11    1    3    3    0    0  0.17682938261E+01 -0.74023326128E+00 -0.23667672052E+01  0.30457175840E+01  0.51100000000E-03 0. -1.
        -11    1    3    3    0    0 -0.24435036836E+01 -0.12379003122E+02  0.45511177867E+00  0.12626066511E+02  0.51100000000E-03 0.  1.
        -12    1    3    3    0    0 -0.19689592167E+02 -0.25190800979E+02  0.30246228893E+01  0.32115492169E+02  0.00000000000E+00 0.  1.
</event>
<event>
 7    1  0.4450624E-010  0.4778728E+02  0.7816164E-02  0.1312668E+00
        -11   -1    0    0    0    0  0.00000000000E+00  0.00000000000E+00  0.45593999997E+02  0.45594000000E+02  0.51100000000E-03 0.  1.
         11   -1    0    0    0    0 -0.00000000000E+00 -0.00000000000E+00 -0.45593999997E+02  0.45594000000E+02  0.51100000000E-03 0. -1.
    9900012    2    1    2    0    0  0.13992757885E+02  0.23795218404E+02  0.33490491619E+02  0.47787277414E+02  0.20000029041E+02 0.  0.
         12    1    1    2    0    0 -0.13992757885E+02 -0.23795218404E+02 -0.33490491619E+02  0.43400722586E+02  0.00000000000E+00 0. -1.
         11    1    3    3    0    0  0.48319680111E+01 -0.23801667681E+01  0.38350720216E+01  0.66121771283E+01  0.51100000000E-03 0. -1.
        -11    1    3    3    0    0  0.43652139962E+01  0.68236785245E+01  0.52135778863E+01  0.96332277289E+01  0.51100000000E-03 0.  1.
         12    1    3    3    0    0  0.47955758781E+01  0.19351706647E+02  0.24441841711E+02  0.31541872557E+02  0.00000000000E+00 0. -1.
</event>
<event>
 7    1  0.4450624E-010  0.4778726E+02  0.7816164E-02  0.1312668E+00
        -11   -1    0    0    0    0  0.00000000000E+00  0.00000000000E+00  0.45593999997E+02  0.45594000000E+02  0.51100000000E-03 0.  1.
         11   -1    0    0    0    0 -0.00000000000E+00 -0.00000000000E+00 -0.45593999997E+02  0.45594000000E+02  0.51100000000E-03 0. -1.
    9900012    2    1    2    0    0  0.23946812252E+02 -0.10181539107E+02  0.34734859007E+02  0.47787262842E+02  0.19999962601E+02 0.  0.
         12    1    1    2    0    0 -0.23946812252E+02  0.10181539107E+02 -0.34734859007E+02  0.43400737158E+02  0.00000000000E+00 0. -1.
         11    1    3    3    0    0  0.50215875763E+01 -0.62763248179E+01  0.19168242485E+02  0.20785334138E+02  0.51100000000E-03 0. -1.
        -11    1    3    3    0    0  0.14965864425E+02 -0.48392824367E+01  0.16534081910E+02  0.22820421060E+02  0.51100000000E-03 0.  1.
        -12    1    3    3    0    0  0.39593602510E+01  0.93406814788E+00 -0.96746538728E+00  0.41815076441E+01  0.00000000000E+00 0.  1.
</event>
<event>
 7    1  0.4450624E-010  0.4778727E+02  0.7816164E-02  0.1312668E+00
        -11   -1    0    0    0    0  0.00000000000E+00  0.00000000000E+00  0.45593999997E+02  0.45594000000E+02  0.51100000000E-03 0.  1.
         11   -1    0    0    0    0 -0.00000000000E+00 -0.00000000000E+00 -0.45593999997E+02  0.45594000000E+02  0.51100000000E-03 0. -1.
    9900012    2    1    2    0    0  0.35864590157E+02  0.18885636298E+02  0.15514087838E+02  0.47787274119E+02  0.20000014020E+02 0.  0.
         12    1    1    2    0    0 -0.35864590157E+02 -0.18885636298E+02 -0.15514087838E+02  0.43400725881E+02  0.00000000000E+00 0. -1.
         11    1    3    3    0    0  0.20616514849E+02  0.11680872668E+02  0.50283999735E+01  0.24223300299E+02  0.51100000000E-03 0. -1.
        -11    1    3    3    0    0  0.12146359719E+02  0.10665667407E+02  0.96973268848E+01  0.18850163517E+02  0.51100000000E-03 0.  1.
         12    1    3    3    0    0  0.31017155895E+01 -0.34609037764E+01  0.78836097972E+00  0.47138103039E+01  0.00000000000E+00 0. -1.
</event>
<event>
 7    1  0.4450624E-010  0.4778730E+02  0.7816164E-02  0.1312668E+00
        -11   -1    0    0    0    0  0.00000000000E+00  0.00000000000E+00  0.45593999997E+02  0.45594000000E+02  0.51100000000E-03 0. -1.
         11   -1    0    0    0    0 -0.00000000000E+00 -0.00000000000E+00 -0.45593999997E+02  0.45594000000E+02  0.51100000000E-03 0.  1.
    9900012    2    1    2    0    0  0.20365505893E+02 -0.15781870852E+02 -0.34925627838E+02  0.47787300032E+02  0.20000132165E+02 0.  0.
         12    1    1    2    0    0 -0.20365505893E+02  0.15781870852E+02  0.34925627838E+02  0.43400699968E+02  0.00000000000E+00 0. -1.
         11    1    3    3    0    0  0.45286795550E+01 -0.11482036225E+02 -0.87008768489E+01  0.15101369229E+02  0.51100000000E-03 0.  1.
        -11    1    3    3    0    0  0.79906165023E+01 -0.20696776529E+01 -0.43300085992E+01  0.93210778563E+01  0.51100000000E-03 0. -1.
        -12    1    3    3    0    0  0.78462098361E+01 -0.22301569741E+01 -0.21894742389E+02  0.23364852947E+02  0.00000000000E+00 0.  1.
</event>
<event>
 7    1  0.4450624E-010  0.4778727E+02  0.7816164E-02  0.1312668E+00
        -11   -1    0    0    0    0  0.00000000000E+00  0.00000000000E+00  0.45593999997E+02  0.45594000000E+02  0.51100000000E-03 0. -1.
         11   -1    0    0    0    0 -0.00000000000E+00 -0.00000000000E+00 -0.45593999997E+02  0.45594000000E+02  0.51100000000E-03 0.  1.
    9900012    2    1    2    0    0 -0.25925259681E+02  0.10688164029E+02 -0.33125022889E+02  0.47787273264E+02  0.20000010121E+02 0.  0.
         12    1    1    2    0    0  0.25925259681E+02 -0.10688164029E+02  0.33125022889E+02  0.43400726736E+02  0.00000000000E+00 0. -1.
         11    1    3    3    0    0 -0.11176551610E+02 -0.20038455129E+01 -0.70632381416E+01  0.13372360900E+02  0.51100000000E-03 0. -1.
        -11    1    3    3    0    0 -0.14037660965E+02  0.59859737089E+01 -0.21110439369E+02  0.26048770743E+02  0.51100000000E-03 0.  1.
         12    1    3    3    0    0 -0.71104710569E+00  0.67060358326E+01 -0.49513453783E+01  0.83661416214E+01  0.00000000000E+00 0. -1.
</event>
<event>
 7    1  0.4450624E-010  0.4778728E+02  0.7816164E-02  0.1312668E+00
        -11   -1    0    0    0    0  0.00000000000E+00  0.00000000000E+00  0.45593999997E+02  0.45594000000E+02  0.51100000000E-03 0. -1.
         11   -1    0    0    0    0 -0.00000000000E+00 -0.00000000000E+00 -0.45593999997E+02  0.45594000000E+02  0.51100000000E-03 0.  1.
    9900012    2    1    2    0    0 -0.29264509390E+02 -0.61679668089E+01 -0.31451034897E+02  0.47787275115E+02  0.20000018561E+02 0.  0.
         12    1    1    2    0    0  0.29264509390E+02  0.61679668089E+01  0.31451034897E+02  0.43400724885E+02  0.00000000000E+00 0. -1.
         11    1    3    3    0    0  0.20583077702E+01 -0.18281201055E+01 -0.25118099183E+01  0.37266396826E+01  0.51100000000E-03 0. -1.
        -11    1    3    3    0    0 -0.10058440708E+02 -0.54231940231E+01 -0.65843473361E+01  0.13188513676E+02  0.51100000000E-03 0.  1.
        -12    1    3    3    0    0 -0.21264376453E+02  0.10833473198E+01 -0.22354877643E+02  0.30872121756E+02  0.00000000000E+00 0.  1.
</event>
<event>
 7    1  0.4450624E-010  0.4778727E+02  0.7816164E-02  0.1312668E+00
        -11   -1    0    0    0    0  0.00000000000E+00  0.00000000000E+00  0.45593999997E+02  0.45594000000E+02  0.51100000000E-03 0.  1.
         11   -1    0    0    0    0 -0.00000000000E+00 -0.00000000000E+00 -0.45593999997E+02  0.45594000000E+02  0.51100000000E-03 0. -1.
    9900012    2    1    2    0    0 -0.71238742895E+01 -0.42810295884E+02 -0.39019333450E+00  0.47787271096E+02  0.20000000234E+02 0.  0.
         12    1    1    2    0    0  0.71238742895E+01  0.42810295884E+02  0.39019333450E+00  0.43400728904E+02  0.00000000000E+00 0. -1.
         11    1    3    3    0    0 -0.55328632504E+01 -0.28651024978E+02  0.60563524619E+01  0.29802235041E+02  0.51100000000E-03 0. -1.
        -11    1    3    3    0    0 -0.34265297400E+01 -0.89334481829E+01 -0.10961325578E+00  0.95686790010E+01  0.51100000000E-03 0.  1.
        -12    1    3    3    0    0  0.18355187010E+01 -0.52258227235E+01 -0.63369325406E+01  0.84163570542E+01  0.00000000000E+00 0.  1.
</event>
<event>
 7    1  0.4450624E-010  0.4778727E+02  0.7816164E-02  0.1312668E+00
        -11   -1    0    0    0    0  0.00000000000E+00  0.00000000000E+00  0.45593999997E+02  0.45594000000E+02  0.51100000000E-03 0.  1.
         11   -1    0    0    0    0 -0.00000000000E+00 -0.00000000000E+00 -0.45593999997E+02  0.45594000000E+02  0.51100000000E-03 0. -1.
    9900012    2    1    2    0    0 -0.28426663083E+02  0.56419199306E+01  0.32306610349E+02  0.47787268361E+02  0.19999987767E+02 0.  0.
         12    1    1    2    0    0  0.28426663083E+02 -0.56419199306E+01 -0.32306610349E+02  0.43400731639E+02  0.00000000000E+00 0. -1.
         11    1    3    3    0    0 -0.62853248946E+01 -0.47289901582E+01  0.39823990585E+01  0.88163574944E+01  0.51100000000E-03 0. -1.
        -11    1    3    3    0    0 -0.15842189697E+02  0.16757003486E+01  0.15254877905E+02  0.22056614568E+02  0.51100000000E-03 0.  1.
        -12    1    3    3    0    0 -0.62991484916E+01  0.86952097402E+01  0.13069333385E+02  0.16914296299E+02  0.00000000000E+00 0.  1.
</event>
<event>
 7    1  0.4450624E-010  0.4778729E+02  0.7816164E-02  0.1312668E+00
        -11   -1    0    0    0    0  0.00000000000E+00  0.00000000000E+00  0.45593999997E+02  0.45594000000E+02  0.51100000000E-03 0.  1.
         11   -1    0    0    0    0 -0.00000000000E+00 -0.00000000000E+00 -0.45593999997E+02  0.45594000000E+02  0.51100000000E-03 0. -1.
    9900012    2    1    2    0    0 -0.17863689030E+02  0.26431837858E+02  0.29425644926E+02  0.47787285517E+02  0.20000065986E+02 0.  0.
         12    1    1    2    0    0  0.17863689030E+02 -0.26431837858E+02 -0.29425644926E+02  0.43400714483E+02  0.00000000000E+00 0. -1.
         11    1    3    3    0    0 -0.77060238424E+00  0.69422943654E+01 -0.15978503312E+00  0.69867596644E+01  0.51100000000E-03 0. -1.
        -11    1    3    3    0    0 -0.29638542731E+01  0.72735982630E+01  0.32181034954E+01  0.84879829295E+01  0.51100000000E-03 0.  1.
        -12    1    3    3    0    0 -0.14129232373E+02  0.12215945229E+02  0.26367326464E+02  0.32312542923E+02  0.00000000000E+00 0.  1.
</event>
<event>
 7    1  0.4450624E-010  0.4778727E+02  0.7816164E-02  0.1312668E+00
        -11   -1    0    0    0    0  0.00000000000E+00  0.00000000000E+00  0.45593999997E+02  0.45594000000E+02  0.51100000000E-03 0.  1.
         11   -1    0    0    0    0 -0.00000000000E+00 -0.00000000000E+00 -0.45593999997E+02  0.45594000000E+02  0.51100000000E-03 0. -1.
    9900012    2    1    2    0    0  0.25207931084E+02 -0.22527478313E+01  0.35257747366E+02  0.47787269457E+02  0.19999992763E+02 0.  0.
         12    1    1    2    0    0 -0.25207931084E+02  0.22527478313E+01 -0.35257747366E+02  0.43400730543E+02  0.00000000000E+00 0. -1.
         11    1    3    3    0    0  0.35201840744E+01  0.94341533262E+00  0.49564486989E+01  0.61520819544E+01  0.51100000000E-03 0. -1.
        -11    1    3    3    0    0  0.22688491283E+02 -0.62729188728E+01  0.30338245256E+02  0.38399560849E+02  0.51100000000E-03 0.  1.
         12    1    3    3    0    0 -0.10007442736E+01  0.30767557089E+01 -0.36946589098E-01  0.32356266540E+01  0.00000000000E+00 0. -1.
</event>
<event>
 7    1  0.4450624E-010  0.4778727E+02  0.7816164E-02  0.1312668E+00
        -11   -1    0    0    0    0  0.00000000000E+00  0.00000000000E+00  0.45593999997E+02  0.45594000000E+02  0.51100000000E-03 0. -1.
         11   -1    0    0    0    0 -0.00000000000E+00 -0.00000000000E+00 -0.45593999997E+02  0.45594000000E+02  0.51100000000E-03 0.  1.
    9900012    2    1    2    0    0 -0.36087253277E+02  0.81755014166E+01 -0.22682474684E+02  0.47787270395E+02  0.19999997039E+02 0.  0.
         12    1    1    2    0    0  0.36087253277E+02 -0.81755014166E+01  0.22682474684E+02  0.43400729605E+02  0.00000000000E+00 0. -1.
         11    1    3    3    0    0 -0.14661396551E+02 -0.36276854739E+01 -0.24754114230E+01  0.15305042068E+02  0.51100000000E-03 0. -1.
        -11    1    3    3    0    0 -0.16672294245E+02  0.67855941695E+01 -0.11479275870E+02  0.21349085657E+02  0.51100000000E-03 0.  1.
        -12    1    3    3    0    0 -0.47535624801E+01  0.50175927210E+01 -0.87277873912E+01  0.11133142670E+02  0.00000000000E+00 0.  1.
</event>
<event>
 7    1  0.4450624E-010  0.4778727E+02  0.7816164E-02  0.1312668E+00
        -11   -1    0    0    0    0  0.00000000000E+00  0.00000000000E+00  0.45593999997E+02  0.45594000000E+02  0.51100000000E-03 0.  1.
         11   -1    0    0    0    0 -0.00000000000E+00 -0.00000000000E+00 -0.45593999997E+02  0.45594000000E+02  0.51100000000E-03 0. -1.
    9900012    2    1    2    0    0 -0.78617021508E+01 -0.21745630291E+02  0.36727977663E+02  0.47787272579E+02  0.20000006996E+02 0.  0.
         12    1    1    2    0    0  0.78617021508E+01  0.21745630291E+02 -0.36727977663E+02  0.43400727421E+02  0.00000000000E+00 0. -1.
         11    1    3    3    0    0  0.13573609112E+00 -0.13397658504E+02  0.26517066757E+02  0.29709771244E+02  0.51100000000E-03 0.  1.
        -11    1    3    3    0    0  0.14838826355E+01 -0.34002885258E+01  0.72078871153E+00  0.37793394082E+01  0.51100000000E-03 0. -1.
        -12    1    3    3    0    0 -0.94813208774E+01 -0.49476832612E+01  0.94901221942E+01  0.14298161927E+02  0.00000000000E+00 0.  1.
</event>
<event>
 7    1  0.4450624E-010  0.4778727E+02  0.7816164E-02  0.1312668E+00
        -11   -1    0    0    0    0  0.00000000000E+00  0.00000000000E+00  0.45593999997E+02  0.45594000000E+02  0.51100000000E-03 0. -1.
         11   -1    0    0    0    0 -0.00000000000E+00 -0.00000000000E+00 -0.45593999997E+02  0.45594000000E+02  0.51100000000E-03 0.  1.
    9900012    2    1    2    0    0 -0.13228480014E+02 -0.41220181086E+02 -0.30866590396E+01  0.47787268713E+02  0.19999989369E+02 0.  0.
         12    1    1    2    0    0  0.13228480014E+02  0.41220181086E+02  0.30866590396E+01  0.43400731287E+02  0.00000000000E+00 0. -1.
         11    1    3    3    0    0 -0.15058111443E+01 -0.61887253540E+01  0.16153369980E+01  0.65709285941E+01  0.51100000000E-03 0. -1.
        -11    1    3    3    0    0 -0.53476745240E+01 -0.31895221000E+02 -0.81022497412E+01  0.33339903967E+02  0.51100000000E-03 0.  1.
        -12    1    3    3    0    0 -0.63749943451E+01 -0.31362347324E+01  0.34002537035E+01  0.78764361513E+01  0.00000000000E+00 0.  1.
</event>
<event>
 7    1  0.4450624E-010  0.4778727E+02  0.7816164E-02  0.1312668E+00
        -11   -1    0    0    0    0  0.00000000000E+00  0.00000000000E+00  0.45593999997E+02  0.45594000000E+02  0.51100000000E-03 0.  1.
         11   -1    0    0    0    0 -0.00000000000E+00 -0.00000000000E+00 -0.45593999997E+02  0.45594000000E+02  0.51100000000E-03 0. -1.
    9900012    2    1    2    0    0 -0.12108887569E+01  0.83430956635E+01  0.42574048271E+02  0.47787273243E+02  0.20000010023E+02 0.  0.
         12    1    1    2    0    0  0.12108887569E+01 -0.83430956635E+01 -0.42574048271E+02  0.43400726757E+02  0.00000000000E+00 0. -1.
         11    1    3    3    0    0 -0.89613154365E+00 -0.66278207916E+00 -0.28434625636E+00  0.11502977365E+01  0.51100000000E-03 0. -1.
        -11    1    3    3    0    0 -0.54628363545E+01  0.89732734695E+01  0.38449766242E+02  0.39859086068E+02  0.51100000000E-03 0.  1.
         12    1    3    3    0    0  0.51480791413E+01  0.32604273204E-01  0.44086282853E+01  0.67778894386E+01  0.00000000000E+00 0. -1.
</event>
<event>
 7    1  0.4450624E-010  0.4778728E+02  0.7816164E-02  0.1312668E+00
        -11   -1    0    0    0    0  0.00000000000E+00  0.00000000000E+00  0.45593999997E+02  0.45594000000E+02  0.51100000000E-03 0.  1.
         11   -1    0    0    0    0 -0.00000000000E+00 -0.00000000000E+00 -0.45593999997E+02  0.45594000000E+02  0.51100000000E-03 0. -1.
    9900012    2    1    2    0    0 -0.28149454398E+02  0.33029026876E+02 -0.56014979628E+00  0.47787283796E+02  0.20000058137E+02 0.  0.
         12    1    1    2    0    0  0.28149454398E+02 -0.33029026876E+02  0.56014979628E+00  0.43400716204E+02  0.00000000000E+00 0. -1.
         11    1    3    3    0    0 -0.93914376287E+01  0.49828421530E+01 -0.43092747500E+01  0.11471602582E+02  0.51100000000E-03 0. -1.
        -11    1    3    3    0    0 -0.12269584413E+02  0.10754631842E+02 -0.31188435638E+01  0.16611200834E+02  0.51100000000E-03 0.  1.
        -12    1    3    3    0    0 -0.64884323562E+01  0.17291552881E+02  0.68679685176E+01  0.19704480380E+02  0.00000000000E+00 0.  1.
</event>
<event>
 7    1  0.4450624E-010  0.4778727E+02  0.7816164E-02  0.1312668E+00
        -11   -1    0    0    0    0  0.00000000000E+00  0.00000000000E+00  0.45593999997E+02  0.45594000000E+02  0.51100000000E-03 0. -1.
         11   -1    0    0    0    0 -0.00000000000E+00 -0.00000000000E+00 -0.45593999997E+02  0.45594000000E+02  0.51100000000E-03 0.  1.
    9900012    2    1    2    0    0  0.28182260076E+02 -0.24071012685E+02  0.22582513855E+02  0.47787269976E+02  0.19999995126E+02 0.  0.
         12    1    1    2    0    0 -0.28182260076E+02  0.24071012685E+02 -0.22582513855E+02  0.43400730024E+02  0.00000000000E+00 0. -1.
         11    1    3    3    0    0 -0.94276933337E+00 -0.24743920684E+01  0.74805147253E+01  0.79353343308E+01  0.51100000000E-03 0. -1.
        -11    1    3    3    0    0  0.21426253286E+01 -0.28757293508E+00 -0.29109993681E+00  0.21813484192E+01  0.51100000000E-03 0.  1.
        -12    1    3    3    0    0  0.26982404081E+02 -0.21309047681E+02  0.15393099066E+02  0.37670587226E+02  0.00000000000E+00 0.  1.
</event>
<event>
 7    1  0.4450624E-010  0.4778726E+02  0.7816164E-02  0.1312668E+00
        -11   -1    0    0    0    0  0.00000000000E+00  0.00000000000E+00  0.45593999997E+02  0.45594000000E+02  0.51100000000E-03 0.  1.
         11   -1    0    0    0    0 -0.00000000000E+00 -0.00000000000E+00 -0.45593999997E+02  0.45594000000E+02  0.51100000000E-03 0. -1.
    9900012    2    1    2    0    0 -0.26663738484E+02 -0.15571514121E+01  0.34208833955E+02  0.47787262782E+02  0.19999962330E+02 0.  0.
         12    1    1    2    0    0  0.26663738484E+02  0.15571514121E+01 -0.34208833955E+02  0.43400737218E+02  0.00000000000E+00 0. -1.
         11    1    3    3    0    0  0.19559008609E-02  0.10864779333E+01  0.42445940156E+01  0.43814400308E+01  0.51100000000E-03 0. -1.
        -11    1    3    3    0    0 -0.65039975972E+01  0.11636458617E+01  0.19054752857E+02  0.20167787760E+02  0.51100000000E-03 0.  1.
         12    1    3    3    0    0 -0.20161696788E+02 -0.38072752070E+01  0.10909487083E+02  0.23238034992E+02  0.00000000000E+00 0. -1.
</event>
<event>
 7    1  0.4450624E-010  0.4778727E+02  0.7816164E-02  0.1312668E+00
        -11   -1    0    0    0    0  0.00000000000E+00  0.00000000000E+00  0.45593999997E+02  0.45594000000E+02  0.51100000000E-03 0.  1.
         11   -1    0    0    0    0 -0.00000000000E+00 -0.00000000000E+00 -0.45593999997E+02  0.45594000000E+02  0.51100000000E-03 0. -1.
    9900012    2    1    2    0    0  0.13760569002E+02  0.22147238840E+02  0.34695388529E+02  0.47787269215E+02  0.19999991659E+02 0.  0.
         12    1    1    2    0    0 -0.13760569002E+02 -0.22147238840E+02 -0.34695388529E+02  0.43400730785E+02  0.00000000000E+00 0. -1.
         11    1    3    3    0    0  0.10529441859E+01  0.56751571355E+01  0.20059116725E+02  0.20873051144E+02  0.51100000000E-03 0. -1.
        -11    1    3    3    0    0  0.41044502918E+01  0.27397809970E+01 -0.20661044654E+00  0.49391902421E+01  0.51100000000E-03 0.  1.
        -12    1    3    3    0    0  0.86031745248E+01  0.13732300708E+02  0.14842882250E+02  0.21975027830E+02  0.00000000000E+00 0.  1.
</event>
<event>
 7    1  0.4450624E-010  0.4778727E+02  0.7816164E-02  0.1312668E+00
        -11   -1    0    0    0    0  0.00000000000E+00  0.00000000000E+00  0.45593999997E+02  0.45594000000E+02  0.51100000000E-03 0. -1.
         11   -1    0    0    0    0 -0.00000000000E+00 -0.00000000000E+00 -0.45593999997E+02  0.45594000000E+02  0.51100000000E-03 0.  1.
    9900012    2    1    2    0    0  0.33184147917E+02 -0.58352635259E+01 -0.27356628404E+02  0.47787273151E+02  0.20000009604E+02 0.  0.
         12    1    1    2    0    0 -0.33184147917E+02  0.58352635259E+01  0.27356628404E+02  0.43400726849E+02  0.00000000000E+00 0. -1.
         11    1    3    3    0    0  0.80650651725E+01 -0.81127010054E+00 -0.12232049995E+01  0.81975402496E+01  0.51100000000E-03 0. -1.
        -11    1    3    3    0    0  0.11969921999E+02 -0.92939588771E+01 -0.91961237044E+01  0.17726403914E+02  0.51100000000E-03 0.  1.
        -12    1    3    3    0    0  0.13149160746E+02  0.42699654518E+01 -0.16937299700E+02  0.21863328988E+02  0.00000000000E+00 0.  1.
</event>
<event>
 7    1  0.4450624E-010  0.4778727E+02  0.7816164E-02  0.1312668E+00
        -11   -1    0    0    0    0  0.00000000000E+00  0.00000000000E+00  0.45593999997E+02  0.45594000000E+02  0.51100000000E-03 0.  1.
         11   -1    0    0    0    0 -0.00000000000E+00 -0.00000000000E+00 -0.45593999997E+02  0.45594000000E+02  0.51100000000E-03 0. -1.
    9900012    2    1    2    0    0 -0.51270473322E+01 -0.30372974298E+02  0.30574814158E+02  0.47787269097E+02  0.19999991123E+02 0.  0.
         12    1    1    2    0    0  0.51270473322E+01  0.30372974298E+02 -0.30574814158E+02  0.43400730903E+02  0.00000000000E+00 0. -1.
         11    1    3    3    0    0 -0.82595096866E+01 -0.49814161317E+01  0.11594904922E+02  0.15082301792E+02  0.51100000000E-03 0. -1.
        -11    1    3    3    0    0  0.12219583848E+00 -0.79305753072E+00 -0.69568816808E+00  0.10620048768E+01  0.51100000000E-03 0.  1.
        -12    1    3    3    0    0  0.30102665159E+01 -0.24598500636E+02  0.19675597404E+02  0.31642962428E+02  0.00000000000E+00 0.  1.
</event>
<event>
 7    1  0.4450624E-010  0.4778724E+02  0.7816164E-02  0.1312668E+00
        -11   -1    0    0    0    0  0.00000000000E+00  0.00000000000E+00  0.45593999997E+02  0.45594000000E+02  0.51100000000E-03 0. -1.
         11   -1    0    0    0    0 -0.00000000000E+00 -0.00000000000E+00 -0.45593999997E+02  0.45594000000E+02  0.51100000000E-03 0.  1.
    9900012    2    1    2    0    0  0.25823897806E+02  0.11436448605E+02 -0.32953903229E+02  0.47787242027E+02  0.19999867700E+02 0.  0.
         12    1    1    2    0    0 -0.25823897806E+02 -0.11436448605E+02  0.32953903229E+02  0.43400757973E+02  0.00000000000E+00 0. -1.
         11    1    3    3    0    0  0.43807975270E+01  0.25101785782E+01 -0.13998439070E+02  0.14881151842E+02  0.51100000000E-03 0. -1.
        -11    1    3    3    0    0  0.37038004679E+01  0.23731542516E+01 -0.11958979547E+02  0.12742338524E+02  0.51100000000E-03 0.  1.
         12    1    3    3    0    0  0.17739299811E+02  0.65531157748E+01 -0.69964846117E+01  0.20163751662E+02  0.00000000000E+00 0. -1.
</event>
<event>
 7    1  0.4450624E-010  0.4778726E+02  0.7816164E-02  0.1312668E+00
        -11   -1    0    0    0    0  0.00000000000E+00  0.00000000000E+00  0.45593999997E+02  0.45594000000E+02  0.51100000000E-03 0.  1.
         11   -1    0    0    0    0 -0.00000000000E+00 -0.00000000000E+00 -0.45593999997E+02  0.45594000000E+02  0.51100000000E-03 0. -1.
    9900012    2    1    2    0    0 -0.10494078158E+02  0.30784236917E+02  0.28737246043E+02  0.47787260040E+02  0.19999949824E+02 0.  0.
         12    1    1    2    0    0  0.10494078158E+02 -0.30784236917E+02 -0.28737246043E+02  0.43400739960E+02  0.00000000000E+00 0. -1.
         11    1    3    3    0    0 -0.57411779793E+01  0.11950081953E+02  0.37422807279E+01  0.13775712272E+02  0.51100000000E-03 0. -1.
        -11    1    3    3    0    0 -0.69402893032E+01  0.38844723033E+01  0.89090531658E+01  0.11942695226E+02  0.51100000000E-03 0.  1.
        -12    1    3    3    0    0  0.21873891247E+01  0.14949682660E+02  0.16085912150E+02  0.22068852542E+02  0.00000000000E+00 0.  1.
</event>
<event>
 7    1  0.4450624E-010  0.4778727E+02  0.7816164E-02  0.1312668E+00
        -11   -1    0    0    0    0  0.00000000000E+00  0.00000000000E+00  0.45593999997E+02  0.45594000000E+02  0.51100000000E-03 0.  1.
         11   -1    0    0    0    0 -0.00000000000E+00 -0.00000000000E+00 -0.45593999997E+02  0.45594000000E+02  0.51100000000E-03 0. -1.
    9900012    2    1    2    0    0 -0.10595449212E+01  0.43043903729E+02 -0.54518863453E+01  0.47787270186E+02  0.19999996085E+02 0.  0.
         12    1    1    2    0    0  0.10595449212E+01 -0.43043903729E+02  0.54518863453E+01  0.43400729814E+02  0.00000000000E+00 0. -1.
         11    1    3    3    0    0  0.34450011034E+01  0.10381798653E+02 -0.33081388946E+01  0.11427753895E+02  0.51100000000E-03 0. -1.
        -11    1    3    3    0    0 -0.22058853806E+01  0.33688239355E+02 -0.16979916106E+01  0.33803055733E+02  0.51100000000E-03 0.  1.
        -12    1    3    3    0    0 -0.22986606441E+01 -0.10261342786E+01 -0.44575584013E+00  0.25564605578E+01  0.00000000000E+00 0.  1.
</event>
<event>
 7    1  0.4450624E-010  0.4778727E+02  0.7816164E-02  0.1312668E+00
        -11   -1    0    0    0    0  0.00000000000E+00  0.00000000000E+00  0.45593999997E+02  0.45594000000E+02  0.51100000000E-03 0.  1.
         11   -1    0    0    0    0 -0.00000000000E+00 -0.00000000000E+00 -0.45593999997E+02  0.45594000000E+02  0.51100000000E-03 0. -1.
    9900012    2    1    2    0    0  0.43224945942E+02  0.39008335829E+01  0.10332710336E+00  0.47787272693E+02  0.20000007515E+02 0.  0.
         12    1    1    2    0    0 -0.43224945942E+02 -0.39008335829E+01 -0.10332710336E+00  0.43400727307E+02  0.00000000000E+00 0. -1.
         11    1    3    3    0    0  0.20554535054E+02  0.55407136306E+01 -0.12857910535E+01  0.21327017554E+02  0.51100000000E-03 0. -1.
        -11    1    3    3    0    0  0.16958342844E+02  0.28970532514E+01 -0.36595351366E+01  0.17588931384E+02  0.51100000000E-03 0.  1.
        -12    1    3    3    0    0  0.57120680436E+01 -0.45369332990E+01  0.50486532935E+01  0.88713237554E+01  0.00000000000E+00 0.  1.
</event>
<event>
 7    1  0.4450624E-010  0.4778727E+02  0.7816164E-02  0.1312668E+00
        -11   -1    0    0    0    0  0.00000000000E+00  0.00000000000E+00  0.45593999997E+02  0.45594000000E+02  0.51100000000E-03 0. -1.
         11   -1    0    0    0    0 -0.00000000000E+00 -0.00000000000E+00 -0.45593999997E+02  0.45594000000E+02  0.51100000000E-03 0.  1.
    9900012    2    1    2    0    0 -0.19975771223E+02 -0.29076697293E+02 -0.25281169880E+02  0.47787270606E+02  0.19999998001E+02 0.  0.
         12    1    1    2    0    0  0.19975771223E+02  0.29076697293E+02  0.25281169880E+02  0.43400729394E+02  0.00000000000E+00 0. -1.
         11    1    3    3    0    0 -0.66175160004E+01 -0.73947595237E+01 -0.38497989035E+01  0.10644009502E+02  0.51100000000E-03 0. -1.
        -11    1    3    3    0    0 -0.10600705119E+02 -0.29251081615E+01 -0.51059903564E+01  0.12124452341E+02  0.51100000000E-03 0.  1.
         12    1    3    3    0    0 -0.27575501036E+01 -0.18756829608E+02 -0.16325380620E+02  0.25018808763E+02  0.00000000000E+00 0. -1.
</event>
<event>
 7    1  0.4450624E-010  0.4778727E+02  0.7816164E-02  0.1312668E+00
        -11   -1    0    0    0    0  0.00000000000E+00  0.00000000000E+00  0.45593999997E+02  0.45594000000E+02  0.51100000000E-03 0. -1.
         11   -1    0    0    0    0 -0.00000000000E+00 -0.00000000000E+00 -0.45593999997E+02  0.45594000000E+02  0.51100000000E-03 0.  1.
    9900012    2    1    2    0    0 -0.37774991316E+02 -0.54200483325E+01 -0.20671149602E+02  0.47787270528E+02  0.19999997645E+02 0.  0.
         12    1    1    2    0    0  0.37774991316E+02  0.54200483325E+01  0.20671149602E+02  0.43400729472E+02  0.00000000000E+00 0. -1.
         11    1    3    3    0    0 -0.15479385040E+02  0.17329246580E+01 -0.20076826566E+01  0.15704941229E+02  0.51100000000E-03 0. -1.
        -11    1    3    3    0    0 -0.20851504798E+02 -0.44051016592E+01 -0.11368503509E+02  0.24154358722E+02  0.51100000000E-03 0.  1.
         12    1    3    3    0    0 -0.14441014773E+01 -0.27478713313E+01 -0.72949634363E+01  0.79279705768E+01  0.00000000000E+00 0. -1.
</event>
<event>
 7    1  0.4450624E-010  0.4778728E+02  0.7816164E-02  0.1312668E+00
        -11   -1    0    0    0    0  0.00000000000E+00  0.00000000000E+00  0.45593999997E+02  0.45594000000E+02  0.51100000000E-03 0. -1.
         11   -1    0    0    0    0 -0.00000000000E+00 -0.00000000000E+00 -0.45593999997E+02  0.45594000000E+02  0.51100000000E-03 0.  1.
    9900012    2    1    2    0    0  0.26068357462E+02 -0.34548871529E+02 -0.32309031491E+01  0.47787279731E+02  0.20000039605E+02 0.  0.
         12    1    1    2    0    0 -0.26068357462E+02  0.34548871529E+02  0.32309031491E+01  0.43400720269E+02  0.00000000000E+00 0. -1.
         11    1    3    3    0    0  0.24317985212E+02 -0.27747227323E+02  0.21408252277E+00  0.36896054809E+02  0.51100000000E-03 0. -1.
        -11    1    3    3    0    0  0.37814059502E+01 -0.67393907968E+01 -0.41105646088E+01  0.87530086791E+01  0.51100000000E-03 0.  1.
        -12    1    3    3    0    0 -0.20310337002E+01 -0.62253409040E-01  0.66557893691E+00  0.21382162424E+01  0.00000000000E+00 0.  1.
</event>
<event>
 7    1  0.4450624E-010  0.4778727E+02  0.7816164E-02  0.1312668E+00
        -11   -1    0    0    0    0  0.00000000000E+00  0.00000000000E+00  0.45593999997E+02  0.45594000000E+02  0.51100000000E-03 0.  1.
         11   -1    0    0    0    0 -0.00000000000E+00 -0.00000000000E+00 -0.45593999997E+02  0.45594000000E+02  0.51100000000E-03 0. -1.
    9900012    2    1    2    0    0 -0.21213056774E+02  0.62626110858E+01  0.37341790052E+02  0.47787270057E+02  0.19999995499E+02 0.  0.
         12    1    1    2    0    0  0.21213056774E+02 -0.62626110858E+01 -0.37341790052E+02  0.43400729943E+02  0.00000000000E+00 0. -1.
         11    1    3    3    0    0 -0.18982534074E+02  0.67955335855E+00  0.34521023603E+02  0.39401769802E+02  0.51100000000E-03 0. -1.
        -11    1    3    3    0    0 -0.64010333793E+00 -0.74491328636E+00  0.13961657634E+01  0.17070170437E+01  0.51100000000E-03 0.  1.
         12    1    3    3    0    0 -0.15904193615E+01  0.63279710136E+01  0.14246006847E+01  0.66784832115E+01  0.00000000000E+00 0. -1.
</event>
<event>
 7    1  0.4450624E-010  0.4778727E+02  0.7816164E-02  0.1312668E+00
        -11   -1    0    0    0    0  0.00000000000E+00  0.00000000000E+00  0.45593999997E+02  0.45594000000E+02  0.51100000000E-03 0.  1.
         11   -1    0    0    0    0 -0.00000000000E+00 -0.00000000000E+00 -0.45593999997E+02  0.45594000000E+02  0.51100000000E-03 0. -1.
    9900012    2    1    2    0    0  0.23953389056E+02 -0.12905089814E+02  0.33812969991E+02  0.47787272702E+02  0.20000007557E+02 0.  0.
         12    1    1    2    0    0 -0.23953389056E+02  0.12905089814E+02 -0.33812969991E+02  0.43400727298E+02  0.00000000000E+00 0. -1.
         11    1    3    3    0    0  0.48021899457E+01 -0.11314927134E+01 -0.42180644771E+00  0.49516891033E+01  0.51100000000E-03 0. -1.
        -11    1    3    3    0    0  0.65853428178E+01 -0.96391616621E+01  0.96613393812E+01  0.15153272138E+02  0.51100000000E-03 0.  1.
        -12    1    3    3    0    0  0.12565856292E+02 -0.21344354387E+01  0.24573437058E+02  0.27682311461E+02  0.00000000000E+00 0.  1.
</event>
<event>
 7    1  0.4450624E-010  0.4778727E+02  0.7816164E-02  0.1312668E+00
        -11   -1    0    0    0    0  0.00000000000E+00  0.00000000000E+00  0.45593999997E+02  0.45594000000E+02  0.51100000000E-03 0. -1.
         11   -1    0    0    0    0 -0.00000000000E+00 -0.00000000000E+00 -0.45593999997E+02  0.45594000000E+02  0.51100000000E-03 0.  1.
    9900012    2    1    2    0    0 -0.28732526459E+02  0.18274374230E+02 -0.26909335801E+02  0.47787272086E+02  0.20000004749E+02 0.  0.
         12    1    1    2    0    0  0.28732526459E+02 -0.18274374230E+02  0.26909335801E+02  0.43400727914E+02  0.00000000000E+00 0. -1.
         11    1    3    3    0    0 -0.57175517263E+01 -0.16313173079E+01 -0.36369018167E+01  0.69698385194E+01  0.51100000000E-03 0. -1.
        -11    1    3    3    0    0 -0.14725438526E+02  0.43663005907E+01 -0.71564188831E+01  0.16944540481E+02  0.51100000000E-03 0.  1.
        -12    1    3    3    0    0 -0.82895362072E+01  0.15539390947E+02 -0.16116015101E+02  0.23872893086E+02  0.00000000000E+00 0.  1.
</event>
<event>
 7    1  0.4450624E-010  0.4778727E+02  0.7816164E-02  0.1312668E+00
        -11   -1    0    0    0    0  0.00000000000E+00  0.00000000000E+00  0.45593999997E+02  0.45594000000E+02  0.51100000000E-03 0.  1.
         11   -1    0    0    0    0 -0.00000000000E+00 -0.00000000000E+00 -0.45593999997E+02  0.45594000000E+02  0.51100000000E-03 0. -1.
    9900012    2    1    2    0    0  0.22338423643E+02  0.77186346406E+01  0.36401109873E+02  0.47787270840E+02  0.19999999070E+02 0.  0.
         12    1    1    2    0    0 -0.22338423643E+02 -0.77186346406E+01 -0.36401109873E+02  0.43400729160E+02  0.00000000000E+00 0. -1.
         11    1    3    3    0    0  0.76923552385E+01 -0.40109084256E+01  0.56601260798E+01  0.10358414117E+02  0.51100000000E-03 0. -1.
        -11    1    3    3    0    0  0.32918792155E-01  0.43532480312E+01  0.32472917333E+01  0.54310915966E+01  0.51100000000E-03 0.  1.
        -12    1    3    3    0    0  0.14613149613E+02  0.73762950349E+01  0.27493692060E+02  0.31997765127E+02  0.00000000000E+00 0.  1.
</event>
<event>
 7    1  0.4450624E-010  0.4778727E+02  0.7816164E-02  0.1312668E+00
        -11   -1    0    0    0    0  0.00000000000E+00  0.00000000000E+00  0.45593999997E+02  0.45594000000E+02  0.51100000000E-03 0. -1.
         11   -1    0    0    0    0 -0.00000000000E+00 -0.00000000000E+00 -0.45593999997E+02  0.45594000000E+02  0.51100000000E-03 0.  1.
    9900012    2    1    2    0    0 -0.10063725833E+02  0.37239886713E+02  0.19888080320E+02  0.47787268683E+02  0.19999989235E+02 0.  0.
         12    1    1    2    0    0  0.10063725833E+02 -0.37239886713E+02 -0.19888080320E+02  0.43400731317E+02  0.00000000000E+00 0. -1.
         11    1    3    3    0    0  0.21434134769E+01  0.84959020862E+01  0.26297398453E+01  0.91482296378E+01  0.51100000000E-03 0. -1.
        -11    1    3    3    0    0 -0.18842161919E+01  0.11913994413E+02  0.14246519734E+02  0.18666999179E+02  0.51100000000E-03 0.  1.
        -12    1    3    3    0    0 -0.10322923118E+02  0.16829990213E+02  0.30118207400E+01  0.19972039867E+02  0.00000000000E+00 0.  1.
</event>
<event>
 7    1  0.4450624E-010  0.4778727E+02  0.7816164E-02  0.1312668E+00
        -11   -1    0    0    0    0  0.00000000000E+00  0.00000000000E+00  0.45593999997E+02  0.45594000000E+02  0.51100000000E-03 0.  1.
         11   -1    0    0    0    0 -0.00000000000E+00 -0.00000000000E+00 -0.45593999997E+02  0.45594000000E+02  0.51100000000E-03 0. -1.
    9900012    2    1    2    0    0  0.21340923256E+02  0.21928365671E+02  0.30778810137E+02  0.47787269824E+02  0.19999994434E+02 0.  0.
         12    1    1    2    0    0 -0.21340923256E+02 -0.21928365671E+02 -0.30778810137E+02  0.43400730176E+02  0.00000000000E+00 0. -1.
         11    1    3    3    0    0 -0.11468481232E+01  0.14455910248E+01  0.86810919057E+00  0.20392664997E+01  0.51100000000E-03 0. -1.
        -11    1    3    3    0    0  0.50363403804E+01  0.15179967250E+02  0.10611828097E+02  0.19193932009E+02  0.51100000000E-03 0.  1.
         12    1    3    3    0    0  0.17451430999E+02  0.53028073963E+01  0.19298872849E+02  0.26554071315E+02  0.00000000000E+00 0. -1.
</event>
<event>
 7    1  0.4450624E-010  0.4778728E+02  0.7816164E-02  0.1312668E+00
        -11   -1    0    0    0    0  0.00000000000E+00  0.00000000000E+00  0.45593999997E+02  0.45594000000E+02  0.51100000000E-03 0.  1.
         11   -1    0    0    0    0 -0.00000000000E+00 -0.00000000000E+00 -0.45593999997E+02  0.45594000000E+02  0.51100000000E-03 0. -1.
    9900012    2    1    2    0    0 -0.14352126530E+02 -0.27429753494E+02  0.30417880248E+02  0.47787281671E+02  0.20000048452E+02 0.  0.
         12    1    1    2    0    0  0.14352126530E+02  0.27429753494E+02 -0.30417880248E+02  0.43400718329E+02  0.00000000000E+00 0. -1.
         11    1    3    3    0    0 -0.52610679149E+01 -0.21176695677E+02  0.13755982747E+02  0.25794540837E+02  0.51100000000E-03 0. -1.
        -11    1    3    3    0    0 -0.50942111112E+01 -0.51385139268E+01  0.32106091307E+01  0.79160168944E+01  0.51100000000E-03 0.  1.
        -12    1    3    3    0    0 -0.39968475043E+01 -0.11145438899E+01  0.13451288370E+02  0.14076723939E+02  0.00000000000E+00 0.  1.
</event>
<event>
 7    1  0.4450624E-010  0.4778727E+02  0.7816164E-02  0.1312668E+00
        -11   -1    0    0    0    0  0.00000000000E+00  0.00000000000E+00  0.45593999997E+02  0.45594000000E+02  0.51100000000E-03 0.  1.
         11   -1    0    0    0    0 -0.00000000000E+00 -0.00000000000E+00 -0.45593999997E+02  0.45594000000E+02  0.51100000000E-03 0. -1.
    9900012    2    1    2    0    0  0.24587451872E+02  0.17339939054E+02  0.31279498386E+02  0.47787270798E+02  0.19999998878E+02 0.  0.
         12    1    1    2    0    0 -0.24587451872E+02 -0.17339939054E+02 -0.31279498386E+02  0.43400729202E+02  0.00000000000E+00 0. -1.
         11    1    3    3    0    0  0.74182889665E+01  0.14813044276E+00  0.36982369844E+01  0.82903504674E+01  0.51100000000E-03 0. -1.
        -11    1    3    3    0    0  0.12156017691E+02  0.50944533183E+01  0.65402862108E+01  0.14713856215E+02  0.51100000000E-03 0.  1.
         12    1    3    3    0    0  0.50131452148E+01  0.12097355293E+02  0.21040975190E+02  0.24783064116E+02  0.00000000000E+00 0. -1.
</event>
<event>
 7    1  0.4450624E-010  0.4778722E+02  0.7816164E-02  0.1312668E+00
        -11   -1    0    0    0    0  0.00000000000E+00  0.00000000000E+00  0.45593999997E+02  0.45594000000E+02  0.51100000000E-03 0.  1.
         11   -1    0    0    0    0 -0.00000000000E+00 -0.00000000000E+00 -0.45593999997E+02  0.45594000000E+02  0.51100000000E-03 0. -1.
    9900012    2    1    2    0    0 -0.22453502700E+02  0.28475549708E+02  0.23845572603E+02  0.47787216051E+02  0.19999749259E+02 0.  0.
         12    1    1    2    0    0  0.22453502700E+02 -0.28475549708E+02 -0.23845572603E+02  0.43400783949E+02  0.00000000000E+00 0. -1.
         11    1    3    3    0    0 -0.52047480720E+01  0.20585339659E+01  0.60061942006E+01  0.82098315219E+01  0.51100000000E-03 0. -1.
        -11    1    3    3    0    0 -0.12399987831E+02  0.11176360338E+02  0.16590361040E+02  0.23535309820E+02  0.51100000000E-03 0.  1.
         12    1    3    3    0    0 -0.48487667961E+01  0.15240655404E+02  0.12490173628E+01  0.16042074709E+02  0.00000000000E+00 0. -1.
</event>
<event>
 7    1  0.4450624E-010  0.4778727E+02  0.7816164E-02  0.1312668E+00
        -11   -1    0    0    0    0  0.00000000000E+00  0.00000000000E+00  0.45593999997E+02  0.45594000000E+02  0.51100000000E-03 0. -1.
         11   -1    0    0    0    0 -0.00000000000E+00 -0.00000000000E+00 -0.45593999997E+02  0.45594000000E+02  0.51100000000E-03 0.  1.
    9900012    2    1    2    0    0  0.17968816400E+02  0.36927486154E+02 -0.14039431667E+02  0.47787271458E+02  0.20000001884E+02 0.  0.
         12    1    1    2    0    0 -0.17968816400E+02 -0.36927486154E+02  0.14039431667E+02  0.43400728542E+02  0.00000000000E+00 0. -1.
         11    1    3    3    0    0  0.79998786238E+01  0.23461673353E+02 -0.98039214352E+01  0.26656426060E+02  0.51100000000E-03 0. -1.
        -11    1    3    3    0    0  0.62630928992E+01  0.10809765516E+02 -0.83195957993E+01  0.15009764745E+02  0.51100000000E-03 0.  1.
         12    1    3    3    0    0  0.37058448770E+01  0.26560472853E+01  0.40840855679E+01  0.61210806529E+01  0.00000000000E+00 0. -1.
</event>
<event>
 7    1  0.4450624E-010  0.4778727E+02  0.7816164E-02  0.1312668E+00
        -11   -1    0    0    0    0  0.00000000000E+00  0.00000000000E+00  0.45593999997E+02  0.45594000000E+02  0.51100000000E-03 0.  1.
         11   -1    0    0    0    0 -0.00000000000E+00 -0.00000000000E+00 -0.45593999997E+02  0.45594000000E+02  0.51100000000E-03 0. -1.
    9900012    2    1    2    0    0 -0.13493678787E+02 -0.35823784282E+02  0.20449946258E+02  0.47787272017E+02  0.20000004434E+02 0.  0.
         12    1    1    2    0    0  0.13493678787E+02  0.35823784282E+02 -0.20449946258E+02  0.43400727983E+02  0.00000000000E+00 0. -1.
         11    1    3    3    0    0  0.19540161013E+00 -0.26475401219E+01 -0.22491051011E+01  0.34793856502E+01  0.51100000000E-03 0. -1.
        -11    1    3    3    0    0 -0.12377812901E+02 -0.14703708711E+02  0.14391136580E+02  0.24010708328E+02  0.51100000000E-03 0.  1.
         12    1    3    3    0    0 -0.13112674967E+01 -0.18472535449E+02  0.83079147788E+01  0.20297178039E+02  0.00000000000E+00 0. -1.
</event>
<event>
 7    1  0.4450624E-010  0.4778728E+02  0.7816164E-02  0.1312668E+00
        -11   -1    0    0    0    0  0.00000000000E+00  0.00000000000E+00  0.45593999997E+02  0.45594000000E+02  0.51100000000E-03 0.  1.
         11   -1    0    0    0    0 -0.00000000000E+00 -0.00000000000E+00 -0.45593999997E+02  0.45594000000E+02  0.51100000000E-03 0. -1.
    9900012    2    1    2    0    0 -0.12907697929E+02  0.13116592444E+01  0.41416103542E+02  0.47787277098E+02  0.20000027602E+02 0.  0.
         12    1    1    2    0    0  0.12907697929E+02 -0.13116592444E+01 -0.41416103542E+02  0.43400722902E+02  0.00000000000E+00 0. -1.
         11    1    3    3    0    0  0.11628226281E+01  0.44358210753E+01  0.58662355289E+01  0.74458971668E+01  0.51100000000E-03 0. -1.
        -11    1    3    3    0    0 -0.21596536881E+01 -0.27370747450E+01  0.22092259376E+02  0.22365679216E+02  0.51100000000E-03 0.  1.
         12    1    3    3    0    0 -0.11910866869E+02 -0.38708708589E+00  0.13457608637E+02  0.17975700716E+02  0.00000000000E+00 0. -1.
</event>
<event>
 7    1  0.4450624E-010  0.4778727E+02  0.7816164E-02  0.1312668E+00
        -11   -1    0    0    0    0  0.00000000000E+00  0.00000000000E+00  0.45593999997E+02  0.45594000000E+02  0.51100000000E-03 0. -1.
         11   -1    0    0    0    0 -0.00000000000E+00 -0.00000000000E+00 -0.45593999997E+02  0.45594000000E+02  0.51100000000E-03 0.  1.
    9900012    2    1    2    0    0  0.21364678126E+02  0.94467680747E+01 -0.36577757525E+02  0.47787271388E+02  0.20000001568E+02 0.  0.
         12    1    1    2    0    0 -0.21364678126E+02 -0.94467680747E+01  0.36577757525E+02  0.43400728612E+02  0.00000000000E+00 0. -1.
         11    1    3    3    0    0 -0.85994057963E+00  0.26962716995E+01 -0.11237556759E+01  0.30450297139E+01  0.51100000000E-03 0.  1.
        -11    1    3    3    0    0  0.20720334756E+01 -0.10537734530E+01 -0.14346584125E+02  0.14533693183E+02  0.51100000000E-03 0. -1.
        -12    1    3    3    0    0  0.20152585230E+02  0.78042698282E+01 -0.21107417724E+02  0.30208548492E+02  0.00000000000E+00 0.  1.
</event>
<event>
 7    1  0.4450624E-010  0.4778727E+02  0.7816164E-02  0.1312668E+00
        -11   -1    0    0    0    0  0.00000000000E+00  0.00000000000E+00  0.45593999997E+02  0.45594000000E+02  0.51100000000E-03 0.  1.
         11   -1    0    0    0    0 -0.00000000000E+00 -0.00000000000E+00 -0.45593999997E+02  0.45594000000E+02  0.51100000000E-03 0. -1.
    9900012    2    1    2    0    0 -0.41848469083E+02 -0.11374011432E+02 -0.17208151557E+01  0.47787266072E+02  0.19999977330E+02 0.  0.
         12    1    1    2    0    0  0.41848469083E+02  0.11374011432E+02  0.17208151557E+01  0.43400733928E+02  0.00000000000E+00 0. -1.
         11    1    3    3    0    0 -0.72061426369E+01  0.27201966406E+01  0.14001971150E+01  0.78286980839E+01  0.51100000000E-03 0. -1.
        -11    1    3    3    0    0 -0.21224957776E+01  0.23948433613E+01  0.76657439075E+00  0.32905773975E+01  0.51100000000E-03 0.  1.
         12    1    3    3    0    0 -0.32519830669E+02 -0.16489051434E+02 -0.38875866614E+01  0.36667990591E+02  0.00000000000E+00 0. -1.
</event>
<event>
 7    1  0.4450624E-010  0.4778732E+02  0.7816164E-02  0.1312668E+00
        -11   -1    0    0    0    0  0.00000000000E+00  0.00000000000E+00  0.45593999997E+02  0.45594000000E+02  0.51100000000E-03 0.  1.
         11   -1    0    0    0    0 -0.00000000000E+00 -0.00000000000E+00 -0.45593999997E+02  0.45594000000E+02  0.51100000000E-03 0. -1.
    9900012    2    1    2    0    0  0.61067805335E+01 -0.25335999588E+02  0.34704660899E+02  0.47787318764E+02  0.20000217574E+02 0.  0.
         12    1    1    2    0    0 -0.61067805335E+01  0.25335999588E+02 -0.34704660899E+02  0.43400681236E+02  0.00000000000E+00 0. -1.
         11    1    3    3    0    0  0.56460376891E+01  0.11769861194E+01  0.61018758583E+01  0.83961852745E+01  0.51100000000E-03 0.  1.
        -11    1    3    3    0    0 -0.12893060651E+01 -0.88417887715E+01  0.12863000510E+02  0.15661938616E+02  0.51100000000E-03 0. -1.
        -12    1    3    3    0    0  0.17500489095E+01 -0.17671196936E+02  0.15739784530E+02  0.23729194874E+02  0.00000000000E+00 0.  1.
</event>
<event>
 7    1  0.4450624E-010  0.4778727E+02  0.7816164E-02  0.1312668E+00
        -11   -1    0    0    0    0  0.00000000000E+00  0.00000000000E+00  0.45593999997E+02  0.45594000000E+02  0.51100000000E-03 0.  1.
         11   -1    0    0    0    0 -0.00000000000E+00 -0.00000000000E+00 -0.45593999997E+02  0.45594000000E+02  0.51100000000E-03 0. -1.
    9900012    2    1    2    0    0  0.10970848607E+02  0.36655198248E+02  0.20485617331E+02  0.47787267343E+02  0.19999983122E+02 0.  0.
         12    1    1    2    0    0 -0.10970848607E+02 -0.36655198248E+02 -0.20485617331E+02  0.43400732657E+02  0.00000000000E+00 0. -1.
         11    1    3    3    0    0  0.43417375332E+01  0.99472630912E+01  0.97044206454E+00  0.10896810812E+02  0.51100000000E-03 0. -1.
        -11    1    3    3    0    0  0.50612497850E+01  0.27758752351E+02  0.14910029779E+02  0.31913532706E+02  0.51100000000E-03 0.  1.
         12    1    3    3    0    0  0.15678612886E+01 -0.10508171945E+01  0.46051454877E+01  0.49769238250E+01  0.00000000000E+00 0. -1.
</event>
<event>
 7    1  0.4450624E-010  0.4778727E+02  0.7816164E-02  0.1312668E+00
        -11   -1    0    0    0    0  0.00000000000E+00  0.00000000000E+00  0.45593999997E+02  0.45594000000E+02  0.51100000000E-03 0.  1.
         11   -1    0    0    0    0 -0.00000000000E+00 -0.00000000000E+00 -0.45593999997E+02  0.45594000000E+02  0.51100000000E-03 0. -1.
    9900012    2    1    2    0    0 -0.86699946830E+01  0.37122801863E+02  0.20744922430E+02  0.47787273824E+02  0.20000012672E+02 0.  0.
         12    1    1    2    0    0  0.86699946830E+01 -0.37122801863E+02 -0.20744922430E+02  0.43400726176E+02  0.00000000000E+00 0. -1.
         11    1    3    3    0    0 -0.93147327298E+01  0.18298912044E+02  0.75145845512E+01  0.21865118547E+02  0.51100000000E-03 0. -1.
        -11    1    3    3    0    0 -0.68982147525E+00  0.20269117817E+02  0.12501197773E+02  0.23824209048E+02  0.51100000000E-03 0.  1.
        -12    1    3    3    0    0  0.13345595220E+01 -0.14452279982E+01  0.72914010628E+00  0.20979462289E+01  0.00000000000E+00 0.  1.
</event>
<event>
 7    1  0.4450624E-010  0.4778728E+02  0.7816164E-02  0.1312668E+00
        -11   -1    0    0    0    0  0.00000000000E+00  0.00000000000E+00  0.45593999997E+02  0.45594000000E+02  0.51100000000E-03 0. -1.
         11   -1    0    0    0    0 -0.00000000000E+00 -0.00000000000E+00 -0.45593999997E+02  0.45594000000E+02  0.51100000000E-03 0.  1.
    9900012    2    1    2    0    0 -0.35231923478E+02  0.13219466819E+02 -0.21623598634E+02  0.47787277047E+02  0.20000027370E+02 0.  0.
         12    1    1    2    0    0  0.35231923478E+02 -0.13219466819E+02  0.21623598634E+02  0.43400722953E+02  0.00000000000E+00 0. -1.
         11    1    3    3    0    0 -0.30797918359E-01  0.13098403321E+01 -0.20365971864E+01  0.24216437740E+01  0.51100000000E-03 0. -1.
        -11    1    3    3    0    0 -0.22248005599E+02  0.11750548263E+02 -0.20392127508E+02  0.32386540448E+02  0.51100000000E-03 0.  1.
         12    1    3    3    0    0 -0.12953119961E+02  0.15907822334E+00  0.80512606039E+00  0.12979092826E+02  0.00000000000E+00 0. -1.
</event>
<event>
 7    1  0.4450624E-010  0.4778727E+02  0.7816164E-02  0.1312668E+00
        -11   -1    0    0    0    0  0.00000000000E+00  0.00000000000E+00  0.45593999997E+02  0.45594000000E+02  0.51100000000E-03 0.  1.
         11   -1    0    0    0    0 -0.00000000000E+00 -0.00000000000E+00 -0.45593999997E+02  0.45594000000E+02  0.51100000000E-03 0. -1.
    9900012    2    1    2    0    0  0.30480744032E+02  0.22103466676E+02  0.21586670947E+02  0.47787270070E+02  0.19999995559E+02 0.  0.
         12    1    1    2    0    0 -0.30480744032E+02 -0.22103466676E+02 -0.21586670947E+02  0.43400729930E+02  0.00000000000E+00 0. -1.
         11    1    3    3    0    0  0.82056261177E+01  0.97059939492E+01  0.11789922638E+02  0.17336115326E+02  0.51100000000E-03 0.  1.
        -11    1    3    3    0    0  0.15353788377E+02  0.14901231658E+02  0.63114973764E+01  0.22307409573E+02  0.51100000000E-03 0. -1.
         12    1    3    3    0    0  0.69213295381E+01 -0.25037589316E+01  0.34852509322E+01  0.81437451718E+01  0.00000000000E+00 0. -1.
</event>
<event>
 7    1  0.4450624E-010  0.4778727E+02  0.7816164E-02  0.1312668E+00
        -11   -1    0    0    0    0  0.00000000000E+00  0.00000000000E+00  0.45593999997E+02  0.45594000000E+02  0.51100000000E-03 0.  1.
         11   -1    0    0    0    0 -0.00000000000E+00 -0.00000000000E+00 -0.45593999997E+02  0.45594000000E+02  0.51100000000E-03 0. -1.
    9900012    2    1    2    0    0  0.10110847848E+02  0.40655438672E+02  0.11337089311E+02  0.47787268072E+02  0.19999986447E+02 0.  0.
         12    1    1    2    0    0 -0.10110847848E+02 -0.40655438672E+02 -0.11337089311E+02  0.43400731928E+02  0.00000000000E+00 0. -1.
         11    1    3    3    0    0  0.13142761974E+01  0.40336631652E+01  0.49800684251E+01  0.65420824080E+01  0.51100000000E-03 0. -1.
        -11    1    3    3    0    0  0.95915614046E+01  0.33694723258E+02  0.10069028611E+02  0.36451581077E+02  0.51100000000E-03 0.  1.
         12    1    3    3    0    0 -0.79498975381E+00  0.29270522493E+01 -0.37120077252E+01  0.47936045864E+01  0.00000000000E+00 0. -1.
</event>
<event>
 7    1  0.5428827E-010  0.4778727E+02  0.7816164E-02  0.1312668E+00
        -11   -1    0    0    0    0  0.00000000000E+00  0.00000000000E+00  0.45593999997E+02  0.45594000000E+02  0.51100000000E-03 0.  1.
         11   -1    0    0    0    0 -0.00000000000E+00 -0.00000000000E+00 -0.45593999997E+02  0.45594000000E+02  0.51100000000E-03 0. -1.
    9900012    2    1    2    0    0 -0.13485649056E+00 -0.42268132358E+02  0.98493598015E+01  0.47787273188E+02  0.20000009774E+02 0.  0.
         12    1    1    2    0    0  0.13485649056E+00  0.42268132358E+02 -0.98493598015E+01  0.43400726812E+02  0.00000000000E+00 0. -1.
         11    1    3    3    0    0 -0.30579250725E+01 -0.13805632689E+02 -0.26778591119E+01  0.14391571470E+02  0.51100000000E-03 0. -1.
        -11    1    3    3    0    0  0.55747147599E+01 -0.12167981587E+02  0.13351315060E+01  0.13450642994E+02  0.51100000000E-03 0.  1.
        -12    1    3    3    0    0 -0.26516461780E+01 -0.16294518082E+02  0.11192087407E+02  0.19945058724E+02  0.00000000000E+00 0.  1.
</event>
<event>
 7    1  0.4450624E-010  0.4778727E+02  0.7816164E-02  0.1312668E+00
        -11   -1    0    0    0    0  0.00000000000E+00  0.00000000000E+00  0.45593999997E+02  0.45594000000E+02  0.51100000000E-03 0.  1.
         11   -1    0    0    0    0 -0.00000000000E+00 -0.00000000000E+00 -0.45593999997E+02  0.45594000000E+02  0.51100000000E-03 0. -1.
    9900012    2    1    2    0    0  0.21375721304E+02 -0.11248699859E+01  0.37754954592E+02  0.47787269707E+02  0.19999993901E+02 0.  0.
         12    1    1    2    0    0 -0.21375721304E+02  0.11248699859E+01 -0.37754954592E+02  0.43400730293E+02  0.00000000000E+00 0. -1.
         11    1    3    3    0    0  0.13302218688E+01  0.35307776614E+01  0.14738118632E+01  0.40506792990E+01  0.51100000000E-03 0. -1.
        -11    1    3    3    0    0  0.41634694557E+01 -0.59445691873E+01  0.56089243979E+01  0.91723723155E+01  0.51100000000E-03 0.  1.
        -12    1    3    3    0    0  0.15882029979E+02  0.12889215401E+01  0.30672218331E+02  0.34564218092E+02  0.00000000000E+00 0.  1.
</event>
<event>
 7    1  0.4450624E-010  0.4778726E+02  0.7816164E-02  0.1312668E+00
        -11   -1    0    0    0    0  0.00000000000E+00  0.00000000000E+00  0.45593999997E+02  0.45594000000E+02  0.51100000000E-03 0.  1.
         11   -1    0    0    0    0 -0.00000000000E+00 -0.00000000000E+00 -0.45593999997E+02  0.45594000000E+02  0.51100000000E-03 0. -1.
    9900012    2    1    2    0    0  0.79460360481E+01 -0.28727808256E+02 -0.31546749514E+02  0.47787264281E+02  0.19999969162E+02 0.  0.
         12    1    1    2    0    0 -0.79460360481E+01  0.28727808256E+02  0.31546749514E+02  0.43400735719E+02  0.00000000000E+00 0. -1.
         11    1    3    3    0    0  0.18121922727E+01 -0.66555064390E+01 -0.10483862731E+01  0.69770280802E+01  0.51100000000E-03 0. -1.
        -11    1    3    3    0    0  0.54014853162E+01 -0.14027038407E+02 -0.82625073189E+01  0.17152343208E+02  0.51100000000E-03 0.  1.
         12    1    3    3    0    0  0.73235845923E+00 -0.80452634105E+01 -0.22235855922E+02  0.23657892992E+02  0.00000000000E+00 0. -1.
</event>
<event>
 7    1  0.4450624E-010  0.4778728E+02  0.7816164E-02  0.1312668E+00
        -11   -1    0    0    0    0  0.00000000000E+00  0.00000000000E+00  0.45593999997E+02  0.45594000000E+02  0.51100000000E-03 0.  1.
         11   -1    0    0    0    0 -0.00000000000E+00 -0.00000000000E+00 -0.45593999997E+02  0.45594000000E+02  0.51100000000E-03 0. -1.
    9900012    2    1    2    0    0  0.40258177027E+01  0.13952682450E+02  0.40899123715E+02  0.47787275624E+02  0.20000020880E+02 0.  0.
         12    1    1    2    0    0 -0.40258177027E+01 -0.13952682450E+02 -0.40899123715E+02  0.43400724376E+02  0.00000000000E+00 0. -1.
         11    1    3    3    0    0 -0.41926785300E+01  0.19439280602E+01  0.60013023929E+01  0.75744993386E+01  0.51100000000E-03 0. -1.
        -11    1    3    3    0    0  0.30281916099E+01  0.86487466138E+01  0.67172062399E+01  0.11361849425E+02  0.51100000000E-03 0.  1.
         12    1    3    3    0    0  0.51903046227E+01  0.33600077758E+01  0.28180615082E+02  0.28850926861E+02  0.00000000000E+00 0. -1.
</event>
<event>
 7    1  0.4450624E-010  0.4778727E+02  0.7816164E-02  0.1312668E+00
        -11   -1    0    0    0    0  0.00000000000E+00  0.00000000000E+00  0.45593999997E+02  0.45594000000E+02  0.51100000000E-03 0.  1.
         11   -1    0    0    0    0 -0.00000000000E+00 -0.00000000000E+00 -0.45593999997E+02  0.45594000000E+02  0.51100000000E-03 0. -1.
    9900012    2    1    2    0    0 -0.36324829770E+01 -0.27580692080E+02  0.33312663929E+02  0.47787273206E+02  0.20000009854E+02 0.  0.
         12    1    1    2    0    0  0.36324829770E+01  0.27580692080E+02 -0.33312663929E+02  0.43400726794E+02  0.00000000000E+00 0. -1.
         11    1    3    3    0    0 -0.63352875520E+00  0.86858123978E+00  0.13689196494E+00  0.10837581487E+01  0.51100000000E-03 0. -1.
        -11    1    3    3    0    0  0.56118554644E+01 -0.12775118747E+02  0.88944975558E+01  0.16547164947E+02  0.51100000000E-03 0.  1.
         12    1    3    3    0    0 -0.86108096861E+01 -0.15674154573E+02  0.24281274409E+02  0.30156350110E+02  0.00000000000E+00 0. -1.
</event>
<event>
 7    1  0.4450624E-010  0.4778728E+02  0.7816164E-02  0.1312668E+00
        -11   -1    0    0    0    0  0.00000000000E+00  0.00000000000E+00  0.45593999997E+02  0.45594000000E+02  0.51100000000E-03 0. -1.
         11   -1    0    0    0    0 -0.00000000000E+00 -0.00000000000E+00 -0.45593999997E+02  0.45594000000E+02  0.51100000000E-03 0.  1.
    9900012    2    1    2    0    0  0.25632505235E+02 -0.33846776562E+02  0.89996251361E+01  0.47787275803E+02  0.20000021696E+02 0.  0.
         12    1    1    2    0    0 -0.25632505235E+02  0.33846776562E+02 -0.89996251361E+01  0.43400724197E+02  0.00000000000E+00 0. -1.
         11    1    3    3    0    0  0.20646901800E+02 -0.14194222545E+02  0.10312464352E+01  0.25076562306E+02  0.51100000000E-03 0. -1.
        -11    1    3    3    0    0  0.44252233964E+01 -0.66665977776E+01  0.48041793126E+01  0.93330738327E+01  0.51100000000E-03 0.  1.
         12    1    3    3    0    0  0.56038003829E+00 -0.12985956239E+02  0.31641993883E+01  0.13377639665E+02  0.00000000000E+00 0. -1.
</event>
<event>
 7    1  0.4450624E-010  0.4778727E+02  0.7816164E-02  0.1312668E+00
        -11   -1    0    0    0    0  0.00000000000E+00  0.00000000000E+00  0.45593999997E+02  0.45594000000E+02  0.51100000000E-03 0.  1.
         11   -1    0    0    0    0 -0.00000000000E+00 -0.00000000000E+00 -0.45593999997E+02  0.45594000000E+02  0.51100000000E-03 0. -1.
    9900012    2    1    2    0    0  0.39366594197E+00 -0.43397230468E+02 -0.38550310728E+00  0.47787271920E+02  0.20000003994E+02 0.  0.
         12    1    1    2    0    0 -0.39366594197E+00  0.43397230468E+02  0.38550310728E+00  0.43400728080E+02  0.00000000000E+00 0. -1.
         11    1    3    3    0    0 -0.47287254735E+01 -0.79014991217E+01 -0.12920384055E+01  0.92985964788E+01  0.51100000000E-03 0. -1.
        -11    1    3    3    0    0 -0.44033381849E+01 -0.18216963241E+02  0.10643718454E+00  0.18741890674E+02  0.51100000000E-03 0.  1.
        -12    1    3    3    0    0  0.95257296004E+01 -0.17278768106E+02  0.80009811373E+00  0.19746784768E+02  0.00000000000E+00 0.  1.
</event>
<event>
 7    1  0.4450624E-010  0.4778727E+02  0.7816164E-02  0.1312668E+00
        -11   -1    0    0    0    0  0.00000000000E+00  0.00000000000E+00  0.45593999997E+02  0.45594000000E+02  0.51100000000E-03 0.  1.
         11   -1    0    0    0    0 -0.00000000000E+00 -0.00000000000E+00 -0.45593999997E+02  0.45594000000E+02  0.51100000000E-03 0. -1.
    9900012    2    1    2    0    0  0.24641546648E+01  0.10379937337E+02  0.42069089750E+02  0.47787268788E+02  0.19999989713E+02 0.  0.
         12    1    1    2    0    0 -0.24641546648E+01 -0.10379937337E+02 -0.42069089750E+02  0.43400731212E+02  0.00000000000E+00 0. -1.
         11    1    3    3    0    0  0.72734735977E+01  0.39621966372E+01  0.86398817486E+01  0.11968708254E+02  0.51100000000E-03 0. -1.
        -11    1    3    3    0    0  0.30310662716E+01  0.16256676252E+01  0.63339225757E+01  0.72075469771E+01  0.51100000000E-03 0.  1.
        -12    1    3    3    0    0 -0.78403852044E+01  0.47920730750E+01  0.27095285425E+02  0.28611013558E+02  0.00000000000E+00 0.  1.
</event>
<event>
 7    1  0.4450624E-010  0.4778727E+02  0.7816164E-02  0.1312668E+00
        -11   -1    0    0    0    0  0.00000000000E+00  0.00000000000E+00  0.45593999997E+02  0.45594000000E+02  0.51100000000E-03 0.  1.
         11   -1    0    0    0    0 -0.00000000000E+00 -0.00000000000E+00 -0.45593999997E+02  0.45594000000E+02  0.51100000000E-03 0. -1.
    9900012    2    1    2    0    0 -0.26883736151E+01 -0.12683068380E+02  0.41419022757E+02  0.47787273942E+02  0.20000013212E+02 0.  0.
         12    1    1    2    0    0  0.26883736151E+01  0.12683068380E+02 -0.41419022757E+02  0.43400726058E+02  0.00000000000E+00 0. -1.
         11    1    3    3    0    0  0.44389124447E+01  0.12180306006E+01  0.23655428619E+01  0.51752618802E+01  0.51100000000E-03 0. -1.
        -11    1    3    3    0    0  0.78095293891E+00 -0.29699344885E+01  0.11920704713E+02  0.12309898435E+02  0.51100000000E-03 0.  1.
        -12    1    3    3    0    0 -0.79082389988E+01 -0.10931164492E+02  0.27132775181E+02  0.30302113627E+02  0.00000000000E+00 0.  1.
</event>
<event>
 7    1  0.4450624E-010  0.4778726E+02  0.7816164E-02  0.1312668E+00
        -11   -1    0    0    0    0  0.00000000000E+00  0.00000000000E+00  0.45593999997E+02  0.45594000000E+02  0.51100000000E-03 0.  1.
         11   -1    0    0    0    0 -0.00000000000E+00 -0.00000000000E+00 -0.45593999997E+02  0.45594000000E+02  0.51100000000E-03 0. -1.
    9900012    2    1    2    0    0 -0.10060251852E+02 -0.39994476371E+02 -0.13522474346E+02  0.47787261297E+02  0.19999955557E+02 0.  0.
         12    1    1    2    0    0  0.10060251852E+02  0.39994476371E+02  0.13522474346E+02  0.43400738703E+02  0.00000000000E+00 0. -1.
         11    1    3    3    0    0 -0.22095772983E+01 -0.70507995039E+01 -0.71430100123E+01  0.10277090920E+02  0.51100000000E-03 0. -1.
        -11    1    3    3    0    0 -0.96280239419E+01 -0.10317789419E+02 -0.77867803437E+00  0.14133717249E+02  0.51100000000E-03 0.  1.
        -12    1    3    3    0    0  0.17773493885E+01 -0.22625887448E+02 -0.56007862997E+01  0.23376453128E+02  0.00000000000E+00 0.  1.
</event>
<event>
 7    1  0.4450624E-010  0.4778729E+02  0.7816164E-02  0.1312668E+00
        -11   -1    0    0    0    0  0.00000000000E+00  0.00000000000E+00  0.45593999997E+02  0.45594000000E+02  0.51100000000E-03 0. -1.
         11   -1    0    0    0    0 -0.00000000000E+00 -0.00000000000E+00 -0.45593999997E+02  0.45594000000E+02  0.51100000000E-03 0.  1.
    9900012    2    1    2    0    0  0.26218567424E+02 -0.33812590227E+02 -0.72744393172E+01  0.47787285685E+02  0.20000066754E+02 0.  0.
         12    1    1    2    0    0 -0.26218567424E+02  0.33812590227E+02  0.72744393172E+01  0.43400714315E+02  0.00000000000E+00 0. -1.
         11    1    3    3    0    0  0.35117428735E+00 -0.87315615403E+01 -0.51719567578E+01  0.10154438797E+02  0.51100000000E-03 0. -1.
        -11    1    3    3    0    0  0.19417338683E+02 -0.22295304627E+02 -0.50860393694E+01  0.29999690776E+02  0.51100000000E-03 0.  1.
         12    1    3    3    0    0  0.64500544544E+01 -0.27857240599E+01  0.29835568100E+01  0.76331561127E+01  0.00000000000E+00 0. -1.
</event>
<event>
 7    1  0.4450624E-010  0.4778727E+02  0.7816164E-02  0.1312668E+00
        -11   -1    0    0    0    0  0.00000000000E+00  0.00000000000E+00  0.45593999997E+02  0.45594000000E+02  0.51100000000E-03 0.  1.
         11   -1    0    0    0    0 -0.00000000000E+00 -0.00000000000E+00 -0.45593999997E+02  0.45594000000E+02  0.51100000000E-03 0. -1.
    9900012    2    1    2    0    0 -0.10285996627E+02 -0.23719782602E+02  0.34859626179E+02  0.47787270160E+02  0.19999995968E+02 0.  0.
         12    1    1    2    0    0  0.10285996627E+02  0.23719782602E+02 -0.34859626179E+02  0.43400729840E+02  0.00000000000E+00 0. -1.
         11    1    3    3    0    0 -0.46574939774E+00 -0.33821096716E+01  0.71864673431E+01  0.79561863645E+01  0.51100000000E-03 0. -1.
        -11    1    3    3    0    0 -0.11649995761E+02 -0.65153281913E+01  0.19618481524E+02  0.23728816242E+02  0.51100000000E-03 0.  1.
         12    1    3    3    0    0  0.18297485314E+01 -0.13822344739E+02  0.80546773116E+01  0.16102267554E+02  0.00000000000E+00 0. -1.
</event>
<event>
 7    1  0.4450624E-010  0.4778727E+02  0.7816164E-02  0.1312668E+00
        -11   -1    0    0    0    0  0.00000000000E+00  0.00000000000E+00  0.45593999997E+02  0.45594000000E+02  0.51100000000E-03 0.  1.
         11   -1    0    0    0    0 -0.00000000000E+00 -0.00000000000E+00 -0.45593999997E+02  0.45594000000E+02  0.51100000000E-03 0. -1.
    9900012    2    1    2    0    0 -0.25729482529E+02 -0.22724527053E+02  0.26555843525E+02  0.47787271592E+02  0.20000002498E+02 0.  0.
         12    1    1    2    0    0  0.25729482529E+02  0.22724527053E+02 -0.26555843525E+02  0.43400728408E+02  0.00000000000E+00 0. -1.
         11    1    3    3    0    0 -0.19396757671E+02 -0.11096717718E+02  0.19532637083E+02  0.29679879783E+02  0.51100000000E-03 0.  1.
        -11    1    3    3    0    0 -0.23520717182E+01  0.92973738611E+00  0.37674605270E+01  0.45376659263E+01  0.51100000000E-03 0. -1.
        -12    1    3    3    0    0 -0.39806531394E+01 -0.12557546722E+02  0.32557459155E+01  0.13569725883E+02  0.00000000000E+00 0.  1.
</event>
<event>
 7    1  0.4450624E-010  0.4778727E+02  0.7816164E-02  0.1312668E+00
        -11   -1    0    0    0    0  0.00000000000E+00  0.00000000000E+00  0.45593999997E+02  0.45594000000E+02  0.51100000000E-03 0.  1.
         11   -1    0    0    0    0 -0.00000000000E+00 -0.00000000000E+00 -0.45593999997E+02  0.45594000000E+02  0.51100000000E-03 0. -1.
    9900012    2    1    2    0    0 -0.36580592871E+02 -0.13233298686E+02  0.19244818974E+02  0.47787273897E+02  0.20000013008E+02 0.  0.
         12    1    1    2    0    0  0.36580592871E+02  0.13233298686E+02 -0.19244818974E+02  0.43400726103E+02  0.00000000000E+00 0. -1.
         11    1    3    3    0    0 -0.15680130278E+02 -0.59972144922E+01  0.11060980637E+02  0.20104187626E+02  0.51100000000E-03 0. -1.
        -11    1    3    3    0    0 -0.22698259584E+02 -0.57875425283E+01  0.91924669982E+01  0.25163626258E+02  0.51100000000E-03 0.  1.
         12    1    3    3    0    0  0.17977969917E+01 -0.14485416659E+01 -0.10086286613E+01  0.25194600131E+01  0.00000000000E+00 0. -1.
</event>
<event>
 7    1  0.4450624E-010  0.4778727E+02  0.7816164E-02  0.1312668E+00
        -11   -1    0    0    0    0  0.00000000000E+00  0.00000000000E+00  0.45593999997E+02  0.45594000000E+02  0.51100000000E-03 0.  1.
         11   -1    0    0    0    0 -0.00000000000E+00 -0.00000000000E+00 -0.45593999997E+02  0.45594000000E+02  0.51100000000E-03 0. -1.
    9900012    2    1    2    0    0 -0.19450962703E+02  0.26708787309E+02  0.28141140931E+02  0.47787273249E+02  0.20000010052E+02 0.  0.
         12    1    1    2    0    0  0.19450962703E+02 -0.26708787309E+02 -0.28141140931E+02  0.43400726751E+02  0.00000000000E+00 0. -1.
         11    1    3    3    0    0 -0.45525299326E+01  0.11836186982E+01 -0.83245899705E+00  0.47769729173E+01  0.51100000000E-03 0. -1.
        -11    1    3    3    0    0 -0.91769105640E+01  0.10619097091E+02  0.65628583286E+01  0.15493612239E+02  0.51100000000E-03 0.  1.
        -12    1    3    3    0    0 -0.57215222066E+01  0.14906071520E+02  0.22410741600E+02  0.27516688092E+02  0.00000000000E+00 0.  1.
</event>
<event>
 7    1  0.4450624E-010  0.4778728E+02  0.7816164E-02  0.1312668E+00
        -11   -1    0    0    0    0  0.00000000000E+00  0.00000000000E+00  0.45593999997E+02  0.45594000000E+02  0.51100000000E-03 0. -1.
         11   -1    0    0    0    0 -0.00000000000E+00 -0.00000000000E+00 -0.45593999997E+02  0.45594000000E+02  0.51100000000E-03 0.  1.
    9900012    2    1    2    0    0  0.15258722598E+02  0.28432818216E+01 -0.40530356537E+02  0.47787278026E+02  0.20000031830E+02 0.  0.
         12    1    1    2    0    0 -0.15258722598E+02 -0.28432818216E+01  0.40530356537E+02  0.43400721974E+02  0.00000000000E+00 0. -1.
         11    1    3    3    0    0 -0.29495742893E+00  0.12827275002E+01 -0.26183605317E+01  0.29305634031E+01  0.51100000000E-03 0. -1.
        -11    1    3    3    0    0  0.18620413101E+02  0.50336192780E+01 -0.31698115556E+02  0.37105628106E+02  0.51100000000E-03 0.  1.
         12    1    3    3    0    0 -0.30667330741E+01 -0.34730649566E+01 -0.62138804495E+01  0.77510865162E+01  0.00000000000E+00 0. -1.
</event>
<event>
 7    1  0.4450624E-010  0.4778727E+02  0.7816164E-02  0.1312668E+00
        -11   -1    0    0    0    0  0.00000000000E+00  0.00000000000E+00  0.45593999997E+02  0.45594000000E+02  0.51100000000E-03 0.  1.
         11   -1    0    0    0    0 -0.00000000000E+00 -0.00000000000E+00 -0.45593999997E+02  0.45594000000E+02  0.51100000000E-03 0. -1.
    9900012    2    1    2    0    0  0.19738945305E+02  0.68549646359E+01  0.38039543030E+02  0.47787270330E+02  0.19999996745E+02 0.  0.
         12    1    1    2    0    0 -0.19738945305E+02 -0.68549646359E+01 -0.38039543030E+02  0.43400729670E+02  0.00000000000E+00 0. -1.
         11    1    3    3    0    0  0.35090745306E+01 -0.21517406800E+01  0.13720463384E+02  0.14324618939E+02  0.51100000000E-03 0. -1.
        -11    1    3    3    0    0  0.12767842223E+02  0.26936853809E+01  0.22542296723E+02  0.26046667307E+02  0.51100000000E-03 0.  1.
        -12    1    3    3    0    0  0.34620285511E+01  0.63130199350E+01  0.17767829226E+01  0.74159840845E+01  0.00000000000E+00 0.  1.
</event>
<event>
 7    1  0.4450624E-010  0.4778727E+02  0.7816164E-02  0.1312668E+00
        -11   -1    0    0    0    0  0.00000000000E+00  0.00000000000E+00  0.45593999997E+02  0.45594000000E+02  0.51100000000E-03 0.  1.
         11   -1    0    0    0    0 -0.00000000000E+00 -0.00000000000E+00 -0.45593999997E+02  0.45594000000E+02  0.51100000000E-03 0. -1.
    9900012    2    1    2    0    0 -0.76104042358E+01 -0.14394065960E+02  0.40230779913E+02  0.47787273740E+02  0.20000012290E+02 0.  0.
         12    1    1    2    0    0  0.76104042358E+01  0.14394065960E+02 -0.40230779913E+02  0.43400726260E+02  0.00000000000E+00 0. -1.
         11    1    3    3    0    0  0.43141299848E+01 -0.60801530468E+01  0.10493358555E+02  0.12872084237E+02  0.51100000000E-03 0. -1.
        -11    1    3    3    0    0 -0.36079916884E+01 -0.65637206684E+01  0.22626497079E+02  0.23833975820E+02  0.51100000000E-03 0.  1.
        -12    1    3    3    0    0 -0.83165425322E+01 -0.17501922450E+01  0.71109242791E+01  0.11081213683E+02  0.00000000000E+00 0.  1.
</event>
<event>
 7    1  0.4450624E-010  0.4778727E+02  0.7816164E-02  0.1312668E+00
        -11   -1    0    0    0    0  0.00000000000E+00  0.00000000000E+00  0.45593999997E+02  0.45594000000E+02  0.51100000000E-03 0.  1.
         11   -1    0    0    0    0 -0.00000000000E+00 -0.00000000000E+00 -0.45593999997E+02  0.45594000000E+02  0.51100000000E-03 0. -1.
    9900012    2    1    2    0    0 -0.24130038694E+02 -0.35158851262E+02 -0.80759011451E+01  0.47787265343E+02  0.19999974005E+02 0.  0.
         12    1    1    2    0    0  0.24130038694E+02  0.35158851262E+02  0.80759011451E+01  0.43400734657E+02  0.00000000000E+00 0. -1.
         11    1    3    3    0    0 -0.23989578636E+01 -0.66700728894E-01 -0.42169445544E+01  0.48520170501E+01  0.51100000000E-03 0. -1.
        -11    1    3    3    0    0  0.27050834937E+00  0.34335186677E+00 -0.10420194583E+01  0.11299867628E+01  0.51100000000E-03 0.  1.
        -12    1    3    3    0    0 -0.22001589180E+02 -0.35435502400E+02 -0.28169371324E+01  0.41805261530E+02  0.00000000000E+00 0.  1.
</event>
<event>
 7    1  0.4450624E-010  0.4778727E+02  0.7816164E-02  0.1312668E+00
        -11   -1    0    0    0    0  0.00000000000E+00  0.00000000000E+00  0.45593999997E+02  0.45594000000E+02  0.51100000000E-03 0.  1.
         11   -1    0    0    0    0 -0.00000000000E+00 -0.00000000000E+00 -0.45593999997E+02  0.45594000000E+02  0.51100000000E-03 0. -1.
    9900012    2    1    2    0    0 -0.15889211824E+01  0.25604621042E+02  0.35007171026E+02  0.47787270600E+02  0.19999997974E+02 0.  0.
         12    1    1    2    0    0  0.15889211824E+01 -0.25604621042E+02 -0.35007171026E+02  0.43400729400E+02  0.00000000000E+00 0. -1.
         11    1    3    3    0    0  0.12758246566E+01  0.91263706163E+01  0.21821096263E+02  0.23687097997E+02  0.51100000000E-03 0. -1.
        -11    1    3    3    0    0 -0.47374421643E+01  0.13429544770E+02  0.14466864899E+02  0.20299906681E+02  0.51100000000E-03 0.  1.
        -12    1    3    3    0    0  0.18726963253E+01  0.30487056560E+01 -0.12807901360E+01  0.38002659218E+01  0.00000000000E+00 0.  1.
</event>
<event>
 7    1  0.4450624E-010  0.4778721E+02  0.7816164E-02  0.1312668E+00
        -11   -1    0    0    0    0  0.00000000000E+00  0.00000000000E+00  0.45593999997E+02  0.45594000000E+02  0.51100000000E-03 0.  1.
         11   -1    0    0    0    0 -0.00000000000E+00 -0.00000000000E+00 -0.45593999997E+02  0.45594000000E+02  0.51100000000E-03 0. -1.
    9900012    2    1    2    0    0  0.20213561095E+02 -0.34619840943E+02  0.16628503446E+02  0.47787210077E+02  0.19999722024E+02 0.  0.
         12    1    1    2    0    0 -0.20213561095E+02  0.34619840943E+02 -0.16628503446E+02  0.43400789923E+02  0.00000000000E+00 0. -1.
         11    1    3    3    0    0  0.35269782848E+01 -0.73435898720E+00  0.69850851963E+00  0.36697102552E+01  0.51100000000E-03 0. -1.
        -11    1    3    3    0    0  0.84972678922E+01 -0.25009387047E+02  0.32601574912E+01  0.26613936748E+02  0.51100000000E-03 0.  1.
        -12    1    3    3    0    0  0.81893149177E+01 -0.88760949092E+01  0.12669837435E+02  0.17503563074E+02  0.00000000000E+00 0.  1.
</event>
<event>
 7    1  0.4450624E-010  0.4778727E+02  0.7816164E-02  0.1312668E+00
        -11   -1    0    0    0    0  0.00000000000E+00  0.00000000000E+00  0.45593999997E+02  0.45594000000E+02  0.51100000000E-03 0.  1.
         11   -1    0    0    0    0 -0.00000000000E+00 -0.00000000000E+00 -0.45593999997E+02  0.45594000000E+02  0.51100000000E-03 0. -1.
    9900012    2    1    2    0    0  0.15459435528E+02  0.51185993250E+01  0.40229702328E+02  0.47787272410E+02  0.20000006227E+02 0.  0.
         12    1    1    2    0    0 -0.15459435528E+02 -0.51185993250E+01 -0.40229702328E+02  0.43400727590E+02  0.00000000000E+00 0. -1.
         11    1    3    3    0    0 -0.74442346484E-01 -0.42930702969E+01  0.25575112197E+01  0.49976852779E+01  0.51100000000E-03 0. -1.
        -11    1    3    3    0    0  0.10601866019E+01  0.49549566163E+01  0.11169518557E+02  0.12265143120E+02  0.51100000000E-03 0.  1.
        -12    1    3    3    0    0  0.14473691273E+02  0.44567130056E+01  0.26502672551E+02  0.30524444012E+02  0.00000000000E+00 0.  1.
</event>
<event>
 7    1  0.4450624E-010  0.4778727E+02  0.7816164E-02  0.1312668E+00
        -11   -1    0    0    0    0  0.00000000000E+00  0.00000000000E+00  0.45593999997E+02  0.45594000000E+02  0.51100000000E-03 0.  1.
         11   -1    0    0    0    0 -0.00000000000E+00 -0.00000000000E+00 -0.45593999997E+02  0.45594000000E+02  0.51100000000E-03 0. -1.
    9900012    2    1    2    0    0 -0.29044837115E+01 -0.13923488341E+02  0.41003945653E+02  0.47787272905E+02  0.20000008485E+02 0.  0.
         12    1    1    2    0    0  0.29044837115E+01  0.13923488341E+02 -0.41003945653E+02  0.43400727095E+02  0.00000000000E+00 0. -1.
         11    1    3    3    0    0 -0.26091392345E+01 -0.52881834208E+01  0.18060511138E+02  0.18998804022E+02  0.51100000000E-03 0. -1.
        -11    1    3    3    0    0 -0.66803516786E+01 -0.79598149934E+01  0.10425489397E+02  0.14719938271E+02  0.51100000000E-03 0.  1.
         12    1    3    3    0    0  0.63850072016E+01 -0.67548992692E+00  0.12517945118E+02  0.14068530612E+02  0.00000000000E+00 0. -1.
</event>
<event>
 7    1  0.4450624E-010  0.4778726E+02  0.7816164E-02  0.1312668E+00
        -11   -1    0    0    0    0  0.00000000000E+00  0.00000000000E+00  0.45593999997E+02  0.45594000000E+02  0.51100000000E-03 0.  1.
         11   -1    0    0    0    0 -0.00000000000E+00 -0.00000000000E+00 -0.45593999997E+02  0.45594000000E+02  0.51100000000E-03 0. -1.
    9900012    2    1    2    0    0  0.18092462075E+02  0.37281149119E+02  0.12899716144E+02  0.47787263369E+02  0.19999965004E+02 0.  0.
         12    1    1    2    0    0 -0.18092462075E+02 -0.37281149119E+02 -0.12899716144E+02  0.43400736631E+02  0.00000000000E+00 0. -1.
         11    1    3    3    0    0  0.79404454952E+01  0.42716003137E+01  0.22250304347E+01  0.92869803811E+01  0.51100000000E-03 0. -1.
        -11    1    3    3    0    0  0.31549321975E+01  0.11376518642E+01  0.39534107688E+01  0.51843327346E+01  0.51100000000E-03 0.  1.
        -12    1    3    3    0    0  0.69970843820E+01  0.31871896941E+02  0.67212749408E+01  0.33315950253E+02  0.00000000000E+00 0.  1.
</event>
<event>
 7    1  0.4450624E-010  0.4778727E+02  0.7816164E-02  0.1312668E+00
        -11   -1    0    0    0    0  0.00000000000E+00  0.00000000000E+00  0.45593999997E+02  0.45594000000E+02  0.51100000000E-03 0.  1.
         11   -1    0    0    0    0 -0.00000000000E+00 -0.00000000000E+00 -0.45593999997E+02  0.45594000000E+02  0.51100000000E-03 0. -1.
    9900012    2    1    2    0    0 -0.14466311608E+02  0.28726038329E+02  0.29140415676E+02  0.47787271027E+02  0.19999999921E+02 0.  0.
         12    1    1    2    0    0  0.14466311608E+02 -0.28726038329E+02 -0.29140415676E+02  0.43400728973E+02  0.00000000000E+00 0. -1.
         11    1    3    3    0    0  0.20769725097E+01  0.46590732770E+01  0.62371010072E+01  0.80574318391E+01  0.51100000000E-03 0. -1.
        -11    1    3    3    0    0 -0.57535807306E+01  0.83877060821E+00  0.86397154248E+01  0.10414024690E+02  0.51100000000E-03 0.  1.
         12    1    3    3    0    0 -0.10789703387E+02  0.23228194444E+02  0.14263599244E+02  0.29315814498E+02  0.00000000000E+00 0. -1.
</event>
<event>
 7    1  0.4450624E-010  0.4778727E+02  0.7816164E-02  0.1312668E+00
        -11   -1    0    0    0    0  0.00000000000E+00  0.00000000000E+00  0.45593999997E+02  0.45594000000E+02  0.51100000000E-03 0.  1.
         11   -1    0    0    0    0 -0.00000000000E+00 -0.00000000000E+00 -0.45593999997E+02  0.45594000000E+02  0.51100000000E-03 0. -1.
    9900012    2    1    2    0    0 -0.24785473951E+01  0.82731212696E+01  0.42532758257E+02  0.47787271231E+02  0.20000000849E+02 0.  0.
         12    1    1    2    0    0  0.24785473951E+01 -0.82731212696E+01 -0.42532758257E+02  0.43400728769E+02  0.00000000000E+00 0. -1.
         11    1    3    3    0    0  0.14606231527E+01  0.98129257435E+00 -0.28555402001E+00  0.17826655519E+01  0.51100000000E-03 0. -1.
        -11    1    3    3    0    0  0.33574545789E+01  0.87245984097E+01  0.22286206683E+02  0.24167460091E+02  0.51100000000E-03 0.  1.
        -12    1    3    3    0    0 -0.72966251266E+01 -0.14327697145E+01  0.20532105594E+02  0.21837145588E+02  0.00000000000E+00 0.  1.
</event>
<event>
 7    1  0.4450624E-010  0.4778727E+02  0.7816164E-02  0.1312668E+00
        -11   -1    0    0    0    0  0.00000000000E+00  0.00000000000E+00  0.45593999997E+02  0.45594000000E+02  0.51100000000E-03 0. -1.
         11   -1    0    0    0    0 -0.00000000000E+00 -0.00000000000E+00 -0.45593999997E+02  0.45594000000E+02  0.51100000000E-03 0.  1.
    9900012    2    1    2    0    0 -0.27201757187E+02 -0.33552263827E+02 -0.42347731968E+01  0.47787270675E+02  0.19999998315E+02 0.  0.
         12    1    1    2    0    0  0.27201757187E+02  0.33552263827E+02  0.42347731968E+01  0.43400729325E+02  0.00000000000E+00 0. -1.
         11    1    3    3    0    0 -0.18012220848E+02 -0.18122355428E+02 -0.90849244911E+00  0.25567268625E+02  0.51100000000E-03 0. -1.
        -11    1    3    3    0    0 -0.93426099890E+01 -0.99024405449E+01  0.28719760614E+01  0.13913696019E+02  0.51100000000E-03 0.  1.
         12    1    3    3    0    0  0.15307364975E+00 -0.55274678533E+01 -0.61982568091E+01  0.83063060311E+01  0.00000000000E+00 0. -1.
</event>
<event>
 7    1  0.4842435E-010  0.4778727E+02  0.7816164E-02  0.1312668E+00
        -11   -1    0    0    0    0  0.00000000000E+00  0.00000000000E+00  0.45593999997E+02  0.45594000000E+02  0.51100000000E-03 0.  1.
         11   -1    0    0    0    0 -0.00000000000E+00 -0.00000000000E+00 -0.45593999997E+02  0.45594000000E+02  0.51100000000E-03 0. -1.
    9900012    2    1    2    0    0 -0.39511430465E+02  0.17882650123E+02  0.16373598459E+01  0.47787271203E+02  0.20000000725E+02 0.  0.
         12    1    1    2    0    0  0.39511430465E+02 -0.17882650123E+02 -0.16373598459E+01  0.43400728797E+02  0.00000000000E+00 0. -1.
         11    1    3    3    0    0 -0.28558819250E+01 -0.26441434012E+01 -0.76567524162E+00  0.39665872904E+01  0.51100000000E-03 0.  1.
        -11    1    3    3    0    0 -0.38170008231E+00  0.37793304381E+01  0.34950868717E+00  0.38146022200E+01  0.51100000000E-03 0. -1.
        -12    1    3    3    0    0 -0.36273848458E+02  0.16747463086E+02  0.20535264003E+01  0.40006081693E+02  0.00000000000E+00 0.  1.
</event>
<event>
 7    1  0.4450624E-010  0.4778727E+02  0.7816164E-02  0.1312668E+00
        -11   -1    0    0    0    0  0.00000000000E+00  0.00000000000E+00  0.45593999997E+02  0.45594000000E+02  0.51100000000E-03 0.  1.
         11   -1    0    0    0    0 -0.00000000000E+00 -0.00000000000E+00 -0.45593999997E+02  0.45594000000E+02  0.51100000000E-03 0. -1.
    9900012    2    1    2    0    0  0.20372399129E+02 -0.26668130647E+02  0.27520892389E+02  0.47787270094E+02  0.19999995666E+02 0.  0.
         12    1    1    2    0    0 -0.20372399129E+02  0.26668130647E+02 -0.27520892389E+02  0.43400729906E+02  0.00000000000E+00 0. -1.
         11    1    3    3    0    0  0.47985331341E+01  0.33747546893E+00  0.80584011646E+01  0.93849688077E+01  0.51100000000E-03 0. -1.
        -11    1    3    3    0    0  0.75237435884E+00 -0.39799739411E+01  0.74917424855E+01  0.85165994081E+01  0.51100000000E-03 0.  1.
        -12    1    3    3    0    0  0.14821491636E+02 -0.23025632175E+02  0.11970748739E+02  0.29885701878E+02  0.00000000000E+00 0.  1.
</event>
<event>
 7    1  0.4450624E-010  0.4778727E+02  0.7816164E-02  0.1312668E+00
        -11   -1    0    0    0    0  0.00000000000E+00  0.00000000000E+00  0.45593999997E+02  0.45594000000E+02  0.51100000000E-03 0.  1.
         11   -1    0    0    0    0 -0.00000000000E+00 -0.00000000000E+00 -0.45593999997E+02  0.45594000000E+02  0.51100000000E-03 0. -1.
    9900012    2    1    2    0    0 -0.22541294569E+02  0.34258331830E+02  0.14208451926E+02  0.47787269975E+02  0.19999995123E+02 0.  0.
         12    1    1    2    0    0  0.22541294569E+02 -0.34258331830E+02 -0.14208451926E+02  0.43400730025E+02  0.00000000000E+00 0. -1.
         11    1    3    3    0    0 -0.15627716294E+02  0.92877082271E+01  0.61035081830E+01  0.19176544347E+02  0.51100000000E-03 0. -1.
        -11    1    3    3    0    0 -0.38302398885E+01  0.22997902648E+01  0.47659111071E+00  0.44929847778E+01  0.51100000000E-03 0.  1.
        -12    1    3    3    0    0 -0.30833383862E+01  0.22670833338E+02  0.76283526326E+01  0.24117740850E+02  0.00000000000E+00 0.  1.
</event>
<event>
 7    1  0.4450624E-010  0.4778727E+02  0.7816164E-02  0.1312668E+00
        -11   -1    0    0    0    0  0.00000000000E+00  0.00000000000E+00  0.45593999997E+02  0.45594000000E+02  0.51100000000E-03 0. -1.
         11   -1    0    0    0    0 -0.00000000000E+00 -0.00000000000E+00 -0.45593999997E+02  0.45594000000E+02  0.51100000000E-03 0.  1.
    9900012    2    1    2    0    0  0.12529561725E+02  0.19198842300E+02 -0.36851562322E+02  0.47787272952E+02  0.20000008699E+02 0.  0.
         12    1    1    2    0    0 -0.12529561725E+02 -0.19198842300E+02  0.36851562322E+02  0.43400727048E+02  0.00000000000E+00 0. -1.
         11    1    3    3    0    0  0.14695056463E+02  0.20435317988E+02 -0.29805463643E+02  0.39011697847E+02  0.51100000000E-03 0. -1.
        -11    1    3    3    0    0 -0.13416321199E+01  0.15788432219E+01 -0.42254466487E+01  0.47060729177E+01  0.51100000000E-03 0.  1.
         12    1    3    3    0    0 -0.82386261749E+00 -0.28153189097E+01 -0.28206520307E+01  0.40695021875E+01  0.00000000000E+00 0. -1.
</event>
<event>
 7    1  0.4450624E-010  0.4778727E+02  0.7816164E-02  0.1312668E+00
        -11   -1    0    0    0    0  0.00000000000E+00  0.00000000000E+00  0.45593999997E+02  0.45594000000E+02  0.51100000000E-03 0.  1.
         11   -1    0    0    0    0 -0.00000000000E+00 -0.00000000000E+00 -0.45593999997E+02  0.45594000000E+02  0.51100000000E-03 0. -1.
    9900012    2    1    2    0    0 -0.85218660357E+01  0.33928928720E+02  0.25687128882E+02  0.47787274257E+02  0.20000014649E+02 0.  0.
         12    1    1    2    0    0  0.85218660357E+01 -0.33928928720E+02 -0.25687128882E+02  0.43400725743E+02  0.00000000000E+00 0. -1.
         11    1    3    3    0    0 -0.72198825723E+01  0.13052549888E+02  0.89866167764E+01  0.17414219600E+02  0.51100000000E-03 0. -1.
        -11    1    3    3    0    0 -0.89978088764E-01  0.20452683480E+02  0.86266373249E+01  0.22197730275E+02  0.51100000000E-03 0.  1.
         12    1    3    3    0    0 -0.12120053747E+01  0.42369535188E+00  0.80738747802E+01  0.81753243817E+01  0.00000000000E+00 0. -1.
</event>
<event>
 7    1  0.4450624E-010  0.4778727E+02  0.7816164E-02  0.1312668E+00
        -11   -1    0    0    0    0  0.00000000000E+00  0.00000000000E+00  0.45593999997E+02  0.45594000000E+02  0.51100000000E-03 0.  1.
         11   -1    0    0    0    0 -0.00000000000E+00 -0.00000000000E+00 -0.45593999997E+02  0.45594000000E+02  0.51100000000E-03 0. -1.
    9900012    2    1    2    0    0  0.15460980158E+02 -0.27743392298E+02  0.29578464384E+02  0.47787270986E+02  0.19999999734E+02 0.  0.
         12    1    1    2    0    0 -0.15460980158E+02  0.27743392298E+02 -0.29578464384E+02  0.43400729014E+02  0.00000000000E+00 0. -1.
         11    1    3    3    0    0  0.57028403956E+01 -0.13908601528E+02  0.48942235620E+01  0.15809016718E+02  0.51100000000E-03 0. -1.
        -11    1    3    3    0    0  0.89895276740E-01 -0.91212089437E+01  0.80299385140E+01  0.12152548974E+02  0.51100000000E-03 0.  1.
        -12    1    3    3    0    0  0.96682444853E+01 -0.47135818257E+01  0.16654302308E+02  0.19825705295E+02  0.00000000000E+00 0.  1.
</event>
<event>
 7    1  0.4450624E-010  0.4778726E+02  0.7816164E-02  0.1312668E+00
        -11   -1    0    0    0    0  0.00000000000E+00  0.00000000000E+00  0.45593999997E+02  0.45594000000E+02  0.51100000000E-03 0. -1.
         11   -1    0    0    0    0 -0.00000000000E+00 -0.00000000000E+00 -0.45593999997E+02  0.45594000000E+02  0.51100000000E-03 0.  1.
    9900012    2    1    2    0    0 -0.11354519129E+02 -0.22651449899E+02 -0.35236497461E+02  0.47787262213E+02  0.19999959733E+02 0.  0.
         12    1    1    2    0    0  0.11354519129E+02  0.22651449899E+02  0.35236497461E+02  0.43400737787E+02  0.00000000000E+00 0. -1.
         11    1    3    3    0    0 -0.11500379970E+02 -0.13808538493E+02 -0.16075292091E+02  0.24111190158E+02  0.51100000000E-03 0. -1.
        -11    1    3    3    0    0 -0.24548974597E+01 -0.10436387647E+02 -0.13437842515E+02  0.17190704476E+02  0.51100000000E-03 0.  1.
        -12    1    3    3    0    0  0.26007583005E+01  0.15934762412E+01 -0.57233628538E+01  0.64853675783E+01  0.00000000000E+00 0.  1.
</event>
<event>
 7    1  0.4450624E-010  0.4778727E+02  0.7816164E-02  0.1312668E+00
        -11   -1    0    0    0    0  0.00000000000E+00  0.00000000000E+00  0.45593999997E+02  0.45594000000E+02  0.51100000000E-03 0.  1.
         11   -1    0    0    0    0 -0.00000000000E+00 -0.00000000000E+00 -0.45593999997E+02  0.45594000000E+02  0.51100000000E-03 0. -1.
    9900012    2    1    2    0    0  0.23656571936E+02  0.22046793508E+02  0.28946998729E+02  0.47787271490E+02  0.20000002033E+02 0.  0.
         12    1    1    2    0    0 -0.23656571936E+02 -0.22046793508E+02 -0.28946998729E+02  0.43400728510E+02  0.00000000000E+00 0. -1.
         11    1    3    3    0    0  0.42114569907E+01  0.21464250986E+00  0.16071882591E+00  0.42199848570E+01  0.51100000000E-03 0. -1.
        -11    1    3    3    0    0  0.13481291628E+02  0.14724182410E+02  0.93810285936E+01  0.22057889050E+02  0.51100000000E-03 0.  1.
        -12    1    3    3    0    0  0.59638233168E+01  0.71079685884E+01  0.19405251309E+02  0.21509397583E+02  0.00000000000E+00 0.  1.
</event>
<event>
 7    1  0.4450624E-010  0.4778727E+02  0.7816164E-02  0.1312668E+00
        -11   -1    0    0    0    0  0.00000000000E+00  0.00000000000E+00  0.45593999997E+02  0.45594000000E+02  0.51100000000E-03 0.  1.
         11   -1    0    0    0    0 -0.00000000000E+00 -0.00000000000E+00 -0.45593999997E+02  0.45594000000E+02  0.51100000000E-03 0. -1.
    9900012    2    1    2    0    0  0.41197987500E+02 -0.73407350801E+01  0.11509237445E+02  0.47787272908E+02  0.20000008495E+02 0.  0.
         12    1    1    2    0    0 -0.41197987500E+02  0.73407350801E+01 -0.11509237445E+02  0.43400727092E+02  0.00000000000E+00 0. -1.
         11    1    3    3    0    0  0.60859014838E+01 -0.20737447762E+01  0.66163795038E+01  0.92257841004E+01  0.51100000000E-03 0. -1.
        -11    1    3    3    0    0  0.24815656898E+02  0.22777671978E+01  0.63430863265E+01  0.25714583316E+02  0.51100000000E-03 0.  1.
         12    1    3    3    0    0  0.10296429118E+02 -0.75447575017E+01 -0.14502283850E+01  0.12846905492E+02  0.00000000000E+00 0. -1.
</event>
<event>
 7    1  0.4450624E-010  0.4778728E+02  0.7816164E-02  0.1312668E+00
        -11   -1    0    0    0    0  0.00000000000E+00  0.00000000000E+00  0.45593999997E+02  0.45594000000E+02  0.51100000000E-03 0. -1.
         11   -1    0    0    0    0 -0.00000000000E+00 -0.00000000000E+00 -0.45593999997E+02  0.45594000000E+02  0.51100000000E-03 0.  1.
    9900012    2    1    2    0    0 -0.15019010400E+02  0.24981304838E+02 -0.32155660371E+02  0.47787276980E+02  0.20000027063E+02 0.  0.
         12    1    1    2    0    0  0.15019010400E+02 -0.24981304838E+02  0.32155660371E+02  0.43400723020E+02  0.00000000000E+00 0. -1.
         11    1    3    3    0    0 -0.24998299241E+01  0.55680172380E+01 -0.13859127224E+02  0.15143558805E+02  0.51100000000E-03 0. -1.
        -11    1    3    3    0    0 -0.33928300611E+00  0.11145772342E+02 -0.12685548873E+02  0.16889834354E+02  0.51100000000E-03 0.  1.
         12    1    3    3    0    0 -0.12179897470E+02  0.82675152579E+01 -0.56109842737E+01  0.15753883821E+02  0.00000000000E+00 0. -1.
</event>
<event>
 7    1  0.4450624E-010  0.4778725E+02  0.7816164E-02  0.1312668E+00
        -11   -1    0    0    0    0  0.00000000000E+00  0.00000000000E+00  0.45593999997E+02  0.45594000000E+02  0.51100000000E-03 0.  1.
         11   -1    0    0    0    0 -0.00000000000E+00 -0.00000000000E+00 -0.45593999997E+02  0.45594000000E+02  0.51100000000E-03 0. -1.
    9900012    2    1    2    0    0 -0.27010512177E+02  0.21447910931E+02  0.26344718311E+02  0.47787253068E+02  0.19999918039E+02 0.  0.
         12    1    1    2    0    0  0.27010512177E+02 -0.21447910931E+02 -0.26344718311E+02  0.43400746932E+02  0.00000000000E+00 0. -1.
         11    1    3    3    0    0 -0.13074764433E+02  0.26897103535E+01  0.10105828546E+02  0.16742514077E+02  0.51100000000E-03 0. -1.
        -11    1    3    3    0    0 -0.15030404729E+02  0.15921014727E+02  0.17213521046E+02  0.27851338985E+02  0.51100000000E-03 0.  1.
        -12    1    3    3    0    0  0.10946569847E+01  0.28371858508E+01 -0.97463128032E+00  0.31934000061E+01  0.00000000000E+00 0.  1.
</event>
<event>
 7    1  0.4450624E-010  0.4778727E+02  0.7816164E-02  0.1312668E+00
        -11   -1    0    0    0    0  0.00000000000E+00  0.00000000000E+00  0.45593999997E+02  0.45594000000E+02  0.51100000000E-03 0.  1.
         11   -1    0    0    0    0 -0.00000000000E+00 -0.00000000000E+00 -0.45593999997E+02  0.45594000000E+02  0.51100000000E-03 0. -1.
    9900012    2    1    2    0    0 -0.54443641794E+01  0.82798189653E-01  0.43057815743E+02  0.47787268976E+02  0.19999990568E+02 0.  0.
         12    1    1    2    0    0  0.54443641794E+01 -0.82798189653E-01 -0.43057815743E+02  0.43400731024E+02  0.00000000000E+00 0. -1.
         11    1    3    3    0    0  0.66767788400E+00 -0.55543910398E+01  0.14043876719E+02  0.15117126947E+02  0.51100000000E-03 0. -1.
        -11    1    3    3    0    0 -0.46772408392E+01  0.64554095379E+01  0.29795046482E+02  0.30843049287E+02  0.51100000000E-03 0.  1.
         12    1    3    3    0    0 -0.14348012242E+01 -0.81822030843E+00 -0.78110745796E+00  0.18270927417E+01  0.00000000000E+00 0. -1.
</event>
<event>
 7    1  0.4450624E-010  0.4778727E+02  0.7816164E-02  0.1312668E+00
        -11   -1    0    0    0    0  0.00000000000E+00  0.00000000000E+00  0.45593999997E+02  0.45594000000E+02  0.51100000000E-03 0. -1.
         11   -1    0    0    0    0 -0.00000000000E+00 -0.00000000000E+00 -0.45593999997E+02  0.45594000000E+02  0.51100000000E-03 0.  1.
    9900012    2    1    2    0    0  0.36089613149E+02  0.18890489465E+02  0.14977065703E+02  0.47787271129E+02  0.20000000384E+02 0.  0.
         12    1    1    2    0    0 -0.36089613149E+02 -0.18890489465E+02 -0.14977065703E+02  0.43400728871E+02  0.00000000000E+00 0. -1.
         11    1    3    3    0    0  0.17673354586E+02  0.10429532131E+02  0.17352822423E+01  0.20594509159E+02  0.51100000000E-03 0. -1.
        -11    1    3    3    0    0  0.13239764388E+02  0.38671882868E+01  0.19239030266E+01  0.13926518208E+02  0.51100000000E-03 0.  1.
         12    1    3    3    0    0  0.51764941755E+01  0.45937690469E+01  0.11317880434E+02  0.13266243761E+02  0.00000000000E+00 0. -1.
</event>
<event>
 7    1  0.4450624E-010  0.4778727E+02  0.7816164E-02  0.1312668E+00
        -11   -1    0    0    0    0  0.00000000000E+00  0.00000000000E+00  0.45593999997E+02  0.45594000000E+02  0.51100000000E-03 0.  1.
         11   -1    0    0    0    0 -0.00000000000E+00 -0.00000000000E+00 -0.45593999997E+02  0.45594000000E+02  0.51100000000E-03 0. -1.
    9900012    2    1    2    0    0  0.19928765850E+02 -0.67928195666E+01  0.37951616713E+02  0.47787270547E+02  0.19999997731E+02 0.  0.
         12    1    1    2    0    0 -0.19928765850E+02  0.67928195666E+01 -0.37951616713E+02  0.43400729453E+02  0.00000000000E+00 0. -1.
         11    1    3    3    0    0  0.10562387399E+01  0.94203542757E+00 -0.86751043636E+00  0.16600137472E+01  0.51100000000E-03 0. -1.
        -11    1    3    3    0    0  0.80470426444E+01  0.37955914890E+01  0.11243400732E+02  0.14337903276E+02  0.51100000000E-03 0.  1.
        -12    1    3    3    0    0  0.10825484465E+02 -0.11530446483E+02  0.27575726418E+02  0.31789353524E+02  0.00000000000E+00 0.  1.
</event>
<event>
 7    1  0.4450624E-010  0.4778727E+02  0.7816164E-02  0.1312668E+00
        -11   -1    0    0    0    0  0.00000000000E+00  0.00000000000E+00  0.45593999997E+02  0.45594000000E+02  0.51100000000E-03 0.  1.
         11   -1    0    0    0    0 -0.00000000000E+00 -0.00000000000E+00 -0.45593999997E+02  0.45594000000E+02  0.51100000000E-03 0. -1.
    9900012    2    1    2    0    0  0.19662560390E+02  0.32615902083E+02  0.20813703457E+02  0.47787267272E+02  0.19999982798E+02 0.  0.
         12    1    1    2    0    0 -0.19662560390E+02 -0.32615902083E+02 -0.20813703457E+02  0.43400732728E+02  0.00000000000E+00 0. -1.
         11    1    3    3    0    0  0.23426814073E+00  0.60795880754E+01 -0.17194787003E+01  0.63224109318E+01  0.51100000000E-03 0. -1.
        -11    1    3    3    0    0  0.35707787850E+01  0.12356433643E+02  0.46595555650E+01  0.13680035520E+02  0.51100000000E-03 0.  1.
        -12    1    3    3    0    0  0.15857513464E+02  0.14179880365E+02  0.17873626592E+02  0.27784820820E+02  0.00000000000E+00 0.  1.
</event>
<event>
 7    1  0.4450624E-010  0.4778727E+02  0.7816164E-02  0.1312668E+00
        -11   -1    0    0    0    0  0.00000000000E+00  0.00000000000E+00  0.45593999997E+02  0.45594000000E+02  0.51100000000E-03 0. -1.
         11   -1    0    0    0    0 -0.00000000000E+00 -0.00000000000E+00 -0.45593999997E+02  0.45594000000E+02  0.51100000000E-03 0.  1.
    9900012    2    1    2    0    0  0.15726168636E+02 -0.25654961370E+02 -0.31275134234E+02  0.47787269082E+02  0.19999991053E+02 0.  0.
         12    1    1    2    0    0 -0.15726168636E+02  0.25654961370E+02  0.31275134234E+02  0.43400730918E+02  0.00000000000E+00 0. -1.
         11    1    3    3    0    0 -0.11467813166E+01 -0.28246029065E+01 -0.95793987570E+01  0.10052779206E+02  0.51100000000E-03 0. -1.
        -11    1    3    3    0    0  0.25802730137E+01 -0.12878993596E+02 -0.12055155633E+02  0.17828434100E+02  0.51100000000E-03 0.  1.
        -12    1    3    3    0    0  0.14292676939E+02 -0.99513648679E+01 -0.96405798434E+01  0.19906055775E+02  0.00000000000E+00 0.  1.
</event>
<event>
 7    1  0.4450624E-010  0.4778727E+02  0.7816164E-02  0.1312668E+00
        -11   -1    0    0    0    0  0.00000000000E+00  0.00000000000E+00  0.45593999997E+02  0.45594000000E+02  0.51100000000E-03 0.  1.
         11   -1    0    0    0    0 -0.00000000000E+00 -0.00000000000E+00 -0.45593999997E+02  0.45594000000E+02  0.51100000000E-03 0. -1.
    9900012    2    1    2    0    0  0.82938612561E+01 -0.23017058610E+02  0.35847592834E+02  0.47787273813E+02  0.20000012622E+02 0.  0.
         12    1    1    2    0    0 -0.82938612561E+01  0.23017058610E+02 -0.35847592834E+02  0.43400726187E+02  0.00000000000E+00 0. -1.
         11    1    3    3    0    0  0.65631035678E+01 -0.94237686821E+01  0.88947778970E+01  0.14525798385E+02  0.51100000000E-03 0. -1.
        -11    1    3    3    0    0  0.69266953927E+01 -0.12307920098E+02  0.20110125800E+02  0.24573993696E+02  0.51100000000E-03 0.  1.
         12    1    3    3    0    0 -0.51959377044E+01 -0.12853698303E+01  0.68426891369E+01  0.86874817326E+01  0.00000000000E+00 0. -1.
</event>
<event>
 7    1  0.4450624E-010  0.4778728E+02  0.7816164E-02  0.1312668E+00
        -11   -1    0    0    0    0  0.00000000000E+00  0.00000000000E+00  0.45593999997E+02  0.45594000000E+02  0.51100000000E-03 0. -1.
         11   -1    0    0    0    0 -0.00000000000E+00 -0.00000000000E+00 -0.45593999997E+02  0.45594000000E+02  0.51100000000E-03 0.  1.
    9900012    2    1    2    0    0 -0.16565035667E+02  0.24975328634E+01 -0.40037284965E+02  0.47787282674E+02  0.20000053022E+02 0.  0.
         12    1    1    2    0    0  0.16565035667E+02 -0.24975328634E+01  0.40037284965E+02  0.43400717326E+02  0.00000000000E+00 0. -1.
         11    1    3    3    0    0 -0.87676381312E+01  0.91089590954E+01 -0.12791230714E+02  0.17984999239E+02  0.51100000000E-03 0. -1.
        -11    1    3    3    0    0 -0.60024677740E+01 -0.21504066956E+01 -0.96897117979E+01  0.11599326848E+02  0.51100000000E-03 0.  1.
         12    1    3    3    0    0 -0.17949297618E+01 -0.44610195364E+01 -0.17556342453E+02  0.18202956586E+02  0.00000000000E+00 0. -1.
</event>
<event>
 7    1  0.4450624E-010  0.4778728E+02  0.7816164E-02  0.1312668E+00
        -11   -1    0    0    0    0  0.00000000000E+00  0.00000000000E+00  0.45593999997E+02  0.45594000000E+02  0.51100000000E-03 0.  1.
         11   -1    0    0    0    0 -0.00000000000E+00 -0.00000000000E+00 -0.45593999997E+02  0.45594000000E+02  0.51100000000E-03 0. -1.
    9900012    2    1    2    0    0 -0.30504784233E+02  0.30511689033E+02 -0.47029180424E+01  0.47787280342E+02  0.20000042391E+02 0.  0.
         12    1    1    2    0    0  0.30504784233E+02 -0.30511689033E+02  0.47029180424E+01  0.43400719658E+02  0.00000000000E+00 0. -1.
         11    1    3    3    0    0 -0.48967030067E+01  0.17148880355E+02 -0.37439899069E+01  0.18223041965E+02  0.51100000000E-03 0. -1.
        -11    1    3    3    0    0 -0.77471093055E+01  0.74026847877E+01 -0.58829677533E+00  0.10731427585E+02  0.51100000000E-03 0.  1.
        -12    1    3    3    0    0 -0.17860971920E+02  0.59601238901E+01 -0.37063136019E+00  0.18832810792E+02  0.00000000000E+00 0.  1.
</event>
<event>
 7    1  0.5101372E-010  0.4778728E+02  0.7816164E-02  0.1312668E+00
        -11   -1    0    0    0    0  0.00000000000E+00  0.00000000000E+00  0.45593999997E+02  0.45594000000E+02  0.51100000000E-03 0. -1.
         11   -1    0    0    0    0 -0.00000000000E+00 -0.00000000000E+00 -0.45593999997E+02  0.45594000000E+02  0.51100000000E-03 0.  1.
    9900012    2    1    2    0    0  0.35252422254E+02  0.24333482050E+02 -0.69836077910E+01  0.47787281097E+02  0.20000045836E+02 0.  0.
         12    1    1    2    0    0 -0.35252422254E+02 -0.24333482050E+02  0.69836077910E+01  0.43400718903E+02  0.00000000000E+00 0. -1.
         11    1    3    3    0    0  0.10865299195E+02  0.32918708218E+01  0.33201661007E+01  0.11828552037E+02  0.51100000000E-03 0. -1.
        -11    1    3    3    0    0  0.12404777176E+02  0.32447440605E+01 -0.56147472960E+01  0.13997580086E+02  0.51100000000E-03 0.  1.
        -12    1    3    3    0    0  0.11982345884E+02  0.17796867168E+02 -0.46890265957E+01  0.21961148975E+02  0.00000000000E+00 0.  1.
</event>
<event>
 7    1  0.4450624E-010  0.4778727E+02  0.7816164E-02  0.1312668E+00
        -11   -1    0    0    0    0  0.00000000000E+00  0.00000000000E+00  0.45593999997E+02  0.45594000000E+02  0.51100000000E-03 0.  1.
         11   -1    0    0    0    0 -0.00000000000E+00 -0.00000000000E+00 -0.45593999997E+02  0.45594000000E+02  0.51100000000E-03 0. -1.
    9900012    2    1    2    0    0 -0.37130357072E+02  0.86876314729E+01  0.20724014880E+02  0.47787272476E+02  0.20000006526E+02 0.  0.
         12    1    1    2    0    0  0.37130357072E+02 -0.86876314729E+01 -0.20724014880E+02  0.43400727524E+02  0.00000000000E+00 0. -1.
         11    1    3    3    0    0 -0.65668016601E+01  0.65659799233E+01 -0.50349370309E+00  0.92999184172E+01  0.51100000000E-03 0. -1.
        -11    1    3    3    0    0 -0.73062667528E+01 -0.12128958585E+01  0.97865537063E+00  0.74706369757E+01  0.51100000000E-03 0.  1.
        -12    1    3    3    0    0 -0.23257288659E+02  0.33345474081E+01  0.20248853213E+02  0.31016717083E+02  0.00000000000E+00 0.  1.
</event>
<event>
 7    1  0.4450624E-010  0.4778731E+02  0.7816164E-02  0.1312668E+00
        -11   -1    0    0    0    0  0.00000000000E+00  0.00000000000E+00  0.45593999997E+02  0.45594000000E+02  0.51100000000E-03 0. -1.
         11   -1    0    0    0    0 -0.00000000000E+00 -0.00000000000E+00 -0.45593999997E+02  0.45594000000E+02  0.51100000000E-03 0.  1.
    9900012    2    1    2    0    0 -0.58118305046E+01  0.11752085161E+02 -0.41373072496E+02  0.47787308678E+02  0.20000171587E+02 0.  0.
         12    1    1    2    0    0  0.58118305046E+01 -0.11752085161E+02  0.41373072496E+02  0.43400691322E+02  0.00000000000E+00 0. -1.
         11    1    3    3    0    0 -0.10442495242E+01  0.16270137060E+01 -0.42570431345E+01  0.46754729364E+01  0.51100000000E-03 0. -1.
        -11    1    3    3    0    0 -0.36055194392E+01 -0.46819704865E+01 -0.50506656409E+01  0.77736633410E+01  0.51100000000E-03 0.  1.
         12    1    3    3    0    0 -0.11620615411E+01  0.14807041942E+02 -0.32065363721E+02  0.35338172401E+02  0.00000000000E+00 0. -1.
</event>
<event>
 7    1  0.4450624E-010  0.4778727E+02  0.7816164E-02  0.1312668E+00
        -11   -1    0    0    0    0  0.00000000000E+00  0.00000000000E+00  0.45593999997E+02  0.45594000000E+02  0.51100000000E-03 0.  1.
         11   -1    0    0    0    0 -0.00000000000E+00 -0.00000000000E+00 -0.45593999997E+02  0.45594000000E+02  0.51100000000E-03 0. -1.
    9900012    2    1    2    0    0 -0.41902256515E+01 -0.17058235193E+02  0.39687301355E+02  0.47787271115E+02  0.20000000320E+02 0.  0.
         12    1    1    2    0    0  0.41902256515E+01  0.17058235193E+02 -0.39687301355E+02  0.43400728885E+02  0.00000000000E+00 0. -1.
         11    1    3    3    0    0 -0.14281897957E-01  0.29003083977E+01  0.95428985192E+01  0.99739112279E+01  0.51100000000E-03 0. -1.
        -11    1    3    3    0    0 -0.32976209140E+01 -0.63308390238E+00  0.31601962412E+01  0.46110670635E+01  0.51100000000E-03 0.  1.
        -12    1    3    3    0    0 -0.87832283955E+00 -0.19325459688E+02  0.26984206595E+02  0.33202292823E+02  0.00000000000E+00 0.  1.
</event>
<event>
 7    1  0.4450624E-010  0.4778727E+02  0.7816164E-02  0.1312668E+00
        -11   -1    0    0    0    0  0.00000000000E+00  0.00000000000E+00  0.45593999997E+02  0.45594000000E+02  0.51100000000E-03 0. -1.
         11   -1    0    0    0    0 -0.00000000000E+00 -0.00000000000E+00 -0.45593999997E+02  0.45594000000E+02  0.51100000000E-03 0.  1.
    9900012    2    1    2    0    0 -0.35019778474E+02 -0.13086384503E+02 -0.22045059753E+02  0.47787274163E+02  0.20000014217E+02 0.  0.
         12    1    1    2    0    0  0.35019778474E+02  0.13086384503E+02  0.22045059753E+02  0.43400725837E+02  0.00000000000E+00 0. -1.
         11    1    3    3    0    0 -0.16877897978E+02 -0.36784469385E+01 -0.87565819179E+01  0.19366779267E+02  0.51100000000E-03 0.  1.
        -11    1    3    3    0    0 -0.15906981666E+02 -0.37676448558E+01 -0.14926240739E+02  0.22136392577E+02  0.51100000000E-03 0. -1.
         12    1    3    3    0    0 -0.22348988302E+01 -0.56402927086E+01  0.16377629041E+01  0.62841023186E+01  0.00000000000E+00 0. -1.
</event>
<event>
 7    1  0.4450624E-010  0.4778727E+02  0.7816164E-02  0.1312668E+00
        -11   -1    0    0    0    0  0.00000000000E+00  0.00000000000E+00  0.45593999997E+02  0.45594000000E+02  0.51100000000E-03 0.  1.
         11   -1    0    0    0    0 -0.00000000000E+00 -0.00000000000E+00 -0.45593999997E+02  0.45594000000E+02  0.51100000000E-03 0. -1.
    9900012    2    1    2    0    0  0.12111334997E+02 -0.91337911507E+01  0.40663409560E+02  0.47787268978E+02  0.19999990579E+02 0.  0.
         12    1    1    2    0    0 -0.12111334997E+02  0.91337911507E+01 -0.40663409560E+02  0.43400731022E+02  0.00000000000E+00 0. -1.
         11    1    3    3    0    0 -0.25116395325E+01 -0.78075120786E+01  0.13119011204E+02  0.15471717204E+02  0.51100000000E-03 0. -1.
        -11    1    3    3    0    0  0.63050389744E+00  0.12304712192E+01  0.78350195077E-01  0.13848225880E+01  0.51100000000E-03 0.  1.
        -12    1    3    3    0    0  0.13992470632E+02 -0.25567502914E+01  0.27466048161E+02  0.30930729187E+02  0.00000000000E+00 0.  1.
</event>
<event>
 7    1  0.4450624E-010  0.4778727E+02  0.7816164E-02  0.1312668E+00
        -11   -1    0    0    0    0  0.00000000000E+00  0.00000000000E+00  0.45593999997E+02  0.45594000000E+02  0.51100000000E-03 0.  1.
         11   -1    0    0    0    0 -0.00000000000E+00 -0.00000000000E+00 -0.45593999997E+02  0.45594000000E+02  0.51100000000E-03 0. -1.
    9900012    2    1    2    0    0  0.22385587511E+02  0.11586654420E+02  0.35330698909E+02  0.47787269888E+02  0.19999994726E+02 0.  0.
         12    1    1    2    0    0 -0.22385587511E+02 -0.11586654420E+02 -0.35330698909E+02  0.43400730112E+02  0.00000000000E+00 0. -1.
         11    1    3    3    0    0  0.20373149791E+01  0.34802651567E+01  0.24650763142E+01  0.47264679604E+01  0.51100000000E-03 0. -1.
        -11    1    3    3    0    0  0.12263783498E+02  0.10761092344E+02  0.29877620308E+02  0.34042233911E+02  0.51100000000E-03 0.  1.
        -12    1    3    3    0    0  0.80844890343E+01 -0.26547030806E+01  0.29880022865E+01  0.90185680159E+01  0.00000000000E+00 0.  1.
</event>
<event>
 7    1  0.4450624E-010  0.4778727E+02  0.7816164E-02  0.1312668E+00
        -11   -1    0    0    0    0  0.00000000000E+00  0.00000000000E+00  0.45593999997E+02  0.45594000000E+02  0.51100000000E-03 0.  1.
         11   -1    0    0    0    0 -0.00000000000E+00 -0.00000000000E+00 -0.45593999997E+02  0.45594000000E+02  0.51100000000E-03 0. -1.
    9900012    2    1    2    0    0  0.35780277542E+02 -0.98009413727E+01  0.22524132196E+02  0.47787271389E+02  0.20000001572E+02 0.  0.
         12    1    1    2    0    0 -0.35780277542E+02  0.98009413727E+01 -0.22524132196E+02  0.43400728611E+02  0.00000000000E+00 0. -1.
         11    1    3    3    0    0  0.17041442512E+02 -0.32545331678E+01  0.37637523854E+01  0.17752987955E+02  0.51100000000E-03 0.  1.
        -11    1    3    3    0    0  0.18445170132E+02 -0.27670474410E+01  0.11691113416E+02  0.22012791416E+02  0.51100000000E-03 0. -1.
         12    1    3    3    0    0  0.29366489746E+00 -0.37793607639E+01  0.70692663942E+01  0.80214920188E+01  0.00000000000E+00 0. -1.
</event>
<event>
 7    1  0.4450624E-010  0.4778725E+02  0.7816164E-02  0.1312668E+00
        -11   -1    0    0    0    0  0.00000000000E+00  0.00000000000E+00  0.45593999997E+02  0.45594000000E+02  0.51100000000E-03 0.  1.
         11   -1    0    0    0    0 -0.00000000000E+00 -0.00000000000E+00 -0.45593999997E+02  0.45594000000E+02  0.51100000000E-03 0. -1.
    9900012    2    1    2    0    0 -0.39818805390E+02  0.65661223566E+01  0.15967910995E+02  0.47787246470E+02  0.19999887954E+02 0.  0.
         12    1    1    2    0    0  0.39818805390E+02 -0.65661223566E+01 -0.15967910995E+02  0.43400753530E+02  0.00000000000E+00 0. -1.
         11    1    3    3    0    0 -0.71605708325E+01  0.20449217795E+01 -0.31769012326E+01  0.80961831398E+01  0.51100000000E-03 0. -1.
        -11    1    3    3    0    0  0.36668617365E+00  0.14111081069E+01  0.14802011648E+00  0.14654675211E+01  0.51100000000E-03 0.  1.
        -12    1    3    3    0    0 -0.33024920731E+02  0.31100924702E+01  0.18996792111E+02  0.38225595809E+02  0.00000000000E+00 0.  1.
</event>
<event>
 7    1  0.4450624E-010  0.4778728E+02  0.7816164E-02  0.1312668E+00
        -11   -1    0    0    0    0  0.00000000000E+00  0.00000000000E+00  0.45593999997E+02  0.45594000000E+02  0.51100000000E-03 0. -1.
         11   -1    0    0    0    0 -0.00000000000E+00 -0.00000000000E+00 -0.45593999997E+02  0.45594000000E+02  0.51100000000E-03 0.  1.
    9900012    2    1    2    0    0  0.17697161203E+02 -0.38244110763E+02  0.10383674081E+02  0.47787283299E+02  0.20000055875E+02 0.  0.
         12    1    1    2    0    0 -0.17697161203E+02  0.38244110763E+02 -0.10383674081E+02  0.43400716701E+02  0.00000000000E+00 0. -1.
         11    1    3    3    0    0  0.21014029446E+01 -0.10471952600E+02  0.33317152009E+01  0.11188297995E+02  0.51100000000E-03 0.  1.
        -11    1    3    3    0    0  0.17305809270E+02 -0.17429657194E+02  0.11951216470E+01  0.24590898732E+02  0.51100000000E-03 0. -1.
         12    1    3    3    0    0 -0.17100510119E+01 -0.10342500969E+02  0.58568372331E+01  0.12008086572E+02  0.00000000000E+00 0. -1.
</event>
<event>
 7    1  0.4450624E-010  0.4778727E+02  0.7816164E-02  0.1312668E+00
        -11   -1    0    0    0    0  0.00000000000E+00  0.00000000000E+00  0.45593999997E+02  0.45594000000E+02  0.51100000000E-03 0.  1.
         11   -1    0    0    0    0 -0.00000000000E+00 -0.00000000000E+00 -0.45593999997E+02  0.45594000000E+02  0.51100000000E-03 0. -1.
    9900012    2    1    2    0    0  0.12956859628E+02  0.40553010329E+02  0.84377935131E+01  0.47787271694E+02  0.20000002959E+02 0.  0.
         12    1    1    2    0    0 -0.12956859628E+02 -0.40553010329E+02 -0.84377935131E+01  0.43400728306E+02  0.00000000000E+00 0. -1.
         11    1    3    3    0    0  0.16199894967E+01  0.12183117260E+02  0.26461285687E+00  0.12293198622E+02  0.51100000000E-03 0. -1.
        -11    1    3    3    0    0 -0.19169337768E+01  0.15792360621E+01  0.48128732095E+01  0.54159367090E+01  0.51100000000E-03 0.  1.
        -12    1    3    3    0    0  0.13253803908E+02  0.26790657007E+02  0.33603074468E+01  0.30078136363E+02  0.00000000000E+00 0.  1.
</event>
<event>
 7    1  0.4450624E-010  0.4778727E+02  0.7816164E-02  0.1312668E+00
        -11   -1    0    0    0    0  0.00000000000E+00  0.00000000000E+00  0.45593999997E+02  0.45594000000E+02  0.51100000000E-03 0.  1.
         11   -1    0    0    0    0 -0.00000000000E+00 -0.00000000000E+00 -0.45593999997E+02  0.45594000000E+02  0.51100000000E-03 0. -1.
    9900012    2    1    2    0    0 -0.30577117386E+02  0.26618553675E+02  0.15495676694E+02  0.47787268398E+02  0.19999987934E+02 0.  0.
         12    1    1    2    0    0  0.30577117386E+02 -0.26618553675E+02 -0.15495676694E+02  0.43400731602E+02  0.00000000000E+00 0. -1.
         11    1    3    3    0    0 -0.42114373267E+01 -0.16219806103E+01  0.66958512301E+01  0.80747414456E+01  0.51100000000E-03 0. -1.
        -11    1    3    3    0    0 -0.10543126951E+02  0.12238764928E+02  0.25199018392E+01  0.16349152835E+02  0.51100000000E-03 0.  1.
         12    1    3    3    0    0 -0.15822553109E+02  0.16001769357E+02  0.62799236245E+01  0.23363374118E+02  0.00000000000E+00 0. -1.
</event>
<event>
 7    1  0.4450624E-010  0.4778727E+02  0.7816164E-02  0.1312668E+00
        -11   -1    0    0    0    0  0.00000000000E+00  0.00000000000E+00  0.45593999997E+02  0.45594000000E+02  0.51100000000E-03 0.  1.
         11   -1    0    0    0    0 -0.00000000000E+00 -0.00000000000E+00 -0.45593999997E+02  0.45594000000E+02  0.51100000000E-03 0. -1.
    9900012    2    1    2    0    0 -0.32994076285E+00  0.28357029779E+02  0.32854123737E+02  0.47787269069E+02  0.19999990993E+02 0.  0.
         12    1    1    2    0    0  0.32994076285E+00 -0.28357029779E+02 -0.32854123737E+02  0.43400730931E+02  0.00000000000E+00 0. -1.
         11    1    3    3    0    0 -0.43371229699E+01  0.32801574780E+01  0.66962898510E+01  0.86261443743E+01  0.51100000000E-03 0. -1.
        -11    1    3    3    0    0  0.15224631244E+01  0.53604325864E+01  0.15794827535E+02  0.16748991271E+02  0.51100000000E-03 0.  1.
        -12    1    3    3    0    0  0.24847190827E+01  0.19716439715E+02  0.10363006351E+02  0.22412133423E+02  0.00000000000E+00 0.  1.
</event>
<event>
 7    1  0.4450624E-010  0.4778727E+02  0.7816164E-02  0.1312668E+00
        -11   -1    0    0    0    0  0.00000000000E+00  0.00000000000E+00  0.45593999997E+02  0.45594000000E+02  0.51100000000E-03 0. -1.
         11   -1    0    0    0    0 -0.00000000000E+00 -0.00000000000E+00 -0.45593999997E+02  0.45594000000E+02  0.51100000000E-03 0.  1.
    9900012    2    1    2    0    0  0.41398753418E+02 -0.11197951207E+02  0.66612533672E+01  0.47787271985E+02  0.20000004289E+02 0.  0.
         12    1    1    2    0    0 -0.41398753418E+02  0.11197951207E+02 -0.66612533672E+01  0.43400728015E+02  0.00000000000E+00 0. -1.
         11    1    3    3    0    0  0.60345230019E+01 -0.47381109958E+01  0.66106014192E+01  0.10127448595E+02  0.51100000000E-03 0. -1.
        -11    1    3    3    0    0  0.55839035619E+01 -0.52350428223E+01  0.15784581508E+01  0.78151892322E+01  0.51100000000E-03 0.  1.
        -12    1    3    3    0    0  0.29780326854E+02 -0.12247973884E+01 -0.15278062028E+01  0.29844634157E+02  0.00000000000E+00 0.  1.
</event>
<event>
 7    1  0.4450624E-010  0.4778724E+02  0.7816164E-02  0.1312668E+00
        -11   -1    0    0    0    0  0.00000000000E+00  0.00000000000E+00  0.45593999997E+02  0.45594000000E+02  0.51100000000E-03 0.  1.
         11   -1    0    0    0    0 -0.00000000000E+00 -0.00000000000E+00 -0.45593999997E+02  0.45594000000E+02  0.51100000000E-03 0. -1.
    9900012    2    1    2    0    0  0.21541827418E+02  0.12449641351E+02  0.35560965092E+02  0.47787238065E+02  0.19999849632E+02 0.  0.
         12    1    1    2    0    0 -0.21541827418E+02 -0.12449641351E+02 -0.35560965092E+02  0.43400761935E+02  0.00000000000E+00 0. -1.
         11    1    3    3    0    0  0.29051388300E+01  0.79695890363E+01  0.91855667526E+01  0.12503152317E+02  0.51100000000E-03 0.  1.
        -11    1    3    3    0    0  0.17916314408E+02  0.27419684058E+01  0.14364878223E+02  0.23127093188E+02  0.51100000000E-03 0. -1.
         12    1    3    3    0    0  0.72037418024E+00  0.17380839085E+01  0.12010520116E+02  0.12156992560E+02  0.00000000000E+00 0. -1.
</event>
<event>
 7    1  0.4450624E-010  0.4778727E+02  0.7816164E-02  0.1312668E+00
        -11   -1    0    0    0    0  0.00000000000E+00  0.00000000000E+00  0.45593999997E+02  0.45594000000E+02  0.51100000000E-03 0.  1.
         11   -1    0    0    0    0 -0.00000000000E+00 -0.00000000000E+00 -0.45593999997E+02  0.45594000000E+02  0.51100000000E-03 0. -1.
    9900012    2    1    2    0    0 -0.16624036135E+02 -0.36724834120E+02  0.16079539834E+02  0.47787267059E+02  0.19999981829E+02 0.  0.
         12    1    1    2    0    0  0.16624036135E+02  0.36724834120E+02 -0.16079539834E+02  0.43400732941E+02  0.00000000000E+00 0. -1.
         11    1    3    3    0    0 -0.69601185987E+01 -0.22788973424E+02  0.63519617374E+01  0.24660250989E+02  0.51100000000E-03 0. -1.
        -11    1    3    3    0    0 -0.60306434211E+01 -0.18417227869E+01 -0.12101175866E+01  0.64206687916E+01  0.51100000000E-03 0.  1.
         12    1    3    3    0    0 -0.36332741151E+01 -0.12094137909E+02  0.10937695683E+02  0.16706347279E+02  0.00000000000E+00 0. -1.
</event>
<event>
 7    1  0.4450624E-010  0.4778727E+02  0.7816164E-02  0.1312668E+00
        -11   -1    0    0    0    0  0.00000000000E+00  0.00000000000E+00  0.45593999997E+02  0.45594000000E+02  0.51100000000E-03 0.  1.
         11   -1    0    0    0    0 -0.00000000000E+00 -0.00000000000E+00 -0.45593999997E+02  0.45594000000E+02  0.51100000000E-03 0. -1.
    9900012    2    1    2    0    0  0.17814710174E+02 -0.37911899042E+02  0.11355491042E+02  0.47787272306E+02  0.20000005750E+02 0.  0.
         12    1    1    2    0    0 -0.17814710174E+02  0.37911899042E+02 -0.11355491042E+02  0.43400727694E+02  0.00000000000E+00 0. -1.
         11    1    3    3    0    0  0.47573729769E+01 -0.92833962706E+01 -0.46111625418E+01  0.11405124471E+02  0.51100000000E-03 0.  1.
        -11    1    3    3    0    0  0.28810141511E+01 -0.73500542818E+00  0.18838937248E+01  0.35198766095E+01  0.51100000000E-03 0. -1.
        -12    1    3    3    0    0  0.10176323046E+02 -0.27893497344E+02  0.14082759859E+02  0.32862271225E+02  0.00000000000E+00 0.  1.
</event>
<event>
 7    1  0.4450624E-010  0.4778727E+02  0.7816164E-02  0.1312668E+00
        -11   -1    0    0    0    0  0.00000000000E+00  0.00000000000E+00  0.45593999997E+02  0.45594000000E+02  0.51100000000E-03 0.  1.
         11   -1    0    0    0    0 -0.00000000000E+00 -0.00000000000E+00 -0.45593999997E+02  0.45594000000E+02  0.51100000000E-03 0. -1.
    9900012    2    1    2    0    0 -0.11394143655E+02 -0.22022906823E+01  0.41820410133E+02  0.47787270772E+02  0.19999998757E+02 0.  0.
         12    1    1    2    0    0  0.11394143655E+02  0.22022906823E+01 -0.41820410133E+02  0.43400729228E+02  0.00000000000E+00 0. -1.
         11    1    3    3    0    0  0.30708831957E+01 -0.44153391373E+01  0.35579616241E+01  0.64486149271E+01  0.51100000000E-03 0. -1.
        -11    1    3    3    0    0 -0.48613174987E+01  0.12099729769E+01  0.69232888497E+01  0.85456638821E+01  0.51100000000E-03 0.  1.
        -12    1    3    3    0    0 -0.96037093515E+01  0.10030754781E+01  0.31339159659E+02  0.32792991962E+02  0.00000000000E+00 0.  1.
</event>
<event>
 7    1  0.4450624E-010  0.4778727E+02  0.7816164E-02  0.1312668E+00
        -11   -1    0    0    0    0  0.00000000000E+00  0.00000000000E+00  0.45593999997E+02  0.45594000000E+02  0.51100000000E-03 0. -1.
         11   -1    0    0    0    0 -0.00000000000E+00 -0.00000000000E+00 -0.45593999997E+02  0.45594000000E+02  0.51100000000E-03 0.  1.
    9900012    2    1    2    0    0 -0.13903523540E+02  0.40311249718E+02  0.80819769574E+01  0.47787272216E+02  0.20000005342E+02 0.  0.
         12    1    1    2    0    0  0.13903523540E+02 -0.40311249718E+02 -0.80819769574E+01  0.43400727784E+02  0.00000000000E+00 0. -1.
         11    1    3    3    0    0 -0.22007426570E+01 -0.62521606657E+00 -0.11050476761E+01  0.25407270613E+01  0.51100000000E-03 0. -1.
        -11    1    3    3    0    0 -0.30012333068E+01  0.59603567705E+01  0.61525957969E+01  0.90767664669E+01  0.51100000000E-03 0.  1.
         12    1    3    3    0    0 -0.87015475761E+01  0.34976109014E+02  0.30344288365E+01  0.36169778688E+02  0.00000000000E+00 0. -1.
</event>
<event>
 7    1  0.4450624E-010  0.4778727E+02  0.7816164E-02  0.1312668E+00
        -11   -1    0    0    0    0  0.00000000000E+00  0.00000000000E+00  0.45593999997E+02  0.45594000000E+02  0.51100000000E-03 0.  1.
         11   -1    0    0    0    0 -0.00000000000E+00 -0.00000000000E+00 -0.45593999997E+02  0.45594000000E+02  0.51100000000E-03 0. -1.
    9900012    2    1    2    0    0 -0.30352057765E+02  0.23480891383E+02  0.20273715865E+02  0.47787271600E+02  0.20000002531E+02 0.  0.
         12    1    1    2    0    0  0.30352057765E+02 -0.23480891383E+02 -0.20273715865E+02  0.43400728400E+02  0.00000000000E+00 0. -1.
         11    1    3    3    0    0  0.10882263956E+01  0.31030289272E+01  0.26611037383E+00  0.32990665655E+01  0.51100000000E-03 0. -1.
        -11    1    3    3    0    0 -0.25167382601E+01  0.14049521812E+01  0.69336242163E+01  0.75088619068E+01  0.51100000000E-03 0.  1.
         12    1    3    3    0    0 -0.28923545901E+02  0.18972910275E+02  0.13073981275E+02  0.36979343127E+02  0.00000000000E+00 0. -1.
</event>
<event>
 7    1  0.4450624E-010  0.4778727E+02  0.7816164E-02  0.1312668E+00
        -11   -1    0    0    0    0  0.00000000000E+00  0.00000000000E+00  0.45593999997E+02  0.45594000000E+02  0.51100000000E-03 0.  1.
         11   -1    0    0    0    0 -0.00000000000E+00 -0.00000000000E+00 -0.45593999997E+02  0.45594000000E+02  0.51100000000E-03 0. -1.
    9900012    2    1    2    0    0 -0.74976896295E+01  0.17658122541E+02  0.38930690570E+02  0.47787270632E+02  0.19999998119E+02 0.  0.
         12    1    1    2    0    0  0.74976896295E+01 -0.17658122541E+02 -0.38930690570E+02  0.43400729368E+02  0.00000000000E+00 0. -1.
         11    1    3    3    0    0  0.52389853921E+01  0.36824961454E+01  0.77713062143E+01  0.10069803689E+02  0.51100000000E-03 0. -1.
        -11    1    3    3    0    0 -0.27406145456E+01  0.93103657656E+01  0.18756736436E+02  0.21118926127E+02  0.51100000000E-03 0.  1.
         12    1    3    3    0    0 -0.99960604761E+01  0.46652606301E+01  0.12402647919E+02  0.16598540815E+02  0.00000000000E+00 0. -1.
</event>
<event>
 7    1  0.4450624E-010  0.4778728E+02  0.7816164E-02  0.1312668E+00
        -11   -1    0    0    0    0  0.00000000000E+00  0.00000000000E+00  0.45593999997E+02  0.45594000000E+02  0.51100000000E-03 0. -1.
         11   -1    0    0    0    0 -0.00000000000E+00 -0.00000000000E+00 -0.45593999997E+02  0.45594000000E+02  0.51100000000E-03 0.  1.
    9900012    2    1    2    0    0 -0.64623075047E+01 -0.15527535195E+02 -0.40009461613E+02  0.47787276664E+02  0.20000025623E+02 0.  0.
         12    1    1    2    0    0  0.64623075047E+01  0.15527535195E+02  0.40009461613E+02  0.43400723336E+02  0.00000000000E+00 0. -1.
         11    1    3    3    0    0  0.35941758040E+01 -0.38757518446E+01 -0.11215082939E+02  0.12398291723E+02  0.51100000000E-03 0. -1.
        -11    1    3    3    0    0 -0.44562242109E+01 -0.91002731117E+01 -0.27208182999E+02  0.29033741186E+02  0.51100000000E-03 0.  1.
         12    1    3    3    0    0 -0.56002590977E+01 -0.25515102387E+01 -0.15861956752E+01  0.63552437546E+01  0.00000000000E+00 0. -1.
</event>
<event>
 7    1  0.4450624E-010  0.4778727E+02  0.7816164E-02  0.1312668E+00
        -11   -1    0    0    0    0  0.00000000000E+00  0.00000000000E+00  0.45593999997E+02  0.45594000000E+02  0.51100000000E-03 0.  1.
         11   -1    0    0    0    0 -0.00000000000E+00 -0.00000000000E+00 -0.45593999997E+02  0.45594000000E+02  0.51100000000E-03 0. -1.
    9900012    2    1    2    0    0 -0.30530114634E+02  0.24438779745E+02  0.18822368830E+02  0.47787269322E+02  0.19999992147E+02 0.  0.
         12    1    1    2    0    0  0.30530114634E+02 -0.24438779745E+02 -0.18822368830E+02  0.43400730678E+02  0.00000000000E+00 0. -1.
         11    1    3    3    0    0  0.18058058106E+01 -0.45206106829E-01  0.97705768892E+00  0.20536845440E+01  0.51100000000E-03 0. -1.
        -11    1    3    3    0    0 -0.91683038888E+01  0.14135999038E+01  0.55044339237E+01  0.10786790717E+02  0.51100000000E-03 0.  1.
        -12    1    3    3    0    0 -0.23167616556E+02  0.23070385948E+02  0.12340877218E+02  0.34946794061E+02  0.00000000000E+00 0.  1.
</event>
<event>
 7    1  0.4450624E-010  0.4778727E+02  0.7816164E-02  0.1312668E+00
        -11   -1    0    0    0    0  0.00000000000E+00  0.00000000000E+00  0.45593999997E+02  0.45594000000E+02  0.51100000000E-03 0.  1.
         11   -1    0    0    0    0 -0.00000000000E+00 -0.00000000000E+00 -0.45593999997E+02  0.45594000000E+02  0.51100000000E-03 0. -1.
    9900012    2    1    2    0    0 -0.32688322693E+02  0.12696127979E+01  0.28521657625E+02  0.47787270619E+02  0.19999998062E+02 0.  0.
         12    1    1    2    0    0  0.32688322693E+02 -0.12696127979E+01 -0.28521657625E+02  0.43400729381E+02  0.00000000000E+00 0. -1.
         11    1    3    3    0    0  0.77291942213E+00  0.15377605582E+01  0.95595699199E+00  0.19687473173E+01  0.51100000000E-03 0. -1.
        -11    1    3    3    0    0 -0.18798474603E+02  0.72146498496E+01  0.15381298507E+02  0.25338077351E+02  0.51100000000E-03 0.  1.
         12    1    3    3    0    0 -0.14662767512E+02 -0.74827976099E+01  0.12184402126E+02  0.20480445951E+02  0.00000000000E+00 0. -1.
</event>
<event>
 7    1  0.4450624E-010  0.4778728E+02  0.7816164E-02  0.1312668E+00
        -11   -1    0    0    0    0  0.00000000000E+00  0.00000000000E+00  0.45593999997E+02  0.45594000000E+02  0.51100000000E-03 0.  1.
         11   -1    0    0    0    0 -0.00000000000E+00 -0.00000000000E+00 -0.45593999997E+02  0.45594000000E+02  0.51100000000E-03 0. -1.
    9900012    2    1    2    0    0  0.42460212568E+02  0.85893553441E+01  0.26412124883E+01  0.47787277887E+02  0.20000031196E+02 0.  0.
         12    1    1    2    0    0 -0.42460212568E+02 -0.85893553441E+01 -0.26412124883E+01  0.43400722113E+02  0.00000000000E+00 0. -1.
         11    1    3    3    0    0  0.41569217871E+02  0.86433931685E+01  0.67948628153E+01  0.42998584638E+02  0.51100000000E-03 0.  1.
        -11    1    3    3    0    0  0.59091027836E-01 -0.33423664828E+00  0.16804875370E+00  0.37874335818E+00  0.51100000000E-03 0. -1.
        -12    1    3    3    0    0  0.83190366887E+00  0.28019882385E+00 -0.43216990807E+01  0.44099498908E+01  0.00000000000E+00 0.  1.
</event>
<event>
 7    1  0.4450624E-010  0.4778727E+02  0.7816164E-02  0.1312668E+00
        -11   -1    0    0    0    0  0.00000000000E+00  0.00000000000E+00  0.45593999997E+02  0.45594000000E+02  0.51100000000E-03 0. -1.
         11   -1    0    0    0    0 -0.00000000000E+00 -0.00000000000E+00 -0.45593999997E+02  0.45594000000E+02  0.51100000000E-03 0.  1.
    9900012    2    1    2    0    0 -0.60931939237E+01 -0.42955538444E+02  0.11480793487E+01  0.47787269806E+02  0.19999994353E+02 0.  0.
         12    1    1    2    0    0  0.60931939237E+01  0.42955538444E+02 -0.11480793487E+01  0.43400730194E+02  0.00000000000E+00 0. -1.
         11    1    3    3    0    0 -0.91264854776E+00 -0.20513101713E+02 -0.13582541856E+01  0.20578268245E+02  0.51100000000E-03 0. -1.
        -11    1    3    3    0    0 -0.12788384175E+01 -0.11567395487E+02 -0.57768596573E+01  0.12992773908E+02  0.51100000000E-03 0.  1.
         12    1    3    3    0    0 -0.39017069585E+01 -0.10875041243E+02  0.82831931917E+01  0.14216227653E+02  0.00000000000E+00 0. -1.
</event>
<event>
 7    1  0.4450624E-010  0.4778728E+02  0.7816164E-02  0.1312668E+00
        -11   -1    0    0    0    0  0.00000000000E+00  0.00000000000E+00  0.45593999997E+02  0.45594000000E+02  0.51100000000E-03 0.  1.
         11   -1    0    0    0    0 -0.00000000000E+00 -0.00000000000E+00 -0.45593999997E+02  0.45594000000E+02  0.51100000000E-03 0. -1.
    9900012    2    1    2    0    0  0.49163896322E+01  0.32078841882E+02  0.28816658879E+02  0.47787276360E+02  0.20000024237E+02 0.  0.
         12    1    1    2    0    0 -0.49163896322E+01 -0.32078841882E+02 -0.28816658879E+02  0.43400723640E+02  0.00000000000E+00 0. -1.
         11    1    3    3    0    0  0.10524697258E+02  0.26010515877E+02  0.23850634512E+02  0.36826199308E+02  0.51100000000E-03 0. -1.
        -11    1    3    3    0    0  0.24861917366E-02  0.24752481493E+01 -0.26618769574E+00  0.24895211854E+01  0.51100000000E-03 0.  1.
         12    1    3    3    0    0 -0.56107938178E+01  0.35930778559E+01  0.52322120620E+01  0.84715558669E+01  0.00000000000E+00 0. -1.
</event>
<event>
 7    1  0.4450624E-010  0.4778726E+02  0.7816164E-02  0.1312668E+00
        -11   -1    0    0    0    0  0.00000000000E+00  0.00000000000E+00  0.45593999997E+02  0.45594000000E+02  0.51100000000E-03 0. -1.
         11   -1    0    0    0    0 -0.00000000000E+00 -0.00000000000E+00 -0.45593999997E+02  0.45594000000E+02  0.51100000000E-03 0.  1.
    9900012    2    1    2    0    0 -0.38398094234E+02 -0.18661089130E+02  0.78085869337E+01  0.47787263621E+02  0.19999966154E+02 0.  0.
         12    1    1    2    0    0  0.38398094234E+02  0.18661089130E+02 -0.78085869337E+01  0.43400736379E+02  0.00000000000E+00 0. -1.
         11    1    3    3    0    0 -0.44568183749E+01  0.13125845840E+00 -0.78468863679E+00  0.45272723938E+01  0.51100000000E-03 0. -1.
        -11    1    3    3    0    0 -0.49942029232E+01 -0.11196580681E+02  0.55621152002E+00  0.12272524325E+02  0.51100000000E-03 0.  1.
        -12    1    3    3    0    0 -0.28947072936E+02 -0.75957669072E+01  0.80370640505E+01  0.30987466902E+02  0.00000000000E+00 0.  1.
</event>
<event>
 7    1  0.4450624E-010  0.4778729E+02  0.7816164E-02  0.1312668E+00
        -11   -1    0    0    0    0  0.00000000000E+00  0.00000000000E+00  0.45593999997E+02  0.45594000000E+02  0.51100000000E-03 0. -1.
         11   -1    0    0    0    0 -0.00000000000E+00 -0.00000000000E+00 -0.45593999997E+02  0.45594000000E+02  0.51100000000E-03 0.  1.
    9900012    2    1    2    0    0  0.25240899513E+02 -0.21046636447E+02 -0.28347098070E+02  0.47787287069E+02  0.20000073061E+02 0.  0.
         12    1    1    2    0    0 -0.25240899513E+02  0.21046636447E+02  0.28347098070E+02  0.43400712931E+02  0.00000000000E+00 0. -1.
         11    1    3    3    0    0  0.69466787953E+01 -0.83235672766E+01 -0.18649114197E+02  0.21571452874E+02  0.51100000000E-03 0. -1.
        -11    1    3    3    0    0  0.15130172132E+02 -0.10574012941E+02 -0.11743964168E+02  0.21878129561E+02  0.51100000000E-03 0.  1.
         12    1    3    3    0    0  0.31640485857E+01 -0.21490562291E+01  0.20459802950E+01  0.43377046345E+01  0.00000000000E+00 0. -1.
</event>
<event>
 7    1  0.4450624E-010  0.4778727E+02  0.7816164E-02  0.1312668E+00
        -11   -1    0    0    0    0  0.00000000000E+00  0.00000000000E+00  0.45593999997E+02  0.45594000000E+02  0.51100000000E-03 0.  1.
         11   -1    0    0    0    0 -0.00000000000E+00 -0.00000000000E+00 -0.45593999997E+02  0.45594000000E+02  0.51100000000E-03 0. -1.
    9900012    2    1    2    0    0 -0.40424453794E+02  0.99921566803E+01  0.12232882059E+02  0.47787273472E+02  0.20000011070E+02 0.  0.
         12    1    1    2    0    0  0.40424453794E+02 -0.99921566803E+01 -0.12232882059E+02  0.43400726528E+02  0.00000000000E+00 0. -1.
         11    1    3    3    0    0 -0.15165602122E+02  0.87476180988E+00 -0.13126376837E+01  0.15247416630E+02  0.51100000000E-03 0. -1.
        -11    1    3    3    0    0 -0.15067610672E+02  0.53450535790E+01  0.11112668671E+01  0.16026147492E+02  0.51100000000E-03 0.  1.
        -12    1    3    3    0    0 -0.10191241001E+02  0.37723412914E+01  0.12434252875E+02  0.16513709351E+02  0.00000000000E+00 0.  1.
</event>
<event>
 7    1  0.4450624E-010  0.4778727E+02  0.7816164E-02  0.1312668E+00
        -11   -1    0    0    0    0  0.00000000000E+00  0.00000000000E+00  0.45593999997E+02  0.45594000000E+02  0.51100000000E-03 0. -1.
         11   -1    0    0    0    0 -0.00000000000E+00 -0.00000000000E+00 -0.45593999997E+02  0.45594000000E+02  0.51100000000E-03 0.  1.
    9900012    2    1    2    0    0  0.35174316086E+02 -0.19085806714E+02  0.16796511065E+02  0.47787270582E+02  0.19999997891E+02 0.  0.
         12    1    1    2    0    0 -0.35174316086E+02  0.19085806714E+02 -0.16796511065E+02  0.43400729418E+02  0.00000000000E+00 0. -1.
         11    1    3    3    0    0  0.61343138680E+01 -0.92554808907E+01  0.64062517670E+01  0.12819274360E+02  0.51100000000E-03 0. -1.
        -11    1    3    3    0    0  0.12164442732E+02 -0.11084417221E+02  0.55380682416E+01  0.17363990676E+02  0.51100000000E-03 0.  1.
        -12    1    3    3    0    0  0.16875559486E+02  0.12540913972E+01  0.48521910567E+01  0.17604005546E+02  0.00000000000E+00 0.  1.
</event>
<event>
 7    1  0.4450624E-010  0.4778727E+02  0.7816164E-02  0.1312668E+00
        -11   -1    0    0    0    0  0.00000000000E+00  0.00000000000E+00  0.45593999997E+02  0.45594000000E+02  0.51100000000E-03 0.  1.
         11   -1    0    0    0    0 -0.00000000000E+00 -0.00000000000E+00 -0.45593999997E+02  0.45594000000E+02  0.51100000000E-03 0. -1.
    9900012    2    1    2    0    0 -0.38810296227E+02  0.16693551795E+02  0.99352554722E+01  0.47787273439E+02  0.20000010918E+02 0.  0.
         12    1    1    2    0    0  0.38810296227E+02 -0.16693551795E+02 -0.99352554722E+01  0.43400726561E+02  0.00000000000E+00 0. -1.
         11    1    3    3    0    0  0.23723860993E+00 -0.79565950546E+00  0.12765002434E+01  0.15227637175E+01  0.51100000000E-03 0. -1.
        -11    1    3    3    0    0 -0.24745033323E+00  0.87300841337E+00 -0.24551560732E+01  0.26174733929E+01  0.51100000000E-03 0.  1.
        -12    1    3    3    0    0 -0.38800084503E+02  0.16616202887E+02  0.11113911302E+02  0.43647036329E+02  0.00000000000E+00 0.  1.
</event>
<event>
 7    1  0.4450624E-010  0.4778727E+02  0.7816164E-02  0.1312668E+00
        -11   -1    0    0    0    0  0.00000000000E+00  0.00000000000E+00  0.45593999997E+02  0.45594000000E+02  0.51100000000E-03 0.  1.
         11   -1    0    0    0    0 -0.00000000000E+00 -0.00000000000E+00 -0.45593999997E+02  0.45594000000E+02  0.51100000000E-03 0. -1.
    9900012    2    1    2    0    0  0.72548126295E+01 -0.39032479698E+02  0.17534449619E+02  0.47787266122E+02  0.19999977559E+02 0.  0.
         12    1    1    2    0    0 -0.72548126295E+01  0.39032479698E+02 -0.17534449619E+02  0.43400733878E+02  0.00000000000E+00 0. -1.
         11    1    3    3    0    0  0.43999196573E+00 -0.19522412975E+00  0.33077265072E+01  0.33425679198E+01  0.51100000000E-03 0. -1.
        -11    1    3    3    0    0  0.58227555360E+01 -0.24899094538E+02  0.16291324117E+02  0.30319575073E+02  0.51100000000E-03 0.  1.
        -12    1    3    3    0    0  0.99206512781E+00 -0.13938161030E+02 -0.20646010051E+01  0.14125123130E+02  0.00000000000E+00 0.  1.
</event>
<event>
 7    1  0.4450624E-010  0.4778728E+02  0.7816164E-02  0.1312668E+00
        -11   -1    0    0    0    0  0.00000000000E+00  0.00000000000E+00  0.45593999997E+02  0.45594000000E+02  0.51100000000E-03 0.  1.
         11   -1    0    0    0    0 -0.00000000000E+00 -0.00000000000E+00 -0.45593999997E+02  0.45594000000E+02  0.51100000000E-03 0. -1.
    9900012    2    1    2    0    0 -0.33484668461E+02  0.20477925879E+02  0.18521727665E+02  0.47787275744E+02  0.20000021428E+02 0.  0.
         12    1    1    2    0    0  0.33484668461E+02 -0.20477925879E+02 -0.18521727665E+02  0.43400724256E+02  0.00000000000E+00 0. -1.
         11    1    3    3    0    0 -0.19861828837E+02  0.10840289993E+02  0.76707835523E+01  0.23892363894E+02  0.51100000000E-03 0. -1.
        -11    1    3    3    0    0 -0.11209523024E+02  0.12344225794E+02  0.11439555981E+02  0.20221195766E+02  0.51100000000E-03 0.  1.
         12    1    3    3    0    0 -0.24133165994E+01 -0.27065899079E+01 -0.58861186804E+00  0.36737160845E+01  0.00000000000E+00 0. -1.
</event>
<event>
 7    1  0.4450624E-010  0.4778727E+02  0.7816164E-02  0.1312668E+00
        -11   -1    0    0    0    0  0.00000000000E+00  0.00000000000E+00  0.45593999997E+02  0.45594000000E+02  0.51100000000E-03 0. -1.
         11   -1    0    0    0    0 -0.00000000000E+00 -0.00000000000E+00 -0.45593999997E+02  0.45594000000E+02  0.51100000000E-03 0.  1.
    9900012    2    1    2    0    0 -0.13224380481E+02  0.33016973585E+02 -0.24872043831E+02  0.47787270189E+02  0.19999996100E+02 0.  0.
         12    1    1    2    0    0  0.13224380481E+02 -0.33016973585E+02  0.24872043831E+02  0.43400729811E+02  0.00000000000E+00 0. -1.
         11    1    3    3    0    0 -0.16678960051E+01  0.72180837575E+01 -0.86068829548E+01  0.11356101649E+02  0.51100000000E-03 0.  1.
        -11    1    3    3    0    0 -0.37680600277E+00  0.17301763811E+02 -0.39437677856E+01  0.17749544172E+02  0.51100000000E-03 0. -1.
         12    1    3    3    0    0 -0.11179678473E+02  0.84971260165E+01 -0.12321393090E+02  0.18681624367E+02  0.00000000000E+00 0. -1.
</event>
<event>
 7    1  0.4450624E-010  0.4778726E+02  0.7816164E-02  0.1312668E+00
        -11   -1    0    0    0    0  0.00000000000E+00  0.00000000000E+00  0.45593999997E+02  0.45594000000E+02  0.51100000000E-03 0. -1.
         11   -1    0    0    0    0 -0.00000000000E+00 -0.00000000000E+00 -0.45593999997E+02  0.45594000000E+02  0.51100000000E-03 0.  1.
    9900012    2    1    2    0    0  0.42647475609E+01  0.30227176530E+02 -0.30850508867E+02  0.47787260719E+02  0.19999952924E+02 0.  0.
         12    1    1    2    0    0 -0.42647475609E+01 -0.30227176530E+02  0.30850508867E+02  0.43400739281E+02  0.00000000000E+00 0. -1.
         11    1    3    3    0    0 -0.31036497802E+01  0.58628142610E+01 -0.76085968179E+01  0.10094353809E+02  0.51100000000E-03 0. -1.
        -11    1    3    3    0    0  0.42938292085E-01  0.16543427556E+02 -0.21019637288E+02  0.26749055890E+02  0.51100000000E-03 0.  1.
         12    1    3    3    0    0  0.73254590491E+01  0.78209347127E+01 -0.22222747615E+01  0.10943851021E+02  0.00000000000E+00 0. -1.
</event>
<event>
 7    1  0.4450624E-010  0.4778727E+02  0.7816164E-02  0.1312668E+00
        -11   -1    0    0    0    0  0.00000000000E+00  0.00000000000E+00  0.45593999997E+02  0.45594000000E+02  0.51100000000E-03 0.  1.
         11   -1    0    0    0    0 -0.00000000000E+00 -0.00000000000E+00 -0.45593999997E+02  0.45594000000E+02  0.51100000000E-03 0. -1.
    9900012    2    1    2    0    0 -0.12045134043E+02 -0.29190662953E+02  0.29773197647E+02  0.47787270100E+02  0.19999995693E+02 0.  0.
         12    1    1    2    0    0  0.12045134043E+02  0.29190662953E+02 -0.29773197647E+02  0.43400729900E+02  0.00000000000E+00 0. -1.
         11    1    3    3    0    0  0.25412406331E+00  0.13326226399E+00  0.22438497266E+01  0.22621228364E+01  0.51100000000E-03 0. -1.
        -11    1    3    3    0    0 -0.33819839123E+01 -0.72634589277E+00  0.10526905474E+02  0.11080664811E+02  0.51100000000E-03 0.  1.
         12    1    3    3    0    0 -0.89172741941E+01 -0.28597579324E+02  0.17002442446E+02  0.34444482452E+02  0.00000000000E+00 0. -1.
</event>
<event>
 7    1  0.4450624E-010  0.4778727E+02  0.7816164E-02  0.1312668E+00
        -11   -1    0    0    0    0  0.00000000000E+00  0.00000000000E+00  0.45593999997E+02  0.45594000000E+02  0.51100000000E-03 0.  1.
         11   -1    0    0    0    0 -0.00000000000E+00 -0.00000000000E+00 -0.45593999997E+02  0.45594000000E+02  0.51100000000E-03 0. -1.
    9900012    2    1    2    0    0 -0.28117790200E+02 -0.21372056594E+02  0.25223960935E+02  0.47787272656E+02  0.20000007347E+02 0.  0.
         12    1    1    2    0    0  0.28117790200E+02  0.21372056594E+02 -0.25223960935E+02  0.43400727344E+02  0.00000000000E+00 0. -1.
         11    1    3    3    0    0 -0.20195510918E+02 -0.24316937575E+02  0.19128773348E+02  0.36947017259E+02  0.51100000000E-03 0. -1.
        -11    1    3    3    0    0 -0.22836047103E+01  0.27478130194E+00  0.29003629655E+00  0.23182917312E+01  0.51100000000E-03 0.  1.
         12    1    3    3    0    0 -0.56386745716E+01  0.26700996790E+01  0.58051512904E+01  0.85219636660E+01  0.00000000000E+00 0. -1.
</event>
<event>
 7    1  0.4450624E-010  0.4778731E+02  0.7816164E-02  0.1312668E+00
        -11   -1    0    0    0    0  0.00000000000E+00  0.00000000000E+00  0.45593999997E+02  0.45594000000E+02  0.51100000000E-03 0. -1.
         11   -1    0    0    0    0 -0.00000000000E+00 -0.00000000000E+00 -0.45593999997E+02  0.45594000000E+02  0.51100000000E-03 0.  1.
    9900012    2    1    2    0    0 -0.55277324000E+01  0.42880268571E+02  0.37876804804E+01  0.47787311277E+02  0.20000183436E+02 0.  0.
         12    1    1    2    0    0  0.55277324000E+01 -0.42880268571E+02 -0.37876804804E+01  0.43400688723E+02  0.00000000000E+00 0. -1.
         11    1    3    3    0    0 -0.52602714179E+00  0.25566840123E+00  0.46121613759E+01  0.46490970848E+01  0.51100000000E-03 0. -1.
        -11    1    3    3    0    0  0.32245478131E+00  0.54784646645E+01  0.95442538054E+00  0.55703213762E+01  0.51100000000E-03 0.  1.
        -12    1    3    3    0    0 -0.53241600395E+01  0.37146135505E+02 -0.17789062761E+01  0.37567892816E+02  0.00000000000E+00 0.  1.
</event>
<event>
 7    1  0.4450624E-010  0.4778727E+02  0.7816164E-02  0.1312668E+00
        -11   -1    0    0    0    0  0.00000000000E+00  0.00000000000E+00  0.45593999997E+02  0.45594000000E+02  0.51100000000E-03 0.  1.
         11   -1    0    0    0    0 -0.00000000000E+00 -0.00000000000E+00 -0.45593999997E+02  0.45594000000E+02  0.51100000000E-03 0. -1.
    9900012    2    1    2    0    0  0.37272636484E+02  0.21305968989E+02 -0.63583984738E+01  0.47787274474E+02  0.20000015637E+02 0.  0.
         12    1    1    2    0    0 -0.37272636484E+02 -0.21305968989E+02  0.63583984738E+01  0.43400725526E+02  0.00000000000E+00 0. -1.
         11    1    3    3    0    0  0.15080287509E+02  0.42369713558E+01 -0.19583524858E+01  0.15786137664E+02  0.51100000000E-03 0. -1.
        -11    1    3    3    0    0  0.97066319076E+01  0.44623381265E+01  0.51404597880E+01  0.11855610133E+02  0.51100000000E-03 0.  1.
         12    1    3    3    0    0  0.12485717067E+02  0.12606659507E+02 -0.95405057760E+01  0.20145526676E+02  0.00000000000E+00 0. -1.
</event>
<event>
 7    1  0.4450624E-010  0.4778727E+02  0.7816164E-02  0.1312668E+00
        -11   -1    0    0    0    0  0.00000000000E+00  0.00000000000E+00  0.45593999997E+02  0.45594000000E+02  0.51100000000E-03 0. -1.
         11   -1    0    0    0    0 -0.00000000000E+00 -0.00000000000E+00 -0.45593999997E+02  0.45594000000E+02  0.51100000000E-03 0.  1.
    9900012    2    1    2    0    0 -0.25536936853E+02  0.24548062643E+02 -0.25077494627E+02  0.47787271203E+02  0.20000000722E+02 0.  0.
         12    1    1    2    0    0  0.25536936853E+02 -0.24548062643E+02  0.25077494627E+02  0.43400728797E+02  0.00000000000E+00 0. -1.
         11    1    3    3    0    0 -0.36768631871E+01  0.54883577926E+01  0.20609309268E+01  0.69201756265E+01  0.51100000000E-03 0. -1.
        -11    1    3    3    0    0 -0.34217181683E+01  0.93554997820E+00 -0.23635427566E+00  0.35551754654E+01  0.51100000000E-03 0.  1.
        -12    1    3    3    0    0 -0.18438355497E+02  0.18124154873E+02 -0.26902071278E+02  0.37311920111E+02  0.00000000000E+00 0.  1.
</event>
<event>
 7    1  0.4450624E-010  0.4778728E+02  0.7816164E-02  0.1312668E+00
        -11   -1    0    0    0    0  0.00000000000E+00  0.00000000000E+00  0.45593999997E+02  0.45594000000E+02  0.51100000000E-03 0.  1.
         11   -1    0    0    0    0 -0.00000000000E+00 -0.00000000000E+00 -0.45593999997E+02  0.45594000000E+02  0.51100000000E-03 0. -1.
    9900012    2    1    2    0    0  0.10557886634E+02  0.31865685509E+02  0.27508760799E+02  0.47787276459E+02  0.20000024688E+02 0.  0.
         12    1    1    2    0    0 -0.10557886634E+02 -0.31865685509E+02 -0.27508760799E+02  0.43400723541E+02  0.00000000000E+00 0. -1.
         11    1    3    3    0    0 -0.13797518056E+01  0.11079263939E+02  0.10579994555E+01  0.11214863690E+02  0.51100000000E-03 0. -1.
        -11    1    3    3    0    0  0.52155907061E+01  0.13719244522E+02  0.11170107145E+02  0.18444276905E+02  0.51100000000E-03 0.  1.
         12    1    3    3    0    0  0.67220477331E+01  0.70671770486E+01  0.15280654199E+02  0.18128135864E+02  0.00000000000E+00 0. -1.
</event>
<event>
 7    1  0.4450624E-010  0.4778726E+02  0.7816164E-02  0.1312668E+00
        -11   -1    0    0    0    0  0.00000000000E+00  0.00000000000E+00  0.45593999997E+02  0.45594000000E+02  0.51100000000E-03 0.  1.
         11   -1    0    0    0    0 -0.00000000000E+00 -0.00000000000E+00 -0.45593999997E+02  0.45594000000E+02  0.51100000000E-03 0. -1.
    9900012    2    1    2    0    0 -0.22206382636E+01 -0.34317201556E+02  0.26476832959E+02  0.47787259909E+02  0.19999949228E+02 0.  0.
         12    1    1    2    0    0  0.22206382636E+01  0.34317201556E+02 -0.26476832959E+02  0.43400740091E+02  0.00000000000E+00 0. -1.
         11    1    3    3    0    0 -0.36597373034E+01 -0.10546439882E+02  0.22581016913E+01  0.11389472983E+02  0.51100000000E-03 0. -1.
        -11    1    3    3    0    0 -0.16251993866E+01 -0.18688037255E+02  0.10610137836E+02  0.21551311669E+02  0.51100000000E-03 0.  1.
         12    1    3    3    0    0  0.30642984264E+01 -0.50827244183E+01  0.13608593432E+02  0.14846475257E+02  0.00000000000E+00 0. -1.
</event>
<event>
 7    1  0.4450624E-010  0.4778727E+02  0.7816164E-02  0.1312668E+00
        -11   -1    0    0    0    0  0.00000000000E+00  0.00000000000E+00  0.45593999997E+02  0.45594000000E+02  0.51100000000E-03 0.  1.
         11   -1    0    0    0    0 -0.00000000000E+00 -0.00000000000E+00 -0.45593999997E+02  0.45594000000E+02  0.51100000000E-03 0. -1.
    9900012    2    1    2    0    0  0.69663174688E+01  0.31277035585E+02  0.29271841405E+02  0.47787271511E+02  0.20000002129E+02 0.  0.
         12    1    1    2    0    0 -0.69663174688E+01 -0.31277035585E+02 -0.29271841405E+02  0.43400728489E+02  0.00000000000E+00 0. -1.
         11    1    3    3    0    0 -0.36739634223E+01  0.72010899801E+00  0.65037682730E+01  0.75043698075E+01  0.51100000000E-03 0. -1.
        -11    1    3    3    0    0  0.52348944254E+01  0.80044032620E+01  0.98805518357E+01  0.13751359790E+02  0.51100000000E-03 0.  1.
        -12    1    3    3    0    0  0.54053864657E+01  0.22552523325E+02  0.12887521297E+02  0.26531541914E+02  0.00000000000E+00 0.  1.
</event>
<event>
 7    1  0.4450624E-010  0.4778727E+02  0.7816164E-02  0.1312668E+00
        -11   -1    0    0    0    0  0.00000000000E+00  0.00000000000E+00  0.45593999997E+02  0.45594000000E+02  0.51100000000E-03 0.  1.
         11   -1    0    0    0    0 -0.00000000000E+00 -0.00000000000E+00 -0.45593999997E+02  0.45594000000E+02  0.51100000000E-03 0. -1.
    9900012    2    1    2    0    0 -0.14842870958E+02 -0.12680377115E+02  0.38762364572E+02  0.47787266259E+02  0.19999978181E+02 0.  0.
         12    1    1    2    0    0  0.14842870958E+02  0.12680377115E+02 -0.38762364572E+02  0.43400733741E+02  0.00000000000E+00 0. -1.
         11    1    3    3    0    0 -0.95973284191E+00  0.35611059384E+01  0.75683024466E+01  0.84191308825E+01  0.51100000000E-03 0. -1.
        -11    1    3    3    0    0  0.75687535118E+00 -0.12807273358E+01  0.79504469759E+01  0.80884318742E+01  0.51100000000E-03 0.  1.
         12    1    3    3    0    0 -0.14640013467E+02 -0.14960755718E+02  0.23243615149E+02  0.31279703502E+02  0.00000000000E+00 0. -1.
</event>
<event>
 7    1  0.4450624E-010  0.4778727E+02  0.7816164E-02  0.1312668E+00
        -11   -1    0    0    0    0  0.00000000000E+00  0.00000000000E+00  0.45593999997E+02  0.45594000000E+02  0.51100000000E-03 0.  1.
         11   -1    0    0    0    0 -0.00000000000E+00 -0.00000000000E+00 -0.45593999997E+02  0.45594000000E+02  0.51100000000E-03 0. -1.
    9900012    2    1    2    0    0 -0.38260446792E+02 -0.20412663448E+02 -0.17563826691E+01  0.47787268464E+02  0.19999988236E+02 0.  0.
         12    1    1    2    0    0  0.38260446792E+02  0.20412663448E+02  0.17563826691E+01  0.43400731536E+02  0.00000000000E+00 0. -1.
         11    1    3    3    0    0 -0.11530956517E+02 -0.11843166735E+02 -0.81433450922E+01  0.18426546775E+02  0.51100000000E-03 0. -1.
        -11    1    3    3    0    0 -0.50747563083E+01 -0.25495866803E+01 -0.86305222625E+00  0.57444236643E+01  0.51100000000E-03 0.  1.
         12    1    3    3    0    0 -0.21654733967E+02 -0.60199100327E+01  0.72500146493E+01  0.23616298025E+02  0.00000000000E+00 0. -1.
</event>
<event>
 7    1  0.4450624E-010  0.4778727E+02  0.7816164E-02  0.1312668E+00
        -11   -1    0    0    0    0  0.00000000000E+00  0.00000000000E+00  0.45593999997E+02  0.45594000000E+02  0.51100000000E-03 0.  1.
         11   -1    0    0    0    0 -0.00000000000E+00 -0.00000000000E+00 -0.45593999997E+02  0.45594000000E+02  0.51100000000E-03 0. -1.
    9900012    2    1    2    0    0 -0.31846705658E+02  0.35529302480E+01  0.29270929317E+02  0.47787271001E+02  0.19999999800E+02 0.  0.
         12    1    1    2    0    0  0.31846705658E+02 -0.35529302480E+01 -0.29270929317E+02  0.43400728999E+02  0.00000000000E+00 0. -1.
         11    1    3    3    0    0 -0.33415696436E+01 -0.43048893119E+01  0.10318897738E+02  0.11669524860E+02  0.51100000000E-03 0. -1.
        -11    1    3    3    0    0 -0.10495338926E+02  0.37326652642E+01  0.12009486877E+02  0.16380253492E+02  0.51100000000E-03 0.  1.
         12    1    3    3    0    0 -0.18009797088E+02  0.41251542957E+01  0.69425447022E+01  0.19737492649E+02  0.00000000000E+00 0. -1.
</event>
<event>
 7    1  0.4450624E-010  0.4778727E+02  0.7816164E-02  0.1312668E+00
        -11   -1    0    0    0    0  0.00000000000E+00  0.00000000000E+00  0.45593999997E+02  0.45594000000E+02  0.51100000000E-03 0. -1.
         11   -1    0    0    0    0 -0.00000000000E+00 -0.00000000000E+00 -0.45593999997E+02  0.45594000000E+02  0.51100000000E-03 0.  1.
    9900012    2    1    2    0    0  0.15000321007E+02  0.40390376624E+02 -0.52183326367E+01  0.47787272476E+02  0.20000006526E+02 0.  0.
         12    1    1    2    0    0 -0.15000321007E+02 -0.40390376624E+02  0.52183326367E+01  0.43400727524E+02  0.00000000000E+00 0. -1.
         11    1    3    3    0    0  0.43690158203E+01 -0.65944102738E+00  0.98327982262E+00  0.45265882491E+01  0.51100000000E-03 0. -1.
        -11    1    3    3    0    0  0.18360752989E+01  0.97885585428E+01 -0.39291606858E+01  0.10706323123E+02  0.51100000000E-03 0.  1.
        -12    1    3    3    0    0  0.87952298882E+01  0.31261259108E+02 -0.22724517735E+01  0.32554361104E+02  0.00000000000E+00 0.  1.
</event>
<event>
 7    1  0.4450624E-010  0.4778727E+02  0.7816164E-02  0.1312668E+00
        -11   -1    0    0    0    0  0.00000000000E+00  0.00000000000E+00  0.45593999997E+02  0.45594000000E+02  0.51100000000E-03 0.  1.
         11   -1    0    0    0    0 -0.00000000000E+00 -0.00000000000E+00 -0.45593999997E+02  0.45594000000E+02  0.51100000000E-03 0. -1.
    9900012    2    1    2    0    0 -0.78139487494E+01  0.23581256575E+02  0.35587778198E+02  0.47787269432E+02  0.19999992650E+02 0.  0.
         12    1    1    2    0    0  0.78139487494E+01 -0.23581256575E+02 -0.35587778198E+02  0.43400730568E+02  0.00000000000E+00 0. -1.
         11    1    3    3    0    0 -0.74450374590E+01  0.63080791804E+01  0.29405750780E+01  0.10191537066E+02  0.51100000000E-03 0. -1.
        -11    1    3    3    0    0  0.14835278601E+01  0.26820858576E+01  0.21711949835E+01  0.37561319701E+01  0.51100000000E-03 0.  1.
         12    1    3    3    0    0 -0.18524391505E+01  0.14591091538E+02  0.30476008136E+02  0.33839600397E+02  0.00000000000E+00 0. -1.
</event>
<event>
 7    1  0.4450624E-010  0.4778727E+02  0.7816164E-02  0.1312668E+00
        -11   -1    0    0    0    0  0.00000000000E+00  0.00000000000E+00  0.45593999997E+02  0.45594000000E+02  0.51100000000E-03 0.  1.
         11   -1    0    0    0    0 -0.00000000000E+00 -0.00000000000E+00 -0.45593999997E+02  0.45594000000E+02  0.51100000000E-03 0. -1.
    9900012    2    1    2    0    0 -0.95282074025E+01  0.42323934786E+02  0.12333633308E+01  0.47787269854E+02  0.19999994575E+02 0.  0.
         12    1    1    2    0    0  0.95282074025E+01 -0.42323934786E+02 -0.12333633308E+01  0.43400730146E+02  0.00000000000E+00 0. -1.
         11    1    3    3    0    0 -0.38357500716E+01  0.14626020743E+01 -0.35536247837E+01  0.54295886404E+01  0.51100000000E-03 0. -1.
        -11    1    3    3    0    0  0.79231810014E-02  0.12609334843E+02 -0.19505207016E+01  0.12759307161E+02  0.51100000000E-03 0.  1.
         12    1    3    3    0    0 -0.57003805119E+01  0.28251997869E+02  0.67375088161E+01  0.29598374053E+02  0.00000000000E+00 0. -1.
</event>
<event>
 7    1  0.4450624E-010  0.4778727E+02  0.7816164E-02  0.1312668E+00
        -11   -1    0    0    0    0  0.00000000000E+00  0.00000000000E+00  0.45593999997E+02  0.45594000000E+02  0.51100000000E-03 0.  1.
         11   -1    0    0    0    0 -0.00000000000E+00 -0.00000000000E+00 -0.45593999997E+02  0.45594000000E+02  0.51100000000E-03 0. -1.
    9900012    2    1    2    0    0 -0.32390599361E+02 -0.14204785982E+02  0.25153458299E+02  0.47787270327E+02  0.19999996727E+02 0.  0.
         12    1    1    2    0    0  0.32390599361E+02  0.14204785982E+02 -0.25153458299E+02  0.43400729673E+02  0.00000000000E+00 0. -1.
         11    1    3    3    0    0 -0.42226913407E+01 -0.17435490051E+01  0.53512295355E+01  0.70361028343E+01  0.51100000000E-03 0.  1.
        -11    1    3    3    0    0 -0.85983078323E+01  0.40754201897E+01  0.25098174361E+01  0.98406875332E+01  0.51100000000E-03 0. -1.
         12    1    3    3    0    0 -0.19569600188E+02 -0.16536657166E+02  0.17292411328E+02  0.30910479959E+02  0.00000000000E+00 0. -1.
</event>
<event>
 7    1  0.4450624E-010  0.4778727E+02  0.7816164E-02  0.1312668E+00
        -11   -1    0    0    0    0  0.00000000000E+00  0.00000000000E+00  0.45593999997E+02  0.45594000000E+02  0.51100000000E-03 0.  1.
         11   -1    0    0    0    0 -0.00000000000E+00 -0.00000000000E+00 -0.45593999997E+02  0.45594000000E+02  0.51100000000E-03 0. -1.
    9900012    2    1    2    0    0  0.32482963590E+02  0.84690718426E+01  0.27509180107E+02  0.47787273144E+02  0.20000009572E+02 0.  0.
         12    1    1    2    0    0 -0.32482963590E+02 -0.84690718426E+01 -0.27509180107E+02  0.43400726856E+02  0.00000000000E+00 0. -1.
         11    1    3    3    0    0  0.80125256985E+01  0.39485583233E+01  0.26820436606E+01  0.93265770442E+01  0.51100000000E-03 0. -1.
        -11    1    3    3    0    0  0.65328929896E+01  0.55888297185E+01  0.10559166144E+01  0.86619090618E+01  0.51100000000E-03 0.  1.
        -12    1    3    3    0    0  0.17937544902E+02 -0.10683161992E+01  0.23771219832E+02  0.29798787038E+02  0.00000000000E+00 0.  1.
</event>
<event>
 7    1  0.4450624E-010  0.4778727E+02  0.7816164E-02  0.1312668E+00
        -11   -1    0    0    0    0  0.00000000000E+00  0.00000000000E+00  0.45593999997E+02  0.45594000000E+02  0.51100000000E-03 0.  1.
         11   -1    0    0    0    0 -0.00000000000E+00 -0.00000000000E+00 -0.45593999997E+02  0.45594000000E+02  0.51100000000E-03 0. -1.
    9900012    2    1    2    0    0  0.25860336171E+02  0.30376887026E+02  0.17091255379E+02  0.47787271173E+02  0.20000000587E+02 0.  0.
         12    1    1    2    0    0 -0.25860336171E+02 -0.30376887026E+02 -0.17091255379E+02  0.43400728827E+02  0.00000000000E+00 0. -1.
         11    1    3    3    0    0  0.27389197292E+02  0.30329527023E+02  0.14214024576E+02  0.43267618754E+02  0.51100000000E-03 0. -1.
        -11    1    3    3    0    0 -0.32632450349E+00  0.13512496016E+01  0.22373048878E+01  0.26339887224E+01  0.51100000000E-03 0.  1.
         12    1    3    3    0    0 -0.12025366177E+01 -0.13038895981E+01  0.63992591511E+00  0.18856636969E+01  0.00000000000E+00 0. -1.
</event>
<event>
 7    1  0.4450624E-010  0.4778727E+02  0.7816164E-02  0.1312668E+00
        -11   -1    0    0    0    0  0.00000000000E+00  0.00000000000E+00  0.45593999997E+02  0.45594000000E+02  0.51100000000E-03 0.  1.
         11   -1    0    0    0    0 -0.00000000000E+00 -0.00000000000E+00 -0.45593999997E+02  0.45594000000E+02  0.51100000000E-03 0. -1.
    9900012    2    1    2    0    0 -0.13120949505E+02 -0.41244294387E+02  0.32206176313E+01  0.47787268286E+02  0.19999987421E+02 0.  0.
         12    1    1    2    0    0  0.13120949505E+02  0.41244294387E+02 -0.32206176313E+01  0.43400731714E+02  0.00000000000E+00 0. -1.
         11    1    3    3    0    0  0.14660397578E+00  0.20416240779E+01  0.32828814224E+00  0.20730400301E+01  0.51100000000E-03 0. -1.
        -11    1    3    3    0    0 -0.70683116224E+00 -0.10155717512E+02  0.10636281590E+01  0.10235698003E+02  0.51100000000E-03 0.  1.
        -12    1    3    3    0    0 -0.12560722318E+02 -0.33130200953E+02  0.18287013301E+01  0.35478530253E+02  0.00000000000E+00 0.  1.
</event>
<event>
 7    1  0.4450624E-010  0.4778729E+02  0.7816164E-02  0.1312668E+00
        -11   -1    0    0    0    0  0.00000000000E+00  0.00000000000E+00  0.45593999997E+02  0.45594000000E+02  0.51100000000E-03 0.  1.
         11   -1    0    0    0    0 -0.00000000000E+00 -0.00000000000E+00 -0.45593999997E+02  0.45594000000E+02  0.51100000000E-03 0. -1.
    9900012    2    1    2    0    0 -0.58456153356E+01 -0.97196913933E+01  0.41892457470E+02  0.47787290187E+02  0.20000087278E+02 0.  0.
         12    1    1    2    0    0  0.58456153356E+01  0.97196913933E+01 -0.41892457470E+02  0.43400709813E+02  0.00000000000E+00 0. -1.
         11    1    3    3    0    0  0.34179854409E+01 -0.36858250171E+01  0.15636230657E+02  0.16424361173E+02  0.51100000000E-03 0. -1.
        -11    1    3    3    0    0 -0.21182918279E+01 -0.91197918536E+01  0.14805763247E+02  0.17517659356E+02  0.51100000000E-03 0.  1.
         12    1    3    3    0    0 -0.71453089487E+01  0.30859254774E+01  0.11450463566E+02  0.13845269658E+02  0.00000000000E+00 0. -1.
</event>
<event>
 7    1  0.4450624E-010  0.4778726E+02  0.7816164E-02  0.1312668E+00
        -11   -1    0    0    0    0  0.00000000000E+00  0.00000000000E+00  0.45593999997E+02  0.45594000000E+02  0.51100000000E-03 0.  1.
         11   -1    0    0    0    0 -0.00000000000E+00 -0.00000000000E+00 -0.45593999997E+02  0.45594000000E+02  0.51100000000E-03 0. -1.
    9900012    2    1    2    0    0 -0.40440842974E+02 -0.15749987986E+02 -0.31713255166E+00  0.47787257206E+02  0.19999936904E+02 0.  0.
         12    1    1    2    0    0  0.40440842974E+02  0.15749987986E+02  0.31713255166E+00  0.43400742794E+02  0.00000000000E+00 0. -1.
         11    1    3    3    0    0 -0.50605623113E+01 -0.12940902216E+01  0.78297366840E+00  0.52817618684E+01  0.51100000000E-03 0.  1.
        -11    1    3    3    0    0 -0.29602924398E+02 -0.48290248249E+01  0.38405606983E+01  0.30239089279E+02  0.51100000000E-03 0. -1.
         12    1    3    3    0    0 -0.57773562652E+01 -0.96268729392E+01 -0.49406669183E+01  0.12266406059E+02  0.00000000000E+00 0. -1.
</event>
<event>
 7    1  0.4450624E-010  0.4778727E+02  0.7816164E-02  0.1312668E+00
        -11   -1    0    0    0    0  0.00000000000E+00  0.00000000000E+00  0.45593999997E+02  0.45594000000E+02  0.51100000000E-03 0. -1.
         11   -1    0    0    0    0 -0.00000000000E+00 -0.00000000000E+00 -0.45593999997E+02  0.45594000000E+02  0.51100000000E-03 0.  1.
    9900012    2    1    2    0    0  0.78767218097E+01  0.30127883860E+02 -0.30230630509E+02  0.47787272434E+02  0.20000006335E+02 0.  0.
         12    1    1    2    0    0 -0.78767218097E+01 -0.30127883860E+02  0.30230630509E+02  0.43400727566E+02  0.00000000000E+00 0. -1.
         11    1    3    3    0    0 -0.34373835330E+01  0.11654437257E+01 -0.16940142485E+01  0.40054399466E+01  0.51100000000E-03 0. -1.
        -11    1    3    3    0    0 -0.81554963253E+00 -0.12027469256E+00 -0.33272011661E+01  0.34278061592E+01  0.51100000000E-03 0.  1.
        -12    1    3    3    0    0  0.12129654975E+02  0.29082714826E+02 -0.25209415094E+02  0.40354026328E+02  0.00000000000E+00 0.  1.
</event>
<event>
 7    1  0.4450624E-010  0.4778727E+02  0.7816164E-02  0.1312668E+00
        -11   -1    0    0    0    0  0.00000000000E+00  0.00000000000E+00  0.45593999997E+02  0.45594000000E+02  0.51100000000E-03 0.  1.
         11   -1    0    0    0    0 -0.00000000000E+00 -0.00000000000E+00 -0.45593999997E+02  0.45594000000E+02  0.51100000000E-03 0. -1.
    9900012    2    1    2    0    0  0.20959972947E+02  0.34356816390E+02  0.16245380028E+02  0.47787266473E+02  0.19999979157E+02 0.  0.
         12    1    1    2    0    0 -0.20959972947E+02 -0.34356816390E+02 -0.16245380028E+02  0.43400733527E+02  0.00000000000E+00 0. -1.
         11    1    3    3    0    0  0.93635146842E+01  0.58989103581E+01  0.11243264927E+02  0.15776043773E+02  0.51100000000E-03 0. -1.
        -11    1    3    3    0    0 -0.11728726132E+00  0.14517160683E+01  0.19246926181E+01  0.24136440872E+01  0.51100000000E-03 0.  1.
        -12    1    3    3    0    0  0.11713745524E+02  0.27006189964E+02  0.30774224828E+01  0.29597578612E+02  0.00000000000E+00 0.  1.
</event>
<event>
 7    1  0.4450624E-010  0.4778727E+02  0.7816164E-02  0.1312668E+00
        -11   -1    0    0    0    0  0.00000000000E+00  0.00000000000E+00  0.45593999997E+02  0.45594000000E+02  0.51100000000E-03 0. -1.
         11   -1    0    0    0    0 -0.00000000000E+00 -0.00000000000E+00 -0.45593999997E+02  0.45594000000E+02  0.51100000000E-03 0.  1.
    9900012    2    1    2    0    0  0.13193631591E+02 -0.57022806806E+01 -0.40951622622E+02  0.47787270572E+02  0.19999997846E+02 0.  0.
         12    1    1    2    0    0 -0.13193631591E+02  0.57022806806E+01  0.40951622622E+02  0.43400729428E+02  0.00000000000E+00 0. -1.
         11    1    3    3    0    0  0.18428688878E+01 -0.57748479785E+01 -0.88101796145E+01  0.10694124556E+02  0.51100000000E-03 0. -1.
        -11    1    3    3    0    0  0.23405471213E+01 -0.35526136709E+01 -0.24132693934E+02  0.24504818740E+02  0.51100000000E-03 0.  1.
        -12    1    3    3    0    0  0.90102155817E+01  0.36251809688E+01 -0.80087490739E+01  0.12588327276E+02  0.00000000000E+00 0.  1.
</event>
<event>
 7    1  0.4450624E-010  0.4778727E+02  0.7816164E-02  0.1312668E+00
        -11   -1    0    0    0    0  0.00000000000E+00  0.00000000000E+00  0.45593999997E+02  0.45594000000E+02  0.51100000000E-03 0.  1.
         11   -1    0    0    0    0 -0.00000000000E+00 -0.00000000000E+00 -0.45593999997E+02  0.45594000000E+02  0.51100000000E-03 0. -1.
    9900012    2    1    2    0    0  0.41464673080E+02 -0.10168553725E+02 -0.78041370850E+01  0.47787272424E+02  0.20000006289E+02 0.  0.
         12    1    1    2    0    0 -0.41464673080E+02  0.10168553725E+02  0.78041370850E+01  0.43400727576E+02  0.00000000000E+00 0. -1.
         11    1    3    3    0    0  0.14743297646E+01  0.14629227439E+01  0.29299019142E+00  0.20975306250E+01  0.51100000000E-03 0. -1.
        -11    1    3    3    0    0  0.22883998131E+02  0.11072270565E+01 -0.98986211432E-01  0.22910982536E+02  0.51100000000E-03 0.  1.
         12    1    3    3    0    0  0.17106345184E+02 -0.12738703525E+02 -0.79981410650E+01  0.22778759263E+02  0.00000000000E+00 0. -1.
</event>
<event>
 7    1  0.4450624E-010  0.4778727E+02  0.7816164E-02  0.1312668E+00
        -11   -1    0    0    0    0  0.00000000000E+00  0.00000000000E+00  0.45593999997E+02  0.45594000000E+02  0.51100000000E-03 0.  1.
         11   -1    0    0    0    0 -0.00000000000E+00 -0.00000000000E+00 -0.45593999997E+02  0.45594000000E+02  0.51100000000E-03 0. -1.
    9900012    2    1    2    0    0 -0.40450719769E+02  0.12958309275E+02  0.89131729495E+01  0.47787272343E+02  0.20000005921E+02 0.  0.
         12    1    1    2    0    0  0.40450719769E+02 -0.12958309275E+02 -0.89131729495E+01  0.43400727657E+02  0.00000000000E+00 0. -1.
         11    1    3    3    0    0 -0.22549716146E+01  0.28424512453E+01 -0.23409551177E+00  0.36358254955E+01  0.51100000000E-03 0. -1.
        -11    1    3    3    0    0 -0.73064533781E+01 -0.43303145499E+01 -0.10524985371E+01  0.85582497334E+01  0.51100000000E-03 0.  1.
        -12    1    3    3    0    0 -0.30889294777E+02  0.14446172579E+02  0.10199766998E+02  0.35593197114E+02  0.00000000000E+00 0.  1.
</event>
<event>
 7    1  0.4450624E-010  0.4778727E+02  0.7816164E-02  0.1312668E+00
        -11   -1    0    0    0    0  0.00000000000E+00  0.00000000000E+00  0.45593999997E+02  0.45594000000E+02  0.51100000000E-03 0.  1.
         11   -1    0    0    0    0 -0.00000000000E+00 -0.00000000000E+00 -0.45593999997E+02  0.45594000000E+02  0.51100000000E-03 0. -1.
    9900012    2    1    2    0    0  0.22962488450E+01 -0.42253998644E+02  0.96410741906E+01  0.47787268765E+02  0.19999989608E+02 0.  0.
         12    1    1    2    0    0 -0.22962488450E+01  0.42253998644E+02 -0.96410741906E+01  0.43400731235E+02  0.00000000000E+00 0. -1.
         11    1    3    3    0    0 -0.11818524114E+00  0.11331421786E+01  0.13444748916E+00  0.11471945504E+01  0.51100000000E-03 0. -1.
        -11    1    3    3    0    0 -0.25867979055E+01 -0.11373602499E+02  0.81132764389E+01  0.14208293777E+02  0.51100000000E-03 0.  1.
         12    1    3    3    0    0  0.50012319916E+01 -0.32013538323E+02  0.13933502626E+01  0.32431780438E+02  0.00000000000E+00 0. -1.
</event>
<event>
 7    1  0.4450624E-010  0.4778727E+02  0.7816164E-02  0.1312668E+00
        -11   -1    0    0    0    0  0.00000000000E+00  0.00000000000E+00  0.45593999997E+02  0.45594000000E+02  0.51100000000E-03 0.  1.
         11   -1    0    0    0    0 -0.00000000000E+00 -0.00000000000E+00 -0.45593999997E+02  0.45594000000E+02  0.51100000000E-03 0. -1.
    9900012    2    1    2    0    0  0.27205334502E+02 -0.14363452796E+02  0.30613465493E+02  0.47787271077E+02  0.20000000146E+02 0.  0.
         12    1    1    2    0    0 -0.27205334502E+02  0.14363452796E+02 -0.30613465493E+02  0.43400728923E+02  0.00000000000E+00 0. -1.
         11    1    3    3    0    0  0.32091071395E+01 -0.41006139435E+01  0.24221792725E+01  0.57428526044E+01  0.51100000000E-03 0. -1.
        -11    1    3    3    0    0  0.27474591095E+01 -0.37039382668E+01  0.16067571975E+02  0.16716296230E+02  0.51100000000E-03 0.  1.
        -12    1    3    3    0    0  0.21248768253E+02 -0.65589005857E+01  0.12123714246E+02  0.25328122242E+02  0.00000000000E+00 0.  1.
</event>
<event>
 7    1  0.4450624E-010  0.4778727E+02  0.7816164E-02  0.1312668E+00
        -11   -1    0    0    0    0  0.00000000000E+00  0.00000000000E+00  0.45593999997E+02  0.45594000000E+02  0.51100000000E-03 0.  1.
         11   -1    0    0    0    0 -0.00000000000E+00 -0.00000000000E+00 -0.45593999997E+02  0.45594000000E+02  0.51100000000E-03 0. -1.
    9900012    2    1    2    0    0  0.43240205570E+02 -0.35828223909E+01 -0.10349678808E+01  0.47787272442E+02  0.20000006374E+02 0.  0.
         12    1    1    2    0    0 -0.43240205570E+02  0.35828223909E+01  0.10349678808E+01  0.43400727558E+02  0.00000000000E+00 0. -1.
         11    1    3    3    0    0  0.59801020300E+01  0.59717573505E+00 -0.55392461979E+01  0.81732177170E+01  0.51100000000E-03 0. -1.
        -11    1    3    3    0    0  0.24255444581E+02 -0.31257249158E+01 -0.28751403995E+01  0.24624442748E+02  0.51100000000E-03 0.  1.
        -12    1    3    3    0    0  0.13004658958E+02 -0.10542732102E+01  0.73794187165E+01  0.14989611977E+02  0.00000000000E+00 0.  1.
</event>
<event>
 7    1  0.4450624E-010  0.4778728E+02  0.7816164E-02  0.1312668E+00
        -11   -1    0    0    0    0  0.00000000000E+00  0.00000000000E+00  0.45593999997E+02  0.45594000000E+02  0.51100000000E-03 0. -1.
         11   -1    0    0    0    0 -0.00000000000E+00 -0.00000000000E+00 -0.45593999997E+02  0.45594000000E+02  0.51100000000E-03 0.  1.
    9900012    2    1    2    0    0  0.29203428817E+02  0.23435991812E+02 -0.21943949439E+02  0.47787275538E+02  0.20000020487E+02 0.  0.
         12    1    1    2    0    0 -0.29203428817E+02 -0.23435991812E+02  0.21943949439E+02  0.43400724462E+02  0.00000000000E+00 0. -1.
         11    1    3    3    0    0  0.18715408568E+02  0.11215790240E+02 -0.69820589889E+01  0.22908723591E+02  0.51100000000E-03 0. -1.
        -11    1    3    3    0    0  0.70709891951E+01  0.45667538443E+01 -0.14141222840E+02  0.16456862172E+02  0.51100000000E-03 0.  1.
         12    1    3    3    0    0  0.34170310537E+01  0.76534477274E+01 -0.82066760998E+00  0.84216897748E+01  0.00000000000E+00 0. -1.
</event>
<event>
 7    1  0.4450624E-010  0.4778727E+02  0.7816164E-02  0.1312668E+00
        -11   -1    0    0    0    0  0.00000000000E+00  0.00000000000E+00  0.45593999997E+02  0.45594000000E+02  0.51100000000E-03 0.  1.
         11   -1    0    0    0    0 -0.00000000000E+00 -0.00000000000E+00 -0.45593999997E+02  0.45594000000E+02  0.51100000000E-03 0. -1.
    9900012    2    1    2    0    0  0.29426948368E+02 -0.26049228109E+02  0.18415093952E+02  0.47787271198E+02  0.20000000699E+02 0.  0.
         12    1    1    2    0    0 -0.29426948368E+02  0.26049228109E+02 -0.18415093952E+02  0.43400728802E+02  0.00000000000E+00 0. -1.
         11    1    3    3    0    0  0.19631267287E+02 -0.20139865083E+02  0.13877234814E+02  0.31362054575E+02  0.51100000000E-03 0. -1.
        -11    1    3    3    0    0  0.63977810609E+01 -0.49737087146E+01  0.80692749826E+01  0.11436021156E+02  0.51100000000E-03 0.  1.
         12    1    3    3    0    0  0.33979000199E+01 -0.93565431178E+00 -0.35314158441E+01  0.49891954662E+01  0.00000000000E+00 0. -1.
</event>
<event>
 7    1  0.4450624E-010  0.4778727E+02  0.7816164E-02  0.1312668E+00
        -11   -1    0    0    0    0  0.00000000000E+00  0.00000000000E+00  0.45593999997E+02  0.45594000000E+02  0.51100000000E-03 0.  1.
         11   -1    0    0    0    0 -0.00000000000E+00 -0.00000000000E+00 -0.45593999997E+02  0.45594000000E+02  0.51100000000E-03 0. -1.
    9900012    2    1    2    0    0 -0.11868034943E+02 -0.79574856699E+01  0.40981111405E+02  0.47787270472E+02  0.19999997388E+02 0.  0.
         12    1    1    2    0    0  0.11868034943E+02  0.79574856699E+01 -0.40981111405E+02  0.43400729528E+02  0.00000000000E+00 0. -1.
         11    1    3    3    0    0 -0.40214870631E+01 -0.30358340614E+01  0.12329248682E+02  0.13319122343E+02  0.51100000000E-03 0. -1.
        -11    1    3    3    0    0 -0.74318704441E+01 -0.76618839121E+01  0.29657499374E+02  0.31519905342E+02  0.51100000000E-03 0.  1.
         12    1    3    3    0    0 -0.41467743621E+00  0.27402323036E+01 -0.10056366517E+01  0.29482427866E+01  0.00000000000E+00 0. -1.
</event>
<event>
 7    1  0.4450624E-010  0.4778726E+02  0.7816164E-02  0.1312668E+00
        -11   -1    0    0    0    0  0.00000000000E+00  0.00000000000E+00  0.45593999997E+02  0.45594000000E+02  0.51100000000E-03 0.  1.
         11   -1    0    0    0    0 -0.00000000000E+00 -0.00000000000E+00 -0.45593999997E+02  0.45594000000E+02  0.51100000000E-03 0. -1.
    9900012    2    1    2    0    0  0.17810969062E+02  0.39570726348E+02 -0.74233254788E+00  0.47787261985E+02  0.19999958695E+02 0.  0.
         12    1    1    2    0    0 -0.17810969062E+02 -0.39570726348E+02  0.74233254788E+00  0.43400738015E+02  0.00000000000E+00 0. -1.
         11    1    3    3    0    0 -0.91664719130E+00  0.58618949271E+00  0.16374604533E+01  0.19659952167E+01  0.51100000000E-03 0. -1.
        -11    1    3    3    0    0  0.70807640399E+01  0.17541414849E+02 -0.83842490338E+01  0.20691401268E+02  0.51100000000E-03 0.  1.
         12    1    3    3    0    0  0.11646852213E+02  0.21443122006E+02  0.60044560326E+01  0.25129865501E+02  0.00000000000E+00 0. -1.
</event>
<event>
 7    1  0.4450624E-010  0.4778727E+02  0.7816164E-02  0.1312668E+00
        -11   -1    0    0    0    0  0.00000000000E+00  0.00000000000E+00  0.45593999997E+02  0.45594000000E+02  0.51100000000E-03 0.  1.
         11   -1    0    0    0    0 -0.00000000000E+00 -0.00000000000E+00 -0.45593999997E+02  0.45594000000E+02  0.51100000000E-03 0. -1.
    9900012    2    1    2    0    0 -0.63620757253E+01  0.27132727920E+02  0.33271048954E+02  0.47787266937E+02  0.19999981271E+02 0.  0.
         12    1    1    2    0    0  0.63620757253E+01 -0.27132727920E+02 -0.33271048954E+02  0.43400733063E+02  0.00000000000E+00 0. -1.
         11    1    3    3    0    0 -0.44954304745E+01  0.60220437156E+01  0.94430649942E+01  0.12068362872E+02  0.51100000000E-03 0. -1.
        -11    1    3    3    0    0 -0.69038280593E+01  0.19546174748E+02  0.21759814571E+02  0.30053374512E+02  0.51100000000E-03 0.  1.
         12    1    3    3    0    0  0.50371828086E+01  0.15645094560E+01  0.20681693893E+01  0.56655295523E+01  0.00000000000E+00 0. -1.
</event>
<event>
 7    1  0.4450624E-010  0.4778727E+02  0.7816164E-02  0.1312668E+00
        -11   -1    0    0    0    0  0.00000000000E+00  0.00000000000E+00  0.45593999997E+02  0.45594000000E+02  0.51100000000E-03 0.  1.
         11   -1    0    0    0    0 -0.00000000000E+00 -0.00000000000E+00 -0.45593999997E+02  0.45594000000E+02  0.51100000000E-03 0. -1.
    9900012    2    1    2    0    0 -0.67481660381E+01 -0.17718301620E+02  0.39040331927E+02  0.47787268737E+02  0.19999989480E+02 0.  0.
         12    1    1    2    0    0  0.67481660381E+01  0.17718301620E+02 -0.39040331927E+02  0.43400731263E+02  0.00000000000E+00 0. -1.
         11    1    3    3    0    0  0.23364967538E+01 -0.79761966181E+00  0.92355924610E+00  0.26359772661E+01  0.51100000000E-03 0. -1.
        -11    1    3    3    0    0  0.36660491489E+01 -0.66613255485E+01  0.15138800154E+02  0.16940969417E+02  0.51100000000E-03 0.  1.
         12    1    3    3    0    0 -0.12750711941E+02 -0.10259356409E+02  0.22977972527E+02  0.28210322054E+02  0.00000000000E+00 0. -1.
</event>
<event>
 7    1  0.4450624E-010  0.4778727E+02  0.7816164E-02  0.1312668E+00
        -11   -1    0    0    0    0  0.00000000000E+00  0.00000000000E+00  0.45593999997E+02  0.45594000000E+02  0.51100000000E-03 0.  1.
         11   -1    0    0    0    0 -0.00000000000E+00 -0.00000000000E+00 -0.45593999997E+02  0.45594000000E+02  0.51100000000E-03 0. -1.
    9900012    2    1    2    0    0 -0.26937461871E+02  0.28798943997E+02  0.18127801601E+02  0.47787271685E+02  0.20000002921E+02 0.  0.
         12    1    1    2    0    0  0.26937461871E+02 -0.28798943997E+02 -0.18127801601E+02  0.43400728315E+02  0.00000000000E+00 0. -1.
         11    1    3    3    0    0  0.23579868427E+01  0.20668090035E+01  0.15366805289E+01  0.34918746708E+01  0.51100000000E-03 0. -1.
        -11    1    3    3    0    0 -0.10614595996E+02  0.44588501773E+01  0.78676824425E+01  0.13944583907E+02  0.51100000000E-03 0.  1.
        -12    1    3    3    0    0 -0.18680852717E+02  0.22273284816E+02  0.87234386296E+01  0.30350813107E+02  0.00000000000E+00 0.  1.
</event>
<event>
 7    1  0.4450624E-010  0.4778727E+02  0.7816164E-02  0.1312668E+00
        -11   -1    0    0    0    0  0.00000000000E+00  0.00000000000E+00  0.45593999997E+02  0.45594000000E+02  0.51100000000E-03 0. -1.
         11   -1    0    0    0    0 -0.00000000000E+00 -0.00000000000E+00 -0.45593999997E+02  0.45594000000E+02  0.51100000000E-03 0.  1.
    9900012    2    1    2    0    0 -0.13251663280E+02  0.36601063772E+02 -0.19193193811E+02  0.47787272614E+02  0.20000007157E+02 0.  0.
         12    1    1    2    0    0  0.13251663280E+02 -0.36601063772E+02  0.19193193811E+02  0.43400727386E+02  0.00000000000E+00 0. -1.
         11    1    3    3    0    0 -0.13815465957E+02  0.16384945335E+02 -0.13011113123E+02  0.25072347281E+02  0.51100000000E-03 0. -1.
        -11    1    3    3    0    0  0.33462603457E+00  0.12443700550E+01 -0.32762693431E+01  0.35205642285E+01  0.51100000000E-03 0.  1.
         12    1    3    3    0    0  0.22917664260E+00  0.18971748383E+02 -0.29058113444E+01  0.19194361104E+02  0.00000000000E+00 0. -1.
</event>
<event>
 7    1  0.4450624E-010  0.4778727E+02  0.7816164E-02  0.1312668E+00
        -11   -1    0    0    0    0  0.00000000000E+00  0.00000000000E+00  0.45593999997E+02  0.45594000000E+02  0.51100000000E-03 0. -1.
         11   -1    0    0    0    0 -0.00000000000E+00 -0.00000000000E+00 -0.45593999997E+02  0.45594000000E+02  0.51100000000E-03 0.  1.
    9900012    2    1    2    0    0 -0.17671070679E+02 -0.30960675720E+02 -0.24754664034E+02  0.47787267617E+02  0.19999984371E+02 0.  0.
         12    1    1    2    0    0  0.17671070679E+02  0.30960675720E+02  0.24754664034E+02  0.43400732383E+02  0.00000000000E+00 0. -1.
         11    1    3    3    0    0 -0.18961023584E+02 -0.24020687166E+02 -0.25552308393E+02  0.39867709888E+02  0.51100000000E-03 0.  1.
        -11    1    3    3    0    0 -0.41735688662E+00 -0.56580338736E+01  0.10288240243E+00  0.56743386518E+01  0.51100000000E-03 0. -1.
        -12    1    3    3    0    0  0.17073097916E+01 -0.12819546800E+01  0.69476195601E+00  0.22452190765E+01  0.00000000000E+00 0.  1.
</event>
<event>
 7    1  0.4450624E-010  0.4778727E+02  0.7816164E-02  0.1312668E+00
        -11   -1    0    0    0    0  0.00000000000E+00  0.00000000000E+00  0.45593999997E+02  0.45594000000E+02  0.51100000000E-03 0.  1.
         11   -1    0    0    0    0 -0.00000000000E+00 -0.00000000000E+00 -0.45593999997E+02  0.45594000000E+02  0.51100000000E-03 0. -1.
    9900012    2    1    2    0    0  0.13414406591E+02  0.27330118461E+02  0.30931243629E+02  0.47787268304E+02  0.19999987507E+02 0.  0.
         12    1    1    2    0    0 -0.13414406591E+02 -0.27330118461E+02 -0.30931243629E+02  0.43400731696E+02  0.00000000000E+00 0. -1.
         11    1    3    3    0    0  0.57294629763E+01  0.43337485725E+01  0.85463178650E+01  0.11164572182E+02  0.51100000000E-03 0. -1.
        -11    1    3    3    0    0  0.86073604881E+01  0.24606928513E+02  0.17502619737E+02  0.31399510877E+02  0.51100000000E-03 0.  1.
        -12    1    3    3    0    0 -0.92241687370E+00 -0.16105586241E+01  0.48823060266E+01  0.52231852454E+01  0.00000000000E+00 0.  1.
</event>
<event>
 7    1  0.4450624E-010  0.4778727E+02  0.7816164E-02  0.1312668E+00
        -11   -1    0    0    0    0  0.00000000000E+00  0.00000000000E+00  0.45593999997E+02  0.45594000000E+02  0.51100000000E-03 0. -1.
         11   -1    0    0    0    0 -0.00000000000E+00 -0.00000000000E+00 -0.45593999997E+02  0.45594000000E+02  0.51100000000E-03 0.  1.
    9900012    2    1    2    0    0 -0.12016542230E+02 -0.23284193247E+02 -0.34598736885E+02  0.47787268021E+02  0.19999986214E+02 0.  0.
         12    1    1    2    0    0  0.12016542230E+02  0.23284193247E+02  0.34598736885E+02  0.43400731979E+02  0.00000000000E+00 0. -1.
         11    1    3    3    0    0  0.18495539213E+01 -0.16315929079E+01 -0.16448974949E+01  0.29645628944E+01  0.51100000000E-03 0. -1.
        -11    1    3    3    0    0 -0.11686750187E+02 -0.23719647026E+02 -0.32309771963E+02  0.41750726336E+02  0.51100000000E-03 0.  1.
        -12    1    3    3    0    0 -0.21793459643E+01  0.20670466877E+01 -0.64406742668E+00  0.30719787909E+01  0.00000000000E+00 0.  1.
</event>
<event>
 7    1  0.4450624E-010  0.4778726E+02  0.7816164E-02  0.1312668E+00
        -11   -1    0    0    0    0  0.00000000000E+00  0.00000000000E+00  0.45593999997E+02  0.45594000000E+02  0.51100000000E-03 0. -1.
         11   -1    0    0    0    0 -0.00000000000E+00 -0.00000000000E+00 -0.45593999997E+02  0.45594000000E+02  0.51100000000E-03 0.  1.
    9900012    2    1    2    0    0  0.25366450338E+02  0.20597550887E+02 -0.28564112026E+02  0.47787258058E+02  0.19999940789E+02 0.  0.
         12    1    1    2    0    0 -0.25366450338E+02 -0.20597550887E+02  0.28564112026E+02  0.43400741942E+02  0.00000000000E+00 0. -1.
         11    1    3    3    0    0  0.10572084821E+01  0.62444151632E+01 -0.83781284151E+01  0.10502544763E+02  0.51100000000E-03 0. -1.
        -11    1    3    3    0    0  0.22621071763E+02  0.13751551296E+02 -0.12287793461E+02  0.29185748562E+02  0.51100000000E-03 0.  1.
         12    1    3    3    0    0  0.16881700932E+01  0.60158442746E+00 -0.78981901499E+01  0.80989647321E+01  0.00000000000E+00 0. -1.
</event>
<event>
 7    1  0.4450624E-010  0.4778727E+02  0.7816164E-02  0.1312668E+00
        -11   -1    0    0    0    0  0.00000000000E+00  0.00000000000E+00  0.45593999997E+02  0.45594000000E+02  0.51100000000E-03 0.  1.
         11   -1    0    0    0    0 -0.00000000000E+00 -0.00000000000E+00 -0.45593999997E+02  0.45594000000E+02  0.51100000000E-03 0. -1.
    9900012    2    1    2    0    0  0.22566220664E+02 -0.15194647622E+02  0.33815845719E+02  0.47787273588E+02  0.20000011596E+02 0.  0.
         12    1    1    2    0    0 -0.22566220664E+02  0.15194647622E+02 -0.33815845719E+02  0.43400726412E+02  0.00000000000E+00 0. -1.
         11    1    3    3    0    0 -0.13458310978E+01  0.32236889420E+00 -0.10401030913E+01  0.17311839156E+01  0.51100000000E-03 0. -1.
        -11    1    3    3    0    0  0.45093905421E+01 -0.45335050395E+01  0.27330734831E+01  0.69539170206E+01  0.51100000000E-03 0.  1.
        -12    1    3    3    0    0  0.19402661220E+02 -0.10983511477E+02  0.32122875327E+02  0.39102172651E+02  0.00000000000E+00 0.  1.
</event>
<event>
 7    1  0.4450624E-010  0.4778727E+02  0.7816164E-02  0.1312668E+00
        -11   -1    0    0    0    0  0.00000000000E+00  0.00000000000E+00  0.45593999997E+02  0.45594000000E+02  0.51100000000E-03 0.  1.
         11   -1    0    0    0    0 -0.00000000000E+00 -0.00000000000E+00 -0.45593999997E+02  0.45594000000E+02  0.51100000000E-03 0. -1.
    9900012    2    1    2    0    0 -0.23034564554E+02  0.32818783767E+02  0.16612026542E+02  0.47787272380E+02  0.20000006087E+02 0.  0.
         12    1    1    2    0    0  0.23034564554E+02 -0.32818783767E+02 -0.16612026542E+02  0.43400727620E+02  0.00000000000E+00 0. -1.
         11    1    3    3    0    0 -0.82673342975E+00  0.27124725881E+00 -0.17529366449E+01  0.19570003529E+01  0.51100000000E-03 0. -1.
        -11    1    3    3    0    0  0.18447963617E+01  0.44943268510E+01  0.35556970366E+01  0.60204010778E+01  0.51100000000E-03 0.  1.
        -12    1    3    3    0    0 -0.24052627486E+02  0.28053209657E+02  0.14809266150E+02  0.39809870949E+02  0.00000000000E+00 0.  1.
</event>
<event>
 7    1  0.4450624E-010  0.4778727E+02  0.7816164E-02  0.1312668E+00
        -11   -1    0    0    0    0  0.00000000000E+00  0.00000000000E+00  0.45593999997E+02  0.45594000000E+02  0.51100000000E-03 0. -1.
         11   -1    0    0    0    0 -0.00000000000E+00 -0.00000000000E+00 -0.45593999997E+02  0.45594000000E+02  0.51100000000E-03 0.  1.
    9900012    2    1    2    0    0 -0.69874572891E+01  0.19257895218E+02 -0.38261367027E+02  0.47787270808E+02  0.19999998924E+02 0.  0.
         12    1    1    2    0    0  0.69874572891E+01 -0.19257895218E+02  0.38261367027E+02  0.43400729192E+02  0.00000000000E+00 0. -1.
         11    1    3    3    0    0 -0.15479208381E+01  0.62249966116E+01 -0.28555155974E+02  0.29266765703E+02  0.51100000000E-03 0. -1.
        -11    1    3    3    0    0 -0.12871477752E+01  0.75059309892E+01 -0.86543235267E+01  0.11527925458E+02  0.51100000000E-03 0.  1.
         12    1    3    3    0    0 -0.41523886758E+01  0.55269676172E+01 -0.10518875261E+01  0.69925796473E+01  0.00000000000E+00 0. -1.
</event>
<event>
 7    1  0.4450624E-010  0.4778727E+02  0.7816164E-02  0.1312668E+00
        -11   -1    0    0    0    0  0.00000000000E+00  0.00000000000E+00  0.45593999997E+02  0.45594000000E+02  0.51100000000E-03 0.  1.
         11   -1    0    0    0    0 -0.00000000000E+00 -0.00000000000E+00 -0.45593999997E+02  0.45594000000E+02  0.51100000000E-03 0. -1.
    9900012    2    1    2    0    0  0.51579751950E+01  0.36644814215E+02 -0.22675457051E+02  0.47787268792E+02  0.19999989729E+02 0.  0.
         12    1    1    2    0    0 -0.51579751950E+01 -0.36644814215E+02  0.22675457051E+02  0.43400731208E+02  0.00000000000E+00 0. -1.
         11    1    3    3    0    0 -0.12803461413E+01  0.10694725152E+02 -0.78204632825E+01  0.13310750487E+02  0.51100000000E-03 0. -1.
        -11    1    3    3    0    0  0.78694620951E+01  0.27605417331E+02 -0.14780577832E+02  0.32287040449E+02  0.51100000000E-03 0.  1.
         12    1    3    3    0    0 -0.14311407588E+01 -0.16553282681E+01 -0.74415936005E-01  0.21894778551E+01  0.00000000000E+00 0. -1.
</event>
<event>
 7    1  0.4450624E-010  0.4778727E+02  0.7816164E-02  0.1312668E+00
        -11   -1    0    0    0    0  0.00000000000E+00  0.00000000000E+00  0.45593999997E+02  0.45594000000E+02  0.51100000000E-03 0.  1.
         11   -1    0    0    0    0 -0.00000000000E+00 -0.00000000000E+00 -0.45593999997E+02  0.45594000000E+02  0.51100000000E-03 0. -1.
    9900012    2    1    2    0    0  0.10241894576E+01  0.19142354594E+02  0.38937699747E+02  0.47787272298E+02  0.20000005717E+02 0.  0.
         12    1    1    2    0    0 -0.10241894576E+01 -0.19142354594E+02 -0.38937699747E+02  0.43400727702E+02  0.00000000000E+00 0. -1.
         11    1    3    3    0    0 -0.50745825594E+01  0.85482868729E+01  0.21117617618E+02  0.23340487800E+02  0.51100000000E-03 0. -1.
        -11    1    3    3    0    0  0.27800972804E+01  0.12360130511E+01  0.13107725620E+02  0.13456193382E+02  0.51100000000E-03 0.  1.
        -12    1    3    3    0    0  0.33186747367E+01  0.93580546700E+01  0.47123565091E+01  0.10990591116E+02  0.00000000000E+00 0.  1.
</event>
<event>
 7    1  0.4450624E-010  0.4778733E+02  0.7816164E-02  0.1312667E+00
        -11   -1    0    0    0    0  0.00000000000E+00  0.00000000000E+00  0.45593999997E+02  0.45594000000E+02  0.51100000000E-03 0.  1.
         11   -1    0    0    0    0 -0.00000000000E+00 -0.00000000000E+00 -0.45593999997E+02  0.45594000000E+02  0.51100000000E-03 0. -1.
    9900012    2    1    2    0    0 -0.30048878932E+02 -0.18329611858E+02  0.25391104424E+02  0.47787332035E+02  0.20000278079E+02 0.  0.
         12    1    1    2    0    0  0.30048878932E+02  0.18329611858E+02 -0.25391104424E+02  0.43400667965E+02  0.00000000000E+00 0. -1.
         11    1    3    3    0    0 -0.50764214373E+01 -0.94128544186E+01  0.44216734077E+01  0.11572513940E+02  0.51100000000E-03 0. -1.
        -11    1    3    3    0    0 -0.29062672961E+00 -0.28809319993E+01  0.61557619995E+01  0.68027670206E+01  0.51100000000E-03 0.  1.
        -12    1    3    3    0    0 -0.24681830765E+02 -0.60358254398E+01  0.14813669017E+02  0.29412051074E+02  0.00000000000E+00 0.  1.
</event>
<event>
 7    1  0.4450624E-010  0.4778727E+02  0.7816164E-02  0.1312668E+00
        -11   -1    0    0    0    0  0.00000000000E+00  0.00000000000E+00  0.45593999997E+02  0.45594000000E+02  0.51100000000E-03 0. -1.
         11   -1    0    0    0    0 -0.00000000000E+00 -0.00000000000E+00 -0.45593999997E+02  0.45594000000E+02  0.51100000000E-03 0.  1.
    9900012    2    1    2    0    0  0.40823263009E+02 -0.12559541319E+02  0.77034078576E+01  0.47787269897E+02  0.19999994770E+02 0.  0.
         12    1    1    2    0    0 -0.40823263009E+02  0.12559541319E+02 -0.77034078576E+01  0.43400730103E+02  0.00000000000E+00 0. -1.
         11    1    3    3    0    0  0.15393793388E+02 -0.41733536425E+01 -0.10906052799E+01  0.15986718727E+02  0.51100000000E-03 0.  1.
        -11    1    3    3    0    0  0.57122581851E+01 -0.40989706958E+01 -0.38227792111E+01  0.80028179722E+01  0.51100000000E-03 0. -1.
         12    1    3    3    0    0  0.19717211435E+02 -0.42872169802E+01  0.12616792349E+02  0.23797733199E+02  0.00000000000E+00 0. -1.
</event>
<event>
 7    1  0.4450624E-010  0.4778727E+02  0.7816164E-02  0.1312668E+00
        -11   -1    0    0    0    0  0.00000000000E+00  0.00000000000E+00  0.45593999997E+02  0.45594000000E+02  0.51100000000E-03 0.  1.
         11   -1    0    0    0    0 -0.00000000000E+00 -0.00000000000E+00 -0.45593999997E+02  0.45594000000E+02  0.51100000000E-03 0. -1.
    9900012    2    1    2    0    0 -0.26682631686E+02 -0.17195008732E+02  0.29597163115E+02  0.47787271626E+02  0.20000002651E+02 0.  0.
         12    1    1    2    0    0  0.26682631686E+02  0.17195008732E+02 -0.29597163115E+02  0.43400728374E+02  0.00000000000E+00 0. -1.
         11    1    3    3    0    0 -0.11146809678E+02 -0.98302886004E+00  0.13409125528E+02  0.17464889333E+02  0.51100000000E-03 0. -1.
        -11    1    3    3    0    0 -0.81364050314E+01 -0.23515613298E+01  0.11025681600E+01  0.85408772577E+01  0.51100000000E-03 0.  1.
        -12    1    3    3    0    0 -0.73994169757E+01 -0.13860418542E+02  0.15085469427E+02  0.21781505035E+02  0.00000000000E+00 0.  1.
</event>
<event>
 7    1  0.4450624E-010  0.4778731E+02  0.7816164E-02  0.1312668E+00
        -11   -1    0    0    0    0  0.00000000000E+00  0.00000000000E+00  0.45593999997E+02  0.45594000000E+02  0.51100000000E-03 0. -1.
         11   -1    0    0    0    0 -0.00000000000E+00 -0.00000000000E+00 -0.45593999997E+02  0.45594000000E+02  0.51100000000E-03 0.  1.
    9900012    2    1    2    0    0  0.20800278306E+02  0.26493465128E+02 -0.27369048371E+02  0.47787307830E+02  0.20000167720E+02 0.  0.
         12    1    1    2    0    0 -0.20800278306E+02 -0.26493465128E+02  0.27369048371E+02  0.43400692170E+02  0.00000000000E+00 0. -1.
         11    1    3    3    0    0 -0.13029578732E+01  0.28776433189E+01 -0.11653200747E+01  0.33669721454E+01  0.51100000000E-03 0. -1.
        -11    1    3    3    0    0 -0.43576565328E+00  0.66734295891E+01 -0.13261231066E+01  0.68178557436E+01  0.51100000000E-03 0.  1.
        -12    1    3    3    0    0  0.22539001832E+02  0.16942392220E+02 -0.24877605190E+02  0.37602479941E+02  0.00000000000E+00 0.  1.
</event>
<event>
 7    1  0.4450624E-010  0.4778727E+02  0.7816164E-02  0.1312668E+00
        -11   -1    0    0    0    0  0.00000000000E+00  0.00000000000E+00  0.45593999997E+02  0.45594000000E+02  0.51100000000E-03 0.  1.
         11   -1    0    0    0    0 -0.00000000000E+00 -0.00000000000E+00 -0.45593999997E+02  0.45594000000E+02  0.51100000000E-03 0. -1.
    9900012    2    1    2    0    0  0.90365383671E+01 -0.56219237439E+01  0.42075624885E+02  0.47787271185E+02  0.20000000640E+02 0.  0.
         12    1    1    2    0    0 -0.90365383671E+01  0.56219237439E+01 -0.42075624885E+02  0.43400728815E+02  0.00000000000E+00 0. -1.
         11    1    3    3    0    0 -0.10208131662E+01  0.16051923022E+01 -0.10083795488E+01  0.21530284306E+01  0.51100000000E-03 0. -1.
        -11    1    3    3    0    0  0.13309576649E+01  0.14049509009E+01  0.21186137945E+01  0.28694703363E+01  0.51100000000E-03 0.  1.
        -12    1    3    3    0    0  0.87263938685E+01 -0.86320669470E+01  0.40965390639E+02  0.42764772418E+02  0.00000000000E+00 0.  1.
</event>
<event>
 7    1  0.4450624E-010  0.4778727E+02  0.7816164E-02  0.1312668E+00
        -11   -1    0    0    0    0  0.00000000000E+00  0.00000000000E+00  0.45593999997E+02  0.45594000000E+02  0.51100000000E-03 0.  1.
         11   -1    0    0    0    0 -0.00000000000E+00 -0.00000000000E+00 -0.45593999997E+02  0.45594000000E+02  0.51100000000E-03 0. -1.
    9900012    2    1    2    0    0 -0.53682394627E+01  0.25646466952E+02  0.34598611132E+02  0.47787272422E+02  0.20000006281E+02 0.  0.
         12    1    1    2    0    0  0.53682394627E+01 -0.25646466952E+02 -0.34598611132E+02  0.43400727578E+02  0.00000000000E+00 0. -1.
         11    1    3    3    0    0 -0.73437967414E+00  0.49750224273E+01  0.13788220737E+02  0.14676688762E+02  0.51100000000E-03 0. -1.
        -11    1    3    3    0    0 -0.20947787620E+01 -0.63973322678E+00  0.75989096554E+01  0.79082731917E+01  0.51100000000E-03 0.  1.
         12    1    3    3    0    0 -0.25390810266E+01  0.21311177752E+02  0.13211480739E+02  0.25202310468E+02  0.00000000000E+00 0. -1.
</event>
<event>
 7    1  0.4450624E-010  0.4778727E+02  0.7816164E-02  0.1312668E+00
        -11   -1    0    0    0    0  0.00000000000E+00  0.00000000000E+00  0.45593999997E+02  0.45594000000E+02  0.51100000000E-03 0. -1.
         11   -1    0    0    0    0 -0.00000000000E+00 -0.00000000000E+00 -0.45593999997E+02  0.45594000000E+02  0.51100000000E-03 0.  1.
    9900012    2    1    2    0    0  0.26851049417E+02 -0.31946724275E+02 -0.11918519116E+02  0.47787272533E+02  0.20000006788E+02 0.  0.
         12    1    1    2    0    0 -0.26851049417E+02  0.31946724275E+02  0.11918519116E+02  0.43400727467E+02  0.00000000000E+00 0. -1.
         11    1    3    3    0    0  0.86611822021E+01 -0.38334485187E+01 -0.18400463212E+01  0.96486877558E+01  0.51100000000E-03 0. -1.
        -11    1    3    3    0    0  0.19716174409E+02 -0.22477672612E+02 -0.48285834782E+01  0.30286771337E+02  0.51100000000E-03 0.  1.
         12    1    3    3    0    0 -0.15263071944E+01 -0.56356031451E+01 -0.52498893168E+01  0.78518134402E+01  0.00000000000E+00 0. -1.
</event>
<event>
 7    1  0.4450624E-010  0.4778727E+02  0.7816164E-02  0.1312668E+00
        -11   -1    0    0    0    0  0.00000000000E+00  0.00000000000E+00  0.45593999997E+02  0.45594000000E+02  0.51100000000E-03 0.  1.
         11   -1    0    0    0    0 -0.00000000000E+00 -0.00000000000E+00 -0.45593999997E+02  0.45594000000E+02  0.51100000000E-03 0. -1.
    9900012    2    1    2    0    0 -0.17045518701E+02  0.75289618112E+01  0.39196787152E+02  0.47787273084E+02  0.20000009301E+02 0.  0.
         12    1    1    2    0    0  0.17045518701E+02 -0.75289618112E+01 -0.39196787152E+02  0.43400726916E+02  0.00000000000E+00 0. -1.
         11    1    3    3    0    0 -0.17786757879E+02  0.71209372231E+01  0.22359591415E+02  0.29445336325E+02  0.51100000000E-03 0. -1.
        -11    1    3    3    0    0 -0.13183580615E+01 -0.26154509191E+01  0.37801029357E+01  0.47820319900E+01  0.51100000000E-03 0.  1.
         12    1    3    3    0    0  0.20595972395E+01  0.30234755072E+01  0.13057092801E+02  0.13559904769E+02  0.00000000000E+00 0. -1.
</event>
<event>
 7    1  0.4450624E-010  0.4778727E+02  0.7816164E-02  0.1312668E+00
        -11   -1    0    0    0    0  0.00000000000E+00  0.00000000000E+00  0.45593999997E+02  0.45594000000E+02  0.51100000000E-03 0.  1.
         11   -1    0    0    0    0 -0.00000000000E+00 -0.00000000000E+00 -0.45593999997E+02  0.45594000000E+02  0.51100000000E-03 0. -1.
    9900012    2    1    2    0    0  0.16733755878E+02  0.34844294441E+02  0.19735241544E+02  0.47787271899E+02  0.20000003898E+02 0.  0.
         12    1    1    2    0    0 -0.16733755878E+02 -0.34844294441E+02 -0.19735241544E+02  0.43400728101E+02  0.00000000000E+00 0. -1.
         11    1    3    3    0    0  0.47145745034E+01  0.62860622322E+01 -0.11979732897E+01  0.79483917492E+01  0.51100000000E-03 0. -1.
        -11    1    3    3    0    0  0.12312035712E+02  0.13848535707E+02  0.77558814331E+01  0.20087853585E+02  0.51100000000E-03 0.  1.
         12    1    3    3    0    0 -0.29285433671E+00  0.14709696501E+02  0.13177333401E+02  0.19751026565E+02  0.00000000000E+00 0. -1.
</event>
<event>
 7    1  0.4450624E-010  0.4778727E+02  0.7816164E-02  0.1312668E+00
        -11   -1    0    0    0    0  0.00000000000E+00  0.00000000000E+00  0.45593999997E+02  0.45594000000E+02  0.51100000000E-03 0.  1.
         11   -1    0    0    0    0 -0.00000000000E+00 -0.00000000000E+00 -0.45593999997E+02  0.45594000000E+02  0.51100000000E-03 0. -1.
    9900012    2    1    2    0    0  0.10271827483E+02  0.10269586557E+02  0.40898024382E+02  0.47787271363E+02  0.20000001451E+02 0.  0.
         12    1    1    2    0    0 -0.10271827483E+02 -0.10269586557E+02 -0.40898024382E+02  0.43400728637E+02  0.00000000000E+00 0. -1.
         11    1    3    3    0    0  0.27238175273E+01  0.32424825069E+01  0.32447579971E+01  0.53349160677E+01  0.51100000000E-03 0. -1.
        -11    1    3    3    0    0  0.98404810360E+01  0.62102172960E+01  0.12113815148E+02  0.16797213566E+02  0.51100000000E-03 0.  1.
        -12    1    3    3    0    0 -0.22924710805E+01  0.81688675386E+00  0.25539451237E+02  0.25655141729E+02  0.00000000000E+00 0.  1.
</event>
<event>
 7    1  0.4450624E-010  0.4778727E+02  0.7816164E-02  0.1312668E+00
        -11   -1    0    0    0    0  0.00000000000E+00  0.00000000000E+00  0.45593999997E+02  0.45594000000E+02  0.51100000000E-03 0.  1.
         11   -1    0    0    0    0 -0.00000000000E+00 -0.00000000000E+00 -0.45593999997E+02  0.45594000000E+02  0.51100000000E-03 0. -1.
    9900012    2    1    2    0    0  0.40945537421E+02  0.14165312163E+02 -0.25357575265E+01  0.47787272246E+02  0.20000005478E+02 0.  0.
         12    1    1    2    0    0 -0.40945537421E+02 -0.14165312163E+02  0.25357575265E+01  0.43400727754E+02  0.00000000000E+00 0. -1.
         11    1    3    3    0    0  0.30961410984E+01  0.60107529028E+01 -0.29679035128E+01  0.73840159590E+01  0.51100000000E-03 0. -1.
        -11    1    3    3    0    0  0.13745516731E+02  0.76833901674E+01  0.34081863996E+01  0.16111779836E+02  0.51100000000E-03 0.  1.
         12    1    3    3    0    0  0.24103879591E+02  0.47116909302E+00 -0.29760404132E+01  0.24291476451E+02  0.00000000000E+00 0. -1.
</event>
<event>
 7    1  0.4450624E-010  0.4778727E+02  0.7816164E-02  0.1312668E+00
        -11   -1    0    0    0    0  0.00000000000E+00  0.00000000000E+00  0.45593999997E+02  0.45594000000E+02  0.51100000000E-03 0. -1.
         11   -1    0    0    0    0 -0.00000000000E+00 -0.00000000000E+00 -0.45593999997E+02  0.45594000000E+02  0.51100000000E-03 0.  1.
    9900012    2    1    2    0    0  0.10460024562E+02  0.15589248597E+02 -0.39130377676E+02  0.47787271403E+02  0.20000001637E+02 0.  0.
         12    1    1    2    0    0 -0.10460024562E+02 -0.15589248597E+02  0.39130377676E+02  0.43400728597E+02  0.00000000000E+00 0. -1.
         11    1    3    3    0    0  0.16865329833E+01 -0.14044369169E+01 -0.26752173261E+01  0.34602925541E+01  0.51100000000E-03 0. -1.
        -11    1    3    3    0    0 -0.27740267837E+01 -0.14645442933E+01 -0.72459793676E+01  0.78958426935E+01  0.51100000000E-03 0.  1.
         12    1    3    3    0    0  0.11547518362E+02  0.18458229807E+02 -0.29209180982E+02  0.36431136156E+02  0.00000000000E+00 0. -1.
</event>
<event>
 7    1  0.4450624E-010  0.4778727E+02  0.7816164E-02  0.1312668E+00
        -11   -1    0    0    0    0  0.00000000000E+00  0.00000000000E+00  0.45593999997E+02  0.45594000000E+02  0.51100000000E-03 0. -1.
         11   -1    0    0    0    0 -0.00000000000E+00 -0.00000000000E+00 -0.45593999997E+02  0.45594000000E+02  0.51100000000E-03 0.  1.
    9900012    2    1    2    0    0  0.14457748436E+02  0.39092489976E+02  0.12098513187E+02  0.47787270932E+02  0.19999999485E+02 0.  0.
         12    1    1    2    0    0 -0.14457748436E+02 -0.39092489976E+02 -0.12098513187E+02  0.43400729068E+02  0.00000000000E+00 0. -1.
         11    1    3    3    0    0  0.11823196087E+01 -0.85950662330E+00  0.27634829249E+01  0.31262548568E+01  0.51100000000E-03 0. -1.
        -11    1    3    3    0    0  0.56712287111E+01  0.60304389193E+01 -0.11337187731E+01  0.83554980205E+01  0.51100000000E-03 0.  1.
        -12    1    3    3    0    0  0.76042001159E+01  0.33921557680E+02  0.10468749036E+02  0.36305518054E+02  0.00000000000E+00 0.  1.
</event>
<event>
 7    1  0.4450624E-010  0.4778727E+02  0.7816164E-02  0.1312668E+00
        -11   -1    0    0    0    0  0.00000000000E+00  0.00000000000E+00  0.45593999997E+02  0.45594000000E+02  0.51100000000E-03 0.  1.
         11   -1    0    0    0    0 -0.00000000000E+00 -0.00000000000E+00 -0.45593999997E+02  0.45594000000E+02  0.51100000000E-03 0. -1.
    9900012    2    1    2    0    0 -0.15201920352E+02  0.30870908303E+02  0.26448291521E+02  0.47787268598E+02  0.19999988844E+02 0.  0.
         12    1    1    2    0    0  0.15201920352E+02 -0.30870908303E+02 -0.26448291521E+02  0.43400731402E+02  0.00000000000E+00 0. -1.
         11    1    3    3    0    0 -0.34465011811E+01  0.23525749948E+02  0.18317583071E+02  0.30014548652E+02  0.51100000000E-03 0.  1.
        -11    1    3    3    0    0  0.91215700924E+00  0.14756902770E+01  0.28550006047E+00  0.17581816598E+01  0.51100000000E-03 0. -1.
        -12    1    3    3    0    0 -0.12667576180E+02  0.58694680785E+01  0.78452083901E+01  0.16014538285E+02  0.00000000000E+00 0.  1.
</event>
<event>
 7    1  0.4450624E-010  0.4778727E+02  0.7816164E-02  0.1312668E+00
        -11   -1    0    0    0    0  0.00000000000E+00  0.00000000000E+00  0.45593999997E+02  0.45594000000E+02  0.51100000000E-03 0.  1.
         11   -1    0    0    0    0 -0.00000000000E+00 -0.00000000000E+00 -0.45593999997E+02  0.45594000000E+02  0.51100000000E-03 0. -1.
    9900012    2    1    2    0    0  0.32223810736E+02  0.10928376533E+02  0.26941044776E+02  0.47787270909E+02  0.19999999384E+02 0.  0.
         12    1    1    2    0    0 -0.32223810736E+02 -0.10928376533E+02 -0.26941044776E+02  0.43400729091E+02  0.00000000000E+00 0. -1.
         11    1    3    3    0    0  0.76682796512E+01  0.11242303920E+02  0.10525051204E+02  0.17203738354E+02  0.51100000000E-03 0. -1.
        -11    1    3    3    0    0  0.10451537664E+00  0.81454017171E+00  0.20350522350E+01  0.21945015415E+01  0.51100000000E-03 0.  1.
        -12    1    3    3    0    0  0.24451015708E+02 -0.11284675585E+01  0.14380941336E+02  0.28389031014E+02  0.00000000000E+00 0.  1.
</event>
<event>
 7    1  0.4450624E-010  0.4778727E+02  0.7816164E-02  0.1312668E+00
        -11   -1    0    0    0    0  0.00000000000E+00  0.00000000000E+00  0.45593999997E+02  0.45594000000E+02  0.51100000000E-03 0.  1.
         11   -1    0    0    0    0 -0.00000000000E+00 -0.00000000000E+00 -0.45593999997E+02  0.45594000000E+02  0.51100000000E-03 0. -1.
    9900012    2    1    2    0    0  0.17947251387E+02 -0.70632651812E+01  0.38879683365E+02  0.47787270445E+02  0.19999997265E+02 0.  0.
         12    1    1    2    0    0 -0.17947251387E+02  0.70632651812E+01 -0.38879683365E+02  0.43400729555E+02  0.00000000000E+00 0. -1.
         11    1    3    3    0    0  0.19559780177E+01  0.19841527830E+01  0.51809993444E+01  0.58826411364E+01  0.51100000000E-03 0. -1.
        -11    1    3    3    0    0  0.17198689154E+01  0.40621750585E+01  0.12139471424E+02  0.12916113270E+02  0.51100000000E-03 0.  1.
        -12    1    3    3    0    0  0.14271404453E+02 -0.13109593023E+02  0.21559212597E+02  0.28988516038E+02  0.00000000000E+00 0.  1.
</event>
<event>
 7    1  0.4450624E-010  0.4778727E+02  0.7816164E-02  0.1312668E+00
        -11   -1    0    0    0    0  0.00000000000E+00  0.00000000000E+00  0.45593999997E+02  0.45594000000E+02  0.51100000000E-03 0.  1.
         11   -1    0    0    0    0 -0.00000000000E+00 -0.00000000000E+00 -0.45593999997E+02  0.45594000000E+02  0.51100000000E-03 0. -1.
    9900012    2    1    2    0    0 -0.36497994965E+01 -0.15597414973E+02 -0.40336373894E+02  0.47787269025E+02  0.19999990794E+02 0.  0.
         12    1    1    2    0    0  0.36497994965E+01  0.15597414973E+02  0.40336373894E+02  0.43400730975E+02  0.00000000000E+00 0. -1.
         11    1    3    3    0    0 -0.86249942725E+00 -0.10655034744E+02 -0.20745358706E+02  0.23337600107E+02  0.51100000000E-03 0. -1.
        -11    1    3    3    0    0 -0.56101442986E+01 -0.84186747850E+01 -0.12802938226E+02  0.16317568191E+02  0.51100000000E-03 0.  1.
         12    1    3    3    0    0  0.28228442294E+01  0.34762945566E+01 -0.67880769622E+01  0.81321007269E+01  0.00000000000E+00 0. -1.
</event>
<event>
 7    1  0.4450624E-010  0.4778726E+02  0.7816164E-02  0.1312668E+00
        -11   -1    0    0    0    0  0.00000000000E+00  0.00000000000E+00  0.45593999997E+02  0.45594000000E+02  0.51100000000E-03 0.  1.
         11   -1    0    0    0    0 -0.00000000000E+00 -0.00000000000E+00 -0.45593999997E+02  0.45594000000E+02  0.51100000000E-03 0. -1.
    9900012    2    1    2    0    0 -0.19086516577E+02  0.32408337114E+02  0.21657065114E+02  0.47787263844E+02  0.19999967171E+02 0.  0.
         12    1    1    2    0    0  0.19086516577E+02 -0.32408337114E+02 -0.21657065114E+02  0.43400736156E+02  0.00000000000E+00 0. -1.
         11    1    3    3    0    0 -0.18326068337E+02  0.24285364270E+02  0.20211985473E+02  0.36525991505E+02  0.51100000000E-03 0.  1.
        -11    1    3    3    0    0 -0.13224772208E+01 -0.99067974950E+00  0.13436565450E+01  0.21297430685E+01  0.51100000000E-03 0. -1.
         12    1    3    3    0    0  0.56202898093E+00  0.91136525940E+01  0.10142309586E+00  0.91315292709E+01  0.00000000000E+00 0. -1.
</event>
<event>
 7    1  0.4450624E-010  0.4778727E+02  0.7816164E-02  0.1312668E+00
        -11   -1    0    0    0    0  0.00000000000E+00  0.00000000000E+00  0.45593999997E+02  0.45594000000E+02  0.51100000000E-03 0.  1.
         11   -1    0    0    0    0 -0.00000000000E+00 -0.00000000000E+00 -0.45593999997E+02  0.45594000000E+02  0.51100000000E-03 0. -1.
    9900012    2    1    2    0    0 -0.40217279887E+02  0.14836205826E+02  0.67882777343E+01  0.47787270520E+02  0.19999997607E+02 0.  0.
         12    1    1    2    0    0  0.40217279887E+02 -0.14836205826E+02 -0.67882777343E+01  0.43400729480E+02  0.00000000000E+00 0. -1.
         11    1    3    3    0    0 -0.53123866207E+01  0.45633644964E+00 -0.38411419968E+01  0.65714584884E+01  0.51100000000E-03 0. -1.
        -11    1    3    3    0    0 -0.14689540497E+02  0.19269689137E+01 -0.85708166562E+00  0.14840161672E+02  0.51100000000E-03 0.  1.
        -12    1    3    3    0    0 -0.20215352769E+02  0.12452900463E+02  0.11486501397E+02  0.26375650359E+02  0.00000000000E+00 0.  1.
</event>
<event>
 7    1  0.4450624E-010  0.4778727E+02  0.7816164E-02  0.1312668E+00
        -11   -1    0    0    0    0  0.00000000000E+00  0.00000000000E+00  0.45593999997E+02  0.45594000000E+02  0.51100000000E-03 0. -1.
         11   -1    0    0    0    0 -0.00000000000E+00 -0.00000000000E+00 -0.45593999997E+02  0.45594000000E+02  0.51100000000E-03 0.  1.
    9900012    2    1    2    0    0  0.42287473262E+02 -0.66880421932E+01  0.71177864138E+01  0.47787272049E+02  0.20000004580E+02 0.  0.
         12    1    1    2    0    0 -0.42287473262E+02  0.66880421932E+01 -0.71177864138E+01  0.43400727951E+02  0.00000000000E+00 0. -1.
         11    1    3    3    0    0  0.22416729531E+02 -0.42940332923E+01  0.50727278513E+01  0.23381211536E+02  0.51100000000E-03 0. -1.
        -11    1    3    3    0    0  0.13891034988E+02 -0.29862332533E+01 -0.50765512551E+01  0.15088068630E+02  0.51100000000E-03 0.  1.
         12    1    3    3    0    0  0.59797087432E+01  0.59222435243E+00  0.71216098176E+01  0.93179918830E+01  0.00000000000E+00 0. -1.
</event>
<event>
 7    1  0.4450624E-010  0.4778727E+02  0.7816164E-02  0.1312668E+00
        -11   -1    0    0    0    0  0.00000000000E+00  0.00000000000E+00  0.45593999997E+02  0.45594000000E+02  0.51100000000E-03 0.  1.
         11   -1    0    0    0    0 -0.00000000000E+00 -0.00000000000E+00 -0.45593999997E+02  0.45594000000E+02  0.51100000000E-03 0. -1.
    9900012    2    1    2    0    0  0.29537421901E+02 -0.45132078081E+01  0.31476896040E+02  0.47787270494E+02  0.19999997492E+02 0.  0.
         12    1    1    2    0    0 -0.29537421901E+02  0.45132078081E+01 -0.31476896040E+02  0.43400729506E+02  0.00000000000E+00 0. -1.
         11    1    3    3    0    0 -0.17083357791E+01 -0.72601359160E-02  0.63818434968E+00  0.18236620764E+01  0.51100000000E-03 0. -1.
        -11    1    3    3    0    0  0.12049331310E+02  0.44416570041E+01  0.12991726978E+02  0.18267448428E+02  0.51100000000E-03 0.  1.
         12    1    3    3    0    0  0.19196426370E+02 -0.89476046763E+01  0.17846984713E+02  0.27696159990E+02  0.00000000000E+00 0. -1.
</event>
<event>
 7    1  0.4450624E-010  0.4778727E+02  0.7816164E-02  0.1312668E+00
        -11   -1    0    0    0    0  0.00000000000E+00  0.00000000000E+00  0.45593999997E+02  0.45594000000E+02  0.51100000000E-03 0. -1.
         11   -1    0    0    0    0 -0.00000000000E+00 -0.00000000000E+00 -0.45593999997E+02  0.45594000000E+02  0.51100000000E-03 0.  1.
    9900012    2    1    2    0    0  0.52249002786E+00  0.35417277781E+02 -0.25079208716E+02  0.47787271077E+02  0.20000000148E+02 0.  0.
         12    1    1    2    0    0 -0.52249002786E+00 -0.35417277781E+02  0.25079208716E+02  0.43400728923E+02  0.00000000000E+00 0. -1.
         11    1    3    3    0    0 -0.45310366324E+01  0.30354080150E+02 -0.16315303591E+02  0.34757583435E+02  0.51100000000E-03 0. -1.
        -11    1    3    3    0    0 -0.12422029649E-01  0.35833249070E+01 -0.62027119482E+01  0.71633796122E+01  0.51100000000E-03 0.  1.
         12    1    3    3    0    0  0.50659486899E+01  0.14798727235E+01 -0.25611931770E+01  0.58663080295E+01  0.00000000000E+00 0. -1.
</event>
<event>
 7    1  0.4450624E-010  0.4778723E+02  0.7816164E-02  0.1312668E+00
        -11   -1    0    0    0    0  0.00000000000E+00  0.00000000000E+00  0.45593999997E+02  0.45594000000E+02  0.51100000000E-03 0.  1.
         11   -1    0    0    0    0 -0.00000000000E+00 -0.00000000000E+00 -0.45593999997E+02  0.45594000000E+02  0.51100000000E-03 0. -1.
    9900012    2    1    2    0    0  0.31181606125E+01 -0.87229273168E+01  0.42400639204E+02  0.47787232824E+02  0.19999825735E+02 0.  0.
         12    1    1    2    0    0 -0.31181606125E+01  0.87229273168E+01 -0.42400639204E+02  0.43400767176E+02  0.00000000000E+00 0. -1.
         11    1    3    3    0    0  0.28994417846E+01 -0.45183030129E+01  0.34007381789E+01  0.63550645316E+01  0.51100000000E-03 0. -1.
        -11    1    3    3    0    0 -0.25816639644E+01 -0.55713587618E+01  0.71273994657E+01  0.94077016685E+01  0.51100000000E-03 0.  1.
         12    1    3    3    0    0  0.28003827923E+01  0.13667344579E+01  0.31872501560E+02  0.32024466624E+02  0.00000000000E+00 0. -1.
</event>
<event>
 7    1  0.4450624E-010  0.4778727E+02  0.7816164E-02  0.1312668E+00
        -11   -1    0    0    0    0  0.00000000000E+00  0.00000000000E+00  0.45593999997E+02  0.45594000000E+02  0.51100000000E-03 0.  1.
         11   -1    0    0    0    0 -0.00000000000E+00 -0.00000000000E+00 -0.45593999997E+02  0.45594000000E+02  0.51100000000E-03 0. -1.
    9900012    2    1    2    0    0 -0.30636015002E+02 -0.26483636082E+01  0.30627508749E+02  0.47787268011E+02  0.19999986169E+02 0.  0.
         12    1    1    2    0    0  0.30636015002E+02  0.26483636082E+01 -0.30627508749E+02  0.43400731989E+02  0.00000000000E+00 0. -1.
         11    1    3    3    0    0 -0.13918003427E+02  0.48731595268E+01  0.11916604643E+02  0.18959535059E+02  0.51100000000E-03 0. -1.
        -11    1    3    3    0    0 -0.15732308531E+02 -0.14719714724E+01  0.13482893765E+02  0.20771631045E+02  0.51100000000E-03 0.  1.
         12    1    3    3    0    0 -0.98570304405E+00 -0.60495516626E+01  0.52280103415E+01  0.80561019073E+01  0.00000000000E+00 0. -1.
</event>
<event>
 7    1  0.4450624E-010  0.4778727E+02  0.7816164E-02  0.1312668E+00
        -11   -1    0    0    0    0  0.00000000000E+00  0.00000000000E+00  0.45593999997E+02  0.45594000000E+02  0.51100000000E-03 0.  1.
         11   -1    0    0    0    0 -0.00000000000E+00 -0.00000000000E+00 -0.45593999997E+02  0.45594000000E+02  0.51100000000E-03 0. -1.
    9900012    2    1    2    0    0 -0.29109275732E+02 -0.32052929507E+02 -0.29804446253E+01  0.47787271045E+02  0.20000000004E+02 0.  0.
         12    1    1    2    0    0  0.29109275732E+02  0.32052929507E+02  0.29804446253E+01  0.43400728955E+02  0.00000000000E+00 0. -1.
         11    1    3    3    0    0 -0.95342401581E+01 -0.31480170423E+01 -0.27272293159E+01  0.10404303278E+02  0.51100000000E-03 0. -1.
        -11    1    3    3    0    0 -0.11948599024E+02 -0.10292565381E+02 -0.53143731417E+01  0.16641769224E+02  0.51100000000E-03 0.  1.
         12    1    3    3    0    0 -0.76264365498E+01 -0.18612347084E+02  0.50611578323E+01  0.20741198544E+02  0.00000000000E+00 0. -1.
</event>
<event>
 7    1  0.4450624E-010  0.4778727E+02  0.7816164E-02  0.1312668E+00
        -11   -1    0    0    0    0  0.00000000000E+00  0.00000000000E+00  0.45593999997E+02  0.45594000000E+02  0.51100000000E-03 0. -1.
         11   -1    0    0    0    0 -0.00000000000E+00 -0.00000000000E+00 -0.45593999997E+02  0.45594000000E+02  0.51100000000E-03 0.  1.
    9900012    2    1    2    0    0 -0.32371863642E+02  0.52305025955E+01  0.28431100923E+02  0.47787271748E+02  0.20000003209E+02 0.  0.
         12    1    1    2    0    0  0.32371863642E+02 -0.52305025955E+01 -0.28431100923E+02  0.43400728252E+02  0.00000000000E+00 0. -1.
         11    1    3    3    0    0 -0.61997975271E+01  0.24783390690E+01  0.58410620679E+01  0.88711701742E+01  0.51100000000E-03 0. -1.
        -11    1    3    3    0    0 -0.27413582219E+02  0.60634709413E+01  0.20872191996E+02  0.34984547574E+02  0.51100000000E-03 0.  1.
         12    1    3    3    0    0  0.12415161034E+01 -0.33113074147E+01  0.17178468587E+01  0.39315540006E+01  0.00000000000E+00 0. -1.
</event>
<event>
 7    1  0.4450624E-010  0.4778727E+02  0.7816164E-02  0.1312668E+00
        -11   -1    0    0    0    0  0.00000000000E+00  0.00000000000E+00  0.45593999997E+02  0.45594000000E+02  0.51100000000E-03 0. -1.
         11   -1    0    0    0    0 -0.00000000000E+00 -0.00000000000E+00 -0.45593999997E+02  0.45594000000E+02  0.51100000000E-03 0.  1.
    9900012    2    1    2    0    0 -0.95970272002E+01 -0.37044941539E+02 -0.20474190819E+02  0.47787272882E+02  0.20000008377E+02 0.  0.
         12    1    1    2    0    0  0.95970272002E+01  0.37044941539E+02  0.20474190819E+02  0.43400727118E+02  0.00000000000E+00 0. -1.
         11    1    3    3    0    0 -0.44742339028E+01 -0.41938318717E+01 -0.80412408807E+01  0.10112791402E+02  0.51100000000E-03 0. -1.
        -11    1    3    3    0    0 -0.44767704783E+01 -0.71090014144E+01 -0.78926282750E+01  0.11527053239E+02  0.51100000000E-03 0.  1.
         12    1    3    3    0    0 -0.64602281908E+00 -0.25742108253E+02 -0.45403216632E+01  0.26147428240E+02  0.00000000000E+00 0. -1.
</event>
<event>
 7    1  0.4450624E-010  0.4778726E+02  0.7816164E-02  0.1312668E+00
        -11   -1    0    0    0    0  0.00000000000E+00  0.00000000000E+00  0.45593999997E+02  0.45594000000E+02  0.51100000000E-03 0.  1.
         11   -1    0    0    0    0 -0.00000000000E+00 -0.00000000000E+00 -0.45593999997E+02  0.45594000000E+02  0.51100000000E-03 0. -1.
    9900012    2    1    2    0    0  0.39254313657E+02  0.65307318078E+01  0.17322614345E+02  0.47787256154E+02  0.19999932108E+02 0.  0.
         12    1    1    2    0    0 -0.39254313657E+02 -0.65307318078E+01 -0.17322614345E+02  0.43400743846E+02  0.00000000000E+00 0. -1.
         11    1    3    3    0    0  0.14481145108E+01  0.43093168396E+01 -0.98049349558E+00  0.46506574821E+01  0.51100000000E-03 0. -1.
        -11    1    3    3    0    0  0.99522362181E+01  0.37026662952E+01  0.83930331402E+01  0.13535130180E+02  0.51100000000E-03 0.  1.
         12    1    3    3    0    0  0.27853962928E+02 -0.14812513270E+01  0.99100747002E+01  0.29601468492E+02  0.00000000000E+00 0. -1.
</event>
<event>
 7    1  0.4450624E-010  0.4778727E+02  0.7816164E-02  0.1312668E+00
        -11   -1    0    0    0    0  0.00000000000E+00  0.00000000000E+00  0.45593999997E+02  0.45594000000E+02  0.51100000000E-03 0.  1.
         11   -1    0    0    0    0 -0.00000000000E+00 -0.00000000000E+00 -0.45593999997E+02  0.45594000000E+02  0.51100000000E-03 0. -1.
    9900012    2    1    2    0    0  0.17184727373E+02  0.39742982438E+02 -0.29670960145E+01  0.47787272279E+02  0.20000005631E+02 0.  0.
         12    1    1    2    0    0 -0.17184727373E+02 -0.39742982438E+02  0.29670960145E+01  0.43400727721E+02  0.00000000000E+00 0. -1.
         11    1    3    3    0    0  0.11816400306E+02  0.14136505543E+02 -0.87791302010E+01  0.20409341795E+02  0.51100000000E-03 0. -1.
        -11    1    3    3    0    0 -0.11055459919E+01  0.24580828259E+01  0.92473384055E+00  0.28494799624E+01  0.51100000000E-03 0.  1.
        -12    1    3    3    0    0  0.64738730588E+01  0.23148394068E+02  0.48873003460E+01  0.24528450522E+02  0.00000000000E+00 0.  1.
</event>
<event>
 7    1  0.4450624E-010  0.4778727E+02  0.7816164E-02  0.1312668E+00
        -11   -1    0    0    0    0  0.00000000000E+00  0.00000000000E+00  0.45593999997E+02  0.45594000000E+02  0.51100000000E-03 0. -1.
         11   -1    0    0    0    0 -0.00000000000E+00 -0.00000000000E+00 -0.45593999997E+02  0.45594000000E+02  0.51100000000E-03 0.  1.
    9900012    2    1    2    0    0 -0.24211116841E+02 -0.32431790490E+02 -0.15672393797E+02  0.47787272583E+02  0.20000007013E+02 0.  0.
         12    1    1    2    0    0  0.24211116841E+02  0.32431790490E+02  0.15672393797E+02  0.43400727417E+02  0.00000000000E+00 0. -1.
         11    1    3    3    0    0 -0.96594664581E+01 -0.12982844129E+02  0.83374705162E+00  0.16203538760E+02  0.51100000000E-03 0. -1.
        -11    1    3    3    0    0 -0.98305009012E+01 -0.16828830979E+02 -0.71088803375E+01  0.20745709918E+02  0.51100000000E-03 0.  1.
         12    1    3    3    0    0 -0.47211494813E+01 -0.26201153809E+01 -0.93972605111E+01  0.10838023904E+02  0.00000000000E+00 0. -1.
</event>
<event>
 7    1  0.4450624E-010  0.4778727E+02  0.7816164E-02  0.1312668E+00
        -11   -1    0    0    0    0  0.00000000000E+00  0.00000000000E+00  0.45593999997E+02  0.45594000000E+02  0.51100000000E-03 0.  1.
         11   -1    0    0    0    0 -0.00000000000E+00 -0.00000000000E+00 -0.45593999997E+02  0.45594000000E+02  0.51100000000E-03 0. -1.
    9900012    2    1    2    0    0 -0.92925018198E+00 -0.99009474394E+01  0.42246079311E+02  0.47787268633E+02  0.19999989003E+02 0.  0.
         12    1    1    2    0    0  0.92925018198E+00  0.99009474394E+01 -0.42246079311E+02  0.43400731367E+02  0.00000000000E+00 0. -1.
         11    1    3    3    0    0  0.47220774293E+01 -0.20800922437E+01  0.42902339697E+01  0.67105071914E+01  0.51100000000E-03 0. -1.
        -11    1    3    3    0    0 -0.32547336345E+01 -0.82923813862E+01  0.11688946836E+02  0.14696542398E+02  0.51100000000E-03 0.  1.
         12    1    3    3    0    0 -0.23965939767E+01  0.47152619043E+00  0.26266898506E+02  0.26380219043E+02  0.00000000000E+00 0. -1.
</event>
<event>
 7    1  0.4450624E-010  0.4778727E+02  0.7816164E-02  0.1312668E+00
        -11   -1    0    0    0    0  0.00000000000E+00  0.00000000000E+00  0.45593999997E+02  0.45594000000E+02  0.51100000000E-03 0. -1.
         11   -1    0    0    0    0 -0.00000000000E+00 -0.00000000000E+00 -0.45593999997E+02  0.45594000000E+02  0.51100000000E-03 0.  1.
    9900012    2    1    2    0    0 -0.39734285377E+01  0.30317731078E+02 -0.30800492232E+02  0.47787271045E+02  0.20000000004E+02 0.  0.
         12    1    1    2    0    0  0.39734285377E+01 -0.30317731078E+02  0.30800492232E+02  0.43400728955E+02  0.00000000000E+00 0. -1.
         11    1    3    3    0    0  0.68004901807E+00  0.73224934599E+01 -0.12199796953E+01  0.74545105711E+01  0.51100000000E-03 0. -1.
        -11    1    3    3    0    0 -0.38745361226E+01  0.13556512296E+02 -0.67826355839E+01  0.15645932427E+02  0.51100000000E-03 0.  1.
        -12    1    3    3    0    0 -0.77894143311E+00  0.94387253224E+01 -0.22797876953E+02  0.24686828047E+02  0.00000000000E+00 0.  1.
</event>
<event>
 7    1  0.4450624E-010  0.4778728E+02  0.7816164E-02  0.1312668E+00
        -11   -1    0    0    0    0  0.00000000000E+00  0.00000000000E+00  0.45593999997E+02  0.45594000000E+02  0.51100000000E-03 0. -1.
         11   -1    0    0    0    0 -0.00000000000E+00 -0.00000000000E+00 -0.45593999997E+02  0.45594000000E+02  0.51100000000E-03 0.  1.
    9900012    2    1    2    0    0 -0.17069851464E+02 -0.34818468640E+02  0.19491457710E+02  0.47787279832E+02  0.20000040066E+02 0.  0.
         12    1    1    2    0    0  0.17069851464E+02  0.34818468640E+02 -0.19491457710E+02  0.43400720168E+02  0.00000000000E+00 0. -1.
         11    1    3    3    0    0  0.87613008059E+00 -0.59777963279E+01  0.78069781317E+01  0.98717050537E+01  0.51100000000E-03 0. -1.
        -11    1    3    3    0    0 -0.11026092302E+02 -0.11668998916E+02  0.10862366577E+02  0.19383788460E+02  0.51100000000E-03 0.  1.
        -12    1    3    3    0    0 -0.69198892426E+01 -0.17171673396E+02  0.82211300116E+00  0.18531786318E+02  0.00000000000E+00 0.  1.
</event>
<event>
 7    1  0.4450624E-010  0.4778726E+02  0.7816164E-02  0.1312668E+00
        -11   -1    0    0    0    0  0.00000000000E+00  0.00000000000E+00  0.45593999997E+02  0.45594000000E+02  0.51100000000E-03 0.  1.
         11   -1    0    0    0    0 -0.00000000000E+00 -0.00000000000E+00 -0.45593999997E+02  0.45594000000E+02  0.51100000000E-03 0. -1.
    9900012    2    1    2    0    0 -0.19413155361E+01 -0.14899993628E+02  0.40716649765E+02  0.47787261709E+02  0.19999957436E+02 0.  0.
         12    1    1    2    0    0  0.19413155361E+01  0.14899993628E+02 -0.40716649765E+02  0.43400738291E+02  0.00000000000E+00 0. -1.
         11    1    3    3    0    0  0.30078471760E+01 -0.61773354040E+01  0.17209111390E+02  0.18529979289E+02  0.51100000000E-03 0. -1.
        -11    1    3    3    0    0 -0.47290028569E+01 -0.15818333148E+01  0.21156417827E+02  0.21736137655E+02  0.51100000000E-03 0.  1.
        -12    1    3    3    0    0 -0.22015985524E+00 -0.71408249094E+01  0.23511205477E+01  0.75211447651E+01  0.00000000000E+00 0.  1.
</event>
<event>
 7    1  0.4450624E-010  0.4778727E+02  0.7816164E-02  0.1312668E+00
        -11   -1    0    0    0    0  0.00000000000E+00  0.00000000000E+00  0.45593999997E+02  0.45594000000E+02  0.51100000000E-03 0.  1.
         11   -1    0    0    0    0 -0.00000000000E+00 -0.00000000000E+00 -0.45593999997E+02  0.45594000000E+02  0.51100000000E-03 0. -1.
    9900012    2    1    2    0    0 -0.42573634252E+02 -0.65678580920E+01  0.52888837827E+01  0.47787269764E+02  0.19999994164E+02 0.  0.
         12    1    1    2    0    0  0.42573634252E+02  0.65678580920E+01 -0.52888837827E+01  0.43400730236E+02  0.00000000000E+00 0. -1.
         11    1    3    3    0    0 -0.85992717097E+00 -0.42739493744E+00 -0.12533738825E+01  0.15789513996E+01  0.51100000000E-03 0. -1.
        -11    1    3    3    0    0 -0.18458321576E+02  0.49497403545E+01  0.72361156640E+01  0.20434552482E+02  0.51100000000E-03 0.  1.
        -12    1    3    3    0    0 -0.23255385505E+02 -0.11090203509E+02 -0.69385799886E+00  0.25773765883E+02  0.00000000000E+00 0.  1.
</event>
<event>
 7    1  0.4450624E-010  0.4778726E+02  0.7816164E-02  0.1312668E+00
        -11   -1    0    0    0    0  0.00000000000E+00  0.00000000000E+00  0.45593999997E+02  0.45594000000E+02  0.51100000000E-03 0.  1.
         11   -1    0    0    0    0 -0.00000000000E+00 -0.00000000000E+00 -0.45593999997E+02  0.45594000000E+02  0.51100000000E-03 0. -1.
    9900012    2    1    2    0    0 -0.36659449173E+02  0.12088675660E+02  0.19838678968E+02  0.47787257194E+02  0.19999936850E+02 0.  0.
         12    1    1    2    0    0  0.36659449173E+02 -0.12088675660E+02 -0.19838678968E+02  0.43400742806E+02  0.00000000000E+00 0. -1.
         11    1    3    3    0    0 -0.29072714530E+01  0.14360459458E+01  0.74706889609E+01  0.81440560577E+01  0.51100000000E-03 0. -1.
        -11    1    3    3    0    0 -0.15296716396E+02  0.78150884390E+01  0.12024132624E+02  0.20967711020E+02  0.51100000000E-03 0.  1.
        -12    1    3    3    0    0 -0.18455461324E+02  0.28375412753E+01  0.34385738373E+00  0.18675490116E+02  0.00000000000E+00 0.  1.
</event>
<event>
 7    1  0.4450624E-010  0.4778727E+02  0.7816164E-02  0.1312668E+00
        -11   -1    0    0    0    0  0.00000000000E+00  0.00000000000E+00  0.45593999997E+02  0.45594000000E+02  0.51100000000E-03 0. -1.
         11   -1    0    0    0    0 -0.00000000000E+00 -0.00000000000E+00 -0.45593999997E+02  0.45594000000E+02  0.51100000000E-03 0.  1.
    9900012    2    1    2    0    0 -0.27586367857E+02  0.27100144327E+02 -0.19702736678E+02  0.47787270206E+02  0.19999996177E+02 0.  0.
         12    1    1    2    0    0  0.27586367857E+02 -0.27100144327E+02  0.19702736678E+02  0.43400729794E+02  0.00000000000E+00 0. -1.
         11    1    3    3    0    0  0.26056787042E+00  0.13116928986E+01 -0.17098210156E+01  0.21706962113E+01  0.51100000000E-03 0. -1.
        -11    1    3    3    0    0  0.43438433025E+00  0.63426901436E+01  0.92828528516E+00  0.64249608432E+01  0.51100000000E-03 0.  1.
        -12    1    3    3    0    0 -0.28281320057E+02  0.19445761285E+02 -0.18921200947E+02  0.39191613151E+02  0.00000000000E+00 0.  1.
</event>
<event>
 7    1  0.4450624E-010  0.4778727E+02  0.7816164E-02  0.1312668E+00
        -11   -1    0    0    0    0  0.00000000000E+00  0.00000000000E+00  0.45593999997E+02  0.45594000000E+02  0.51100000000E-03 0. -1.
         11   -1    0    0    0    0 -0.00000000000E+00 -0.00000000000E+00 -0.45593999997E+02  0.45594000000E+02  0.51100000000E-03 0.  1.
    9900012    2    1    2    0    0  0.32821585332E+02 -0.43420527561E+01 -0.28062673295E+02  0.47787268229E+02  0.19999987163E+02 0.  0.
         12    1    1    2    0    0 -0.32821585332E+02  0.43420527561E+01  0.28062673295E+02  0.43400731771E+02  0.00000000000E+00 0. -1.
         11    1    3    3    0    0  0.87361170107E+01  0.31214577140E+01 -0.47862216875E+01  0.10438925088E+02  0.51100000000E-03 0. -1.
        -11    1    3    3    0    0 -0.11890932338E+00 -0.18203415432E+00 -0.76055485168E+01  0.76086558841E+01  0.51100000000E-03 0.  1.
        -12    1    3    3    0    0  0.24204377644E+02 -0.72814763158E+01 -0.15670903090E+02  0.29739687257E+02  0.00000000000E+00 0.  1.
</event>
<event>
 7    1  0.4450624E-010  0.4778727E+02  0.7816164E-02  0.1312668E+00
        -11   -1    0    0    0    0  0.00000000000E+00  0.00000000000E+00  0.45593999997E+02  0.45594000000E+02  0.51100000000E-03 0.  1.
         11   -1    0    0    0    0 -0.00000000000E+00 -0.00000000000E+00 -0.45593999997E+02  0.45594000000E+02  0.51100000000E-03 0. -1.
    9900012    2    1    2    0    0 -0.64754740962E+01 -0.34151358406E+02  0.25987998984E+02  0.47787272622E+02  0.20000007194E+02 0.  0.
         12    1    1    2    0    0  0.64754740962E+01  0.34151358406E+02 -0.25987998984E+02  0.43400727378E+02  0.00000000000E+00 0. -1.
         11    1    3    3    0    0  0.40392826948E+01 -0.13647814320E+02  0.12051375298E+02  0.18649779817E+02  0.51100000000E-03 0. -1.
        -11    1    3    3    0    0 -0.59971739212E+01 -0.18738341951E+01  0.47717866094E+01  0.78896956430E+01  0.51100000000E-03 0.  1.
         12    1    3    3    0    0 -0.45175828698E+01 -0.18629709891E+02  0.91648370763E+01  0.21247797162E+02  0.00000000000E+00 0. -1.
</event>
<event>
 7    1  0.4450624E-010  0.4778726E+02  0.7816164E-02  0.1312668E+00
        -11   -1    0    0    0    0  0.00000000000E+00  0.00000000000E+00  0.45593999997E+02  0.45594000000E+02  0.51100000000E-03 0. -1.
         11   -1    0    0    0    0 -0.00000000000E+00 -0.00000000000E+00 -0.45593999997E+02  0.45594000000E+02  0.51100000000E-03 0.  1.
    9900012    2    1    2    0    0 -0.33514709969E+02  0.24275147680E+02  0.13080725440E+02  0.47787263172E+02  0.19999964105E+02 0.  0.
         12    1    1    2    0    0  0.33514709969E+02 -0.24275147680E+02 -0.13080725440E+02  0.43400736828E+02  0.00000000000E+00 0. -1.
         11    1    3    3    0    0 -0.75736084195E+01  0.61808655782E+01 -0.98835089178E+00  0.98254507038E+01  0.51100000000E-03 0. -1.
        -11    1    3    3    0    0 -0.13751622515E+02  0.48253639902E+00  0.42643409188E+01  0.14405712995E+02  0.51100000000E-03 0.  1.
         12    1    3    3    0    0 -0.12189479035E+02  0.17611745703E+02  0.98047354134E+01  0.23556099472E+02  0.00000000000E+00 0. -1.
</event>
<event>
 7    1  0.4450624E-010  0.4778725E+02  0.7816164E-02  0.1312668E+00
        -11   -1    0    0    0    0  0.00000000000E+00  0.00000000000E+00  0.45593999997E+02  0.45594000000E+02  0.51100000000E-03 0. -1.
         11   -1    0    0    0    0 -0.00000000000E+00 -0.00000000000E+00 -0.45593999997E+02  0.45594000000E+02  0.51100000000E-03 0.  1.
    9900012    2    1    2    0    0  0.27521046911E+02 -0.32898257010E+02 -0.66273440684E+01  0.47787250850E+02  0.19999907926E+02 0.  0.
         12    1    1    2    0    0 -0.27521046911E+02  0.32898257010E+02  0.66273440684E+01  0.43400749150E+02  0.00000000000E+00 0. -1.
         11    1    3    3    0    0  0.76717250823E+01 -0.99777138432E+01 -0.99782872565E+01  0.16061642385E+02  0.51100000000E-03 0. -1.
        -11    1    3    3    0    0  0.25744513675E+01 -0.28166271013E+01 -0.25250843595E+01  0.45757228232E+01  0.51100000000E-03 0.  1.
        -12    1    3    3    0    0  0.17274870462E+02 -0.20103916065E+02  0.58760275475E+01  0.27149885642E+02  0.00000000000E+00 0.  1.
</event>
<event>
 7    1  0.4450624E-010  0.4778727E+02  0.7816164E-02  0.1312668E+00
        -11   -1    0    0    0    0  0.00000000000E+00  0.00000000000E+00  0.45593999997E+02  0.45594000000E+02  0.51100000000E-03 0.  1.
         11   -1    0    0    0    0 -0.00000000000E+00 -0.00000000000E+00 -0.45593999997E+02  0.45594000000E+02  0.51100000000E-03 0. -1.
    9900012    2    1    2    0    0  0.99717216096E+01 -0.17902304841E+02  0.38258270822E+02  0.47787273776E+02  0.20000012454E+02 0.  0.
         12    1    1    2    0    0 -0.99717216096E+01  0.17902304841E+02 -0.38258270822E+02  0.43400726224E+02  0.00000000000E+00 0. -1.
         11    1    3    3    0    0  0.37815615824E+01  0.17652159403E+01  0.76934714082E+01  0.87524681027E+01  0.51100000000E-03 0. -1.
        -11    1    3    3    0    0  0.51679887852E+01 -0.78123677870E+00  0.84402611303E+01  0.99275599821E+01  0.51100000000E-03 0.  1.
        -12    1    3    3    0    0  0.10221712420E+01 -0.18886284002E+02  0.22124538284E+02  0.29107245691E+02  0.00000000000E+00 0.  1.
</event>
<event>
 7    1  0.4450624E-010  0.4778727E+02  0.7816164E-02  0.1312668E+00
        -11   -1    0    0    0    0  0.00000000000E+00  0.00000000000E+00  0.45593999997E+02  0.45594000000E+02  0.51100000000E-03 0.  1.
         11   -1    0    0    0    0 -0.00000000000E+00 -0.00000000000E+00 -0.45593999997E+02  0.45594000000E+02  0.51100000000E-03 0. -1.
    9900012    2    1    2    0    0 -0.41903243678E+02  0.18654373276E-01  0.11302266374E+02  0.47787269546E+02  0.19999993170E+02 0.  0.
         12    1    1    2    0    0  0.41903243678E+02 -0.18654373276E-01 -0.11302266374E+02  0.43400730454E+02  0.00000000000E+00 0. -1.
         11    1    3    3    0    0 -0.89418252295E+01  0.51007640584E+01  0.47130976943E+01  0.11321984038E+02  0.51100000000E-03 0. -1.
        -11    1    3    3    0    0 -0.19534671098E+02 -0.29042015514E+01  0.10425729638E+02  0.22332344264E+02  0.51100000000E-03 0.  1.
         12    1    3    3    0    0 -0.13426747350E+02 -0.21779081337E+01 -0.38365609583E+01  0.14132941245E+02  0.00000000000E+00 0. -1.
</event>
<event>
 7    1  0.4450624E-010  0.4778727E+02  0.7816164E-02  0.1312668E+00
        -11   -1    0    0    0    0  0.00000000000E+00  0.00000000000E+00  0.45593999997E+02  0.45594000000E+02  0.51100000000E-03 0.  1.
         11   -1    0    0    0    0 -0.00000000000E+00 -0.00000000000E+00 -0.45593999997E+02  0.45594000000E+02  0.51100000000E-03 0. -1.
    9900012    2    1    2    0    0  0.42163194300E+02 -0.52177211233E+01  0.88692514058E+01  0.47787272036E+02  0.20000004519E+02 0.  0.
         12    1    1    2    0    0 -0.42163194300E+02  0.52177211233E+01 -0.88692514058E+01  0.43400727964E+02  0.00000000000E+00 0. -1.
         11    1    3    3    0    0  0.12090953629E+02 -0.30340454856E+00  0.80126079093E+01  0.14508104623E+02  0.51100000000E-03 0. -1.
        -11    1    3    3    0    0  0.15247287169E+02 -0.63048703820E+01  0.59539442663E+01  0.17540826923E+02  0.51100000000E-03 0.  1.
         12    1    3    3    0    0  0.14824953502E+02  0.13905538072E+01 -0.50973007698E+01  0.15738340490E+02  0.00000000000E+00 0. -1.
</event>
<event>
 7    1  0.4450624E-010  0.4778727E+02  0.7816164E-02  0.1312668E+00
        -11   -1    0    0    0    0  0.00000000000E+00  0.00000000000E+00  0.45593999997E+02  0.45594000000E+02  0.51100000000E-03 0.  1.
         11   -1    0    0    0    0 -0.00000000000E+00 -0.00000000000E+00 -0.45593999997E+02  0.45594000000E+02  0.51100000000E-03 0. -1.
    9900012    2    1    2    0    0  0.15442389409E+02 -0.88104982160E+01  0.39592053788E+02  0.47787274284E+02  0.20000014771E+02 0.  0.
         12    1    1    2    0    0 -0.15442389409E+02  0.88104982160E+01 -0.39592053788E+02  0.43400725716E+02  0.00000000000E+00 0. -1.
         11    1    3    3    0    0  0.13059136662E+01  0.32141901957E+01  0.20186025726E+01  0.40138741541E+01  0.51100000000E-03 0. -1.
        -11    1    3    3    0    0  0.85514391818E+01 -0.10708480536E+01  0.80546457547E+01  0.11796234405E+02  0.51100000000E-03 0.  1.
         12    1    3    3    0    0  0.55850365615E+01 -0.10953840358E+02  0.29518805461E+02  0.31977165725E+02  0.00000000000E+00 0. -1.
</event>
<event>
 7    1  0.4450624E-010  0.4778727E+02  0.7816164E-02  0.1312668E+00
        -11   -1    0    0    0    0  0.00000000000E+00  0.00000000000E+00  0.45593999997E+02  0.45594000000E+02  0.51100000000E-03 0.  1.
         11   -1    0    0    0    0 -0.00000000000E+00 -0.00000000000E+00 -0.45593999997E+02  0.45594000000E+02  0.51100000000E-03 0. -1.
    9900012    2    1    2    0    0 -0.32054801223E+02 -0.76454226059E+01  0.28242883028E+02  0.47787271780E+02  0.20000003352E+02 0.  0.
         12    1    1    2    0    0  0.32054801223E+02  0.76454226059E+01 -0.28242883028E+02  0.43400728220E+02  0.00000000000E+00 0. -1.
         11    1    3    3    0    0 -0.24761359757E+01 -0.35079777105E+01  0.22340966068E+01  0.48402835555E+01  0.51100000000E-03 0. -1.
        -11    1    3    3    0    0 -0.97104362332E+01 -0.35347573283E+01  0.19433743883E+02  0.22010394880E+02  0.51100000000E-03 0.  1.
         12    1    3    3    0    0 -0.19868229014E+02 -0.60268756717E+00  0.65750425387E+01  0.20936593344E+02  0.00000000000E+00 0. -1.
</event>
<event>
 7    1  0.4450624E-010  0.4778727E+02  0.7816164E-02  0.1312668E+00
        -11   -1    0    0    0    0  0.00000000000E+00  0.00000000000E+00  0.45593999997E+02  0.45594000000E+02  0.51100000000E-03 0. -1.
         11   -1    0    0    0    0 -0.00000000000E+00 -0.00000000000E+00 -0.45593999997E+02  0.45594000000E+02  0.51100000000E-03 0.  1.
    9900012    2    1    2    0    0 -0.19524905268E+02 -0.19452406190E+02 -0.33526188124E+02  0.47787270485E+02  0.19999997451E+02 0.  0.
         12    1    1    2    0    0  0.19524905268E+02  0.19452406190E+02  0.33526188124E+02  0.43400729515E+02  0.00000000000E+00 0. -1.
         11    1    3    3    0    0 -0.12892198581E+01  0.28701804087E+01 -0.11088835647E+01  0.33361124745E+01  0.51100000000E-03 0. -1.
        -11    1    3    3    0    0 -0.31996801604E+01 -0.10424067425E+01 -0.76029844238E+00  0.34500172359E+01  0.51100000000E-03 0.  1.
        -12    1    3    3    0    0 -0.15036005250E+02 -0.21280179856E+02 -0.31657006116E+02  0.41001140775E+02  0.00000000000E+00 0.  1.
</event>
<event>
 7    1  0.4450624E-010  0.4778727E+02  0.7816164E-02  0.1312668E+00
        -11   -1    0    0    0    0  0.00000000000E+00  0.00000000000E+00  0.45593999997E+02  0.45594000000E+02  0.51100000000E-03 0.  1.
         11   -1    0    0    0    0 -0.00000000000E+00 -0.00000000000E+00 -0.45593999997E+02  0.45594000000E+02  0.51100000000E-03 0. -1.
    9900012    2    1    2    0    0 -0.32120315649E+02  0.12370857801E+02  0.26436158376E+02  0.47787271092E+02  0.20000000215E+02 0.  0.
         12    1    1    2    0    0  0.32120315649E+02 -0.12370857801E+02 -0.26436158376E+02  0.43400728908E+02  0.00000000000E+00 0. -1.
         11    1    3    3    0    0 -0.14903114563E+02  0.25274304731E+01  0.40965909743E+01  0.15661187259E+02  0.51100000000E-03 0. -1.
        -11    1    3    3    0    0 -0.34954669337E+01 -0.18122038815E+01  0.73864464605E+00  0.40059915336E+01  0.51100000000E-03 0.  1.
        -12    1    3    3    0    0 -0.13721734152E+02  0.11655631210E+02  0.21600922756E+02  0.28120092299E+02  0.00000000000E+00 0.  1.
</event>
<event>
 7    1  0.4450624E-010  0.4778727E+02  0.7816164E-02  0.1312668E+00
        -11   -1    0    0    0    0  0.00000000000E+00  0.00000000000E+00  0.45593999997E+02  0.45594000000E+02  0.51100000000E-03 0. -1.
         11   -1    0    0    0    0 -0.00000000000E+00 -0.00000000000E+00 -0.45593999997E+02  0.45594000000E+02  0.51100000000E-03 0.  1.
    9900012    2    1    2    0    0 -0.26503043240E+02 -0.15101109978E+02 -0.30873422754E+02  0.47787273554E+02  0.20000011440E+02 0.  0.
         12    1    1    2    0    0  0.26503043240E+02  0.15101109978E+02  0.30873422754E+02  0.43400726446E+02  0.00000000000E+00 0. -1.
         11    1    3    3    0    0 -0.28337959947E+01  0.14123702951E+01 -0.95936583098E+01  0.10102646664E+02  0.51100000000E-03 0. -1.
        -11    1    3    3    0    0 -0.35219222071E+01  0.13059914514E+01 -0.49671089933E+01  0.62274972273E+01  0.51100000000E-03 0.  1.
        -12    1    3    3    0    0 -0.20147325038E+02 -0.17819471725E+02 -0.16312655451E+02  0.31457129662E+02  0.00000000000E+00 0.  1.
</event>
<event>
 7    1  0.4450624E-010  0.4778727E+02  0.7816164E-02  0.1312668E+00
        -11   -1    0    0    0    0  0.00000000000E+00  0.00000000000E+00  0.45593999997E+02  0.45594000000E+02  0.51100000000E-03 0.  1.
         11   -1    0    0    0    0 -0.00000000000E+00 -0.00000000000E+00 -0.45593999997E+02  0.45594000000E+02  0.51100000000E-03 0. -1.
    9900012    2    1    2    0    0  0.22577750219E+02 -0.25647574126E+02  0.26759488784E+02  0.47787273008E+02  0.20000008951E+02 0.  0.
         12    1    1    2    0    0 -0.22577750219E+02  0.25647574126E+02 -0.26759488784E+02  0.43400726992E+02  0.00000000000E+00 0. -1.
         11    1    3    3    0    0  0.11448926638E+02 -0.48850574015E+01  0.95375835869E+01  0.15681428759E+02  0.51100000000E-03 0. -1.
        -11    1    3    3    0    0  0.12223340025E+02 -0.10076745447E+02  0.13253888839E+02  0.20654694619E+02  0.51100000000E-03 0.  1.
         12    1    3    3    0    0 -0.10945164444E+01 -0.10685771277E+02  0.39680163583E+01  0.11451149630E+02  0.00000000000E+00 0. -1.
</event>
<event>
 7    1  0.4450624E-010  0.4778727E+02  0.7816164E-02  0.1312668E+00
        -11   -1    0    0    0    0  0.00000000000E+00  0.00000000000E+00  0.45593999997E+02  0.45594000000E+02  0.51100000000E-03 0. -1.
         11   -1    0    0    0    0 -0.00000000000E+00 -0.00000000000E+00 -0.45593999997E+02  0.45594000000E+02  0.51100000000E-03 0.  1.
    9900012    2    1    2    0    0  0.41338897426E+02  0.65808281512E+01 -0.11463496301E+02  0.47787268589E+02  0.19999988806E+02 0.  0.
         12    1    1    2    0    0 -0.41338897426E+02 -0.65808281512E+01  0.11463496301E+02  0.43400731411E+02  0.00000000000E+00 0. -1.
         11    1    3    3    0    0  0.16750846182E+02 -0.35200173156E+01 -0.41867939604E+01  0.17621311349E+02  0.51100000000E-03 0. -1.
        -11    1    3    3    0    0 -0.56575846130E+00 -0.91555722782E-01 -0.25543069832E+01  0.26178138804E+01  0.51100000000E-03 0.  1.
        -12    1    3    3    0    0  0.25153809705E+02  0.10192401190E+02 -0.47223953571E+01  0.27548143360E+02  0.00000000000E+00 0.  1.
</event>
<event>
 7    1  0.4450624E-010  0.4778726E+02  0.7816164E-02  0.1312668E+00
        -11   -1    0    0    0    0  0.00000000000E+00  0.00000000000E+00  0.45593999997E+02  0.45594000000E+02  0.51100000000E-03 0. -1.
         11   -1    0    0    0    0 -0.00000000000E+00 -0.00000000000E+00 -0.45593999997E+02  0.45594000000E+02  0.51100000000E-03 0.  1.
    9900012    2    1    2    0    0  0.40225456431E+02  0.50950109395E+01 -0.15478294882E+02  0.47787261596E+02  0.19999956921E+02 0.  0.
         12    1    1    2    0    0 -0.40225456431E+02 -0.50950109395E+01  0.15478294882E+02  0.43400738404E+02  0.00000000000E+00 0. -1.
         11    1    3    3    0    0  0.12330110862E+02  0.13764951399E+01  0.31412517318E+01  0.12798196570E+02  0.51100000000E-03 0. -1.
        -11    1    3    3    0    0  0.11969043026E+02 -0.11281616469E+00 -0.29659082958E+01  0.12331558325E+02  0.51100000000E-03 0.  1.
         12    1    3    3    0    0  0.15926302543E+02  0.38313319644E+01 -0.15653638318E+02  0.22657506701E+02  0.00000000000E+00 0. -1.
</event>
<event>
 7    1  0.4450624E-010  0.4778727E+02  0.7816164E-02  0.1312668E+00
        -11   -1    0    0    0    0  0.00000000000E+00  0.00000000000E+00  0.45593999997E+02  0.45594000000E+02  0.51100000000E-03 0.  1.
         11   -1    0    0    0    0 -0.00000000000E+00 -0.00000000000E+00 -0.45593999997E+02  0.45594000000E+02  0.51100000000E-03 0. -1.
    9900012    2    1    2    0    0  0.20930627156E+02  0.20220705617E+02  0.32197133315E+02  0.47787268641E+02  0.19999989040E+02 0.  0.
         12    1    1    2    0    0 -0.20930627156E+02 -0.20220705617E+02 -0.32197133315E+02  0.43400731359E+02  0.00000000000E+00 0. -1.
         11    1    3    3    0    0  0.71468126179E+01 -0.83240193106E+00  0.15247087000E+02  0.16859522111E+02  0.51100000000E-03 0. -1.
        -11    1    3    3    0    0  0.22630746475E+01  0.62395573658E+01  0.71535598036E+01  0.97584323078E+01  0.51100000000E-03 0.  1.
         12    1    3    3    0    0  0.11520739891E+02  0.14813550183E+02  0.97964865120E+01  0.21169314222E+02  0.00000000000E+00 0. -1.
</event>
<event>
 7    1  0.4450624E-010  0.4778727E+02  0.7816164E-02  0.1312668E+00
        -11   -1    0    0    0    0  0.00000000000E+00  0.00000000000E+00  0.45593999997E+02  0.45594000000E+02  0.51100000000E-03 0. -1.
         11   -1    0    0    0    0 -0.00000000000E+00 -0.00000000000E+00 -0.45593999997E+02  0.45594000000E+02  0.51100000000E-03 0.  1.
    9900012    2    1    2    0    0  0.68438282020E+01  0.31741303314E+02 -0.28797132730E+02  0.47787272195E+02  0.20000005248E+02 0.  0.
         12    1    1    2    0    0 -0.68438282020E+01 -0.31741303314E+02  0.28797132730E+02  0.43400727805E+02  0.00000000000E+00 0. -1.
         11    1    3    3    0    0 -0.32727660036E+00 -0.63959976349E+00 -0.40886363569E+01  0.41512823743E+01  0.51100000000E-03 0. -1.
        -11    1    3    3    0    0  0.99144204106E+00  0.77847063523E+01 -0.14118882324E+02  0.16153248857E+02  0.51100000000E-03 0.  1.
         12    1    3    3    0    0  0.61796627613E+01  0.24596196725E+02 -0.10589614049E+02  0.27482740964E+02  0.00000000000E+00 0. -1.
</event>
<event>
 7    1  0.4450624E-010  0.4778727E+02  0.7816164E-02  0.1312668E+00
        -11   -1    0    0    0    0  0.00000000000E+00  0.00000000000E+00  0.45593999997E+02  0.45594000000E+02  0.51100000000E-03 0. -1.
         11   -1    0    0    0    0 -0.00000000000E+00 -0.00000000000E+00 -0.45593999997E+02  0.45594000000E+02  0.51100000000E-03 0.  1.
    9900012    2    1    2    0    0  0.16754045387E+02  0.34879545249E+02 -0.19655603637E+02  0.47787268809E+02  0.19999989807E+02 0.  0.
         12    1    1    2    0    0 -0.16754045387E+02 -0.34879545249E+02  0.19655603637E+02  0.43400731191E+02  0.00000000000E+00 0. -1.
         11    1    3    3    0    0  0.12042922591E+02  0.17849336662E+02 -0.82879726778E+01  0.23072089095E+02  0.51100000000E-03 0. -1.
        -11    1    3    3    0    0  0.10574409756E+01  0.18076484331E+02 -0.88326815596E+01  0.20146804486E+02  0.51100000000E-03 0.  1.
         12    1    3    3    0    0  0.36536818195E+01 -0.10462757441E+01 -0.25349493991E+01  0.45683752283E+01  0.00000000000E+00 0. -1.
</event>
<event>
 7    1  0.4450624E-010  0.4778727E+02  0.7816164E-02  0.1312668E+00
        -11   -1    0    0    0    0  0.00000000000E+00  0.00000000000E+00  0.45593999997E+02  0.45594000000E+02  0.51100000000E-03 0.  1.
         11   -1    0    0    0    0 -0.00000000000E+00 -0.00000000000E+00 -0.45593999997E+02  0.45594000000E+02  0.51100000000E-03 0. -1.
    9900012    2    1    2    0    0  0.23297216465E+02  0.26821758714E+02  0.24929024870E+02  0.47787270553E+02  0.19999997760E+02 0.  0.
         12    1    1    2    0    0 -0.23297216465E+02 -0.26821758714E+02 -0.24929024870E+02  0.43400729447E+02  0.00000000000E+00 0. -1.
         11    1    3    3    0    0 -0.27211870276E+00  0.22816937932E+01  0.38505601119E+01  0.44840816887E+01  0.51100000000E-03 0. -1.
        -11    1    3    3    0    0  0.45093521040E+01  0.87534160323E+01  0.14790051199E+02  0.17768009550E+02  0.51100000000E-03 0.  1.
        -12    1    3    3    0    0  0.19059983064E+02  0.15786648889E+02  0.62884135589E+01  0.25535179314E+02  0.00000000000E+00 0.  1.
</event>
<event>
 7    1  0.4450624E-010  0.4778727E+02  0.7816164E-02  0.1312668E+00
        -11   -1    0    0    0    0  0.00000000000E+00  0.00000000000E+00  0.45593999997E+02  0.45594000000E+02  0.51100000000E-03 0. -1.
         11   -1    0    0    0    0 -0.00000000000E+00 -0.00000000000E+00 -0.45593999997E+02  0.45594000000E+02  0.51100000000E-03 0.  1.
    9900012    2    1    2    0    0 -0.10970392374E+02 -0.28816858737E+02 -0.30542801204E+02  0.47787267728E+02  0.19999984880E+02 0.  0.
         12    1    1    2    0    0  0.10970392374E+02  0.28816858737E+02  0.30542801204E+02  0.43400732272E+02  0.00000000000E+00 0. -1.
         11    1    3    3    0    0 -0.53440293234E+01 -0.11216897616E+02 -0.17817649771E+02  0.21722018441E+02  0.51100000000E-03 0. -1.
        -11    1    3    3    0    0 -0.98844668087E+01 -0.13357947251E+02 -0.81308445141E+01  0.18499947882E+02  0.51100000000E-03 0.  1.
         12    1    3    3    0    0  0.42581037580E+01 -0.42420138708E+01 -0.45943069191E+01  0.75653014058E+01  0.00000000000E+00 0. -1.
</event>
<event>
 7    1  0.4450624E-010  0.4778728E+02  0.7816164E-02  0.1312668E+00
        -11   -1    0    0    0    0  0.00000000000E+00  0.00000000000E+00  0.45593999997E+02  0.45594000000E+02  0.51100000000E-03 0. -1.
         11   -1    0    0    0    0 -0.00000000000E+00 -0.00000000000E+00 -0.45593999997E+02  0.45594000000E+02  0.51100000000E-03 0.  1.
    9900012    2    1    2    0    0 -0.36250904389E+02  0.14874450045E+02 -0.18661320680E+02  0.47787283154E+02  0.20000055213E+02 0.  0.
         12    1    1    2    0    0  0.36250904389E+02 -0.14874450045E+02  0.18661320680E+02  0.43400716846E+02  0.00000000000E+00 0. -1.
         11    1    3    3    0    0 -0.46118823465E+01  0.14906643894E+01 -0.73485514662E+01  0.88029965360E+01  0.51100000000E-03 0. -1.
        -11    1    3    3    0    0 -0.13056033970E+02 -0.49330291931E+00 -0.85809650931E+01  0.15631261401E+02  0.51100000000E-03 0.  1.
        -12    1    3    3    0    0 -0.18582988073E+02  0.13877088575E+02 -0.27318041211E+01  0.23353025218E+02  0.00000000000E+00 0.  1.
</event>
<event>
 7    1  0.4450624E-010  0.4778727E+02  0.7816164E-02  0.1312668E+00
        -11   -1    0    0    0    0  0.00000000000E+00  0.00000000000E+00  0.45593999997E+02  0.45594000000E+02  0.51100000000E-03 0.  1.
         11   -1    0    0    0    0 -0.00000000000E+00 -0.00000000000E+00 -0.45593999997E+02  0.45594000000E+02  0.51100000000E-03 0. -1.
    9900012    2    1    2    0    0 -0.19553812563E+02 -0.22570745034E+02  0.31493382246E+02  0.47787271406E+02  0.20000001650E+02 0.  0.
         12    1    1    2    0    0  0.19553812563E+02  0.22570745034E+02 -0.31493382246E+02  0.43400728594E+02  0.00000000000E+00 0. -1.
         11    1    3    3    0    0  0.21007432609E+00  0.10012007122E+01  0.60901676589E+01  0.61754899776E+01  0.51100000000E-03 0. -1.
        -11    1    3    3    0    0  0.85041023274E+00 -0.19619656286E+01 -0.36145284774E+00  0.21686758896E+01  0.51100000000E-03 0.  1.
        -12    1    3    3    0    0 -0.20614297122E+02 -0.21609980117E+02  0.25764667435E+02  0.39443105539E+02  0.00000000000E+00 0.  1.
</event>
<event>
 7    1  0.4450624E-010  0.4778726E+02  0.7816164E-02  0.1312668E+00
        -11   -1    0    0    0    0  0.00000000000E+00  0.00000000000E+00  0.45593999997E+02  0.45594000000E+02  0.51100000000E-03 0. -1.
         11   -1    0    0    0    0 -0.00000000000E+00 -0.00000000000E+00 -0.45593999997E+02  0.45594000000E+02  0.51100000000E-03 0.  1.
    9900012    2    1    2    0    0  0.20991488529E+02 -0.29045232489E+02 -0.24481751648E+02  0.47787259399E+02  0.19999946903E+02 0.  0.
         12    1    1    2    0    0 -0.20991488529E+02  0.29045232489E+02  0.24481751648E+02  0.43400740601E+02  0.00000000000E+00 0. -1.
         11    1    3    3    0    0  0.32562616170E+01 -0.65719190630E+01 -0.12221787584E+02  0.14253611890E+02  0.51100000000E-03 0. -1.
        -11    1    3    3    0    0  0.17983958396E+01 -0.46888754842E+01 -0.77444399002E+01  0.92301750000E+01  0.51100000000E-03 0.  1.
         12    1    3    3    0    0  0.15936831072E+02 -0.17784437942E+02 -0.45155241632E+01  0.24303472509E+02  0.00000000000E+00 0. -1.
</event>
<event>
 7    1  0.4450624E-010  0.4778727E+02  0.7816164E-02  0.1312668E+00
        -11   -1    0    0    0    0  0.00000000000E+00  0.00000000000E+00  0.45593999997E+02  0.45594000000E+02  0.51100000000E-03 0.  1.
         11   -1    0    0    0    0 -0.00000000000E+00 -0.00000000000E+00 -0.45593999997E+02  0.45594000000E+02  0.51100000000E-03 0. -1.
    9900012    2    1    2    0    0 -0.86985448888E+01 -0.95966385306E+01  0.41422980884E+02  0.47787268445E+02  0.19999988146E+02 0.  0.
         12    1    1    2    0    0  0.86985448888E+01  0.95966385306E+01 -0.41422980884E+02  0.43400731555E+02  0.00000000000E+00 0. -1.
         11    1    3    3    0    0 -0.41512277219E+01 -0.12766250938E+01  0.38762965097E+01  0.58213519153E+01  0.51100000000E-03 0. -1.
        -11    1    3    3    0    0 -0.38351529191E+01  0.44306635786E+01  0.97399372824E+01  0.11366862196E+02  0.51100000000E-03 0.  1.
         12    1    3    3    0    0 -0.71216424784E+00 -0.12750677016E+02  0.27806747091E+02  0.30599054333E+02  0.00000000000E+00 0. -1.
</event>
<event>
 7    1  0.4450624E-010  0.4778727E+02  0.7816164E-02  0.1312668E+00
        -11   -1    0    0    0    0  0.00000000000E+00  0.00000000000E+00  0.45593999997E+02  0.45594000000E+02  0.51100000000E-03 0.  1.
         11   -1    0    0    0    0 -0.00000000000E+00 -0.00000000000E+00 -0.45593999997E+02  0.45594000000E+02  0.51100000000E-03 0. -1.
    9900012    2    1    2    0    0  0.24286011071E+02  0.16215577691E+02  0.32107131037E+02  0.47787272390E+02  0.20000006137E+02 0.  0.
         12    1    1    2    0    0 -0.24286011071E+02 -0.16215577691E+02 -0.32107131037E+02  0.43400727610E+02  0.00000000000E+00 0. -1.
         11    1    3    3    0    0 -0.85239363031E+00  0.21805281911E+01 -0.13364402874E-01  0.23412511530E+01  0.51100000000E-03 0. -1.
        -11    1    3    3    0    0  0.10000530386E+02  0.11223493008E+02  0.85545565881E+01  0.17296179982E+02  0.51100000000E-03 0.  1.
         12    1    3    3    0    0  0.15137874316E+02  0.28115564918E+01  0.23565938852E+02  0.28149841255E+02  0.00000000000E+00 0. -1.
</event>
