<event>
 7    1  0.2489154E-013  0.7246152E+02  0.7816164E-02  0.1226708E+00
        -11   -1    0    0    0    0  0.00000000000E+00  0.00000000000E+00  0.45593999997E+02  0.45594000000E+02  0.51100000000E-03 0.  1.
         11   -1    0    0    0    0 -0.00000000000E+00 -0.00000000000E+00 -0.45593999997E+02  0.45594000000E+02  0.51100000000E-03 0. -1.
    9900012    2    1    2    0    0  0.10498115874E+02 -0.77442525928E+01 -0.13434921074E+02  0.72461521703E+02  0.69999936701E+02 0.  0.
        -12    1    1    2    0    0 -0.10498115874E+02  0.77442525928E+01  0.13434921074E+02  0.18726478297E+02  0.00000000000E+00 0.  1.
         11    1    3    3    0    0 -0.10232747283E+01  0.25783401616E+02 -0.11130490696E+02  0.28101934337E+02  0.51100000000E-03 0. -1.
        -11    1    3    3    0    0  0.45228328058E+00  0.43476350759E+01  0.17155771598E+01  0.46957104012E+01  0.51100000000E-03 0.  1.
        -12    1    3    3    0    0  0.11069107322E+02 -0.37875289285E+02 -0.40200075383E+01  0.39663876965E+02  0.00000000000E+00 0.  1.
</event>
<event>
 7    1  0.2489154E-013  0.7246150E+02  0.7816164E-02  0.1226708E+00
        -11   -1    0    0    0    0  0.00000000000E+00  0.00000000000E+00  0.45593999997E+02  0.45594000000E+02  0.51100000000E-03 0.  1.
         11   -1    0    0    0    0 -0.00000000000E+00 -0.00000000000E+00 -0.45593999997E+02  0.45594000000E+02  0.51100000000E-03 0. -1.
    9900012    2    1    2    0    0 -0.12484830575E+02 -0.11448231559E+02 -0.79842819971E+01  0.72461501146E+02  0.69999909922E+02 0.  0.
        -12    1    1    2    0    0  0.12484830575E+02  0.11448231559E+02  0.79842819971E+01  0.18726498854E+02  0.00000000000E+00 0.  1.
         11    1    3    3    0    0 -0.22133696764E+02  0.50571084466E+01  0.16792132539E+01  0.22766085208E+02  0.51100000000E-03 0. -1.
        -11    1    3    3    0    0  0.74571709227E+01  0.11114304674E+02  0.91431011144E+01  0.16209055025E+02  0.51100000000E-03 0.  1.
         12    1    3    3    0    0  0.21916952669E+01 -0.27619644679E+02 -0.18806596365E+02  0.33486360913E+02  0.00000000000E+00 0. -1.
</event>
<event>
 7    1  0.2489154E-013  0.7246137E+02  0.7816164E-02  0.1226709E+00
        -11   -1    0    0    0    0  0.00000000000E+00  0.00000000000E+00  0.45593999997E+02  0.45594000000E+02  0.51100000000E-03 0.  1.
         11   -1    0    0    0    0 -0.00000000000E+00 -0.00000000000E+00 -0.45593999997E+02  0.45594000000E+02  0.51100000000E-03 0. -1.
    9900012    2    1    2    0    0  0.12700615527E+02 -0.60383757461E+01 -0.12366042649E+02  0.72461371173E+02  0.69999740607E+02 0.  0.
        -12    1    1    2    0    0 -0.12700615527E+02  0.60383757461E+01  0.12366042649E+02  0.18726628827E+02  0.00000000000E+00 0.  1.
         11    1    3    3    0    0 -0.84744981376E+01 -0.35193083032E+01 -0.19768264872E+02  0.21794195234E+02  0.51100000000E-03 0. -1.
        -11    1    3    3    0    0 -0.22513661941E+01  0.17409114547E+02 -0.37527334946E+01  0.17950736141E+02  0.51100000000E-03 0.  1.
        -12    1    3    3    0    0  0.23426479858E+02 -0.19928181990E+02  0.11154955717E+02  0.32716439798E+02  0.00000000000E+00 0.  1.
</event>
<event>
 7    1  0.2489154E-013  0.7246153E+02  0.7816164E-02  0.1226708E+00
        -11   -1    0    0    0    0  0.00000000000E+00  0.00000000000E+00  0.45593999997E+02  0.45594000000E+02  0.51100000000E-03 0.  1.
         11   -1    0    0    0    0 -0.00000000000E+00 -0.00000000000E+00 -0.45593999997E+02  0.45594000000E+02  0.51100000000E-03 0. -1.
    9900012    2    1    2    0    0  0.18372368118E+00  0.17350515032E+02 -0.70431876751E+01  0.72461531596E+02  0.69999949588E+02 0.  0.
        -12    1    1    2    0    0 -0.18372368118E+00 -0.17350515032E+02  0.70431876751E+01  0.18726468404E+02  0.00000000000E+00 0.  1.
         11    1    3    3    0    0  0.23423719171E+02 -0.71012382006E+01 -0.98369914584E+01  0.26379245725E+02  0.51100000000E-03 0.  1.
        -11    1    3    3    0    0 -0.73293410795E+01  0.26620111082E+02 -0.52769573740E+01  0.28110422161E+02  0.51100000000E-03 0. -1.
        -12    1    3    3    0    0 -0.15910654411E+02 -0.21683578503E+01  0.80707611573E+01  0.17971863710E+02  0.00000000000E+00 0.  1.
</event>
<event>
 7    1  0.2489154E-013  0.7246153E+02  0.7816164E-02  0.1226708E+00
        -11   -1    0    0    0    0  0.00000000000E+00  0.00000000000E+00  0.45593999997E+02  0.45594000000E+02  0.51100000000E-03 0. -1.
         11   -1    0    0    0    0 -0.00000000000E+00 -0.00000000000E+00 -0.45593999997E+02  0.45594000000E+02  0.51100000000E-03 0.  1.
    9900012    2    1    2    0    0 -0.20285247213E+01 -0.17893379943E+02 -0.51373988252E+01  0.72461526092E+02  0.69999942418E+02 0.  0.
        -12    1    1    2    0    0  0.20285247213E+01  0.17893379943E+02  0.51373988252E+01  0.18726473908E+02  0.00000000000E+00 0.  1.
         11    1    3    3    0    0 -0.35991230531E+00 -0.10546524038E+02 -0.66288575287E+00  0.10573463195E+02  0.51100000000E-03 0. -1.
        -11    1    3    3    0    0  0.26411774233E+01 -0.33649004548E+02 -0.88136423453E+01  0.34884260303E+02  0.51100000000E-03 0.  1.
         12    1    3    3    0    0 -0.43097898393E+01  0.26302148643E+02  0.43391292729E+01  0.27003802594E+02  0.00000000000E+00 0. -1.
</event>
<event>
 7    1  0.2489154E-013  0.7246158E+02  0.7816164E-02  0.1226708E+00
        -11   -1    0    0    0    0  0.00000000000E+00  0.00000000000E+00  0.45593999997E+02  0.45594000000E+02  0.51100000000E-03 0.  1.
         11   -1    0    0    0    0 -0.00000000000E+00 -0.00000000000E+00 -0.45593999997E+02  0.45594000000E+02  0.51100000000E-03 0. -1.
    9900012    2    1    2    0    0  0.34711209575E+01  0.18357746053E+02  0.12741223351E+01  0.72461577262E+02  0.70000009077E+02 0.  0.
        -12    1    1    2    0    0 -0.34711209575E+01 -0.18357746053E+02 -0.12741223351E+01  0.18726422738E+02  0.00000000000E+00 0.  1.
         11    1    3    3    0    0 -0.15834161766E+02 -0.29942547144E+01 -0.13269202448E+02  0.20874816741E+02  0.51100000000E-03 0. -1.
        -11    1    3    3    0    0  0.26632704309E+02  0.40521777987E-01  0.49260508237E+01  0.27084470787E+02  0.51100000000E-03 0.  1.
         12    1    3    3    0    0 -0.73274215856E+01  0.21311478989E+02  0.96172739591E+01  0.24502289734E+02  0.00000000000E+00 0. -1.
</event>
<event>
 7    1  0.2489154E-013  0.7246164E+02  0.7816164E-02  0.1226708E+00
        -11   -1    0    0    0    0  0.00000000000E+00  0.00000000000E+00  0.45593999997E+02  0.45594000000E+02  0.51100000000E-03 0. -1.
         11   -1    0    0    0    0 -0.00000000000E+00 -0.00000000000E+00 -0.45593999997E+02  0.45594000000E+02  0.51100000000E-03 0.  1.
    9900012    2    1    2    0    0  0.26280252385E+01 -0.16306392368E+02  0.88244860405E+01  0.72461641502E+02  0.70000092762E+02 0.  0.
        -12    1    1    2    0    0 -0.26280252385E+01  0.16306392368E+02 -0.88244860405E+01  0.18726358498E+02  0.00000000000E+00 0.  1.
         11    1    3    3    0    0 -0.13138585923E+02  0.33769838872E+01 -0.14660815315E+01  0.13644627351E+02  0.51100000000E-03 0. -1.
        -11    1    3    3    0    0 -0.64918796887E+01 -0.27464410615E+02 -0.75908320956E+01  0.29224289290E+02  0.51100000000E-03 0.  1.
        -12    1    3    3    0    0  0.22258490850E+02  0.77810343600E+01  0.17881399668E+02  0.29592724861E+02  0.00000000000E+00 0.  1.
</event>
<event>
 7    1  0.2489154E-013  0.7246154E+02  0.7816164E-02  0.1226708E+00
        -11   -1    0    0    0    0  0.00000000000E+00  0.00000000000E+00  0.45593999997E+02  0.45594000000E+02  0.51100000000E-03 0.  1.
         11   -1    0    0    0    0 -0.00000000000E+00 -0.00000000000E+00 -0.45593999997E+02  0.45594000000E+02  0.51100000000E-03 0. -1.
    9900012    2    1    2    0    0 -0.14514725886E+02  0.45667077886E+01 -0.10915505830E+02  0.72461538640E+02  0.69999958764E+02 0.  0.
        -12    1    1    2    0    0  0.14514725886E+02 -0.45667077886E+01  0.10915505830E+02  0.18726461360E+02  0.00000000000E+00 0.  1.
         11    1    3    3    0    0 -0.32004408461E+01 -0.37711699417E+01  0.34348391023E+01  0.60218489070E+01  0.51100000000E-03 0. -1.
        -11    1    3    3    0    0 -0.14124065717E+02 -0.25747777141E+02 -0.45308136505E-01  0.29367317092E+02  0.51100000000E-03 0.  1.
         12    1    3    3    0    0  0.28097806769E+01  0.34085654872E+02 -0.14305036795E+02  0.37072372641E+02  0.00000000000E+00 0. -1.
</event>
<event>
 7    1  0.2489154E-013  0.7246157E+02  0.7816164E-02  0.1226708E+00
        -11   -1    0    0    0    0  0.00000000000E+00  0.00000000000E+00  0.45593999997E+02  0.45594000000E+02  0.51100000000E-03 0.  1.
         11   -1    0    0    0    0 -0.00000000000E+00 -0.00000000000E+00 -0.45593999997E+02  0.45594000000E+02  0.51100000000E-03 0. -1.
    9900012    2    1    2    0    0 -0.89131537259E+01 -0.15708379391E+02 -0.49479125220E+01  0.72461565990E+02  0.69999994392E+02 0.  0.
        -12    1    1    2    0    0  0.89131537259E+01  0.15708379391E+02  0.49479125220E+01  0.18726434010E+02  0.00000000000E+00 0.  1.
         11    1    3    3    0    0  0.45839211324E+01 -0.42551548258E+01 -0.32028273160E+01  0.70268612209E+01  0.51100000000E-03 0. -1.
        -11    1    3    3    0    0 -0.10720466762E+02  0.18881212795E+02 -0.20335832048E+02  0.29748523822E+02  0.51100000000E-03 0.  1.
         12    1    3    3    0    0 -0.27766080961E+01 -0.30334437359E+02  0.18590746842E+02  0.35686180947E+02  0.00000000000E+00 0. -1.
</event>
<event>
 7    1  0.2489154E-013  0.7246156E+02  0.7816164E-02  0.1226708E+00
        -11   -1    0    0    0    0  0.00000000000E+00  0.00000000000E+00  0.45593999997E+02  0.45594000000E+02  0.51100000000E-03 0.  1.
         11   -1    0    0    0    0 -0.00000000000E+00 -0.00000000000E+00 -0.45593999997E+02  0.45594000000E+02  0.51100000000E-03 0. -1.
    9900012    2    1    2    0    0 -0.10201906130E+02  0.21383066834E+01 -0.15557256074E+02  0.72461562520E+02  0.69999989872E+02 0.  0.
        -12    1    1    2    0    0  0.10201906130E+02 -0.21383066834E+01  0.15557256074E+02  0.18726437480E+02  0.00000000000E+00 0.  1.
         11    1    3    3    0    0 -0.99196253813E+01  0.11649209167E+01  0.18107187896E+02  0.20679126244E+02  0.51100000000E-03 0. -1.
        -11    1    3    3    0    0 -0.43545258857E+01 -0.18753755768E+01  0.82817461429E+01  0.95428637567E+01  0.51100000000E-03 0.  1.
         12    1    3    3    0    0  0.40722451369E+01  0.28487613435E+01 -0.41946190112E+02  0.42239572519E+02  0.00000000000E+00 0. -1.
</event>
<event>
 7    1  0.2489154E-013  0.7246160E+02  0.7816164E-02  0.1226708E+00
        -11   -1    0    0    0    0  0.00000000000E+00  0.00000000000E+00  0.45593999997E+02  0.45594000000E+02  0.51100000000E-03 0.  1.
         11   -1    0    0    0    0 -0.00000000000E+00 -0.00000000000E+00 -0.45593999997E+02  0.45594000000E+02  0.51100000000E-03 0. -1.
    9900012    2    1    2    0    0  0.17550554569E+02 -0.60561931971E+01  0.24451335620E+01  0.72461598320E+02  0.70000036509E+02 0.  0.
        -12    1    1    2    0    0 -0.17550554569E+02  0.60561931971E+01 -0.24451335620E+01  0.18726401680E+02  0.00000000000E+00 0.  1.
         11    1    3    3    0    0 -0.11263171531E+02  0.12067126615E+02  0.44189622702E+01  0.17088060320E+02  0.51100000000E-03 0. -1.
        -11    1    3    3    0    0  0.26532591660E+01  0.10284911536E+02  0.10355773882E+02  0.14834461314E+02  0.51100000000E-03 0.  1.
         12    1    3    3    0    0  0.26160466934E+02 -0.28408231349E+02 -0.12329602590E+02  0.40539076687E+02  0.00000000000E+00 0. -1.
</event>
<event>
 7    1  0.2489154E-013  0.7246152E+02  0.7816164E-02  0.1226708E+00
        -11   -1    0    0    0    0  0.00000000000E+00  0.00000000000E+00  0.45593999997E+02  0.45594000000E+02  0.51100000000E-03 0. -1.
         11   -1    0    0    0    0 -0.00000000000E+00 -0.00000000000E+00 -0.45593999997E+02  0.45594000000E+02  0.51100000000E-03 0.  1.
    9900012    2    1    2    0    0  0.24462801701E-01  0.10170794665E+01  0.18698820884E+02  0.72461522715E+02  0.69999938019E+02 0.  0.
        -12    1    1    2    0    0 -0.24462801701E-01 -0.10170794665E+01 -0.18698820884E+02  0.18726477285E+02  0.00000000000E+00 0.  1.
         11    1    3    3    0    0  0.44981060247E+00 -0.13354329384E+02  0.26332278081E+02  0.29528449199E+02  0.51100000000E-03 0. -1.
        -11    1    3    3    0    0  0.11380337210E+02  0.13502018365E+02  0.11038687844E+02  0.20824725797E+02  0.51100000000E-03 0.  1.
        -12    1    3    3    0    0 -0.11805685011E+02  0.86939048548E+00 -0.18672145042E+02  0.22108347719E+02  0.00000000000E+00 0.  1.
</event>
<event>
 7    1  0.2489154E-013  0.7246151E+02  0.7816164E-02  0.1226708E+00
        -11   -1    0    0    0    0  0.00000000000E+00  0.00000000000E+00  0.45593999997E+02  0.45594000000E+02  0.51100000000E-03 0. -1.
         11   -1    0    0    0    0 -0.00000000000E+00 -0.00000000000E+00 -0.45593999997E+02  0.45594000000E+02  0.51100000000E-03 0.  1.
    9900012    2    1    2    0    0 -0.15233638733E+02  0.66866247658E+01  0.85969062606E+01  0.72461508148E+02  0.69999919043E+02 0.  0.
        -12    1    1    2    0    0  0.15233638733E+02 -0.66866247658E+01 -0.85969062606E+01  0.18726491852E+02  0.00000000000E+00 0.  1.
         11    1    3    3    0    0 -0.20846018795E+02  0.17023844699E+02  0.12746002431E+02  0.29779663634E+02  0.51100000000E-03 0. -1.
        -11    1    3    3    0    0 -0.12665916229E+02 -0.63224808651E+01 -0.15342589992E+02  0.20875686004E+02  0.51100000000E-03 0.  1.
         12    1    3    3    0    0  0.18278296290E+02 -0.40147390680E+01  0.11193493821E+02  0.21806158510E+02  0.00000000000E+00 0. -1.
</event>
<event>
 7    1  0.2489154E-013  0.7246153E+02  0.7816164E-02  0.1226708E+00
        -11   -1    0    0    0    0  0.00000000000E+00  0.00000000000E+00  0.45593999997E+02  0.45594000000E+02  0.51100000000E-03 0.  1.
         11   -1    0    0    0    0 -0.00000000000E+00 -0.00000000000E+00 -0.45593999997E+02  0.45594000000E+02  0.51100000000E-03 0. -1.
    9900012    2    1    2    0    0 -0.15881629551E+02 -0.92689057157E+01 -0.35414689983E+01  0.72461527480E+02  0.69999944227E+02 0.  0.
        -12    1    1    2    0    0  0.15881629551E+02  0.92689057157E+01  0.35414689983E+01  0.18726472520E+02  0.00000000000E+00 0.  1.
         11    1    3    3    0    0 -0.98154698835E+01 -0.16703778471E+02  0.89653526112E+00  0.19394933358E+02  0.51100000000E-03 0. -1.
        -11    1    3    3    0    0  0.10347010500E+02 -0.18985789629E+02  0.17295778535E+00  0.21622921837E+02  0.51100000000E-03 0.  1.
         12    1    3    3    0    0 -0.16413170168E+02  0.26420662384E+02 -0.46109620448E+01  0.31443672285E+02  0.00000000000E+00 0. -1.
</event>
<event>
 7    1  0.2489154E-013  0.7246150E+02  0.7816164E-02  0.1226708E+00
        -11   -1    0    0    0    0  0.00000000000E+00  0.00000000000E+00  0.45593999997E+02  0.45594000000E+02  0.51100000000E-03 0.  1.
         11   -1    0    0    0    0 -0.00000000000E+00 -0.00000000000E+00 -0.45593999997E+02  0.45594000000E+02  0.51100000000E-03 0. -1.
    9900012    2    1    2    0    0 -0.16258062942E+02 -0.80118897650E+01 -0.47081467276E+01  0.72461504497E+02  0.69999914286E+02 0.  0.
        -12    1    1    2    0    0  0.16258062942E+02  0.80118897650E+01  0.47081467276E+01  0.18726495503E+02  0.00000000000E+00 0.  1.
         11    1    3    3    0    0 -0.21619411471E+02 -0.67296151046E+00  0.80749826542E+01  0.23088030983E+02  0.51100000000E-03 0. -1.
        -11    1    3    3    0    0  0.85348509043E+01 -0.15258944197E+02  0.13276118304E+02  0.21953003791E+02  0.51100000000E-03 0.  1.
        -12    1    3    3    0    0 -0.31735023756E+01  0.79200159423E+01 -0.26059247686E+02  0.27420469723E+02  0.00000000000E+00 0.  1.
</event>
<event>
 7    1  0.2489154E-013  0.7246161E+02  0.7816164E-02  0.1226708E+00
        -11   -1    0    0    0    0  0.00000000000E+00  0.00000000000E+00  0.45593999997E+02  0.45594000000E+02  0.51100000000E-03 0. -1.
         11   -1    0    0    0    0 -0.00000000000E+00 -0.00000000000E+00 -0.45593999997E+02  0.45594000000E+02  0.51100000000E-03 0.  1.
    9900012    2    1    2    0    0  0.18176961941E+02  0.20431322267E+01  0.40126519827E+01  0.72461609247E+02  0.70000050743E+02 0.  0.
        -12    1    1    2    0    0 -0.18176961941E+02 -0.20431322267E+01 -0.40126519827E+01  0.18726390753E+02  0.00000000000E+00 0.  1.
         11    1    3    3    0    0 -0.15650047625E+02 -0.11301090977E+02 -0.10433888861E-01  0.19303853426E+02  0.51100000000E-03 0. -1.
        -11    1    3    3    0    0 -0.34112600933E+01 -0.80337262096E+01 -0.37882405989E+01  0.95146318547E+01  0.51100000000E-03 0.  1.
        -12    1    3    3    0    0  0.37238269659E+02  0.21377949414E+02  0.78113264704E+01  0.43643123967E+02  0.00000000000E+00 0.  1.
</event>
<event>
 7    1  0.2489154E-013  0.7246157E+02  0.7816164E-02  0.1226708E+00
        -11   -1    0    0    0    0  0.00000000000E+00  0.00000000000E+00  0.45593999997E+02  0.45594000000E+02  0.51100000000E-03 0. -1.
         11   -1    0    0    0    0 -0.00000000000E+00 -0.00000000000E+00 -0.45593999997E+02  0.45594000000E+02  0.51100000000E-03 0.  1.
    9900012    2    1    2    0    0  0.16955724746E+02  0.79221774598E+01 -0.64926053540E+00  0.72461573843E+02  0.70000004622E+02 0.  0.
        -12    1    1    2    0    0 -0.16955724746E+02 -0.79221774598E+01  0.64926053540E+00  0.18726426157E+02  0.00000000000E+00 0.  1.
         11    1    3    3    0    0 -0.98599672077E+01  0.42408014868E+01 -0.22573419522E+01  0.10968087506E+02  0.51100000000E-03 0. -1.
        -11    1    3    3    0    0  0.10386921749E+02 -0.16261865789E+02 -0.20014333661E+02  0.27801258506E+02  0.51100000000E-03 0.  1.
         12    1    3    3    0    0  0.16428770205E+02  0.19943241762E+02  0.21622415078E+02  0.33692227831E+02  0.00000000000E+00 0. -1.
</event>
<event>
 7    1  0.2489154E-013  0.7246155E+02  0.7816164E-02  0.1226708E+00
        -11   -1    0    0    0    0  0.00000000000E+00  0.00000000000E+00  0.45593999997E+02  0.45594000000E+02  0.51100000000E-03 0. -1.
         11   -1    0    0    0    0 -0.00000000000E+00 -0.00000000000E+00 -0.45593999997E+02  0.45594000000E+02  0.51100000000E-03 0.  1.
    9900012    2    1    2    0    0  0.38256689637E+01  0.14573092373E+02  0.11120663146E+02  0.72461550440E+02  0.69999974135E+02 0.  0.
        -12    1    1    2    0    0 -0.38256689637E+01 -0.14573092373E+02 -0.11120663146E+02  0.18726449560E+02  0.00000000000E+00 0.  1.
         11    1    3    3    0    0  0.23786357562E+01 -0.12774568163E+02 -0.18067737685E+02  0.22255126266E+02  0.51100000000E-03 0. -1.
        -11    1    3    3    0    0 -0.11951221167E+01 -0.66460101314E+01  0.46833504992E+01  0.82177575834E+01  0.51100000000E-03 0.  1.
         12    1    3    3    0    0  0.26421553243E+01  0.33993670667E+02  0.24505050332E+02  0.41988666590E+02  0.00000000000E+00 0. -1.
</event>
<event>
 7    1  0.2489154E-013  0.7246165E+02  0.7816164E-02  0.1226708E+00
        -11   -1    0    0    0    0  0.00000000000E+00  0.00000000000E+00  0.45593999997E+02  0.45594000000E+02  0.51100000000E-03 0. -1.
         11   -1    0    0    0    0 -0.00000000000E+00 -0.00000000000E+00 -0.45593999997E+02  0.45594000000E+02  0.51100000000E-03 0.  1.
    9900012    2    1    2    0    0  0.12486842685E+02  0.13896836387E+02  0.12779111354E+01  0.72461645345E+02  0.70000097767E+02 0.  0.
        -12    1    1    2    0    0 -0.12486842685E+02 -0.13896836387E+02 -0.12779111354E+01  0.18726354655E+02  0.00000000000E+00 0.  1.
         11    1    3    3    0    0  0.13853758048E+02 -0.44536261926E+01  0.10028924042E+02  0.17673163724E+02  0.51100000000E-03 0. -1.
        -11    1    3    3    0    0 -0.19687740354E+01  0.27732560269E+02  0.13297898288E+02  0.30818907661E+02  0.51100000000E-03 0.  1.
         12    1    3    3    0    0  0.60185867184E+00 -0.93820976895E+01 -0.22048911195E+02  0.23969573959E+02  0.00000000000E+00 0. -1.
</event>
<event>
 7    1  0.2489154E-013  0.7246155E+02  0.7816164E-02  0.1226708E+00
        -11   -1    0    0    0    0  0.00000000000E+00  0.00000000000E+00  0.45593999997E+02  0.45594000000E+02  0.51100000000E-03 0. -1.
         11   -1    0    0    0    0 -0.00000000000E+00 -0.00000000000E+00 -0.45593999997E+02  0.45594000000E+02  0.51100000000E-03 0.  1.
    9900012    2    1    2    0    0  0.10387788885E+02 -0.10580812680E+02  0.11437667471E+02  0.72461548333E+02  0.69999971391E+02 0.  0.
        -12    1    1    2    0    0 -0.10387788885E+02  0.10580812680E+02 -0.11437667471E+02  0.18726451667E+02  0.00000000000E+00 0.  1.
         11    1    3    3    0    0  0.73380823485E+01 -0.15873504282E+00  0.10084947077E+02  0.12473123393E+02  0.51100000000E-03 0. -1.
        -11    1    3    3    0    0  0.16461617570E+02  0.20456472653E+02  0.18113766615E+01  0.26319825457E+02  0.51100000000E-03 0.  1.
        -12    1    3    3    0    0 -0.13411911034E+02 -0.30878550290E+02 -0.45865626758E+00  0.33668599483E+02  0.00000000000E+00 0.  1.
</event>
<event>
 7    1  0.2489154E-013  0.7246139E+02  0.7816164E-02  0.1226708E+00
        -11   -1    0    0    0    0  0.00000000000E+00  0.00000000000E+00  0.45593999997E+02  0.45594000000E+02  0.51100000000E-03 0.  1.
         11   -1    0    0    0    0 -0.00000000000E+00 -0.00000000000E+00 -0.45593999997E+02  0.45594000000E+02  0.51100000000E-03 0. -1.
    9900012    2    1    2    0    0  0.55536019146E+01  0.72772321571E+01 -0.16336622410E+02  0.72461392356E+02  0.69999768202E+02 0.  0.
        -12    1    1    2    0    0 -0.55536019146E+01 -0.72772321571E+01  0.16336622410E+02  0.18726607644E+02  0.00000000000E+00 0.  1.
         11    1    3    3    0    0 -0.91413839261E+00  0.33187818982E+01  0.16584037560E+02  0.16937540091E+02  0.51100000000E-03 0. -1.
        -11    1    3    3    0    0  0.39449471108E+00 -0.14390851115E+02  0.30255286459E+01  0.14710745927E+02  0.51100000000E-03 0.  1.
         12    1    3    3    0    0  0.60732455961E+01  0.18349301373E+02 -0.35946188616E+02  0.40813106338E+02  0.00000000000E+00 0. -1.
</event>
<event>
 7    1  0.2489154E-013  0.7246156E+02  0.7816164E-02  0.1226708E+00
        -11   -1    0    0    0    0  0.00000000000E+00  0.00000000000E+00  0.45593999997E+02  0.45594000000E+02  0.51100000000E-03 0. -1.
         11   -1    0    0    0    0 -0.00000000000E+00 -0.00000000000E+00 -0.45593999997E+02  0.45594000000E+02  0.51100000000E-03 0.  1.
    9900012    2    1    2    0    0 -0.18664075666E+02  0.48195011984E+00 -0.14490347671E+01  0.72461556180E+02  0.69999981613E+02 0.  0.
        -12    1    1    2    0    0  0.18664075666E+02 -0.48195011984E+00  0.14490347671E+01  0.18726443820E+02  0.00000000000E+00 0.  1.
         11    1    3    3    0    0 -0.35339115379E+02 -0.16340650574E+02  0.34116661306E+01  0.39083364786E+02  0.51100000000E-03 0. -1.
        -11    1    3    3    0    0 -0.54402994829E+01  0.31057793033E+01 -0.38123449480E+01  0.73332596987E+01  0.51100000000E-03 0.  1.
        -12    1    3    3    0    0  0.22115339196E+02  0.13716821391E+02 -0.10483559497E+01  0.26044931695E+02  0.00000000000E+00 0.  1.
</event>
<event>
 7    1  0.2489154E-013  0.7246160E+02  0.7816164E-02  0.1226708E+00
        -11   -1    0    0    0    0  0.00000000000E+00  0.00000000000E+00  0.45593999997E+02  0.45594000000E+02  0.51100000000E-03 0. -1.
         11   -1    0    0    0    0 -0.00000000000E+00 -0.00000000000E+00 -0.45593999997E+02  0.45594000000E+02  0.51100000000E-03 0.  1.
    9900012    2    1    2    0    0  0.13513491661E+02 -0.11925512185E+02 -0.50838862804E+01  0.72461596249E+02  0.70000033810E+02 0.  0.
        -12    1    1    2    0    0 -0.13513491661E+02  0.11925512185E+02  0.50838862804E+01  0.18726403751E+02  0.00000000000E+00 0.  1.
         11    1    3    3    0    0  0.22203723203E+02  0.18098700688E+01  0.22467562252E+02  0.31639726730E+02  0.51100000000E-03 0. -1.
        -11    1    3    3    0    0  0.39760193607E+01 -0.11175253841E+02 -0.17829652264E+01  0.11994748585E+02  0.51100000000E-03 0.  1.
        -12    1    3    3    0    0 -0.12666250902E+02 -0.25601284124E+01 -0.25768483306E+02  0.28827120933E+02  0.00000000000E+00 0.  1.
</event>
<event>
 7    1  0.2489154E-013  0.7246157E+02  0.7816164E-02  0.1226708E+00
        -11   -1    0    0    0    0  0.00000000000E+00  0.00000000000E+00  0.45593999997E+02  0.45594000000E+02  0.51100000000E-03 0.  1.
         11   -1    0    0    0    0 -0.00000000000E+00 -0.00000000000E+00 -0.45593999997E+02  0.45594000000E+02  0.51100000000E-03 0. -1.
    9900012    2    1    2    0    0 -0.97214583348E+01  0.15934960426E+02 -0.14998286396E+01  0.72461569431E+02  0.69999998875E+02 0.  0.
        -12    1    1    2    0    0  0.97214583348E+01 -0.15934960426E+02  0.14998286396E+01  0.18726430569E+02  0.00000000000E+00 0.  1.
         11    1    3    3    0    0 -0.30698838091E+02  0.43069058515E+01  0.11225084381E+02  0.32969237446E+02  0.51100000000E-03 0.  1.
        -11    1    3    3    0    0 -0.75838947723E+00  0.14506284296E+02 -0.83412458365E+00  0.14550024150E+02  0.51100000000E-03 0. -1.
        -12    1    3    3    0    0  0.21735769233E+02 -0.28782297222E+01 -0.11890788437E+02  0.24942307835E+02  0.00000000000E+00 0.  1.
</event>
<event>
 7    1  0.2489154E-013  0.7246166E+02  0.7816164E-02  0.1226708E+00
        -11   -1    0    0    0    0  0.00000000000E+00  0.00000000000E+00  0.45593999997E+02  0.45594000000E+02  0.51100000000E-03 0. -1.
         11   -1    0    0    0    0 -0.00000000000E+00 -0.00000000000E+00 -0.45593999997E+02  0.45594000000E+02  0.51100000000E-03 0.  1.
    9900012    2    1    2    0    0 -0.12843982257E+02  0.58105979635E+00  0.13615075045E+02  0.72461660818E+02  0.70000117923E+02 0.  0.
        -12    1    1    2    0    0  0.12843982257E+02 -0.58105979635E+00 -0.13615075045E+02  0.18726339182E+02  0.00000000000E+00 0.  1.
         11    1    3    3    0    0 -0.21583693016E+02 -0.74199445163E+01  0.15422701951E+02  0.27545800344E+02  0.51100000000E-03 0. -1.
        -11    1    3    3    0    0 -0.10011755765E+02 -0.13020957759E+02 -0.31060471190E+01  0.16716103716E+02  0.51100000000E-03 0.  1.
        -12    1    3    3    0    0  0.18751466525E+02  0.21021962072E+02  0.12984202123E+01  0.28199756758E+02  0.00000000000E+00 0.  1.
</event>
<event>
 7    1  0.2489154E-013  0.7246156E+02  0.7816164E-02  0.1226708E+00
        -11   -1    0    0    0    0  0.00000000000E+00  0.00000000000E+00  0.45593999997E+02  0.45594000000E+02  0.51100000000E-03 0.  1.
         11   -1    0    0    0    0 -0.00000000000E+00 -0.00000000000E+00 -0.45593999997E+02  0.45594000000E+02  0.51100000000E-03 0. -1.
    9900012    2    1    2    0    0  0.32572332517E+01  0.93011993058E+01 -0.15923499662E+02  0.72461555637E+02  0.69999980906E+02 0.  0.
        -12    1    1    2    0    0 -0.32572332517E+01 -0.93011993058E+01  0.15923499662E+02  0.18726444363E+02  0.00000000000E+00 0.  1.
         11    1    3    3    0    0  0.22098703611E+01  0.30913436728E+01 -0.40432497054E+02  0.40610672871E+02  0.51100000000E-03 0. -1.
        -11    1    3    3    0    0 -0.13288435483E+01 -0.55594908326E+00 -0.30506253082E+01  0.33736063184E+01  0.51100000000E-03 0.  1.
        -12    1    3    3    0    0  0.23762064389E+01  0.67658047163E+01  0.27559622700E+02  0.28477276448E+02  0.00000000000E+00 0.  1.
</event>
<event>
 7    1  0.2489154E-013  0.7246160E+02  0.7816164E-02  0.1226708E+00
        -11   -1    0    0    0    0  0.00000000000E+00  0.00000000000E+00  0.45593999997E+02  0.45594000000E+02  0.51100000000E-03 0. -1.
         11   -1    0    0    0    0 -0.00000000000E+00 -0.00000000000E+00 -0.45593999997E+02  0.45594000000E+02  0.51100000000E-03 0.  1.
    9900012    2    1    2    0    0 -0.87130162638E+01 -0.46730409938E+01 -0.15903592774E+02  0.72461595442E+02  0.70000032760E+02 0.  0.
        -12    1    1    2    0    0  0.87130162638E+01  0.46730409938E+01  0.15903592774E+02  0.18726404558E+02  0.00000000000E+00 0.  1.
         11    1    3    3    0    0 -0.22908604851E+02 -0.75215481541E+01 -0.18964781085E+02  0.30676388065E+02  0.51100000000E-03 0. -1.
        -11    1    3    3    0    0 -0.10861289918E+02 -0.25713446245E+01 -0.81341230289E+01  0.13810988001E+02  0.51100000000E-03 0.  1.
        -12    1    3    3    0    0  0.25056878504E+02  0.54198517848E+01  0.11195311340E+02  0.27974219377E+02  0.00000000000E+00 0.  1.
</event>
<event>
 7    1  0.2489154E-013  0.7246159E+02  0.7816164E-02  0.1226708E+00
        -11   -1    0    0    0    0  0.00000000000E+00  0.00000000000E+00  0.45593999997E+02  0.45594000000E+02  0.51100000000E-03 0. -1.
         11   -1    0    0    0    0 -0.00000000000E+00 -0.00000000000E+00 -0.45593999997E+02  0.45594000000E+02  0.51100000000E-03 0.  1.
    9900012    2    1    2    0    0 -0.13816250371E+02 -0.95740844939E+01 -0.82538811952E+01  0.72461590227E+02  0.70000025965E+02 0.  0.
        -12    1    1    2    0    0  0.13816250371E+02  0.95740844939E+01  0.82538811952E+01  0.18726409773E+02  0.00000000000E+00 0.  1.
         11    1    3    3    0    0  0.16525114117E+01 -0.24696226887E+02 -0.10215795224E+02  0.26776797582E+02  0.51100000000E-03 0. -1.
        -11    1    3    3    0    0  0.11972139411E+02  0.10176075187E+02  0.72502389160E+01  0.17304640791E+02  0.51100000000E-03 0.  1.
        -12    1    3    3    0    0 -0.27440901194E+02  0.49460672060E+01 -0.52883248870E+01  0.28380151854E+02  0.00000000000E+00 0.  1.
</event>
<event>
 7    1  0.2489154E-013  0.7246109E+02  0.7816164E-02  0.1226709E+00
        -11   -1    0    0    0    0  0.00000000000E+00  0.00000000000E+00  0.45593999997E+02  0.45594000000E+02  0.51100000000E-03 0. -1.
         11   -1    0    0    0    0 -0.00000000000E+00 -0.00000000000E+00 -0.45593999997E+02  0.45594000000E+02  0.51100000000E-03 0.  1.
    9900012    2    1    2    0    0 -0.11844480523E+02 -0.12303139386E+02  0.76836221819E+01  0.72461094023E+02  0.69999379566E+02 0.  0.
        -12    1    1    2    0    0  0.11844480523E+02  0.12303139386E+02 -0.76836221819E+01  0.18726905977E+02  0.00000000000E+00 0.  1.
         11    1    3    3    0    0  0.56989759286E+01  0.46793582515E+01  0.22039688034E+02  0.23240537197E+02  0.51100000000E-03 0.  1.
        -11    1    3    3    0    0  0.53755802164E+01 -0.97367734427E+00  0.10484519335E+02  0.11822438673E+02  0.51100000000E-03 0. -1.
        -12    1    3    3    0    0 -0.22919036668E+02 -0.16008820294E+02 -0.24840585187E+02  0.37398118154E+02  0.00000000000E+00 0.  1.
</event>
<event>
 7    1  0.2489154E-013  0.7246159E+02  0.7816164E-02  0.1226708E+00
        -11   -1    0    0    0    0  0.00000000000E+00  0.00000000000E+00  0.45593999997E+02  0.45594000000E+02  0.51100000000E-03 0. -1.
         11   -1    0    0    0    0 -0.00000000000E+00 -0.00000000000E+00 -0.45593999997E+02  0.45594000000E+02  0.51100000000E-03 0.  1.
    9900012    2    1    2    0    0  0.15587032352E+02  0.97024349508E+01  0.36858767563E+01  0.72461587931E+02  0.70000022975E+02 0.  0.
        -12    1    1    2    0    0 -0.15587032352E+02 -0.97024349508E+01 -0.36858767563E+01  0.18726412069E+02  0.00000000000E+00 0.  1.
         11    1    3    3    0    0  0.23582951972E+01 -0.79615188291E+01 -0.12533786867E+02  0.15034731517E+02  0.51100000000E-03 0. -1.
        -11    1    3    3    0    0  0.28274149111E+01 -0.89918045602E+01 -0.13309295434E+02  0.16309021109E+02  0.51100000000E-03 0.  1.
         12    1    3    3    0    0  0.10401322244E+02  0.26655758340E+02  0.29528959057E+02  0.41117835304E+02  0.00000000000E+00 0. -1.
</event>
<event>
 7    1  0.2489154E-013  0.7246151E+02  0.7816164E-02  0.1226708E+00
        -11   -1    0    0    0    0  0.00000000000E+00  0.00000000000E+00  0.45593999997E+02  0.45594000000E+02  0.51100000000E-03 0.  1.
         11   -1    0    0    0    0 -0.00000000000E+00 -0.00000000000E+00 -0.45593999997E+02  0.45594000000E+02  0.51100000000E-03 0. -1.
    9900012    2    1    2    0    0 -0.29916270931E+01  0.18293276959E+02 -0.26622779058E+01  0.72461507050E+02  0.69999917613E+02 0.  0.
        -12    1    1    2    0    0  0.29916270931E+01 -0.18293276959E+02  0.26622779058E+01  0.18726492950E+02  0.00000000000E+00 0.  1.
         11    1    3    3    0    0 -0.50733043081E+01  0.24131719965E+01 -0.18345493517E+02  0.19186426148E+02  0.51100000000E-03 0.  1.
        -11    1    3    3    0    0  0.11931753447E+01  0.95371350483E+01 -0.17238060816E+02  0.19736548667E+02  0.51100000000E-03 0. -1.
        -12    1    3    3    0    0  0.88850187033E+00  0.63429699137E+01  0.32921276427E+02  0.33538532235E+02  0.00000000000E+00 0.  1.
</event>
<event>
 7    1  0.2489154E-013  0.7246121E+02  0.7816164E-02  0.1226709E+00
        -11   -1    0    0    0    0  0.00000000000E+00  0.00000000000E+00  0.45593999997E+02  0.45594000000E+02  0.51100000000E-03 0.  1.
         11   -1    0    0    0    0 -0.00000000000E+00 -0.00000000000E+00 -0.45593999997E+02  0.45594000000E+02  0.51100000000E-03 0. -1.
    9900012    2    1    2    0    0  0.11313961872E+02  0.77544800190E+01 -0.12749701586E+02  0.72461212125E+02  0.69999533416E+02 0.  0.
        -12    1    1    2    0    0 -0.11313961872E+02 -0.77544800190E+01  0.12749701586E+02  0.18726787875E+02  0.00000000000E+00 0.  1.
         11    1    3    3    0    0 -0.44118986132E+01  0.52639568589E+01 -0.19622390600E+01  0.71431417160E+01  0.51100000000E-03 0. -1.
        -11    1    3    3    0    0 -0.12907725144E+02  0.24222310674E+02  0.10661817569E+01  0.27467552614E+02  0.51100000000E-03 0.  1.
         12    1    3    3    0    0  0.28633585629E+02 -0.21731787514E+02 -0.11853644282E+02  0.37850517795E+02  0.00000000000E+00 0. -1.
</event>
<event>
 7    1  0.2489154E-013  0.7246158E+02  0.7816164E-02  0.1226708E+00
        -11   -1    0    0    0    0  0.00000000000E+00  0.00000000000E+00  0.45593999997E+02  0.45594000000E+02  0.51100000000E-03 0. -1.
         11   -1    0    0    0    0 -0.00000000000E+00 -0.00000000000E+00 -0.45593999997E+02  0.45594000000E+02  0.51100000000E-03 0.  1.
    9900012    2    1    2    0    0 -0.80767702979E+01 -0.86587756033E+01  0.14507593720E+02  0.72461577786E+02  0.70000009760E+02 0.  0.
        -12    1    1    2    0    0  0.80767702979E+01  0.86587756033E+01 -0.14507593720E+02  0.18726422214E+02  0.00000000000E+00 0.  1.
         11    1    3    3    0    0  0.12176668351E+02 -0.21847418475E+01 -0.53732477077E+01  0.13487629156E+02  0.51100000000E-03 0. -1.
        -11    1    3    3    0    0  0.20195267763E+01  0.11761531253E+02  0.26827364709E+02  0.29361873294E+02  0.51100000000E-03 0.  1.
         12    1    3    3    0    0 -0.22272965425E+02 -0.18235565009E+02 -0.69465232817E+01  0.29612075336E+02  0.00000000000E+00 0. -1.
</event>
<event>
 7    1  0.2489154E-013  0.7246149E+02  0.7816164E-02  0.1226708E+00
        -11   -1    0    0    0    0  0.00000000000E+00  0.00000000000E+00  0.45593999997E+02  0.45594000000E+02  0.51100000000E-03 0. -1.
         11   -1    0    0    0    0 -0.00000000000E+00 -0.00000000000E+00 -0.45593999997E+02  0.45594000000E+02  0.51100000000E-03 0.  1.
    9900012    2    1    2    0    0 -0.19985649887E+01  0.99399176437E+01  0.15744390319E+02  0.72461493351E+02  0.69999899767E+02 0.  0.
        -12    1    1    2    0    0  0.19985649887E+01 -0.99399176437E+01 -0.15744390319E+02  0.18726506649E+02  0.00000000000E+00 0.  1.
         11    1    3    3    0    0 -0.33174469514E+01  0.33300573848E+02  0.11445175030E+02  0.35368428077E+02  0.51100000000E-03 0. -1.
        -11    1    3    3    0    0  0.30809657467E+01  0.46533088721E+01 -0.50309173469E+01  0.75137050118E+01  0.51100000000E-03 0.  1.
         12    1    3    3    0    0 -0.17620837840E+01 -0.28013965076E+02  0.93301326351E+01  0.29579360263E+02  0.00000000000E+00 0. -1.
</event>
<event>
 7    1  0.2489154E-013  0.7246156E+02  0.7816164E-02  0.1226708E+00
        -11   -1    0    0    0    0  0.00000000000E+00  0.00000000000E+00  0.45593999997E+02  0.45594000000E+02  0.51100000000E-03 0.  1.
         11   -1    0    0    0    0 -0.00000000000E+00 -0.00000000000E+00 -0.45593999997E+02  0.45594000000E+02  0.51100000000E-03 0. -1.
    9900012    2    1    2    0    0 -0.60475425019E+01  0.15711989329E+02 -0.82000183040E+01  0.72461556687E+02  0.69999982273E+02 0.  0.
        -12    1    1    2    0    0  0.60475425019E+01 -0.15711989329E+02  0.82000183040E+01  0.18726443313E+02  0.00000000000E+00 0.  1.
         11    1    3    3    0    0 -0.21808597777E+02 -0.64567744736E+01 -0.45116908186E+01  0.23187501545E+02  0.51100000000E-03 0.  1.
        -11    1    3    3    0    0  0.55089099038E+01 -0.10809379251E+02 -0.79084238693E+01  0.14482193773E+02  0.51100000000E-03 0. -1.
        -12    1    3    3    0    0  0.10252145372E+02  0.32978143053E+02  0.42200963839E+01  0.34791861368E+02  0.00000000000E+00 0.  1.
</event>
<event>
 7    1  0.2559418E-013  0.7246158E+02  0.7816164E-02  0.1226708E+00
        -11   -1    0    0    0    0  0.00000000000E+00  0.00000000000E+00  0.45593999997E+02  0.45594000000E+02  0.51100000000E-03 0. -1.
         11   -1    0    0    0    0 -0.00000000000E+00 -0.00000000000E+00 -0.45593999997E+02  0.45594000000E+02  0.51100000000E-03 0.  1.
    9900012    2    1    2    0    0 -0.57336140710E+01 -0.32700258346E+01  0.17524598907E+02  0.72461575725E+02  0.70000007074E+02 0.  0.
        -12    1    1    2    0    0  0.57336140710E+01  0.32700258346E+01 -0.17524598907E+02  0.18726424275E+02  0.00000000000E+00 0.  1.
         11    1    3    3    0    0  0.28739639152E+01 -0.17052171946E+02  0.34110208499E+02  0.38243202805E+02  0.51100000000E-03 0. -1.
        -11    1    3    3    0    0 -0.75901673707E+01 -0.61283869363E+01 -0.34683492641E+01  0.10353608745E+02  0.51100000000E-03 0.  1.
        -12    1    3    3    0    0 -0.10174106155E+01  0.19910533048E+02 -0.13117260328E+02  0.23864764175E+02  0.00000000000E+00 0.  1.
</event>
<event>
 7    1  0.2489154E-013  0.7246137E+02  0.7816164E-02  0.1226709E+00
        -11   -1    0    0    0    0  0.00000000000E+00  0.00000000000E+00  0.45593999997E+02  0.45594000000E+02  0.51100000000E-03 0. -1.
         11   -1    0    0    0    0 -0.00000000000E+00 -0.00000000000E+00 -0.45593999997E+02  0.45594000000E+02  0.51100000000E-03 0.  1.
    9900012    2    1    2    0    0  0.10982524771E+02 -0.11485770431E+02  0.99069693229E+01  0.72461366189E+02  0.69999734114E+02 0.  0.
        -12    1    1    2    0    0 -0.10982524771E+02  0.11485770431E+02 -0.99069693229E+01  0.18726633811E+02  0.00000000000E+00 0.  1.
         11    1    3    3    0    0  0.69769680251E+01 -0.32928374680E+02  0.18579466034E+01  0.33710649767E+02  0.51100000000E-03 0. -1.
        -11    1    3    3    0    0 -0.13258594978E+02  0.53321734299E+01  0.28718151548E+01  0.14576341682E+02  0.51100000000E-03 0.  1.
        -12    1    3    3    0    0  0.17264151724E+02  0.16110430819E+02  0.51772075647E+01  0.24174374740E+02  0.00000000000E+00 0.  1.
</event>
<event>
 7    1  0.2489154E-013  0.7246157E+02  0.7816164E-02  0.1226708E+00
        -11   -1    0    0    0    0  0.00000000000E+00  0.00000000000E+00  0.45593999997E+02  0.45594000000E+02  0.51100000000E-03 0.  1.
         11   -1    0    0    0    0 -0.00000000000E+00 -0.00000000000E+00 -0.45593999997E+02  0.45594000000E+02  0.51100000000E-03 0. -1.
    9900012    2    1    2    0    0  0.16638254786E+02 -0.72717767028E+01 -0.45791637829E+01  0.72461574829E+02  0.70000005907E+02 0.  0.
        -12    1    1    2    0    0 -0.16638254786E+02  0.72717767028E+01  0.45791637829E+01  0.18726425171E+02  0.00000000000E+00 0.  1.
         11    1    3    3    0    0  0.33528718287E+02 -0.14595707533E+02 -0.10882290553E+01  0.36584065808E+02  0.51100000000E-03 0. -1.
        -11    1    3    3    0    0 -0.21627252700E+01 -0.65568183520E+01  0.95627582762E+01  0.11794727365E+02  0.51100000000E-03 0.  1.
        -12    1    3    3    0    0 -0.14727738231E+02  0.13880749182E+02 -0.13053693004E+02  0.24082781656E+02  0.00000000000E+00 0.  1.
</event>
<event>
 7    1  0.2489154E-013  0.7246164E+02  0.7816164E-02  0.1226708E+00
        -11   -1    0    0    0    0  0.00000000000E+00  0.00000000000E+00  0.45593999997E+02  0.45594000000E+02  0.51100000000E-03 0. -1.
         11   -1    0    0    0    0 -0.00000000000E+00 -0.00000000000E+00 -0.45593999997E+02  0.45594000000E+02  0.51100000000E-03 0.  1.
    9900012    2    1    2    0    0  0.31890790409E+01  0.96211292924E+01  0.15746115907E+02  0.72461641034E+02  0.70000092151E+02 0.  0.
        -12    1    1    2    0    0 -0.31890790409E+01 -0.96211292924E+01 -0.15746115907E+02  0.18726358966E+02  0.00000000000E+00 0.  1.
         11    1    3    3    0    0 -0.27412344876E+02  0.12537781434E+01  0.92997030177E+01  0.28974007105E+02  0.51100000000E-03 0. -1.
        -11    1    3    3    0    0 -0.53552940393E+01  0.30472498379E+01  0.33358264436E+01  0.70066143140E+01  0.51100000000E-03 0.  1.
         12    1    3    3    0    0  0.35956717956E+02  0.53201013112E+01  0.31105864454E+01  0.36481019615E+02  0.00000000000E+00 0. -1.
</event>
<event>
 7    1  0.2489154E-013  0.7246152E+02  0.7816164E-02  0.1226708E+00
        -11   -1    0    0    0    0  0.00000000000E+00  0.00000000000E+00  0.45593999997E+02  0.45594000000E+02  0.51100000000E-03 0.  1.
         11   -1    0    0    0    0 -0.00000000000E+00 -0.00000000000E+00 -0.45593999997E+02  0.45594000000E+02  0.51100000000E-03 0. -1.
    9900012    2    1    2    0    0  0.10322434330E+02  0.15477212260E+02 -0.21410896384E+01  0.72461521028E+02  0.69999935822E+02 0.  0.
        -12    1    1    2    0    0 -0.10322434330E+02 -0.15477212260E+02  0.21410896384E+01  0.18726478972E+02  0.00000000000E+00 0.  1.
         11    1    3    3    0    0 -0.90048854507E+01 -0.11450608717E+02 -0.18085790618E+02  0.23222838425E+02  0.51100000000E-03 0. -1.
        -11    1    3    3    0    0  0.84396124351E+01 -0.47150861493E+01  0.12200303616E+02  0.15566197481E+02  0.51100000000E-03 0.  1.
        -12    1    3    3    0    0  0.10887707346E+02  0.31642907127E+02  0.37443973638E+01  0.33672485122E+02  0.00000000000E+00 0.  1.
</event>
<event>
 7    1  0.2489154E-013  0.7246134E+02  0.7816164E-02  0.1226709E+00
        -11   -1    0    0    0    0  0.00000000000E+00  0.00000000000E+00  0.45593999997E+02  0.45594000000E+02  0.51100000000E-03 0.  1.
         11   -1    0    0    0    0 -0.00000000000E+00 -0.00000000000E+00 -0.45593999997E+02  0.45594000000E+02  0.51100000000E-03 0. -1.
    9900012    2    1    2    0    0  0.74395135988E+01  0.80571507731E+01 -0.15179712476E+02  0.72461342209E+02  0.69999702876E+02 0.  0.
        -12    1    1    2    0    0 -0.74395135988E+01 -0.80571507731E+01  0.15179712476E+02  0.18726657791E+02  0.00000000000E+00 0.  1.
         11    1    3    3    0    0  0.94455995410E+01  0.69481877557E+01 -0.27800606013E+02  0.30172344269E+02  0.51100000000E-03 0. -1.
        -11    1    3    3    0    0  0.92018186780E+01  0.14769412457E+02 -0.41911819412E+01  0.17899022812E+02  0.51100000000E-03 0.  1.
        -12    1    3    3    0    0 -0.11207904620E+02 -0.13660449439E+02  0.16812075478E+02  0.24389975128E+02  0.00000000000E+00 0.  1.
</event>
<event>
 7    1  0.2489154E-013  0.7246160E+02  0.7816164E-02  0.1226708E+00
        -11   -1    0    0    0    0  0.00000000000E+00  0.00000000000E+00  0.45593999997E+02  0.45594000000E+02  0.51100000000E-03 0. -1.
         11   -1    0    0    0    0 -0.00000000000E+00 -0.00000000000E+00 -0.45593999997E+02  0.45594000000E+02  0.51100000000E-03 0.  1.
    9900012    2    1    2    0    0  0.17939012939E+01 -0.13614160041E+02  0.12732421220E+02  0.72461601906E+02  0.70000041180E+02 0.  0.
        -12    1    1    2    0    0 -0.17939012939E+01  0.13614160041E+02 -0.12732421220E+02  0.18726398094E+02  0.00000000000E+00 0.  1.
         11    1    3    3    0    0  0.21381263051E+02 -0.11949780946E+02 -0.10236725552E+01  0.24515374361E+02  0.51100000000E-03 0. -1.
        -11    1    3    3    0    0 -0.39173852859E+01  0.19096959470E+02  0.26915308662E+01  0.19679535237E+02  0.51100000000E-03 0.  1.
         12    1    3    3    0    0 -0.15669976471E+02 -0.20761338565E+02  0.11064562909E+02  0.28266692307E+02  0.00000000000E+00 0. -1.
</event>
<event>
 7    1  0.2489154E-013  0.7246159E+02  0.7816164E-02  0.1226708E+00
        -11   -1    0    0    0    0  0.00000000000E+00  0.00000000000E+00  0.45593999997E+02  0.45594000000E+02  0.51100000000E-03 0.  1.
         11   -1    0    0    0    0 -0.00000000000E+00 -0.00000000000E+00 -0.45593999997E+02  0.45594000000E+02  0.51100000000E-03 0. -1.
    9900012    2    1    2    0    0  0.15749189169E+02  0.77359017799E+01 -0.65419663080E+01  0.72461589265E+02  0.70000024713E+02 0.  0.
        -12    1    1    2    0    0 -0.15749189169E+02 -0.77359017799E+01  0.65419663080E+01  0.18726410735E+02  0.00000000000E+00 0.  1.
         11    1    3    3    0    0 -0.11821289804E+01  0.18174338070E+02  0.42905939747E+01  0.18711311822E+02  0.51100000000E-03 0. -1.
        -11    1    3    3    0    0 -0.56073245552E+01  0.11146359153E+02  0.10200905320E+02  0.16116509568E+02  0.51100000000E-03 0.  1.
         12    1    3    3    0    0  0.22538642705E+02 -0.21584795443E+02 -0.21033465603E+02  0.37633767876E+02  0.00000000000E+00 0. -1.
</event>
<event>
 7    1  0.2489154E-013  0.7246127E+02  0.7816164E-02  0.1226709E+00
        -11   -1    0    0    0    0  0.00000000000E+00  0.00000000000E+00  0.45593999997E+02  0.45594000000E+02  0.51100000000E-03 0.  1.
         11   -1    0    0    0    0 -0.00000000000E+00 -0.00000000000E+00 -0.45593999997E+02  0.45594000000E+02  0.51100000000E-03 0. -1.
    9900012    2    1    2    0    0  0.27274274443E+01 -0.17757111852E+02 -0.52854879899E+01  0.72461274043E+02  0.69999614077E+02 0.  0.
        -12    1    1    2    0    0 -0.27274274443E+01  0.17757111852E+02  0.52854879899E+01  0.18726725957E+02  0.00000000000E+00 0.  1.
         11    1    3    3    0    0  0.26247400119E+01 -0.30019454240E+02 -0.27882581740E+00  0.30135272308E+02  0.51100000000E-03 0. -1.
        -11    1    3    3    0    0 -0.16626576162E+02 -0.24685665264E+01  0.54967681548E+01  0.17684776390E+02  0.51100000000E-03 0.  1.
         12    1    3    3    0    0  0.16729263594E+02  0.14730908914E+02 -0.10503430327E+02  0.24641225345E+02  0.00000000000E+00 0. -1.
</event>
<event>
 7    1  0.2489154E-013  0.7246160E+02  0.7816164E-02  0.1226708E+00
        -11   -1    0    0    0    0  0.00000000000E+00  0.00000000000E+00  0.45593999997E+02  0.45594000000E+02  0.51100000000E-03 0. -1.
         11   -1    0    0    0    0 -0.00000000000E+00 -0.00000000000E+00 -0.45593999997E+02  0.45594000000E+02  0.51100000000E-03 0.  1.
    9900012    2    1    2    0    0 -0.35338966391E+01  0.18338071849E+02 -0.13801812502E+01  0.72461596051E+02  0.70000033553E+02 0.  0.
        -12    1    1    2    0    0  0.35338966391E+01 -0.18338071849E+02  0.13801812502E+01  0.18726403949E+02  0.00000000000E+00 0.  1.
         11    1    3    3    0    0  0.80300373506E+01  0.37164944553E+02 -0.84987520504E+01  0.38960792986E+02  0.51100000000E-03 0. -1.
        -11    1    3    3    0    0  0.39568013830E+01 -0.85059355330E+00 -0.53252928316E+01  0.66886867606E+01  0.51100000000E-03 0.  1.
        -12    1    3    3    0    0 -0.15520735373E+02 -0.17976279151E+02  0.12443863632E+02  0.26812116304E+02  0.00000000000E+00 0.  1.
</event>
<event>
 7    1  0.2489154E-013  0.7246155E+02  0.7816164E-02  0.1226708E+00
        -11   -1    0    0    0    0  0.00000000000E+00  0.00000000000E+00  0.45593999997E+02  0.45594000000E+02  0.51100000000E-03 0. -1.
         11   -1    0    0    0    0 -0.00000000000E+00 -0.00000000000E+00 -0.45593999997E+02  0.45594000000E+02  0.51100000000E-03 0.  1.
    9900012    2    1    2    0    0 -0.30426284251E+01 -0.17334168271E+02  0.63991291082E+01  0.72461552640E+02  0.69999977002E+02 0.  0.
        -12    1    1    2    0    0  0.30426284251E+01  0.17334168271E+02 -0.63991291082E+01  0.18726447360E+02  0.00000000000E+00 0.  1.
         11    1    3    3    0    0 -0.87234168798E+01 -0.23769441103E+01  0.29510987763E+02  0.30864968238E+02  0.51100000000E-03 0. -1.
        -11    1    3    3    0    0  0.30225965298E+01 -0.14705719693E+02  0.30324107201E+01  0.15316324511E+02  0.51100000000E-03 0.  1.
        -12    1    3    3    0    0  0.26581919250E+01 -0.25150446743E+00 -0.26144269375E+02  0.26280259891E+02  0.00000000000E+00 0.  1.
</event>
<event>
 7    1  0.2489154E-013  0.7246172E+02  0.7816164E-02  0.1226708E+00
        -11   -1    0    0    0    0  0.00000000000E+00  0.00000000000E+00  0.45593999997E+02  0.45594000000E+02  0.51100000000E-03 0.  1.
         11   -1    0    0    0    0 -0.00000000000E+00 -0.00000000000E+00 -0.45593999997E+02  0.45594000000E+02  0.51100000000E-03 0. -1.
    9900012    2    1    2    0    0  0.17315178792E+02  0.20028310902E+01 -0.68444758635E+01  0.72461719034E+02  0.70000193760E+02 0.  0.
        -12    1    1    2    0    0 -0.17315178792E+02 -0.20028310902E+01  0.68444758635E+01  0.18726280966E+02  0.00000000000E+00 0.  1.
         11    1    3    3    0    0 -0.11922894632E+02 -0.13490303565E+02 -0.19099646229E+02  0.26247670239E+02  0.51100000000E-03 0. -1.
        -11    1    3    3    0    0 -0.27178598774E+00 -0.37036170932E+01  0.10307266601E+02  0.10955838272E+02  0.51100000000E-03 0.  1.
         12    1    3    3    0    0  0.29509859412E+02  0.19196751748E+02  0.19479037640E+01  0.35258210523E+02  0.00000000000E+00 0. -1.
</event>
<event>
 7    1  0.2489154E-013  0.7246157E+02  0.7816164E-02  0.1226708E+00
        -11   -1    0    0    0    0  0.00000000000E+00  0.00000000000E+00  0.45593999997E+02  0.45594000000E+02  0.51100000000E-03 0. -1.
         11   -1    0    0    0    0 -0.00000000000E+00 -0.00000000000E+00 -0.45593999997E+02  0.45594000000E+02  0.51100000000E-03 0.  1.
    9900012    2    1    2    0    0 -0.12594489124E+02  0.10232295597E+02  0.93465649910E+01  0.72461566634E+02  0.69999995231E+02 0.  0.
        -12    1    1    2    0    0  0.12594489124E+02 -0.10232295597E+02 -0.93465649910E+01  0.18726433366E+02  0.00000000000E+00 0.  1.
         11    1    3    3    0    0 -0.19142958428E+02 -0.71848945719E+01 -0.83022322237E+01  0.22068136024E+02  0.51100000000E-03 0.  1.
        -11    1    3    3    0    0  0.26057735710E+01  0.19727664896E+02 -0.10068985225E+02  0.22301463671E+02  0.51100000000E-03 0. -1.
        -12    1    3    3    0    0  0.39426957332E+01 -0.23104747268E+01  0.27717782440E+02  0.28091966939E+02  0.00000000000E+00 0.  1.
</event>
<event>
 7    1  0.2489154E-013  0.7246160E+02  0.7816164E-02  0.1226708E+00
        -11   -1    0    0    0    0  0.00000000000E+00  0.00000000000E+00  0.45593999997E+02  0.45594000000E+02  0.51100000000E-03 0. -1.
         11   -1    0    0    0    0 -0.00000000000E+00 -0.00000000000E+00 -0.45593999997E+02  0.45594000000E+02  0.51100000000E-03 0.  1.
    9900012    2    1    2    0    0 -0.14461167774E+02  0.11638862458E+02  0.24676851474E+01  0.72461602517E+02  0.70000041976E+02 0.  0.
        -12    1    1    2    0    0  0.14461167774E+02 -0.11638862458E+02 -0.24676851474E+01  0.18726397483E+02  0.00000000000E+00 0.  1.
         11    1    3    3    0    0 -0.19550480925E+02  0.14983053356E+02  0.11713450800E+02  0.27274862460E+02  0.51100000000E-03 0. -1.
        -11    1    3    3    0    0 -0.16852787813E+02 -0.11886787809E+02 -0.55038254221E+01  0.21344888757E+02  0.51100000000E-03 0.  1.
        -12    1    3    3    0    0  0.21942100965E+02  0.85425969109E+01 -0.37419402308E+01  0.23841851300E+02  0.00000000000E+00 0.  1.
</event>
<event>
 7    1  0.2489154E-013  0.7246158E+02  0.7816164E-02  0.1226708E+00
        -11   -1    0    0    0    0  0.00000000000E+00  0.00000000000E+00  0.45593999997E+02  0.45594000000E+02  0.51100000000E-03 0.  1.
         11   -1    0    0    0    0 -0.00000000000E+00 -0.00000000000E+00 -0.45593999997E+02  0.45594000000E+02  0.51100000000E-03 0. -1.
    9900012    2    1    2    0    0  0.63614263196E+01  0.12666474750E+01 -0.17567207209E+02  0.72461577230E+02  0.70000009035E+02 0.  0.
        -12    1    1    2    0    0 -0.63614263196E+01 -0.12666474750E+01  0.17567207209E+02  0.18726422770E+02  0.00000000000E+00 0.  1.
         11    1    3    3    0    0 -0.50389724721E+01  0.24310496459E+01 -0.21196552663E+02  0.21922479126E+02  0.51100000000E-03 0. -1.
        -11    1    3    3    0    0  0.50720463473E+01 -0.13614771359E+02 -0.19017324254E+02  0.23932118071E+02  0.51100000000E-03 0.  1.
        -12    1    3    3    0    0  0.63283524444E+01  0.12450369188E+02  0.22646669709E+02  0.26606980033E+02  0.00000000000E+00 0.  1.
</event>
<event>
 7    1  0.2489154E-013  0.7246154E+02  0.7816164E-02  0.1226708E+00
        -11   -1    0    0    0    0  0.00000000000E+00  0.00000000000E+00  0.45593999997E+02  0.45594000000E+02  0.51100000000E-03 0.  1.
         11   -1    0    0    0    0 -0.00000000000E+00 -0.00000000000E+00 -0.45593999997E+02  0.45594000000E+02  0.51100000000E-03 0. -1.
    9900012    2    1    2    0    0 -0.98375012670E+01 -0.26498417133E+01 -0.15712487324E+02  0.72461538770E+02  0.69999958934E+02 0.  0.
        -12    1    1    2    0    0  0.98375012670E+01  0.26498417133E+01  0.15712487324E+02  0.18726461230E+02  0.00000000000E+00 0.  1.
         11    1    3    3    0    0 -0.96493775055E+01 -0.24137323505E+01 -0.15310279528E+01  0.10063828146E+02  0.51100000000E-03 0. -1.
        -11    1    3    3    0    0 -0.89286693555E+01  0.27654068312E+02  0.17455978825E+01  0.29112123641E+02  0.51100000000E-03 0.  1.
         12    1    3    3    0    0  0.87405455939E+01 -0.27890177675E+02 -0.15927057254E+02  0.33285586983E+02  0.00000000000E+00 0. -1.
</event>
<event>
 7    1  0.2489154E-013  0.7246162E+02  0.7816164E-02  0.1226708E+00
        -11   -1    0    0    0    0  0.00000000000E+00  0.00000000000E+00  0.45593999997E+02  0.45594000000E+02  0.51100000000E-03 0. -1.
         11   -1    0    0    0    0 -0.00000000000E+00 -0.00000000000E+00 -0.45593999997E+02  0.45594000000E+02  0.51100000000E-03 0.  1.
    9900012    2    1    2    0    0  0.85603385439E+01 -0.12827375958E+02 -0.10623387837E+02  0.72461619168E+02  0.70000063666E+02 0.  0.
        -12    1    1    2    0    0 -0.85603385439E+01  0.12827375958E+02  0.10623387837E+02  0.18726380832E+02  0.00000000000E+00 0.  1.
         11    1    3    3    0    0 -0.83529678928E+01  0.11208152814E+01 -0.83491087404E+01  0.11863216956E+02  0.51100000000E-03 0. -1.
        -11    1    3    3    0    0 -0.93050193131E+00  0.46953744840E+01 -0.25459972704E+02  0.25906033771E+02  0.51100000000E-03 0.  1.
         12    1    3    3    0    0  0.17843808368E+02 -0.18643565723E+02  0.23185693608E+02  0.34692368441E+02  0.00000000000E+00 0. -1.
</event>
<event>
 7    1  0.2489154E-013  0.7246157E+02  0.7816164E-02  0.1226708E+00
        -11   -1    0    0    0    0  0.00000000000E+00  0.00000000000E+00  0.45593999997E+02  0.45594000000E+02  0.51100000000E-03 0.  1.
         11   -1    0    0    0    0 -0.00000000000E+00 -0.00000000000E+00 -0.45593999997E+02  0.45594000000E+02  0.51100000000E-03 0. -1.
    9900012    2    1    2    0    0  0.10293565345E+02  0.79115435606E+01 -0.13495530367E+02  0.72461565505E+02  0.69999993761E+02 0.  0.
        -12    1    1    2    0    0 -0.10293565345E+02 -0.79115435606E+01  0.13495530367E+02  0.18726434495E+02  0.00000000000E+00 0.  1.
         11    1    3    3    0    0  0.75945013181E+01  0.23730098188E+02  0.11648306269E+02  0.27504127863E+02  0.51100000000E-03 0. -1.
        -11    1    3    3    0    0  0.67113896577E+01 -0.24967435663E+01  0.69492247245E+01  0.99783868489E+01  0.51100000000E-03 0.  1.
        -12    1    3    3    0    0 -0.40123256306E+01 -0.13321811061E+02 -0.32093061360E+02  0.34979050793E+02  0.00000000000E+00 0.  1.
</event>
<event>
 7    1  0.2489154E-013  0.7246156E+02  0.7816164E-02  0.1226708E+00
        -11   -1    0    0    0    0  0.00000000000E+00  0.00000000000E+00  0.45593999997E+02  0.45594000000E+02  0.51100000000E-03 0.  1.
         11   -1    0    0    0    0 -0.00000000000E+00 -0.00000000000E+00 -0.45593999997E+02  0.45594000000E+02  0.51100000000E-03 0. -1.
    9900012    2    1    2    0    0 -0.73341281450E+01  0.62179443764E+01 -0.16069453929E+02  0.72461558334E+02  0.69999984419E+02 0.  0.
        -12    1    1    2    0    0  0.73341281450E+01 -0.62179443764E+01  0.16069453929E+02  0.18726441666E+02  0.00000000000E+00 0.  1.
         11    1    3    3    0    0 -0.19254280253E+01  0.80698856901E+01 -0.23153720821E+02  0.24595225477E+02  0.51100000000E-03 0. -1.
        -11    1    3    3    0    0  0.10495367253E+02 -0.45321709930E+01 -0.16025367975E+02  0.19685165142E+02  0.51100000000E-03 0.  1.
        -12    1    3    3    0    0 -0.15904067372E+02  0.26802296793E+01  0.23109634867E+02  0.28181167715E+02  0.00000000000E+00 0.  1.
</event>
<event>
 7    1  0.2489154E-013  0.7246149E+02  0.7816164E-02  0.1226708E+00
        -11   -1    0    0    0    0  0.00000000000E+00  0.00000000000E+00  0.45593999997E+02  0.45594000000E+02  0.51100000000E-03 0.  1.
         11   -1    0    0    0    0 -0.00000000000E+00 -0.00000000000E+00 -0.45593999997E+02  0.45594000000E+02  0.51100000000E-03 0. -1.
    9900012    2    1    2    0    0  0.10021706575E+02  0.14452889080E+02  0.64312859150E+01  0.72461493547E+02  0.69999900022E+02 0.  0.
        -12    1    1    2    0    0 -0.10021706575E+02 -0.14452889080E+02 -0.64312859150E+01  0.18726506453E+02  0.00000000000E+00 0.  1.
         11    1    3    3    0    0  0.16538763610E+02  0.20124435164E+02  0.27575503882E+01  0.26194038956E+02  0.51100000000E-03 0. -1.
        -11    1    3    3    0    0 -0.14006104844E+02 -0.13581290584E+02  0.19153033525E+02  0.27339735191E+02  0.51100000000E-03 0.  1.
         12    1    3    3    0    0  0.74890478087E+01  0.79097444997E+01 -0.15479297999E+02  0.18927719399E+02  0.00000000000E+00 0. -1.
</event>
<event>
 7    1  0.2489154E-013  0.7246157E+02  0.7816164E-02  0.1226708E+00
        -11   -1    0    0    0    0  0.00000000000E+00  0.00000000000E+00  0.45593999997E+02  0.45594000000E+02  0.51100000000E-03 0. -1.
         11   -1    0    0    0    0 -0.00000000000E+00 -0.00000000000E+00 -0.45593999997E+02  0.45594000000E+02  0.51100000000E-03 0.  1.
    9900012    2    1    2    0    0 -0.10364749540E+02  0.28077358258E+01  0.15341703094E+02  0.72461567683E+02  0.69999996598E+02 0.  0.
        -12    1    1    2    0    0  0.10364749540E+02 -0.28077358258E+01 -0.15341703094E+02  0.18726432317E+02  0.00000000000E+00 0.  1.
         11    1    3    3    0    0 -0.10506784127E+02  0.12866426475E+01  0.26846969908E+02  0.28858408748E+02  0.51100000000E-03 0. -1.
        -11    1    3    3    0    0 -0.18120559536E+02  0.11159926178E+02 -0.41506846091E+01  0.21682407919E+02  0.51100000000E-03 0.  1.
        -12    1    3    3    0    0  0.18262594123E+02 -0.96388329993E+01 -0.73545822042E+01  0.21920751015E+02  0.00000000000E+00 0.  1.
</event>
<event>
 7    1  0.2489154E-013  0.7246152E+02  0.7816164E-02  0.1226708E+00
        -11   -1    0    0    0    0  0.00000000000E+00  0.00000000000E+00  0.45593999997E+02  0.45594000000E+02  0.51100000000E-03 0. -1.
         11   -1    0    0    0    0 -0.00000000000E+00 -0.00000000000E+00 -0.45593999997E+02  0.45594000000E+02  0.51100000000E-03 0.  1.
    9900012    2    1    2    0    0 -0.12091043038E+02  0.14261956312E+02  0.10412534724E+01  0.72461523332E+02  0.69999938823E+02 0.  0.
        -12    1    1    2    0    0  0.12091043038E+02 -0.14261956312E+02 -0.10412534724E+01  0.18726476668E+02  0.00000000000E+00 0.  1.
         11    1    3    3    0    0 -0.18732344230E+02 -0.15437431291E+02  0.25508748306E+01  0.24407416247E+02  0.51100000000E-03 0. -1.
        -11    1    3    3    0    0 -0.13281800915E+01  0.85682661872E+01  0.16849294542E+02  0.18949352882E+02  0.51100000000E-03 0.  1.
        -12    1    3    3    0    0  0.79694812834E+01  0.21131121416E+02 -0.18358915900E+02  0.29104754204E+02  0.00000000000E+00 0.  1.
</event>
<event>
 7    1  0.2489154E-013  0.7246156E+02  0.7816164E-02  0.1226708E+00
        -11   -1    0    0    0    0  0.00000000000E+00  0.00000000000E+00  0.45593999997E+02  0.45594000000E+02  0.51100000000E-03 0.  1.
         11   -1    0    0    0    0 -0.00000000000E+00 -0.00000000000E+00 -0.45593999997E+02  0.45594000000E+02  0.51100000000E-03 0. -1.
    9900012    2    1    2    0    0 -0.36459671674E+01 -0.18746942884E+01 -0.18272162495E+02  0.72461562072E+02  0.69999989288E+02 0.  0.
        -12    1    1    2    0    0  0.36459671674E+01  0.18746942884E+01  0.18272162495E+02  0.18726437928E+02  0.00000000000E+00 0.  1.
         11    1    3    3    0    0 -0.25031305815E+02  0.70294208666E+01 -0.19347371423E+02  0.32408329327E+02  0.51100000000E-03 0. -1.
        -11    1    3    3    0    0 -0.11068564329E+00 -0.17050201025E+02  0.55319738287E+00  0.17059532055E+02  0.51100000000E-03 0.  1.
        -12    1    3    3    0    0  0.21496024291E+02  0.81460858704E+01  0.52201154583E+00  0.22993700689E+02  0.00000000000E+00 0.  1.
</event>
<event>
 7    1  0.2489154E-013  0.7246155E+02  0.7816164E-02  0.1226708E+00
        -11   -1    0    0    0    0  0.00000000000E+00  0.00000000000E+00  0.45593999997E+02  0.45594000000E+02  0.51100000000E-03 0.  1.
         11   -1    0    0    0    0 -0.00000000000E+00 -0.00000000000E+00 -0.45593999997E+02  0.45594000000E+02  0.51100000000E-03 0. -1.
    9900012    2    1    2    0    0 -0.10594285732E+02 -0.15438327941E+02  0.31491022758E+00  0.72461547366E+02  0.69999970132E+02 0.  0.
        -12    1    1    2    0    0  0.10594285732E+02  0.15438327941E+02 -0.31491022758E+00  0.18726452634E+02  0.00000000000E+00 0.  1.
         11    1    3    3    0    0  0.13135246264E+02  0.31089794076E+01 -0.20631880962E+02  0.24655120354E+02  0.51100000000E-03 0. -1.
        -11    1    3    3    0    0  0.51653228887E+01  0.37241920102E+01  0.44455905869E+01  0.77661729701E+01  0.51100000000E-03 0.  1.
        -12    1    3    3    0    0 -0.28894854884E+02 -0.22271499359E+02  0.16501200603E+02  0.40040254043E+02  0.00000000000E+00 0.  1.
</event>
<event>
 7    1  0.2489154E-013  0.7246159E+02  0.7816164E-02  0.1226708E+00
        -11   -1    0    0    0    0  0.00000000000E+00  0.00000000000E+00  0.45593999997E+02  0.45594000000E+02  0.51100000000E-03 0. -1.
         11   -1    0    0    0    0 -0.00000000000E+00 -0.00000000000E+00 -0.45593999997E+02  0.45594000000E+02  0.51100000000E-03 0.  1.
    9900012    2    1    2    0    0  0.12858464124E+02  0.38586473127E+00  0.13608434978E+02  0.72461588337E+02  0.70000023504E+02 0.  0.
        -12    1    1    2    0    0 -0.12858464124E+02 -0.38586473127E+00 -0.13608434978E+02  0.18726411663E+02  0.00000000000E+00 0.  1.
         11    1    3    3    0    0  0.23842182754E+02  0.58682478771E+01  0.16297659402E+02  0.29470319202E+02  0.51100000000E-03 0. -1.
        -11    1    3    3    0    0  0.11138846090E+02 -0.11273042143E+01 -0.13869504432E+02  0.17824361432E+02  0.51100000000E-03 0.  1.
        -12    1    3    3    0    0 -0.22122564720E+02 -0.43550789316E+01  0.11180280008E+02  0.25166907703E+02  0.00000000000E+00 0.  1.
</event>
<event>
 7    1  0.2489154E-013  0.7246153E+02  0.7816164E-02  0.1226708E+00
        -11   -1    0    0    0    0  0.00000000000E+00  0.00000000000E+00  0.45593999997E+02  0.45594000000E+02  0.51100000000E-03 0.  1.
         11   -1    0    0    0    0 -0.00000000000E+00 -0.00000000000E+00 -0.45593999997E+02  0.45594000000E+02  0.51100000000E-03 0. -1.
    9900012    2    1    2    0    0  0.16094307222E+02  0.12900950240E+01 -0.94862807974E+01  0.72461532274E+02  0.69999950471E+02 0.  0.
        -12    1    1    2    0    0 -0.16094307222E+02 -0.12900950240E+01  0.94862807974E+01  0.18726467726E+02  0.00000000000E+00 0.  1.
         11    1    3    3    0    0  0.10355968621E+02  0.44535776989E+01 -0.33257439711E+02  0.35116060952E+02  0.51100000000E-03 0. -1.
        -11    1    3    3    0    0 -0.50222386397E+01  0.53631370240E+01 -0.24518506356E+01  0.77458176775E+01  0.51100000000E-03 0.  1.
        -12    1    3    3    0    0  0.10760577241E+02 -0.85266196989E+01  0.26223009549E+02  0.29599653644E+02  0.00000000000E+00 0.  1.
</event>
<event>
 7    1  0.2489154E-013  0.7246152E+02  0.7816164E-02  0.1226708E+00
        -11   -1    0    0    0    0  0.00000000000E+00  0.00000000000E+00  0.45593999997E+02  0.45594000000E+02  0.51100000000E-03 0. -1.
         11   -1    0    0    0    0 -0.00000000000E+00 -0.00000000000E+00 -0.45593999997E+02  0.45594000000E+02  0.51100000000E-03 0.  1.
    9900012    2    1    2    0    0  0.78851355605E+00  0.63135116892E+01  0.17612458175E+02  0.72461524986E+02  0.69999940978E+02 0.  0.
        -12    1    1    2    0    0 -0.78851355605E+00 -0.63135116892E+01 -0.17612458175E+02  0.18726475014E+02  0.00000000000E+00 0.  1.
         11    1    3    3    0    0 -0.12596294570E+02  0.19706890554E+02  0.13832930536E+02  0.27173114280E+02  0.51100000000E-03 0. -1.
        -11    1    3    3    0    0  0.83183642223E+01  0.82610503722E+01 -0.12943259698E+02  0.17463336120E+02  0.51100000000E-03 0.  1.
        -12    1    3    3    0    0  0.50664439039E+01 -0.21654429237E+02  0.16722787337E+02  0.27825074586E+02  0.00000000000E+00 0.  1.
</event>
<event>
 7    1  0.2489154E-013  0.7246156E+02  0.7816164E-02  0.1226708E+00
        -11   -1    0    0    0    0  0.00000000000E+00  0.00000000000E+00  0.45593999997E+02  0.45594000000E+02  0.51100000000E-03 0.  1.
         11   -1    0    0    0    0 -0.00000000000E+00 -0.00000000000E+00 -0.45593999997E+02  0.45594000000E+02  0.51100000000E-03 0. -1.
    9900012    2    1    2    0    0 -0.16535539825E+02  0.68985464252E+01  0.54466019379E+01  0.72461561664E+02  0.69999988758E+02 0.  0.
        -12    1    1    2    0    0  0.16535539825E+02 -0.68985464252E+01 -0.54466019379E+01  0.18726438336E+02  0.00000000000E+00 0.  1.
         11    1    3    3    0    0  0.31191969211E+01 -0.16791726581E+00 -0.39704568064E+01  0.50519415231E+01  0.51100000000E-03 0. -1.
        -11    1    3    3    0    0  0.91332467361E+01 -0.23195723157E+02  0.22374445816E+01  0.25029261420E+02  0.51100000000E-03 0.  1.
        -12    1    3    3    0    0 -0.28787983482E+02  0.30262186848E+02  0.71796141627E+01  0.42380358721E+02  0.00000000000E+00 0.  1.
</event>
<event>
 7    1  0.2489154E-013  0.7246168E+02  0.7816164E-02  0.1226708E+00
        -11   -1    0    0    0    0  0.00000000000E+00  0.00000000000E+00  0.45593999997E+02  0.45594000000E+02  0.51100000000E-03 0.  1.
         11   -1    0    0    0    0 -0.00000000000E+00 -0.00000000000E+00 -0.45593999997E+02  0.45594000000E+02  0.51100000000E-03 0. -1.
    9900012    2    1    2    0    0  0.17523784949E+02 -0.52636479839E+01  0.39857198415E+01  0.72461681844E+02  0.70000145314E+02 0.  0.
        -12    1    1    2    0    0 -0.17523784949E+02  0.52636479839E+01 -0.39857198415E+01  0.18726318156E+02  0.00000000000E+00 0.  1.
         11    1    3    3    0    0 -0.17908889977E+01  0.85071171435E+00  0.67285824258E+00  0.20937364444E+01  0.51100000000E-03 0. -1.
        -11    1    3    3    0    0  0.11843137663E+01  0.29699223712E+02  0.52365686083E+01  0.30180592096E+02  0.51100000000E-03 0.  1.
         12    1    3    3    0    0  0.18130360180E+02 -0.35813583410E+02 -0.19237070094E+01  0.40187353304E+02  0.00000000000E+00 0. -1.
</event>
<event>
 7    1  0.2489154E-013  0.7246159E+02  0.7816164E-02  0.1226708E+00
        -11   -1    0    0    0    0  0.00000000000E+00  0.00000000000E+00  0.45593999997E+02  0.45594000000E+02  0.51100000000E-03 0.  1.
         11   -1    0    0    0    0 -0.00000000000E+00 -0.00000000000E+00 -0.45593999997E+02  0.45594000000E+02  0.51100000000E-03 0. -1.
    9900012    2    1    2    0    0  0.12437932328E+02 -0.57331160417E+01 -0.12771355809E+02  0.72461593262E+02  0.70000029920E+02 0.  0.
        -12    1    1    2    0    0 -0.12437932328E+02  0.57331160417E+01  0.12771355809E+02  0.18726406738E+02  0.00000000000E+00 0.  1.
         11    1    3    3    0    0  0.19295007122E+01  0.73134747720E+01 -0.27794469632E+01  0.80582387605E+01  0.51100000000E-03 0. -1.
        -11    1    3    3    0    0 -0.59346253569E+01  0.23120922696E+02 -0.29083059277E+01  0.24046935107E+02  0.51100000000E-03 0.  1.
         12    1    3    3    0    0  0.16443056972E+02 -0.36167513509E+02 -0.70836029177E+01  0.40356419394E+02  0.00000000000E+00 0. -1.
</event>
<event>
 7    1  0.2489154E-013  0.7246162E+02  0.7816164E-02  0.1226708E+00
        -11   -1    0    0    0    0  0.00000000000E+00  0.00000000000E+00  0.45593999997E+02  0.45594000000E+02  0.51100000000E-03 0. -1.
         11   -1    0    0    0    0 -0.00000000000E+00 -0.00000000000E+00 -0.45593999997E+02  0.45594000000E+02  0.51100000000E-03 0.  1.
    9900012    2    1    2    0    0 -0.11515738606E+02  0.13095093303E+02  0.68252180100E+01  0.72461620074E+02  0.70000064847E+02 0.  0.
        -12    1    1    2    0    0  0.11515738606E+02 -0.13095093303E+02 -0.68252180100E+01  0.18726379926E+02  0.00000000000E+00 0.  1.
         11    1    3    3    0    0 -0.10208601799E+02 -0.11547324020E+02 -0.59874350336E+01  0.16534981744E+02  0.51100000000E-03 0. -1.
        -11    1    3    3    0    0 -0.38873877030E+01  0.45089360658E+01 -0.18039251756E+02  0.18996233621E+02  0.51100000000E-03 0.  1.
        -12    1    3    3    0    0  0.25802508966E+01  0.20133481257E+02  0.30851904800E+02  0.36930404709E+02  0.00000000000E+00 0.  1.
</event>
<event>
 7    1  0.2489154E-013  0.7246154E+02  0.7816164E-02  0.1226708E+00
        -11   -1    0    0    0    0  0.00000000000E+00  0.00000000000E+00  0.45593999997E+02  0.45594000000E+02  0.51100000000E-03 0. -1.
         11   -1    0    0    0    0 -0.00000000000E+00 -0.00000000000E+00 -0.45593999997E+02  0.45594000000E+02  0.51100000000E-03 0.  1.
    9900012    2    1    2    0    0 -0.11427863837E+02 -0.56709675823E+01  0.13708548143E+02  0.72461541782E+02  0.69999962858E+02 0.  0.
        -12    1    1    2    0    0  0.11427863837E+02  0.56709675823E+01 -0.13708548143E+02  0.18726458218E+02  0.00000000000E+00 0.  1.
         11    1    3    3    0    0 -0.17435713135E+02 -0.96852539741E+01 -0.21461369301E+01  0.20060262737E+02  0.51100000000E-03 0. -1.
        -11    1    3    3    0    0  0.45503510922E+01  0.17269349972E+02 -0.12002207105E+02  0.21517181952E+02  0.51100000000E-03 0.  1.
         12    1    3    3    0    0  0.14574982061E+01 -0.13255063580E+02  0.27856892177E+02  0.30884097094E+02  0.00000000000E+00 0. -1.
</event>
<event>
 7    1  0.2489154E-013  0.7246155E+02  0.7816164E-02  0.1226708E+00
        -11   -1    0    0    0    0  0.00000000000E+00  0.00000000000E+00  0.45593999997E+02  0.45594000000E+02  0.51100000000E-03 0.  1.
         11   -1    0    0    0    0 -0.00000000000E+00 -0.00000000000E+00 -0.45593999997E+02  0.45594000000E+02  0.51100000000E-03 0. -1.
    9900012    2    1    2    0    0  0.13548598653E+02  0.12394918866E+02 -0.36716808407E+01  0.72461554012E+02  0.69999978789E+02 0.  0.
        -12    1    1    2    0    0 -0.13548598653E+02 -0.12394918866E+02  0.36716808407E+01  0.18726445988E+02  0.00000000000E+00 0.  1.
         11    1    3    3    0    0  0.62172249516E+01  0.30280540957E+01  0.13629215608E+02  0.15283275697E+02  0.51100000000E-03 0. -1.
        -11    1    3    3    0    0  0.25653977761E+02  0.80340620030E+00  0.59649037011E+01  0.26350561908E+02  0.51100000000E-03 0.  1.
         12    1    3    3    0    0 -0.18322604059E+02  0.85634585702E+01 -0.23265800149E+02  0.30827716406E+02  0.00000000000E+00 0. -1.
</event>
<event>
 7    1  0.2489154E-013  0.7246171E+02  0.7816164E-02  0.1226708E+00
        -11   -1    0    0    0    0  0.00000000000E+00  0.00000000000E+00  0.45593999997E+02  0.45594000000E+02  0.51100000000E-03 0.  1.
         11   -1    0    0    0    0 -0.00000000000E+00 -0.00000000000E+00 -0.45593999997E+02  0.45594000000E+02  0.51100000000E-03 0. -1.
    9900012    2    1    2    0    0  0.24004420647E+01  0.67396331060E+01 -0.17305755224E+02  0.72461709914E+02  0.70000181880E+02 0.  0.
        -12    1    1    2    0    0 -0.24004420647E+01 -0.67396331060E+01  0.17305755224E+02  0.18726290086E+02  0.00000000000E+00 0.  1.
         11    1    3    3    0    0 -0.29989337812E+01 -0.88295182636E+01 -0.38208589548E+01  0.10077348858E+02  0.51100000000E-03 0. -1.
        -11    1    3    3    0    0 -0.16032905383E+02 -0.15817749517E+02 -0.16708889097E+01  0.22584222918E+02  0.51100000000E-03 0.  1.
         12    1    3    3    0    0  0.21432281229E+02  0.31386900886E+02 -0.11814007359E+02  0.39800138138E+02  0.00000000000E+00 0. -1.
</event>
<event>
 7    1  0.2489154E-013  0.7246159E+02  0.7816164E-02  0.1226708E+00
        -11   -1    0    0    0    0  0.00000000000E+00  0.00000000000E+00  0.45593999997E+02  0.45594000000E+02  0.51100000000E-03 0. -1.
         11   -1    0    0    0    0 -0.00000000000E+00 -0.00000000000E+00 -0.45593999997E+02  0.45594000000E+02  0.51100000000E-03 0.  1.
    9900012    2    1    2    0    0  0.12229399567E+02 -0.14146420942E+02  0.99956066681E+00  0.72461586548E+02  0.70000021173E+02 0.  0.
        -12    1    1    2    0    0 -0.12229399567E+02  0.14146420942E+02 -0.99956066681E+00  0.18726413452E+02  0.00000000000E+00 0.  1.
         11    1    3    3    0    0 -0.10139661077E+02 -0.12471808321E+02  0.20455986007E+02  0.26015497176E+02  0.51100000000E-03 0. -1.
        -11    1    3    3    0    0  0.12968739758E+01  0.55688750319E+01  0.87793370123E+01  0.10477166118E+02  0.51100000000E-03 0.  1.
        -12    1    3    3    0    0  0.21072186668E+02 -0.72434876531E+01 -0.28235762353E+02  0.35968923253E+02  0.00000000000E+00 0.  1.
</event>
<event>
 7    1  0.2489154E-013  0.7246158E+02  0.7816164E-02  0.1226708E+00
        -11   -1    0    0    0    0  0.00000000000E+00  0.00000000000E+00  0.45593999997E+02  0.45594000000E+02  0.51100000000E-03 0.  1.
         11   -1    0    0    0    0 -0.00000000000E+00 -0.00000000000E+00 -0.45593999997E+02  0.45594000000E+02  0.51100000000E-03 0. -1.
    9900012    2    1    2    0    0 -0.12803218189E+02  0.11566378666E+02  0.72784180105E+01  0.72461578020E+02  0.70000010064E+02 0.  0.
        -12    1    1    2    0    0  0.12803218189E+02 -0.11566378666E+02 -0.72784180105E+01  0.18726421980E+02  0.00000000000E+00 0.  1.
         11    1    3    3    0    0  0.45927985541E+01  0.40162796844E+01  0.33474742067E+01  0.69591583462E+01  0.51100000000E-03 0. -1.
        -11    1    3    3    0    0 -0.95772140786E+01 -0.46789494800E+01  0.32094661582E+02  0.33818381098E+02  0.51100000000E-03 0.  1.
         12    1    3    3    0    0 -0.78188026641E+01  0.12229048462E+02 -0.28163717778E+02  0.31684038576E+02  0.00000000000E+00 0. -1.
</event>
<event>
 7    1  0.2489154E-013  0.7246158E+02  0.7816164E-02  0.1226708E+00
        -11   -1    0    0    0    0  0.00000000000E+00  0.00000000000E+00  0.45593999997E+02  0.45594000000E+02  0.51100000000E-03 0.  1.
         11   -1    0    0    0    0 -0.00000000000E+00 -0.00000000000E+00 -0.45593999997E+02  0.45594000000E+02  0.51100000000E-03 0. -1.
    9900012    2    1    2    0    0  0.22620545880E+01  0.29045203937E+01 -0.18360977414E+02  0.72461584933E+02  0.70000019069E+02 0.  0.
        -12    1    1    2    0    0 -0.22620545880E+01 -0.29045203937E+01  0.18360977414E+02  0.18726415067E+02  0.00000000000E+00 0.  1.
         11    1    3    3    0    0 -0.15470196705E+02 -0.22467490451E+02 -0.15544044012E+00  0.27278916314E+02  0.51100000000E-03 0. -1.
        -11    1    3    3    0    0  0.13913556464E+02  0.10764581584E+01  0.98169353888E+00  0.13989622515E+02  0.51100000000E-03 0.  1.
        -12    1    3    3    0    0  0.38186948291E+01  0.24295552686E+02 -0.19187230513E+02  0.31193046104E+02  0.00000000000E+00 0.  1.
</event>
<event>
 7    1  0.2489154E-013  0.7246118E+02  0.7816164E-02  0.1226709E+00
        -11   -1    0    0    0    0  0.00000000000E+00  0.00000000000E+00  0.45593999997E+02  0.45594000000E+02  0.51100000000E-03 0.  1.
         11   -1    0    0    0    0 -0.00000000000E+00 -0.00000000000E+00 -0.45593999997E+02  0.45594000000E+02  0.51100000000E-03 0. -1.
    9900012    2    1    2    0    0 -0.34851615939E+00 -0.18719412989E+02  0.39464874856E+00  0.72461184098E+02  0.69999496906E+02 0.  0.
        -12    1    1    2    0    0  0.34851615939E+00  0.18719412989E+02 -0.39464874856E+00  0.18726815902E+02  0.00000000000E+00 0.  1.
         11    1    3    3    0    0  0.71623089979E-01  0.12283476359E+02 -0.24133084820E+02  0.27079414774E+02  0.51100000000E-03 0. -1.
        -11    1    3    3    0    0 -0.24998119590E+01  0.23563438733E+01  0.66308269220E+01  0.74678833822E+01  0.51100000000E-03 0.  1.
        -12    1    3    3    0    0  0.20796727096E+01 -0.33359233221E+02  0.17896906647E+02  0.37913885942E+02  0.00000000000E+00 0.  1.
</event>
<event>
 7    1  0.2489154E-013  0.7246157E+02  0.7816164E-02  0.1226708E+00
        -11   -1    0    0    0    0  0.00000000000E+00  0.00000000000E+00  0.45593999997E+02  0.45594000000E+02  0.51100000000E-03 0.  1.
         11   -1    0    0    0    0 -0.00000000000E+00 -0.00000000000E+00 -0.45593999997E+02  0.45594000000E+02  0.51100000000E-03 0. -1.
    9900012    2    1    2    0    0  0.11030835720E+02 -0.11840969207E+02 -0.94229066804E+01  0.72461573252E+02  0.70000003853E+02 0.  0.
        -12    1    1    2    0    0 -0.11030835720E+02  0.11840969207E+02  0.94229066804E+01  0.18726426748E+02  0.00000000000E+00 0.  1.
         11    1    3    3    0    0 -0.19486064137E+02  0.19645632115E+01  0.91565944730E+01  0.21619653715E+02  0.51100000000E-03 0. -1.
        -11    1    3    3    0    0 -0.61282899235E+01  0.29958756458E+01 -0.11304948383E+01  0.69144216759E+01  0.51100000000E-03 0.  1.
        -12    1    3    3    0    0  0.36645189780E+02 -0.16801408064E+02 -0.17449006315E+02  0.43927497861E+02  0.00000000000E+00 0.  1.
</event>
<event>
 7    1  0.2489154E-013  0.7246157E+02  0.7816164E-02  0.1226708E+00
        -11   -1    0    0    0    0  0.00000000000E+00  0.00000000000E+00  0.45593999997E+02  0.45594000000E+02  0.51100000000E-03 0. -1.
         11   -1    0    0    0    0 -0.00000000000E+00 -0.00000000000E+00 -0.45593999997E+02  0.45594000000E+02  0.51100000000E-03 0.  1.
    9900012    2    1    2    0    0  0.53411885554E+00 -0.15873797360E+02  0.99205102520E+01  0.72461568166E+02  0.69999997228E+02 0.  0.
        -12    1    1    2    0    0 -0.53411885554E+00  0.15873797360E+02 -0.99205102520E+01  0.18726431834E+02  0.00000000000E+00 0.  1.
         11    1    3    3    0    0 -0.31728321853E+01  0.12738063198E+00 -0.13260601135E+02  0.13635491653E+02  0.51100000000E-03 0. -1.
        -11    1    3    3    0    0 -0.22738995405E+02 -0.14713242110E+02  0.15729237871E+02  0.31320126591E+02  0.51100000000E-03 0.  1.
         12    1    3    3    0    0  0.26445946445E+02 -0.12879358818E+01  0.74518735160E+01  0.27505949922E+02  0.00000000000E+00 0. -1.
</event>
<event>
 7    1  0.2489154E-013  0.7246154E+02  0.7816164E-02  0.1226708E+00
        -11   -1    0    0    0    0  0.00000000000E+00  0.00000000000E+00  0.45593999997E+02  0.45594000000E+02  0.51100000000E-03 0. -1.
         11   -1    0    0    0    0 -0.00000000000E+00 -0.00000000000E+00 -0.45593999997E+02  0.45594000000E+02  0.51100000000E-03 0.  1.
    9900012    2    1    2    0    0 -0.16146852196E+02 -0.44985702836E+00  0.94740180080E+01  0.72461542129E+02  0.69999963309E+02 0.  0.
        -12    1    1    2    0    0  0.16146852196E+02  0.44985702836E+00 -0.94740180080E+01  0.18726457871E+02  0.00000000000E+00 0.  1.
         11    1    3    3    0    0 -0.12349222749E+02 -0.11945011979E+01  0.16135087645E+02  0.20353652969E+02  0.51100000000E-03 0. -1.
        -11    1    3    3    0    0  0.32990187850E+01  0.24117637521E+02  0.52960925600E+01  0.24911695269E+02  0.51100000000E-03 0.  1.
         12    1    3    3    0    0 -0.70966482317E+01 -0.23372993351E+02 -0.11957162197E+02  0.27196193890E+02  0.00000000000E+00 0. -1.
</event>
<event>
 7    1  0.2489154E-013  0.7246158E+02  0.7816164E-02  0.1226708E+00
        -11   -1    0    0    0    0  0.00000000000E+00  0.00000000000E+00  0.45593999997E+02  0.45594000000E+02  0.51100000000E-03 0.  1.
         11   -1    0    0    0    0 -0.00000000000E+00 -0.00000000000E+00 -0.45593999997E+02  0.45594000000E+02  0.51100000000E-03 0. -1.
    9900012    2    1    2    0    0 -0.73164688560E+01  0.44815452670E+01 -0.16645233073E+02  0.72461581534E+02  0.70000014642E+02 0.  0.
        -12    1    1    2    0    0  0.73164688560E+01 -0.44815452670E+01  0.16645233073E+02  0.18726418466E+02  0.00000000000E+00 0.  1.
         11    1    3    3    0    0  0.69078499826E+01 -0.17242091764E+02 -0.33619677966E+02  0.38409515312E+02  0.51100000000E-03 0. -1.
        -11    1    3    3    0    0 -0.65871843303E+01  0.13672663236E+02  0.18438675742E+01  0.15288314664E+02  0.51100000000E-03 0.  1.
        -12    1    3    3    0    0 -0.76371345083E+01  0.80509737946E+01  0.15130577318E+02  0.18763751558E+02  0.00000000000E+00 0.  1.
</event>
<event>
 7    1  0.2489154E-013  0.7246154E+02  0.7816164E-02  0.1226708E+00
        -11   -1    0    0    0    0  0.00000000000E+00  0.00000000000E+00  0.45593999997E+02  0.45594000000E+02  0.51100000000E-03 0.  1.
         11   -1    0    0    0    0 -0.00000000000E+00 -0.00000000000E+00 -0.45593999997E+02  0.45594000000E+02  0.51100000000E-03 0. -1.
    9900012    2    1    2    0    0  0.16198759025E+02 -0.28405749875E+01 -0.89560870155E+01  0.72461543986E+02  0.69999965729E+02 0.  0.
        -12    1    1    2    0    0 -0.16198759025E+02  0.28405749875E+01  0.89560870155E+01  0.18726456014E+02  0.00000000000E+00 0.  1.
         11    1    3    3    0    0  0.54886951949E+01  0.10375464224E+02 -0.20022234115E+02  0.23209176892E+02  0.51100000000E-03 0. -1.
        -11    1    3    3    0    0 -0.20144596757E+01  0.16241809387E+01 -0.15809103532E+02  0.16019480836E+02  0.51100000000E-03 0.  1.
        -12    1    3    3    0    0  0.12724523506E+02 -0.14840220151E+02  0.26875250631E+02  0.33232886258E+02  0.00000000000E+00 0.  1.
</event>
<event>
 7    1  0.2489154E-013  0.7246158E+02  0.7816164E-02  0.1226708E+00
        -11   -1    0    0    0    0  0.00000000000E+00  0.00000000000E+00  0.45593999997E+02  0.45594000000E+02  0.51100000000E-03 0. -1.
         11   -1    0    0    0    0 -0.00000000000E+00 -0.00000000000E+00 -0.45593999997E+02  0.45594000000E+02  0.51100000000E-03 0.  1.
    9900012    2    1    2    0    0  0.10353591386E+01  0.18635698442E+02  0.15223338306E+01  0.72461582157E+02  0.70000015453E+02 0.  0.
        -12    1    1    2    0    0 -0.10353591386E+01 -0.18635698442E+02 -0.15223338306E+01  0.18726417843E+02  0.00000000000E+00 0.  1.
         11    1    3    3    0    0  0.13368380776E+02  0.40761870637E+01 -0.94972949368E+01  0.16897559496E+02  0.51100000000E-03 0. -1.
        -11    1    3    3    0    0  0.18367211778E+02  0.15057572780E+02  0.44115191668E+01  0.24156706484E+02  0.51100000000E-03 0.  1.
        -12    1    3    3    0    0 -0.30700233415E+02 -0.49806140245E+00  0.66081096005E+01  0.31407316176E+02  0.00000000000E+00 0.  1.
</event>
<event>
 7    1  0.2489154E-013  0.7246160E+02  0.7816164E-02  0.1226708E+00
        -11   -1    0    0    0    0  0.00000000000E+00  0.00000000000E+00  0.45593999997E+02  0.45594000000E+02  0.51100000000E-03 0. -1.
         11   -1    0    0    0    0 -0.00000000000E+00 -0.00000000000E+00 -0.45593999997E+02  0.45594000000E+02  0.51100000000E-03 0.  1.
    9900012    2    1    2    0    0  0.32423205923E+01  0.18226079535E+02  0.28240994091E+01  0.72461597369E+02  0.70000035270E+02 0.  0.
        -12    1    1    2    0    0 -0.32423205923E+01 -0.18226079535E+02 -0.28240994091E+01  0.18726402631E+02  0.00000000000E+00 0.  1.
         11    1    3    3    0    0  0.12000613105E+02  0.24599021520E+02  0.17896044969E+02  0.32701605472E+02  0.51100000000E-03 0. -1.
        -11    1    3    3    0    0 -0.81765543667E+01  0.13698746003E+02 -0.27162528483E+01  0.16183006926E+02  0.51100000000E-03 0.  1.
        -12    1    3    3    0    0 -0.58173814605E+00 -0.20071687988E+02 -0.12355692711E+02  0.23576984971E+02  0.00000000000E+00 0.  1.
</event>
<event>
 7    1  0.2489154E-013  0.7246132E+02  0.7816164E-02  0.1226709E+00
        -11   -1    0    0    0    0  0.00000000000E+00  0.00000000000E+00  0.45593999997E+02  0.45594000000E+02  0.51100000000E-03 0. -1.
         11   -1    0    0    0    0 -0.00000000000E+00 -0.00000000000E+00 -0.45593999997E+02  0.45594000000E+02  0.51100000000E-03 0.  1.
    9900012    2    1    2    0    0  0.57427168861E+01  0.10979867641E+02  0.14041085271E+02  0.72461324741E+02  0.69999680121E+02 0.  0.
        -12    1    1    2    0    0 -0.57427168861E+01 -0.10979867641E+02 -0.14041085271E+02  0.18726675259E+02  0.00000000000E+00 0.  1.
         11    1    3    3    0    0 -0.22531722490E+01  0.68592736757E+01  0.29230605542E+02  0.30109047165E+02  0.51100000000E-03 0. -1.
        -11    1    3    3    0    0  0.89031674095E+01 -0.12504044107E+02  0.50365706003E+01  0.16155016330E+02  0.51100000000E-03 0.  1.
        -12    1    3    3    0    0 -0.90727827434E+00  0.16624638072E+02 -0.20226090871E+02  0.26197261247E+02  0.00000000000E+00 0.  1.
</event>
<event>
 7    1  0.2489154E-013  0.7246154E+02  0.7816164E-02  0.1226708E+00
        -11   -1    0    0    0    0  0.00000000000E+00  0.00000000000E+00  0.45593999997E+02  0.45594000000E+02  0.51100000000E-03 0.  1.
         11   -1    0    0    0    0 -0.00000000000E+00 -0.00000000000E+00 -0.45593999997E+02  0.45594000000E+02  0.51100000000E-03 0. -1.
    9900012    2    1    2    0    0 -0.13395023651E+02 -0.90118579996E+01 -0.94889533146E+01  0.72461535352E+02  0.69999954481E+02 0.  0.
        -12    1    1    2    0    0  0.13395023651E+02  0.90118579996E+01  0.94889533146E+01  0.18726464648E+02  0.00000000000E+00 0.  1.
         11    1    3    3    0    0 -0.14131525054E+01 -0.86370996374E+01 -0.19900214928E+02  0.21739711236E+02  0.51100000000E-03 0. -1.
        -11    1    3    3    0    0 -0.12371184330E+02  0.23003839211E+02  0.35875747217E+01  0.26364626165E+02  0.51100000000E-03 0.  1.
         12    1    3    3    0    0  0.38931318525E+00 -0.23378597573E+02  0.68236868922E+01  0.24357197951E+02  0.00000000000E+00 0. -1.
</event>
<event>
 7    1  0.2489154E-013  0.7246149E+02  0.7816164E-02  0.1226708E+00
        -11   -1    0    0    0    0  0.00000000000E+00  0.00000000000E+00  0.45593999997E+02  0.45594000000E+02  0.51100000000E-03 0.  1.
         11   -1    0    0    0    0 -0.00000000000E+00 -0.00000000000E+00 -0.45593999997E+02  0.45594000000E+02  0.51100000000E-03 0. -1.
    9900012    2    1    2    0    0 -0.12384646055E+01  0.13531069154E+02 -0.12886377375E+02  0.72461485405E+02  0.69999889416E+02 0.  0.
        -12    1    1    2    0    0  0.12384646055E+01 -0.13531069154E+02  0.12886377375E+02  0.18726514595E+02  0.00000000000E+00 0.  1.
         11    1    3    3    0    0  0.45991924634E+01  0.40626566712E+01  0.35802772969E+01  0.71046559612E+01  0.51100000000E-03 0. -1.
        -11    1    3    3    0    0  0.20533486331E+02 -0.11808462105E+02  0.63296886532E+01  0.24517928071E+02  0.51100000000E-03 0.  1.
         12    1    3    3    0    0 -0.26371143399E+02  0.21276874587E+02 -0.22796343325E+02  0.40838901373E+02  0.00000000000E+00 0. -1.
</event>
<event>
 7    1  0.2489154E-013  0.7246158E+02  0.7816164E-02  0.1226708E+00
        -11   -1    0    0    0    0  0.00000000000E+00  0.00000000000E+00  0.45593999997E+02  0.45594000000E+02  0.51100000000E-03 0.  1.
         11   -1    0    0    0    0 -0.00000000000E+00 -0.00000000000E+00 -0.45593999997E+02  0.45594000000E+02  0.51100000000E-03 0. -1.
    9900012    2    1    2    0    0  0.51229174523E+00  0.47279983529E+01 -0.18112496504E+02  0.72461576399E+02  0.70000007953E+02 0.  0.
        -12    1    1    2    0    0 -0.51229174523E+00 -0.47279983529E+01  0.18112496504E+02  0.18726423601E+02  0.00000000000E+00 0.  1.
         11    1    3    3    0    0  0.13954020600E+02 -0.19298050167E+02 -0.27318267235E+01  0.23970655157E+02  0.51100000000E-03 0. -1.
        -11    1    3    3    0    0  0.84474828892E+01  0.15312707660E+02  0.40513432904E+01  0.17951388965E+02  0.51100000000E-03 0.  1.
         12    1    3    3    0    0 -0.21889211744E+02  0.87133408598E+01 -0.19432013071E+02  0.30539532277E+02  0.00000000000E+00 0. -1.
</event>
<event>
 7    1  0.2489154E-013  0.7246156E+02  0.7816164E-02  0.1226708E+00
        -11   -1    0    0    0    0  0.00000000000E+00  0.00000000000E+00  0.45593999997E+02  0.45594000000E+02  0.51100000000E-03 0.  1.
         11   -1    0    0    0    0 -0.00000000000E+00 -0.00000000000E+00 -0.45593999997E+02  0.45594000000E+02  0.51100000000E-03 0. -1.
    9900012    2    1    2    0    0  0.91750860660E+00 -0.62020580518E+01 -0.17645737126E+02  0.72461564545E+02  0.69999992510E+02 0.  0.
        -12    1    1    2    0    0 -0.91750860660E+00  0.62020580518E+01  0.17645737126E+02  0.18726435455E+02  0.00000000000E+00 0.  1.
         11    1    3    3    0    0 -0.66053897910E+01 -0.44581227129E+01  0.86348561196E+01  0.11750181823E+02  0.51100000000E-03 0. -1.
        -11    1    3    3    0    0  0.12146649220E+02  0.14877923588E+02  0.91714965039E+01  0.21284032652E+02  0.51100000000E-03 0.  1.
         12    1    3    3    0    0 -0.46237508220E+01 -0.16621858927E+02 -0.35452089750E+02  0.39427350069E+02  0.00000000000E+00 0. -1.
</event>
<event>
 7    1  0.2489154E-013  0.7246156E+02  0.7816164E-02  0.1226708E+00
        -11   -1    0    0    0    0  0.00000000000E+00  0.00000000000E+00  0.45593999997E+02  0.45594000000E+02  0.51100000000E-03 0.  1.
         11   -1    0    0    0    0 -0.00000000000E+00 -0.00000000000E+00 -0.45593999997E+02  0.45594000000E+02  0.51100000000E-03 0. -1.
    9900012    2    1    2    0    0 -0.69480553987E+01 -0.97973016648E+01 -0.14367222400E+02  0.72461556846E+02  0.69999982481E+02 0.  0.
        -12    1    1    2    0    0  0.69480553987E+01  0.97973016648E+01  0.14367222400E+02  0.18726443154E+02  0.00000000000E+00 0.  1.
         11    1    3    3    0    0 -0.79299313048E+01 -0.34005913884E+01  0.67453347038E+00  0.86546419887E+01  0.51100000000E-03 0. -1.
        -11    1    3    3    0    0 -0.28376499598E+02 -0.23848440043E+01  0.37453885272E+01  0.28721788695E+02  0.51100000000E-03 0.  1.
         12    1    3    3    0    0  0.29358375504E+02 -0.40118662720E+01 -0.18787144397E+02  0.35085126162E+02  0.00000000000E+00 0. -1.
</event>
<event>
 7    1  0.2489154E-013  0.7246159E+02  0.7816164E-02  0.1226708E+00
        -11   -1    0    0    0    0  0.00000000000E+00  0.00000000000E+00  0.45593999997E+02  0.45594000000E+02  0.51100000000E-03 0.  1.
         11   -1    0    0    0    0 -0.00000000000E+00 -0.00000000000E+00 -0.45593999997E+02  0.45594000000E+02  0.51100000000E-03 0. -1.
    9900012    2    1    2    0    0  0.14054746187E+02 -0.63617460684E+01 -0.10614646206E+02  0.72461590374E+02  0.70000026157E+02 0.  0.
        -12    1    1    2    0    0 -0.14054746187E+02  0.63617460684E+01  0.10614646206E+02  0.18726409626E+02  0.00000000000E+00 0.  1.
         11    1    3    3    0    0 -0.64801673503E+01  0.53446090118E+01 -0.18498022719E+01  0.86011152232E+01  0.51100000000E-03 0. -1.
        -11    1    3    3    0    0 -0.18305091689E+02  0.76683107723E+01 -0.23581274925E+01  0.19985998533E+02  0.51100000000E-03 0.  1.
         12    1    3    3    0    0  0.38840005226E+02 -0.19374665853E+02 -0.64067164416E+01  0.43874476617E+02  0.00000000000E+00 0. -1.
</event>
<event>
 7    1  0.2489154E-013  0.7246163E+02  0.7816164E-02  0.1226708E+00
        -11   -1    0    0    0    0  0.00000000000E+00  0.00000000000E+00  0.45593999997E+02  0.45594000000E+02  0.51100000000E-03 0. -1.
         11   -1    0    0    0    0 -0.00000000000E+00 -0.00000000000E+00 -0.45593999997E+02  0.45594000000E+02  0.51100000000E-03 0.  1.
    9900012    2    1    2    0    0  0.13406515208E+02  0.36728734576E+01  0.12548005973E+02  0.72461625462E+02  0.70000071866E+02 0.  0.
        -12    1    1    2    0    0 -0.13406515208E+02 -0.36728734576E+01 -0.12548005973E+02  0.18726374538E+02  0.00000000000E+00 0.  1.
         11    1    3    3    0    0 -0.12998436058E+02  0.14700960876E+01  0.36040456507E+01  0.13568701772E+02  0.51100000000E-03 0. -1.
        -11    1    3    3    0    0 -0.12204715330E+02  0.71472000805E+01 -0.82123155843E+01  0.16354805801E+02  0.51100000000E-03 0.  1.
        -12    1    3    3    0    0  0.38609666596E+02 -0.49444227106E+01  0.17156275906E+02  0.42538117889E+02  0.00000000000E+00 0.  1.
</event>
<event>
 7    1  0.2489154E-013  0.7246162E+02  0.7816164E-02  0.1226708E+00
        -11   -1    0    0    0    0  0.00000000000E+00  0.00000000000E+00  0.45593999997E+02  0.45594000000E+02  0.51100000000E-03 0.  1.
         11   -1    0    0    0    0 -0.00000000000E+00 -0.00000000000E+00 -0.45593999997E+02  0.45594000000E+02  0.51100000000E-03 0. -1.
    9900012    2    1    2    0    0 -0.43747214032E+01 -0.63612536975E+01 -0.17060880116E+02  0.72461618441E+02  0.70000062720E+02 0.  0.
        -12    1    1    2    0    0  0.43747214032E+01  0.63612536975E+01  0.17060880116E+02  0.18726381559E+02  0.00000000000E+00 0.  1.
         11    1    3    3    0    0 -0.14677648343E+02  0.12818877464E+02 -0.65156292050E+01  0.20547759112E+02  0.51100000000E-03 0. -1.
        -11    1    3    3    0    0 -0.12968107362E+02  0.68416301961E+01 -0.84924259396E+01  0.16944055326E+02  0.51100000000E-03 0.  1.
        -12    1    3    3    0    0  0.23271034302E+02 -0.26021761358E+02 -0.20528249717E+01  0.34969804003E+02  0.00000000000E+00 0.  1.
</event>
<event>
 7    1  0.2489154E-013  0.7246161E+02  0.7816164E-02  0.1226708E+00
        -11   -1    0    0    0    0  0.00000000000E+00  0.00000000000E+00  0.45593999997E+02  0.45594000000E+02  0.51100000000E-03 0.  1.
         11   -1    0    0    0    0 -0.00000000000E+00 -0.00000000000E+00 -0.45593999997E+02  0.45594000000E+02  0.51100000000E-03 0. -1.
    9900012    2    1    2    0    0  0.17895980344E+02 -0.41522217050E+01 -0.36291498358E+01  0.72461607232E+02  0.70000048118E+02 0.  0.
        -12    1    1    2    0    0 -0.17895980344E+02  0.41522217050E+01  0.36291498358E+01  0.18726392768E+02  0.00000000000E+00 0.  1.
         11    1    3    3    0    0  0.23174406684E+02 -0.11532037476E+02 -0.16351727675E+02  0.30617315554E+02  0.51100000000E-03 0. -1.
        -11    1    3    3    0    0 -0.58058151633E+01  0.15151784000E+02 -0.91484931403E+01  0.18627371664E+02  0.51100000000E-03 0.  1.
        -12    1    3    3    0    0  0.52738882330E+00 -0.77719682296E+01  0.21871070980E+02  0.23216920014E+02  0.00000000000E+00 0.  1.
</event>
<event>
 7    1  0.2489154E-013  0.7246158E+02  0.7816164E-02  0.1226708E+00
        -11   -1    0    0    0    0  0.00000000000E+00  0.00000000000E+00  0.45593999997E+02  0.45594000000E+02  0.51100000000E-03 0.  1.
         11   -1    0    0    0    0 -0.00000000000E+00 -0.00000000000E+00 -0.45593999997E+02  0.45594000000E+02  0.51100000000E-03 0. -1.
    9900012    2    1    2    0    0 -0.68034361198E+01 -0.15427138087E+02 -0.81483518650E+01  0.72461575603E+02  0.70000006915E+02 0.  0.
        -12    1    1    2    0    0  0.68034361198E+01  0.15427138087E+02  0.81483518650E+01  0.18726424397E+02  0.00000000000E+00 0.  1.
         11    1    3    3    0    0 -0.13097710170E+02 -0.19835327542E+02 -0.31146808437E+02  0.39180529686E+02  0.51100000000E-03 0. -1.
        -11    1    3    3    0    0  0.11312540503E+02 -0.55977709311E+01  0.98316569380E+01  0.15999065299E+02  0.51100000000E-03 0.  1.
        -12    1    3    3    0    0 -0.50182664530E+01  0.10005960386E+02  0.13166799634E+02  0.17281980617E+02  0.00000000000E+00 0.  1.
</event>
<event>
 7    1  0.2562853E-013  0.7246163E+02  0.7816164E-02  0.1226708E+00
        -11   -1    0    0    0    0  0.00000000000E+00  0.00000000000E+00  0.45593999997E+02  0.45594000000E+02  0.51100000000E-03 0. -1.
         11   -1    0    0    0    0 -0.00000000000E+00 -0.00000000000E+00 -0.45593999997E+02  0.45594000000E+02  0.51100000000E-03 0.  1.
    9900012    2    1    2    0    0  0.77745220025E+01 -0.93919016707E+01  0.14213575998E+02  0.72461634843E+02  0.70000084086E+02 0.  0.
        -12    1    1    2    0    0 -0.77745220025E+01  0.93919016707E+01 -0.14213575998E+02  0.18726365157E+02  0.00000000000E+00 0.  1.
         11    1    3    3    0    0 -0.52970261594E+01 -0.11498339510E+02  0.28297825620E+02  0.31000600522E+02  0.51100000000E-03 0. -1.
        -11    1    3    3    0    0  0.12065050505E+02 -0.14749456533E+02  0.62671116643E+00  0.19065798668E+02  0.51100000000E-03 0.  1.
        -12    1    3    3    0    0  0.10064976570E+01  0.16855894372E+02 -0.14710960789E+02  0.22395235653E+02  0.00000000000E+00 0.  1.
</event>
<event>
 7    1  0.2489154E-013  0.7246158E+02  0.7816164E-02  0.1226708E+00
        -11   -1    0    0    0    0  0.00000000000E+00  0.00000000000E+00  0.45593999997E+02  0.45594000000E+02  0.51100000000E-03 0. -1.
         11   -1    0    0    0    0 -0.00000000000E+00 -0.00000000000E+00 -0.45593999997E+02  0.45594000000E+02  0.51100000000E-03 0.  1.
    9900012    2    1    2    0    0  0.94869859805E+01 -0.22096875806E+01  0.15993531906E+02  0.72461583230E+02  0.70000016851E+02 0.  0.
        -12    1    1    2    0    0 -0.94869859805E+01  0.22096875806E+01 -0.15993531906E+02  0.18726416770E+02  0.00000000000E+00 0.  1.
         11    1    3    3    0    0  0.29924185720E+02 -0.11833686036E+02  0.94167142331E+00  0.32192852647E+02  0.51100000000E-03 0. -1.
        -11    1    3    3    0    0 -0.12198958838E+02 -0.94392036145E+01  0.11406939589E+02  0.19184145346E+02  0.51100000000E-03 0.  1.
        -12    1    3    3    0    0 -0.82382409014E+01  0.19063202070E+02  0.36449208944E+01  0.21084585237E+02  0.00000000000E+00 0.  1.
</event>
<event>
 7    1  0.2489154E-013  0.7246151E+02  0.7816164E-02  0.1226708E+00
        -11   -1    0    0    0    0  0.00000000000E+00  0.00000000000E+00  0.45593999997E+02  0.45594000000E+02  0.51100000000E-03 0.  1.
         11   -1    0    0    0    0 -0.00000000000E+00 -0.00000000000E+00 -0.45593999997E+02  0.45594000000E+02  0.51100000000E-03 0. -1.
    9900012    2    1    2    0    0 -0.11452430801E+02  0.13479597928E+02 -0.61500832664E+01  0.72461514592E+02  0.69999927438E+02 0.  0.
        -12    1    1    2    0    0  0.11452430801E+02 -0.13479597928E+02  0.61500832664E+01  0.18726485408E+02  0.00000000000E+00 0.  1.
         11    1    3    3    0    0 -0.51845942842E+01  0.80950222296E+00  0.41511589288E+01  0.66908469161E+01  0.51100000000E-03 0. -1.
        -11    1    3    3    0    0  0.18478487539E+02 -0.15441063891E+02  0.61677057542E+01  0.24858027885E+02  0.51100000000E-03 0.  1.
         12    1    3    3    0    0 -0.24746324056E+02  0.28111159596E+02 -0.16468947949E+02  0.40912639791E+02  0.00000000000E+00 0. -1.
</event>
<event>
 7    1  0.2489154E-013  0.7246153E+02  0.7816164E-02  0.1226708E+00
        -11   -1    0    0    0    0  0.00000000000E+00  0.00000000000E+00  0.45593999997E+02  0.45594000000E+02  0.51100000000E-03 0. -1.
         11   -1    0    0    0    0 -0.00000000000E+00 -0.00000000000E+00 -0.45593999997E+02  0.45594000000E+02  0.51100000000E-03 0.  1.
    9900012    2    1    2    0    0  0.11661947342E+01 -0.16914665821E+02 -0.79507646199E+01  0.72461532420E+02  0.69999950661E+02 0.  0.
        -12    1    1    2    0    0 -0.11661947342E+01  0.16914665821E+02  0.79507646199E+01  0.18726467580E+02  0.00000000000E+00 0.  1.
         11    1    3    3    0    0  0.25047122911E+02  0.10273077362E+02 -0.81377615511E+01  0.28268669016E+02  0.51100000000E-03 0. -1.
        -11    1    3    3    0    0  0.34759356603E+01 -0.40619016438E+01  0.58514596664E+01  0.79259544641E+01  0.51100000000E-03 0.  1.
        -12    1    3    3    0    0 -0.27356863837E+02 -0.23125841540E+02 -0.56644627352E+01  0.36266908939E+02  0.00000000000E+00 0.  1.
</event>
<event>
 7    1  0.2489154E-013  0.7246157E+02  0.7816164E-02  0.1226708E+00
        -11   -1    0    0    0    0  0.00000000000E+00  0.00000000000E+00  0.45593999997E+02  0.45594000000E+02  0.51100000000E-03 0.  1.
         11   -1    0    0    0    0 -0.00000000000E+00 -0.00000000000E+00 -0.45593999997E+02  0.45594000000E+02  0.51100000000E-03 0. -1.
    9900012    2    1    2    0    0 -0.12733916215E+02  0.13435394742E+02 -0.28313931827E+01  0.72461568375E+02  0.69999997500E+02 0.  0.
        -12    1    1    2    0    0  0.12733916215E+02 -0.13435394742E+02  0.28313931827E+01  0.18726431625E+02  0.00000000000E+00 0.  1.
         11    1    3    3    0    0  0.67152223716E+01 -0.66055946841E+01  0.99008415972E+01  0.13665824425E+02  0.51100000000E-03 0. -1.
        -11    1    3    3    0    0  0.77079552181E+01 -0.11191966930E+02 -0.10806662132E+02  0.17362506849E+02  0.51100000000E-03 0.  1.
         12    1    3    3    0    0 -0.27157093805E+02  0.31232956355E+02 -0.19255726481E+01  0.41433237101E+02  0.00000000000E+00 0. -1.
</event>
<event>
 7    1  0.2489154E-013  0.7246163E+02  0.7816164E-02  0.1226708E+00
        -11   -1    0    0    0    0  0.00000000000E+00  0.00000000000E+00  0.45593999997E+02  0.45594000000E+02  0.51100000000E-03 0. -1.
         11   -1    0    0    0    0 -0.00000000000E+00 -0.00000000000E+00 -0.45593999997E+02  0.45594000000E+02  0.51100000000E-03 0.  1.
    9900012    2    1    2    0    0  0.11249776642E+02  0.11183568702E+02  0.99522400845E+01  0.72461634467E+02  0.70000083596E+02 0.  0.
        -12    1    1    2    0    0 -0.11249776642E+02 -0.11183568702E+02 -0.99522400845E+01  0.18726365533E+02  0.00000000000E+00 0.  1.
         11    1    3    3    0    0  0.18189639663E+01  0.55515522199E+01 -0.16301271405E+01  0.60651196787E+01  0.51100000000E-03 0. -1.
        -11    1    3    3    0    0  0.26221872514E+01 -0.19717025749E+02 -0.18015797573E+02  0.26836652787E+02  0.51100000000E-03 0.  1.
         12    1    3    3    0    0  0.68086254238E+01  0.25349042230E+02  0.29598164798E+02  0.39559862001E+02  0.00000000000E+00 0. -1.
</event>
<event>
 7    1  0.2489154E-013  0.7246156E+02  0.7816164E-02  0.1226708E+00
        -11   -1    0    0    0    0  0.00000000000E+00  0.00000000000E+00  0.45593999997E+02  0.45594000000E+02  0.51100000000E-03 0.  1.
         11   -1    0    0    0    0 -0.00000000000E+00 -0.00000000000E+00 -0.45593999997E+02  0.45594000000E+02  0.51100000000E-03 0. -1.
    9900012    2    1    2    0    0  0.17441418606E+02 -0.47129768548E+01 -0.49258693292E+01  0.72461563540E+02  0.69999991201E+02 0.  0.
        -12    1    1    2    0    0 -0.17441418606E+02  0.47129768548E+01  0.49258693292E+01  0.18726436460E+02  0.00000000000E+00 0.  1.
         11    1    3    3    0    0  0.81478635364E+01 -0.16667837682E+02 -0.54883219468E+01  0.19347510725E+02  0.51100000000E-03 0. -1.
        -11    1    3    3    0    0 -0.97228416947E+01  0.74248894629E+01 -0.20816418920E+02  0.24145101596E+02  0.51100000000E-03 0.  1.
        -12    1    3    3    0    0  0.19016396765E+02  0.45299713649E+01  0.21378871538E+02  0.28968951219E+02  0.00000000000E+00 0.  1.
</event>
<event>
 7    1  0.2489154E-013  0.7246157E+02  0.7816164E-02  0.1226708E+00
        -11   -1    0    0    0    0  0.00000000000E+00  0.00000000000E+00  0.45593999997E+02  0.45594000000E+02  0.51100000000E-03 0.  1.
         11   -1    0    0    0    0 -0.00000000000E+00 -0.00000000000E+00 -0.45593999997E+02  0.45594000000E+02  0.51100000000E-03 0. -1.
    9900012    2    1    2    0    0 -0.27118205844E+01  0.41422607376E+01 -0.18060087841E+02  0.72461573012E+02  0.70000003540E+02 0.  0.
        -12    1    1    2    0    0  0.27118205844E+01 -0.41422607376E+01  0.18060087841E+02  0.18726426988E+02  0.00000000000E+00 0.  1.
         11    1    3    3    0    0  0.62808985365E+01  0.15303011685E+02 -0.57072055282E+01  0.17498687044E+02  0.51100000000E-03 0. -1.
        -11    1    3    3    0    0  0.70270574020E+01  0.53095480893E+01  0.16124071477E+02  0.18372711229E+02  0.51100000000E-03 0.  1.
         12    1    3    3    0    0 -0.16019776523E+02 -0.16470299037E+02 -0.28476953791E+02  0.36590174739E+02  0.00000000000E+00 0. -1.
</event>
<event>
 7    1  0.2489154E-013  0.7246152E+02  0.7816164E-02  0.1226708E+00
        -11   -1    0    0    0    0  0.00000000000E+00  0.00000000000E+00  0.45593999997E+02  0.45594000000E+02  0.51100000000E-03 0. -1.
         11   -1    0    0    0    0 -0.00000000000E+00 -0.00000000000E+00 -0.45593999997E+02  0.45594000000E+02  0.51100000000E-03 0.  1.
    9900012    2    1    2    0    0  0.11223943759E+02 -0.27790889687E+01 -0.14730266164E+02  0.72461521680E+02  0.69999936671E+02 0.  0.
        -12    1    1    2    0    0 -0.11223943759E+02  0.27790889687E+01  0.14730266164E+02  0.18726478320E+02  0.00000000000E+00 0.  1.
         11    1    3    3    0    0 -0.64721253176E+01  0.86954184466E+01  0.14917910697E+02  0.18440248586E+02  0.51100000000E-03 0. -1.
        -11    1    3    3    0    0 -0.10186598700E+02 -0.34313688501E+01  0.21605418250E+01  0.10963987709E+02  0.51100000000E-03 0.  1.
        -12    1    3    3    0    0  0.27882667776E+02 -0.80431385653E+01 -0.31808718686E+02  0.43057285385E+02  0.00000000000E+00 0.  1.
</event>
<event>
 7    1  0.2489154E-013  0.7246163E+02  0.7816164E-02  0.1226708E+00
        -11   -1    0    0    0    0  0.00000000000E+00  0.00000000000E+00  0.45593999997E+02  0.45594000000E+02  0.51100000000E-03 0. -1.
         11   -1    0    0    0    0 -0.00000000000E+00 -0.00000000000E+00 -0.45593999997E+02  0.45594000000E+02  0.51100000000E-03 0.  1.
    9900012    2    1    2    0    0 -0.12334021113E+02 -0.50327301471E+01  0.13161330370E+02  0.72461626442E+02  0.70000073142E+02 0.  0.
        -12    1    1    2    0    0  0.12334021113E+02  0.50327301471E+01 -0.13161330370E+02  0.18726373558E+02  0.00000000000E+00 0.  1.
         11    1    3    3    0    0 -0.14360278719E+01 -0.97510937559E+01  0.18524482158E+01  0.10028836929E+02  0.51100000000E-03 0. -1.
        -11    1    3    3    0    0  0.15587658753E+02 -0.16788265461E+02  0.16071492407E+02  0.27984171080E+02  0.51100000000E-03 0.  1.
         12    1    3    3    0    0 -0.26485651994E+02  0.21506629070E+02 -0.47626102530E+01  0.34448618433E+02  0.00000000000E+00 0. -1.
</event>
<event>
 7    1  0.2489154E-013  0.7246159E+02  0.7816164E-02  0.1226708E+00
        -11   -1    0    0    0    0  0.00000000000E+00  0.00000000000E+00  0.45593999997E+02  0.45594000000E+02  0.51100000000E-03 0.  1.
         11   -1    0    0    0    0 -0.00000000000E+00 -0.00000000000E+00 -0.45593999997E+02  0.45594000000E+02  0.51100000000E-03 0. -1.
    9900012    2    1    2    0    0  0.48363599506E+01  0.32245818637E+01 -0.17801406624E+02  0.72461591280E+02  0.70000027338E+02 0.  0.
        -12    1    1    2    0    0 -0.48363599506E+01 -0.32245818637E+01  0.17801406624E+02  0.18726408720E+02  0.00000000000E+00 0.  1.
         11    1    3    3    0    0 -0.17584436923E+02 -0.72478721060E+01  0.69923320926E+01  0.20264174800E+02  0.51100000000E-03 0. -1.
        -11    1    3    3    0    0  0.14142736918E+02  0.19392969038E+02  0.63071420169E+00  0.24010457228E+02  0.51100000000E-03 0.  1.
         12    1    3    3    0    0  0.82780599555E+01 -0.89205150678E+01 -0.25424452918E+02  0.28186959252E+02  0.00000000000E+00 0. -1.
</event>
<event>
 7    1  0.2489154E-013  0.7246157E+02  0.7816164E-02  0.1226708E+00
        -11   -1    0    0    0    0  0.00000000000E+00  0.00000000000E+00  0.45593999997E+02  0.45594000000E+02  0.51100000000E-03 0.  1.
         11   -1    0    0    0    0 -0.00000000000E+00 -0.00000000000E+00 -0.45593999997E+02  0.45594000000E+02  0.51100000000E-03 0. -1.
    9900012    2    1    2    0    0 -0.14978989907E+02  0.93714128760E+01 -0.62036779420E+01  0.72461571138E+02  0.70000001099E+02 0.  0.
        -12    1    1    2    0    0  0.14978989907E+02 -0.93714128760E+01  0.62036779420E+01  0.18726428862E+02  0.00000000000E+00 0.  1.
         11    1    3    3    0    0 -0.16742166231E+00 -0.13829006571E+02 -0.20197708844E+02  0.24478907156E+02  0.51100000000E-03 0. -1.
        -11    1    3    3    0    0 -0.16375230591E+02  0.15361476588E+02 -0.85792219741E+01  0.24035935385E+02  0.51100000000E-03 0.  1.
        -12    1    3    3    0    0  0.15636623465E+01  0.78389428590E+01  0.22573252876E+02  0.23946728596E+02  0.00000000000E+00 0.  1.
</event>
<event>
 7    1  0.2489154E-013  0.7246155E+02  0.7816164E-02  0.1226708E+00
        -11   -1    0    0    0    0  0.00000000000E+00  0.00000000000E+00  0.45593999997E+02  0.45594000000E+02  0.51100000000E-03 0. -1.
         11   -1    0    0    0    0 -0.00000000000E+00 -0.00000000000E+00 -0.45593999997E+02  0.45594000000E+02  0.51100000000E-03 0.  1.
    9900012    2    1    2    0    0 -0.14239795654E+02 -0.72969067842E+01  0.97295073364E+01  0.72461549672E+02  0.69999973135E+02 0.  0.
        -12    1    1    2    0    0  0.14239795654E+02  0.72969067842E+01 -0.97295073364E+01  0.18726450328E+02  0.00000000000E+00 0.  1.
         11    1    3    3    0    0  0.89984001921E+01  0.12461215412E+02  0.19732810778E+02  0.25012735096E+02  0.51100000000E-03 0. -1.
        -11    1    3    3    0    0  0.45214567150E+01 -0.17821227231E+02 -0.20040816093E+01  0.18494757479E+02  0.51100000000E-03 0.  1.
        -12    1    3    3    0    0 -0.27759652561E+02 -0.19368949651E+01 -0.79992218320E+01  0.28954057097E+02  0.00000000000E+00 0.  1.
</event>
<event>
 7    1  0.2489154E-013  0.7246156E+02  0.7816164E-02  0.1226708E+00
        -11   -1    0    0    0    0  0.00000000000E+00  0.00000000000E+00  0.45593999997E+02  0.45594000000E+02  0.51100000000E-03 0.  1.
         11   -1    0    0    0    0 -0.00000000000E+00 -0.00000000000E+00 -0.45593999997E+02  0.45594000000E+02  0.51100000000E-03 0. -1.
    9900012    2    1    2    0    0 -0.20371376914E+01  0.82339066649E+00 -0.18597088991E+02  0.72461558237E+02  0.69999984293E+02 0.  0.
        -12    1    1    2    0    0  0.20371376914E+01 -0.82339066649E+00  0.18597088991E+02  0.18726441763E+02  0.00000000000E+00 0.  1.
         11    1    3    3    0    0 -0.19072409254E+02 -0.11865410987E+02 -0.24478645613E+02  0.33222716083E+02  0.51100000000E-03 0. -1.
        -11    1    3    3    0    0  0.47349636339E+01  0.99542336825E+00 -0.12987930677E+02  0.13859909517E+02  0.51100000000E-03 0.  1.
        -12    1    3    3    0    0  0.12300307929E+02  0.11693378286E+02  0.18869487299E+02  0.25378932637E+02  0.00000000000E+00 0.  1.
</event>
<event>
 7    1  0.2489154E-013  0.7246157E+02  0.7816164E-02  0.1226708E+00
        -11   -1    0    0    0    0  0.00000000000E+00  0.00000000000E+00  0.45593999997E+02  0.45594000000E+02  0.51100000000E-03 0.  1.
         11   -1    0    0    0    0 -0.00000000000E+00 -0.00000000000E+00 -0.45593999997E+02  0.45594000000E+02  0.51100000000E-03 0. -1.
    9900012    2    1    2    0    0  0.16423965361E+02  0.89060747840E+01 -0.12706099061E+01  0.72461567992E+02  0.69999997000E+02 0.  0.
        -12    1    1    2    0    0 -0.16423965361E+02 -0.89060747840E+01  0.12706099061E+01  0.18726432008E+02  0.00000000000E+00 0.  1.
         11    1    3    3    0    0  0.36609788858E+02  0.41915720739E+01 -0.71940821181E+01  0.37544649878E+02  0.51100000000E-03 0. -1.
        -11    1    3    3    0    0  0.41817123540E+01 -0.52494415017E+01 -0.26712300971E+01  0.72234911770E+01  0.51100000000E-03 0.  1.
        -12    1    3    3    0    0 -0.24367535851E+02  0.99639442119E+01  0.85947023091E+01  0.27693426937E+02  0.00000000000E+00 0.  1.
</event>
<event>
 7    1  0.2489154E-013  0.7246159E+02  0.7816164E-02  0.1226708E+00
        -11   -1    0    0    0    0  0.00000000000E+00  0.00000000000E+00  0.45593999997E+02  0.45594000000E+02  0.51100000000E-03 0.  1.
         11   -1    0    0    0    0 -0.00000000000E+00 -0.00000000000E+00 -0.45593999997E+02  0.45594000000E+02  0.51100000000E-03 0. -1.
    9900012    2    1    2    0    0 -0.12196168559E+02 -0.10794417419E+02 -0.92418851080E+01  0.72461590432E+02  0.70000026234E+02 0.  0.
        -12    1    1    2    0    0  0.12196168559E+02  0.10794417419E+02  0.92418851080E+01  0.18726409568E+02  0.00000000000E+00 0.  1.
         11    1    3    3    0    0 -0.19527934440E+02 -0.16874524225E+02 -0.25896679709E+01  0.25938314744E+02  0.51100000000E-03 0. -1.
        -11    1    3    3    0    0 -0.11947906885E+02 -0.13492018744E+02  0.85748706997E+00  0.18042237474E+02  0.51100000000E-03 0.  1.
        -12    1    3    3    0    0  0.19279672766E+02  0.19572125550E+02 -0.75097042071E+01  0.28481038214E+02  0.00000000000E+00 0.  1.
</event>
<event>
 7    1  0.2489154E-013  0.7246155E+02  0.7816164E-02  0.1226708E+00
        -11   -1    0    0    0    0  0.00000000000E+00  0.00000000000E+00  0.45593999997E+02  0.45594000000E+02  0.51100000000E-03 0. -1.
         11   -1    0    0    0    0 -0.00000000000E+00 -0.00000000000E+00 -0.45593999997E+02  0.45594000000E+02  0.51100000000E-03 0.  1.
    9900012    2    1    2    0    0  0.10642917884E+02  0.11553745729E+01  0.15364677923E+02  0.72461550279E+02  0.69999973926E+02 0.  0.
        -12    1    1    2    0    0 -0.10642917884E+02 -0.11553745729E+01 -0.15364677923E+02  0.18726449721E+02  0.00000000000E+00 0.  1.
         11    1    3    3    0    0 -0.89534590995E+01 -0.52858079243E+00  0.78571984391E+00  0.90033984380E+01  0.51100000000E-03 0. -1.
        -11    1    3    3    0    0 -0.18010386665E+02 -0.12011063572E+02  0.34900809957E+01  0.21927615957E+02  0.51100000000E-03 0.  1.
         12    1    3    3    0    0  0.37606763648E+02  0.13695018937E+02  0.11088877083E+02  0.41530535883E+02  0.00000000000E+00 0. -1.
</event>
<event>
 7    1  0.2489154E-013  0.7246155E+02  0.7816164E-02  0.1226708E+00
        -11   -1    0    0    0    0  0.00000000000E+00  0.00000000000E+00  0.45593999997E+02  0.45594000000E+02  0.51100000000E-03 0.  1.
         11   -1    0    0    0    0 -0.00000000000E+00 -0.00000000000E+00 -0.45593999997E+02  0.45594000000E+02  0.51100000000E-03 0. -1.
    9900012    2    1    2    0    0  0.73570223700E+01 -0.69546043147E+00 -0.17206698444E+02  0.72461550397E+02  0.69999974081E+02 0.  0.
        -12    1    1    2    0    0 -0.73570223700E+01  0.69546043147E+00  0.17206698444E+02  0.18726449603E+02  0.00000000000E+00 0.  1.
         11    1    3    3    0    0 -0.23062919991E+02 -0.13534835151E+02  0.77294014609E+00  0.26752335932E+02  0.51100000000E-03 0. -1.
        -11    1    3    3    0    0  0.13642224827E+02 -0.67904775986E+00  0.46823046993E+01  0.14439369157E+02  0.51100000000E-03 0.  1.
        -12    1    3    3    0    0  0.16777717534E+02  0.13518422479E+02 -0.22661943290E+02  0.31269845309E+02  0.00000000000E+00 0.  1.
</event>
<event>
 7    1  0.2489154E-013  0.7246159E+02  0.7816164E-02  0.1226708E+00
        -11   -1    0    0    0    0  0.00000000000E+00  0.00000000000E+00  0.45593999997E+02  0.45594000000E+02  0.51100000000E-03 0.  1.
         11   -1    0    0    0    0 -0.00000000000E+00 -0.00000000000E+00 -0.45593999997E+02  0.45594000000E+02  0.51100000000E-03 0. -1.
    9900012    2    1    2    0    0 -0.13643517596E+02 -0.19079265447E+01 -0.12684351890E+02  0.72461587130E+02  0.70000021932E+02 0.  0.
        -12    1    1    2    0    0  0.13643517596E+02  0.19079265447E+01  0.12684351890E+02  0.18726412870E+02  0.00000000000E+00 0.  1.
         11    1    3    3    0    0 -0.60327540478E+01 -0.75647987883E+01  0.12860836642E+02  0.16094142460E+02  0.51100000000E-03 0. -1.
        -11    1    3    3    0    0 -0.21970523148E+02 -0.13515955614E+02 -0.17189597330E+02  0.30997857994E+02  0.51100000000E-03 0.  1.
        -12    1    3    3    0    0  0.14359759600E+02  0.19172827858E+02 -0.83555912024E+01  0.25369586677E+02  0.00000000000E+00 0.  1.
</event>
<event>
 7    1  0.2489154E-013  0.7246165E+02  0.7816164E-02  0.1226708E+00
        -11   -1    0    0    0    0  0.00000000000E+00  0.00000000000E+00  0.45593999997E+02  0.45594000000E+02  0.51100000000E-03 0.  1.
         11   -1    0    0    0    0 -0.00000000000E+00 -0.00000000000E+00 -0.45593999997E+02  0.45594000000E+02  0.51100000000E-03 0. -1.
    9900012    2    1    2    0    0  0.32735458366E+01 -0.11202383259E+01 -0.18403944056E+02  0.72461649766E+02  0.70000103527E+02 0.  0.
        -12    1    1    2    0    0 -0.32735458366E+01  0.11202383259E+01  0.18403944056E+02  0.18726350234E+02  0.00000000000E+00 0.  1.
         11    1    3    3    0    0 -0.19087725266E+02 -0.26097087491E+01 -0.29575939076E+02  0.35297138808E+02  0.51100000000E-03 0.  1.
        -11    1    3    3    0    0  0.12376412652E+02 -0.65915541502E+01 -0.63872049612E+01  0.15408457539E+02  0.51100000000E-03 0. -1.
        -12    1    3    3    0    0  0.99848584499E+01  0.80810245734E+01  0.17559199980E+02  0.21756053419E+02  0.00000000000E+00 0.  1.
</event>
<event>
 7    1  0.2489154E-013  0.7246156E+02  0.7816164E-02  0.1226708E+00
        -11   -1    0    0    0    0  0.00000000000E+00  0.00000000000E+00  0.45593999997E+02  0.45594000000E+02  0.51100000000E-03 0. -1.
         11   -1    0    0    0    0 -0.00000000000E+00 -0.00000000000E+00 -0.45593999997E+02  0.45594000000E+02  0.51100000000E-03 0.  1.
    9900012    2    1    2    0    0 -0.86810805675E+01 -0.10002596404E+02  0.13238818890E+02  0.72461563600E+02  0.69999991280E+02 0.  0.
        -12    1    1    2    0    0  0.86810805675E+01  0.10002596404E+02 -0.13238818890E+02  0.18726436400E+02  0.00000000000E+00 0.  1.
         11    1    3    3    0    0  0.44671933900E+01 -0.65982616598E+00 -0.18009904846E+02  0.18567387004E+02  0.51100000000E-03 0. -1.
        -11    1    3    3    0    0 -0.20863562383E+02  0.90145113367E+01  0.10176996921E+02  0.24902227140E+02  0.51100000000E-03 0.  1.
         12    1    3    3    0    0  0.77152884256E+01 -0.18357281575E+02  0.21071726815E+02  0.28991949456E+02  0.00000000000E+00 0. -1.
</event>
<event>
 7    1  0.2489154E-013  0.7246171E+02  0.7816164E-02  0.1226708E+00
        -11   -1    0    0    0    0  0.00000000000E+00  0.00000000000E+00  0.45593999997E+02  0.45594000000E+02  0.51100000000E-03 0.  1.
         11   -1    0    0    0    0 -0.00000000000E+00 -0.00000000000E+00 -0.45593999997E+02  0.45594000000E+02  0.51100000000E-03 0. -1.
    9900012    2    1    2    0    0 -0.58041893911E+01 -0.17789961394E+02 -0.70900421049E+00  0.72461707579E+02  0.70000178838E+02 0.  0.
        -12    1    1    2    0    0  0.58041893911E+01  0.17789961394E+02  0.70900421049E+00  0.18726292421E+02  0.00000000000E+00 0.  1.
         11    1    3    3    0    0  0.22381641754E+02 -0.16385565661E+02 -0.21730628245E+01  0.27823494603E+02  0.51100000000E-03 0. -1.
        -11    1    3    3    0    0  0.63303384325E+01 -0.42939082304E+01  0.59784127170E+01  0.97083598737E+01  0.51100000000E-03 0.  1.
        -12    1    3    3    0    0 -0.34516169577E+02  0.28895124980E+01 -0.45143541030E+01  0.34929853102E+02  0.00000000000E+00 0.  1.
</event>
<event>
 7    1  0.2489154E-013  0.7246162E+02  0.7816164E-02  0.1226708E+00
        -11   -1    0    0    0    0  0.00000000000E+00  0.00000000000E+00  0.45593999997E+02  0.45594000000E+02  0.51100000000E-03 0. -1.
         11   -1    0    0    0    0 -0.00000000000E+00 -0.00000000000E+00 -0.45593999997E+02  0.45594000000E+02  0.51100000000E-03 0.  1.
    9900012    2    1    2    0    0 -0.11621637875E+02  0.13956725082E+02 -0.45633905683E+01  0.72461623538E+02  0.70000069359E+02 0.  0.
        -12    1    1    2    0    0  0.11621637875E+02 -0.13956725082E+02  0.45633905683E+01  0.18726376462E+02  0.00000000000E+00 0.  1.
         11    1    3    3    0    0  0.98671163438E+01  0.16233719009E+02  0.63533720534E+01  0.20031449136E+02  0.51100000000E-03 0. -1.
        -11    1    3    3    0    0  0.11542962306E+02 -0.36788693140E+01  0.78285583635E+01  0.14424298407E+02  0.51100000000E-03 0.  1.
        -12    1    3    3    0    0 -0.33031716525E+02  0.14018753878E+01 -0.18745320985E+02  0.38005875994E+02  0.00000000000E+00 0.  1.
</event>
<event>
 7    1  0.2489154E-013  0.7246157E+02  0.7816164E-02  0.1226708E+00
        -11   -1    0    0    0    0  0.00000000000E+00  0.00000000000E+00  0.45593999997E+02  0.45594000000E+02  0.51100000000E-03 0.  1.
         11   -1    0    0    0    0 -0.00000000000E+00 -0.00000000000E+00 -0.45593999997E+02  0.45594000000E+02  0.51100000000E-03 0. -1.
    9900012    2    1    2    0    0 -0.11703653290E+02  0.14616864099E+02  0.22607197673E+00  0.72461566144E+02  0.69999994593E+02 0.  0.
        -12    1    1    2    0    0  0.11703653290E+02 -0.14616864099E+02 -0.22607197673E+00  0.18726433856E+02  0.00000000000E+00 0.  1.
         11    1    3    3    0    0 -0.11666185756E+02 -0.16649962374E+02  0.59050974052E+01  0.21170529345E+02  0.51100000000E-03 0. -1.
        -11    1    3    3    0    0 -0.10806297918E+02 -0.37344805919E+01 -0.89570255154E+01  0.14524142877E+02  0.51100000000E-03 0.  1.
         12    1    3    3    0    0  0.10768830383E+02  0.35001307065E+02  0.32780000870E+01  0.36766893921E+02  0.00000000000E+00 0. -1.
</event>
<event>
 7    1  0.2489154E-013  0.7246155E+02  0.7816164E-02  0.1226708E+00
        -11   -1    0    0    0    0  0.00000000000E+00  0.00000000000E+00  0.45593999997E+02  0.45594000000E+02  0.51100000000E-03 0.  1.
         11   -1    0    0    0    0 -0.00000000000E+00 -0.00000000000E+00 -0.45593999997E+02  0.45594000000E+02  0.51100000000E-03 0. -1.
    9900012    2    1    2    0    0  0.14935238186E+02  0.10505359690E+02 -0.41540546695E+01  0.72461545662E+02  0.69999967912E+02 0.  0.
        -12    1    1    2    0    0 -0.14935238186E+02 -0.10505359690E+02  0.41540546695E+01  0.18726454338E+02  0.00000000000E+00 0.  1.
         11    1    3    3    0    0 -0.14283616335E+02  0.13326093417E+02 -0.70219740788E+01  0.20758482160E+02  0.51100000000E-03 0. -1.
        -11    1    3    3    0    0 -0.90194121227E+01 -0.74361374429E+01 -0.44320815062E+01  0.12501571175E+02  0.51100000000E-03 0.  1.
         12    1    3    3    0    0  0.38238266643E+02  0.46154037158E+01  0.73000009155E+01  0.39201492327E+02  0.00000000000E+00 0. -1.
</event>
<event>
 7    1  0.2489154E-013  0.7246153E+02  0.7816164E-02  0.1226708E+00
        -11   -1    0    0    0    0  0.00000000000E+00  0.00000000000E+00  0.45593999997E+02  0.45594000000E+02  0.51100000000E-03 0.  1.
         11   -1    0    0    0    0 -0.00000000000E+00 -0.00000000000E+00 -0.45593999997E+02  0.45594000000E+02  0.51100000000E-03 0. -1.
    9900012    2    1    2    0    0 -0.16651910851E+01  0.79694727699E+01 -0.16864021099E+02  0.72461533029E+02  0.69999951455E+02 0.  0.
        -12    1    1    2    0    0  0.16651910851E+01 -0.79694727699E+01  0.16864021099E+02  0.18726466971E+02  0.00000000000E+00 0.  1.
         11    1    3    3    0    0 -0.39107780595E+01  0.49182008632E+00 -0.39659675622E+01  0.55915088298E+01  0.51100000000E-03 0. -1.
        -11    1    3    3    0    0 -0.26226381017E+02  0.18374038032E+02 -0.16755668747E+02  0.36141122981E+02  0.51100000000E-03 0.  1.
        -12    1    3    3    0    0  0.28471967992E+02 -0.10896385349E+02  0.38576152103E+01  0.30728901219E+02  0.00000000000E+00 0.  1.
</event>
<event>
 7    1  0.2489154E-013  0.7246159E+02  0.7816164E-02  0.1226708E+00
        -11   -1    0    0    0    0  0.00000000000E+00  0.00000000000E+00  0.45593999997E+02  0.45594000000E+02  0.51100000000E-03 0.  1.
         11   -1    0    0    0    0 -0.00000000000E+00 -0.00000000000E+00 -0.45593999997E+02  0.45594000000E+02  0.51100000000E-03 0. -1.
    9900012    2    1    2    0    0 -0.11222252456E+02 -0.12094547668E+02 -0.88578468867E+01  0.72461588573E+02  0.70000023811E+02 0.  0.
        -12    1    1    2    0    0  0.11222252456E+02  0.12094547668E+02  0.88578468867E+01  0.18726411427E+02  0.00000000000E+00 0.  1.
         11    1    3    3    0    0 -0.26371266636E+01  0.32383729128E+01 -0.35596828896E+01  0.54875166239E+01  0.51100000000E-03 0. -1.
        -11    1    3    3    0    0 -0.17054248514E+02  0.90642547410E+01 -0.27030557925E+02  0.33221366143E+02  0.51100000000E-03 0.  1.
         12    1    3    3    0    0  0.84691227222E+01 -0.24397175322E+02  0.21732393928E+02  0.33752705806E+02  0.00000000000E+00 0. -1.
</event>
<event>
 7    1  0.2489154E-013  0.7246159E+02  0.7816164E-02  0.1226708E+00
        -11   -1    0    0    0    0  0.00000000000E+00  0.00000000000E+00  0.45593999997E+02  0.45594000000E+02  0.51100000000E-03 0.  1.
         11   -1    0    0    0    0 -0.00000000000E+00 -0.00000000000E+00 -0.45593999997E+02  0.45594000000E+02  0.51100000000E-03 0. -1.
    9900012    2    1    2    0    0 -0.76149454617E+01 -0.72831312591E+01 -0.15480532881E+02  0.72461593682E+02  0.70000030466E+02 0.  0.
        -12    1    1    2    0    0  0.76149454617E+01  0.72831312591E+01  0.15480532881E+02  0.18726406318E+02  0.00000000000E+00 0.  1.
         11    1    3    3    0    0  0.27888879826E+01 -0.80380409604E+01  0.86921972622E+01  0.12163153052E+02  0.51100000000E-03 0. -1.
        -11    1    3    3    0    0 -0.13669580071E+02 -0.24927374401E+02 -0.71514995198E+01  0.29315104630E+02  0.51100000000E-03 0.  1.
         12    1    3    3    0    0  0.32657466270E+01  0.25682284102E+02 -0.17021230623E+02  0.30983336000E+02  0.00000000000E+00 0. -1.
</event>
<event>
 7    1  0.2489154E-013  0.7246159E+02  0.7816164E-02  0.1226708E+00
        -11   -1    0    0    0    0  0.00000000000E+00  0.00000000000E+00  0.45593999997E+02  0.45594000000E+02  0.51100000000E-03 0. -1.
         11   -1    0    0    0    0 -0.00000000000E+00 -0.00000000000E+00 -0.45593999997E+02  0.45594000000E+02  0.51100000000E-03 0.  1.
    9900012    2    1    2    0    0 -0.14545580702E+02 -0.50624328854E+01  0.10652520074E+02  0.72461592747E+02  0.70000029248E+02 0.  0.
        -12    1    1    2    0    0  0.14545580702E+02  0.50624328854E+01 -0.10652520074E+02  0.18726407253E+02  0.00000000000E+00 0.  1.
         11    1    3    3    0    0  0.35142435026E+00  0.23806659433E+01  0.95305505663E+01  0.98296726174E+01  0.51100000000E-03 0. -1.
        -11    1    3    3    0    0  0.11218105980E+02  0.18906674277E+02  0.10504818181E+02  0.24365127525E+02  0.51100000000E-03 0.  1.
        -12    1    3    3    0    0 -0.26115111033E+02 -0.26349773106E+02 -0.93828486735E+01  0.38266792604E+02  0.00000000000E+00 0.  1.
</event>
<event>
 7    1  0.2489154E-013  0.7246154E+02  0.7816164E-02  0.1226708E+00
        -11   -1    0    0    0    0  0.00000000000E+00  0.00000000000E+00  0.45593999997E+02  0.45594000000E+02  0.51100000000E-03 0. -1.
         11   -1    0    0    0    0 -0.00000000000E+00 -0.00000000000E+00 -0.45593999997E+02  0.45594000000E+02  0.51100000000E-03 0.  1.
    9900012    2    1    2    0    0  0.16506902198E+01  0.18565719541E+02  0.18082233946E+01  0.72461537650E+02  0.69999957475E+02 0.  0.
        -12    1    1    2    0    0 -0.16506902198E+01 -0.18565719541E+02 -0.18082233946E+01  0.18726462350E+02  0.00000000000E+00 0.  1.
         11    1    3    3    0    0 -0.10716917717E+02 -0.36370606773E+01 -0.61863103586E+01  0.12897711884E+02  0.51100000000E-03 0. -1.
        -11    1    3    3    0    0 -0.10793127856E+02  0.19887457161E+02 -0.14757738819E+02  0.27014688904E+02  0.51100000000E-03 0.  1.
        -12    1    3    3    0    0  0.23160735793E+02  0.23153230577E+01  0.22752272573E+02  0.32549136863E+02  0.00000000000E+00 0.  1.
</event>
<event>
 7    1  0.2489154E-013  0.7246158E+02  0.7816164E-02  0.1226708E+00
        -11   -1    0    0    0    0  0.00000000000E+00  0.00000000000E+00  0.45593999997E+02  0.45594000000E+02  0.51100000000E-03 0. -1.
         11   -1    0    0    0    0 -0.00000000000E+00 -0.00000000000E+00 -0.45593999997E+02  0.45594000000E+02  0.51100000000E-03 0.  1.
    9900012    2    1    2    0    0  0.10232759192E+02  0.86089219339E+01  0.13109383295E+02  0.72461579416E+02  0.70000011882E+02 0.  0.
        -12    1    1    2    0    0 -0.10232759192E+02 -0.86089219339E+01 -0.13109383295E+02  0.18726420584E+02  0.00000000000E+00 0.  1.
         11    1    3    3    0    0  0.20669645363E+01 -0.87155729318E+01  0.11202362185E+02  0.14343168155E+02  0.51100000000E-03 0. -1.
        -11    1    3    3    0    0 -0.12844461682E+02  0.30267123640E+02  0.49663822798E+01  0.33252728047E+02  0.51100000000E-03 0.  1.
         12    1    3    3    0    0  0.21010256338E+02 -0.12942628774E+02 -0.30593611703E+01  0.24865683214E+02  0.00000000000E+00 0. -1.
</event>
<event>
 7    1  0.2489154E-013  0.7246160E+02  0.7816164E-02  0.1226708E+00
        -11   -1    0    0    0    0  0.00000000000E+00  0.00000000000E+00  0.45593999997E+02  0.45594000000E+02  0.51100000000E-03 0.  1.
         11   -1    0    0    0    0 -0.00000000000E+00 -0.00000000000E+00 -0.45593999997E+02  0.45594000000E+02  0.51100000000E-03 0. -1.
    9900012    2    1    2    0    0  0.57089490778E+01  0.15260336450E+02 -0.92308273659E+01  0.72461597730E+02  0.70000035740E+02 0.  0.
        -12    1    1    2    0    0 -0.57089490778E+01 -0.15260336450E+02  0.92308273659E+01  0.18726402270E+02  0.00000000000E+00 0.  1.
         11    1    3    3    0    0 -0.10042216233E+02  0.18753713257E+02 -0.15057234022E+02  0.26062773537E+02  0.51100000000E-03 0. -1.
        -11    1    3    3    0    0  0.54340556681E+01  0.83352283943E+01  0.21825193877E+02  0.23986331137E+02  0.51100000000E-03 0.  1.
         12    1    3    3    0    0  0.10317109642E+02 -0.11828605202E+02 -0.15998787221E+02  0.22412493055E+02  0.00000000000E+00 0. -1.
</event>
<event>
 7    1  0.2489154E-013  0.7246157E+02  0.7816164E-02  0.1226708E+00
        -11   -1    0    0    0    0  0.00000000000E+00  0.00000000000E+00  0.45593999997E+02  0.45594000000E+02  0.51100000000E-03 0.  1.
         11   -1    0    0    0    0 -0.00000000000E+00 -0.00000000000E+00 -0.45593999997E+02  0.45594000000E+02  0.51100000000E-03 0. -1.
    9900012    2    1    2    0    0  0.99761350569E+01 -0.35771874934E+01 -0.15438905891E+02  0.72461565311E+02  0.69999993508E+02 0.  0.
        -12    1    1    2    0    0 -0.99761350569E+01  0.35771874934E+01  0.15438905891E+02  0.18726434689E+02  0.00000000000E+00 0.  1.
         11    1    3    3    0    0 -0.11951795969E+01  0.93120022500E+01 -0.10542228271E+02  0.14116671611E+02  0.51100000000E-03 0. -1.
        -11    1    3    3    0    0 -0.17268993254E+02  0.70448524455E+01  0.92805213536E+01  0.20832094250E+02  0.51100000000E-03 0.  1.
         12    1    3    3    0    0  0.28440307908E+02 -0.19934042189E+02 -0.14177198973E+02  0.37512799450E+02  0.00000000000E+00 0. -1.
</event>
<event>
 7    1  0.2489154E-013  0.7246155E+02  0.7816164E-02  0.1226708E+00
        -11   -1    0    0    0    0  0.00000000000E+00  0.00000000000E+00  0.45593999997E+02  0.45594000000E+02  0.51100000000E-03 0.  1.
         11   -1    0    0    0    0 -0.00000000000E+00 -0.00000000000E+00 -0.45593999997E+02  0.45594000000E+02  0.51100000000E-03 0. -1.
    9900012    2    1    2    0    0 -0.38759724760E+01  0.18253250606E+02 -0.15733760892E+01  0.72461552589E+02  0.69999976936E+02 0.  0.
        -12    1    1    2    0    0  0.38759724760E+01 -0.18253250606E+02  0.15733760892E+01  0.18726447411E+02  0.00000000000E+00 0.  1.
         11    1    3    3    0    0 -0.16057140124E+02 -0.31004905045E+01 -0.77509189095E+01  0.18097556038E+02  0.51100000000E-03 0. -1.
        -11    1    3    3    0    0  0.17655314637E+02 -0.89032751828E+01 -0.69108035679E+01  0.20946065266E+02  0.51100000000E-03 0.  1.
         12    1    3    3    0    0 -0.54741469888E+01  0.30257016293E+02  0.13088346388E+02  0.33417931285E+02  0.00000000000E+00 0. -1.
</event>
<event>
 7    1  0.2489154E-013  0.7246159E+02  0.7816164E-02  0.1226708E+00
        -11   -1    0    0    0    0  0.00000000000E+00  0.00000000000E+00  0.45593999997E+02  0.45594000000E+02  0.51100000000E-03 0. -1.
         11   -1    0    0    0    0 -0.00000000000E+00 -0.00000000000E+00 -0.45593999997E+02  0.45594000000E+02  0.51100000000E-03 0.  1.
    9900012    2    1    2    0    0 -0.91345988105E+01  0.67032715698E+01  0.14909852788E+02  0.72461589364E+02  0.70000024842E+02 0.  0.
        -12    1    1    2    0    0  0.91345988105E+01 -0.67032715698E+01 -0.14909852788E+02  0.18726410636E+02  0.00000000000E+00 0.  1.
         11    1    3    3    0    0 -0.11787242948E+02  0.12931067206E+02  0.31580190352E+02  0.36103462692E+02  0.51100000000E-03 0. -1.
        -11    1    3    3    0    0 -0.71679168563E+01 -0.15334785802E+02 -0.29462827987E+01  0.17181829654E+02  0.51100000000E-03 0.  1.
         12    1    3    3    0    0  0.98205609940E+01  0.91069901659E+01 -0.13724054766E+02  0.19176297018E+02  0.00000000000E+00 0. -1.
</event>
<event>
 7    1  0.2489154E-013  0.7246151E+02  0.7816164E-02  0.1226708E+00
        -11   -1    0    0    0    0  0.00000000000E+00  0.00000000000E+00  0.45593999997E+02  0.45594000000E+02  0.51100000000E-03 0.  1.
         11   -1    0    0    0    0 -0.00000000000E+00 -0.00000000000E+00 -0.45593999997E+02  0.45594000000E+02  0.51100000000E-03 0. -1.
    9900012    2    1    2    0    0 -0.59263576050E+01 -0.96197641323E+01 -0.14933853420E+02  0.72461506618E+02  0.69999917050E+02 0.  0.
        -12    1    1    2    0    0  0.59263576050E+01  0.96197641323E+01  0.14933853420E+02  0.18726493382E+02  0.00000000000E+00 0.  1.
         11    1    3    3    0    0 -0.25180920539E+02  0.58880904440E+01 -0.18351551609E+02  0.31710058578E+02  0.51100000000E-03 0. -1.
        -11    1    3    3    0    0 -0.60860703202E+01 -0.13940293582E+02  0.89180611452E+00  0.15237038935E+02  0.51100000000E-03 0.  1.
         12    1    3    3    0    0  0.25340633255E+02 -0.15675609939E+01  0.25258920744E+01  0.25514409105E+02  0.00000000000E+00 0. -1.
</event>
<event>
 7    1  0.2489154E-013  0.7246162E+02  0.7816164E-02  0.1226708E+00
        -11   -1    0    0    0    0  0.00000000000E+00  0.00000000000E+00  0.45593999997E+02  0.45594000000E+02  0.51100000000E-03 0. -1.
         11   -1    0    0    0    0 -0.00000000000E+00 -0.00000000000E+00 -0.45593999997E+02  0.45594000000E+02  0.51100000000E-03 0.  1.
    9900012    2    1    2    0    0  0.11615785815E+02 -0.11345958899E+02  0.93284488635E+01  0.72461622303E+02  0.70000067751E+02 0.  0.
        -12    1    1    2    0    0 -0.11615785815E+02  0.11345958899E+02 -0.93284488635E+01  0.18726377697E+02  0.00000000000E+00 0.  1.
         11    1    3    3    0    0 -0.61146086974E+00 -0.24249104949E+02  0.34125629705E+01  0.24495684549E+02  0.51100000000E-03 0. -1.
        -11    1    3    3    0    0 -0.20931918353E+01 -0.15220024142E+02  0.57562875275E+01  0.16406262015E+02  0.51100000000E-03 0.  1.
        -12    1    3    3    0    0  0.14320438521E+02  0.28123170193E+02  0.15959836557E+00  0.31559675739E+02  0.00000000000E+00 0.  1.
</event>
<event>
 7    1  0.2489154E-013  0.7246153E+02  0.7816164E-02  0.1226708E+00
        -11   -1    0    0    0    0  0.00000000000E+00  0.00000000000E+00  0.45593999997E+02  0.45594000000E+02  0.51100000000E-03 0.  1.
         11   -1    0    0    0    0 -0.00000000000E+00 -0.00000000000E+00 -0.45593999997E+02  0.45594000000E+02  0.51100000000E-03 0. -1.
    9900012    2    1    2    0    0  0.15827407717E+02  0.97843839217E+01 -0.21070656649E+01  0.72461528643E+02  0.69999945741E+02 0.  0.
        -12    1    1    2    0    0 -0.15827407717E+02 -0.97843839217E+01  0.21070656649E+01  0.18726471357E+02  0.00000000000E+00 0.  1.
         11    1    3    3    0    0  0.12072664535E+02  0.13887458025E+02  0.13601994067E+02  0.22882853018E+02  0.51100000000E-03 0. -1.
        -11    1    3    3    0    0  0.51767218671E+01  0.15516300774E+02  0.84608657039E+01  0.18415761937E+02  0.51100000000E-03 0.  1.
         12    1    3    3    0    0 -0.14219786846E+01 -0.19619374877E+02 -0.24169925436E+02  0.31162913688E+02  0.00000000000E+00 0. -1.
</event>
<event>
 7    1  0.2489154E-013  0.7246154E+02  0.7816164E-02  0.1226708E+00
        -11   -1    0    0    0    0  0.00000000000E+00  0.00000000000E+00  0.45593999997E+02  0.45594000000E+02  0.51100000000E-03 0.  1.
         11   -1    0    0    0    0 -0.00000000000E+00 -0.00000000000E+00 -0.45593999997E+02  0.45594000000E+02  0.51100000000E-03 0. -1.
    9900012    2    1    2    0    0  0.15659085192E+01 -0.39691789625E+01 -0.18233864225E+02  0.72461541293E+02  0.69999962220E+02 0.  0.
        -12    1    1    2    0    0 -0.15659085192E+01  0.39691789625E+01  0.18233864225E+02  0.18726458707E+02  0.00000000000E+00 0.  1.
         11    1    3    3    0    0 -0.92177987964E+01  0.11052795712E+02  0.14038425001E+02  0.20104961688E+02  0.51100000000E-03 0.  1.
        -11    1    3    3    0    0  0.26496692932E+01  0.93638046015E+01 -0.23093996539E+02  0.25060611732E+02  0.51100000000E-03 0. -1.
        -12    1    3    3    0    0  0.81340380225E+01 -0.24385779276E+02 -0.91782926873E+01  0.27295967873E+02  0.00000000000E+00 0.  1.
</event>
<event>
 7    1  0.2489154E-013  0.7246160E+02  0.7816164E-02  0.1226708E+00
        -11   -1    0    0    0    0  0.00000000000E+00  0.00000000000E+00  0.45593999997E+02  0.45594000000E+02  0.51100000000E-03 0. -1.
         11   -1    0    0    0    0 -0.00000000000E+00 -0.00000000000E+00 -0.45593999997E+02  0.45594000000E+02  0.51100000000E-03 0.  1.
    9900012    2    1    2    0    0  0.46611541483E+01 -0.26481831351E+01  0.17942649028E+02  0.72461604563E+02  0.70000044642E+02 0.  0.
        -12    1    1    2    0    0 -0.46611541483E+01  0.26481831351E+01 -0.17942649028E+02  0.18726395437E+02  0.00000000000E+00 0.  1.
         11    1    3    3    0    0  0.61461275643E+01 -0.67557542189E+01  0.28256124875E+02  0.29695516367E+02  0.51100000000E-03 0. -1.
        -11    1    3    3    0    0  0.98575114924E+01  0.13333778452E+02  0.87439292975E+01  0.18746105741E+02  0.51100000000E-03 0.  1.
        -12    1    3    3    0    0 -0.11342484908E+02 -0.92262073682E+01 -0.19057405145E+02  0.24019982455E+02  0.00000000000E+00 0.  1.
</event>
<event>
 7    1  0.2489154E-013  0.7246174E+02  0.7816164E-02  0.1226708E+00
        -11   -1    0    0    0    0  0.00000000000E+00  0.00000000000E+00  0.45593999997E+02  0.45594000000E+02  0.51100000000E-03 0.  1.
         11   -1    0    0    0    0 -0.00000000000E+00 -0.00000000000E+00 -0.45593999997E+02  0.45594000000E+02  0.51100000000E-03 0. -1.
    9900012    2    1    2    0    0  0.27014213138E+01  0.49332348356E+01 -0.17861649270E+02  0.72461735084E+02  0.70000214669E+02 0.  0.
        -12    1    1    2    0    0 -0.27014213138E+01 -0.49332348356E+01  0.17861649270E+02  0.18726264916E+02  0.00000000000E+00 0.  1.
         11    1    3    3    0    0  0.26097934936E+01  0.43673145747E+01 -0.11849954355E+02  0.12895963599E+02  0.51100000000E-03 0. -1.
        -11    1    3    3    0    0 -0.27185763721E+02  0.11952053754E+02 -0.34407872927E+01  0.29895758152E+02  0.51100000000E-03 0.  1.
         12    1    3    3    0    0  0.27277391541E+02 -0.11386133493E+02 -0.25709076227E+01  0.29670013333E+02  0.00000000000E+00 0. -1.
</event>
<event>
 7    1  0.2489154E-013  0.7246159E+02  0.7816164E-02  0.1226708E+00
        -11   -1    0    0    0    0  0.00000000000E+00  0.00000000000E+00  0.45593999997E+02  0.45594000000E+02  0.51100000000E-03 0.  1.
         11   -1    0    0    0    0 -0.00000000000E+00 -0.00000000000E+00 -0.45593999997E+02  0.45594000000E+02  0.51100000000E-03 0. -1.
    9900012    2    1    2    0    0 -0.37613249137E+01  0.16074608794E+02 -0.88395676920E+01  0.72461586303E+02  0.70000020854E+02 0.  0.
        -12    1    1    2    0    0  0.37613249137E+01 -0.16074608794E+02  0.88395676920E+01  0.18726413697E+02  0.00000000000E+00 0.  1.
         11    1    3    3    0    0 -0.16611578163E+01  0.10894121105E+02 -0.33792428476E+02  0.35543910062E+02  0.51100000000E-03 0. -1.
        -11    1    3    3    0    0  0.61269281054E+01  0.16453491669E+01 -0.33907003454E+01  0.71932795708E+01  0.51100000000E-03 0.  1.
        -12    1    3    3    0    0 -0.82270952028E+01  0.35351385220E+01  0.28343561130E+02  0.29724396669E+02  0.00000000000E+00 0.  1.
</event>
<event>
 7    1  0.2489154E-013  0.7246122E+02  0.7816164E-02  0.1226709E+00
        -11   -1    0    0    0    0  0.00000000000E+00  0.00000000000E+00  0.45593999997E+02  0.45594000000E+02  0.51100000000E-03 0. -1.
         11   -1    0    0    0    0 -0.00000000000E+00 -0.00000000000E+00 -0.45593999997E+02  0.45594000000E+02  0.51100000000E-03 0.  1.
    9900012    2    1    2    0    0 -0.15197151769E+02  0.76788296055E+00  0.10915555322E+02  0.72461216664E+02  0.69999539329E+02 0.  0.
        -12    1    1    2    0    0  0.15197151769E+02 -0.76788296055E+00 -0.10915555322E+02  0.18726783336E+02  0.00000000000E+00 0.  1.
         11    1    3    3    0    0 -0.30975130508E+02  0.21807830366E+01  0.16036979486E+02  0.34948522657E+02  0.51100000000E-03 0. -1.
        -11    1    3    3    0    0 -0.93423732050E+01 -0.23878428961E+00 -0.78665329656E+01  0.12215535035E+02  0.51100000000E-03 0.  1.
         12    1    3    3    0    0  0.25120351944E+02 -0.11741157864E+01  0.27451088022E+01  0.25297158971E+02  0.00000000000E+00 0. -1.
</event>
<event>
 7    1  0.2489154E-013  0.7246132E+02  0.7816164E-02  0.1226709E+00
        -11   -1    0    0    0    0  0.00000000000E+00  0.00000000000E+00  0.45593999997E+02  0.45594000000E+02  0.51100000000E-03 0. -1.
         11   -1    0    0    0    0 -0.00000000000E+00 -0.00000000000E+00 -0.45593999997E+02  0.45594000000E+02  0.51100000000E-03 0.  1.
    9900012    2    1    2    0    0 -0.14792209489E+02  0.60970429741E+00  0.11467661874E+02  0.72461321977E+02  0.69999676520E+02 0.  0.
        -12    1    1    2    0    0  0.14792209489E+02 -0.60970429741E+00 -0.11467661874E+02  0.18726678023E+02  0.00000000000E+00 0.  1.
         11    1    3    3    0    0 -0.17663466149E+01  0.71399443200E+01 -0.54796110319E+00  0.73755709534E+01  0.51100000000E-03 0. -1.
        -11    1    3    3    0    0 -0.30674345189E+02  0.97839042962E+01 -0.87051400902E+01  0.33352956395E+02  0.51100000000E-03 0.  1.
         12    1    3    3    0    0  0.17648482314E+02 -0.16314144319E+02  0.20720763068E+02  0.31732794629E+02  0.00000000000E+00 0. -1.
</event>
<event>
 7    1  0.2489154E-013  0.7246158E+02  0.7816164E-02  0.1226708E+00
        -11   -1    0    0    0    0  0.00000000000E+00  0.00000000000E+00  0.45593999997E+02  0.45594000000E+02  0.51100000000E-03 0.  1.
         11   -1    0    0    0    0 -0.00000000000E+00 -0.00000000000E+00 -0.45593999997E+02  0.45594000000E+02  0.51100000000E-03 0. -1.
    9900012    2    1    2    0    0 -0.16352028921E+02  0.78573501889E+01 -0.46424318663E+01  0.72461575476E+02  0.70000006750E+02 0.  0.
        -12    1    1    2    0    0  0.16352028921E+02 -0.78573501889E+01  0.46424318663E+01  0.18726424524E+02  0.00000000000E+00 0.  1.
         11    1    3    3    0    0 -0.23242473765E+02  0.19378559117E+02 -0.12409100460E+02  0.32706679970E+02  0.51100000000E-03 0. -1.
        -11    1    3    3    0    0 -0.13335248543E+02 -0.36392374842E+01  0.11183453392E+02  0.17780397442E+02  0.51100000000E-03 0.  1.
        -12    1    3    3    0    0  0.20225693386E+02 -0.78819714438E+01 -0.34167847983E+01  0.21974498064E+02  0.00000000000E+00 0.  1.
</event>
<event>
 7    1  0.2489154E-013  0.7246156E+02  0.7816164E-02  0.1226708E+00
        -11   -1    0    0    0    0  0.00000000000E+00  0.00000000000E+00  0.45593999997E+02  0.45594000000E+02  0.51100000000E-03 0. -1.
         11   -1    0    0    0    0 -0.00000000000E+00 -0.00000000000E+00 -0.45593999997E+02  0.45594000000E+02  0.51100000000E-03 0.  1.
    9900012    2    1    2    0    0 -0.16175593279E+00 -0.17759410922E+02  0.59377385788E+01  0.72461559316E+02  0.69999985698E+02 0.  0.
        -12    1    1    2    0    0  0.16175593279E+00  0.17759410922E+02 -0.59377385788E+01  0.18726440684E+02  0.00000000000E+00 0.  1.
         11    1    3    3    0    0  0.73246510807E+01  0.53575244100E+01  0.17946346814E+02  0.20110319378E+02  0.51100000000E-03 0. -1.
        -11    1    3    3    0    0 -0.10081937670E+01  0.13630396742E+01  0.15134998230E+02  0.15229658679E+02  0.51100000000E-03 0.  1.
        -12    1    3    3    0    0 -0.64782132465E+01 -0.24479975006E+02 -0.27143606465E+02  0.37121581258E+02  0.00000000000E+00 0.  1.
</event>
<event>
 7    1  0.2489154E-013  0.7246106E+02  0.7816164E-02  0.1226709E+00
        -11   -1    0    0    0    0  0.00000000000E+00  0.00000000000E+00  0.45593999997E+02  0.45594000000E+02  0.51100000000E-03 0. -1.
         11   -1    0    0    0    0 -0.00000000000E+00 -0.00000000000E+00 -0.45593999997E+02  0.45594000000E+02  0.51100000000E-03 0.  1.
    9900012    2    1    2    0    0 -0.72568938462E+01 -0.88147708660E+01  0.14843708786E+02  0.72461057264E+02  0.69999331679E+02 0.  0.
        -12    1    1    2    0    0  0.72568938462E+01  0.88147708660E+01 -0.14843708786E+02  0.18726942736E+02  0.00000000000E+00 0.  1.
         11    1    3    3    0    0 -0.26101192976E+01 -0.10135927373E+02 -0.15773218450E+02  0.18929980639E+02  0.51100000000E-03 0.  1.
        -11    1    3    3    0    0 -0.15724541158E+02 -0.13174522641E+02  0.28570846302E+02  0.35172752240E+02  0.51100000000E-03 0. -1.
         12    1    3    3    0    0  0.11077766609E+02  0.14495679148E+02  0.20460809345E+01  0.18358324385E+02  0.00000000000E+00 0. -1.
</event>
<event>
 7    1  0.2489154E-013  0.7246108E+02  0.7816164E-02  0.1226709E+00
        -11   -1    0    0    0    0  0.00000000000E+00  0.00000000000E+00  0.45593999997E+02  0.45594000000E+02  0.51100000000E-03 0.  1.
         11   -1    0    0    0    0 -0.00000000000E+00 -0.00000000000E+00 -0.45593999997E+02  0.45594000000E+02  0.51100000000E-03 0. -1.
    9900012    2    1    2    0    0  0.24018809914E+01 -0.86468003117E+01 -0.16436585482E+02  0.72461080066E+02  0.69999361383E+02 0.  0.
        -12    1    1    2    0    0 -0.24018809914E+01  0.86468003117E+01  0.16436585482E+02  0.18726919934E+02  0.00000000000E+00 0.  1.
         11    1    3    3    0    0  0.43700779304E+01 -0.36138854146E+01  0.79319467016E+01  0.97505655040E+01  0.51100000000E-03 0. -1.
        -11    1    3    3    0    0  0.77919983954E-03  0.23189550123E+02  0.29574813398E+01  0.23377380770E+02  0.51100000000E-03 0.  1.
         12    1    3    3    0    0 -0.19689761389E+01 -0.28222465020E+02 -0.27326013523E+02  0.39333133792E+02  0.00000000000E+00 0. -1.
</event>
<event>
 7    1  0.2489154E-013  0.7246157E+02  0.7816164E-02  0.1226708E+00
        -11   -1    0    0    0    0  0.00000000000E+00  0.00000000000E+00  0.45593999997E+02  0.45594000000E+02  0.51100000000E-03 0.  1.
         11   -1    0    0    0    0 -0.00000000000E+00 -0.00000000000E+00 -0.45593999997E+02  0.45594000000E+02  0.51100000000E-03 0. -1.
    9900012    2    1    2    0    0  0.12966397904E+02 -0.12176543012E+02 -0.58552013827E+01  0.72461573284E+02  0.70000003894E+02 0.  0.
        -12    1    1    2    0    0 -0.12966397904E+02  0.12176543012E+02  0.58552013827E+01  0.18726426716E+02  0.00000000000E+00 0.  1.
         11    1    3    3    0    0  0.10117545362E+01 -0.23544067481E+02 -0.16449063358E+02  0.28738796886E+02  0.51100000000E-03 0. -1.
        -11    1    3    3    0    0 -0.10452950600E+02  0.20498282545E+01  0.15652748048E+02  0.18933422666E+02  0.51100000000E-03 0.  1.
        -12    1    3    3    0    0  0.22407593968E+02  0.93176962146E+01 -0.50588860723E+01  0.24789353732E+02  0.00000000000E+00 0.  1.
</event>
<event>
 7    1  0.2489154E-013  0.7246160E+02  0.7816164E-02  0.1226708E+00
        -11   -1    0    0    0    0  0.00000000000E+00  0.00000000000E+00  0.45593999997E+02  0.45594000000E+02  0.51100000000E-03 0. -1.
         11   -1    0    0    0    0 -0.00000000000E+00 -0.00000000000E+00 -0.45593999997E+02  0.45594000000E+02  0.51100000000E-03 0.  1.
    9900012    2    1    2    0    0 -0.15028522605E+02  0.50241835832E+01  0.99789371025E+01  0.72461598903E+02  0.70000037268E+02 0.  0.
        -12    1    1    2    0    0  0.15028522605E+02 -0.50241835832E+01 -0.99789371025E+01  0.18726401097E+02  0.00000000000E+00 0.  1.
         11    1    3    3    0    0 -0.17454780411E+02  0.84305493506E+01 -0.18983113539E+02  0.27131201990E+02  0.51100000000E-03 0. -1.
        -11    1    3    3    0    0  0.24898487075E+01  0.11813161874E+02 -0.59247485557E+00  0.12087231559E+02  0.51100000000E-03 0.  1.
        -12    1    3    3    0    0 -0.63590900702E-01 -0.15219527641E+02  0.29554525497E+02  0.33243165354E+02  0.00000000000E+00 0.  1.
</event>
<event>
 7    1  0.2489154E-013  0.7246157E+02  0.7816164E-02  0.1226708E+00
        -11   -1    0    0    0    0  0.00000000000E+00  0.00000000000E+00  0.45593999997E+02  0.45594000000E+02  0.51100000000E-03 0.  1.
         11   -1    0    0    0    0 -0.00000000000E+00 -0.00000000000E+00 -0.45593999997E+02  0.45594000000E+02  0.51100000000E-03 0. -1.
    9900012    2    1    2    0    0 -0.12093086102E+02  0.97531918010E+01 -0.10455224466E+02  0.72461569470E+02  0.69999998926E+02 0.  0.
        -12    1    1    2    0    0  0.12093086102E+02 -0.97531918010E+01  0.10455224466E+02  0.18726430530E+02  0.00000000000E+00 0.  1.
         11    1    3    3    0    0 -0.18852279598E+02 -0.69778716946E+00  0.41925489517E+01  0.19325444884E+02  0.51100000000E-03 0. -1.
        -11    1    3    3    0    0 -0.24233557960E+01  0.21731570649E+02  0.10367362401E+02  0.24199504532E+02  0.51100000000E-03 0.  1.
         12    1    3    3    0    0  0.91825492927E+01 -0.11280591679E+02 -0.25015135818E+02  0.28936620054E+02  0.00000000000E+00 0. -1.
</event>
<event>
 7    1  0.2489154E-013  0.7246154E+02  0.7816164E-02  0.1226708E+00
        -11   -1    0    0    0    0  0.00000000000E+00  0.00000000000E+00  0.45593999997E+02  0.45594000000E+02  0.51100000000E-03 0. -1.
         11   -1    0    0    0    0 -0.00000000000E+00 -0.00000000000E+00 -0.45593999997E+02  0.45594000000E+02  0.51100000000E-03 0.  1.
    9900012    2    1    2    0    0 -0.14274940069E+02  0.14228682682E+00  0.12119658410E+02  0.72461540658E+02  0.69999961393E+02 0.  0.
        -12    1    1    2    0    0  0.14274940069E+02 -0.14228682682E+00 -0.12119658410E+02  0.18726459342E+02  0.00000000000E+00 0.  1.
         11    1    3    3    0    0  0.20487761419E+02 -0.35526861900E+01  0.12774692255E+02  0.24404153532E+02  0.51100000000E-03 0. -1.
        -11    1    3    3    0    0 -0.19916864820E+01 -0.11603364955E+02  0.12627810932E+01  0.11840587387E+02  0.51100000000E-03 0.  1.
        -12    1    3    3    0    0 -0.32771015006E+02  0.15298337971E+02 -0.19178149381E+01  0.36216799739E+02  0.00000000000E+00 0.  1.
</event>
<event>
 7    1  0.2489154E-013  0.7246154E+02  0.7816164E-02  0.1226708E+00
        -11   -1    0    0    0    0  0.00000000000E+00  0.00000000000E+00  0.45593999997E+02  0.45594000000E+02  0.51100000000E-03 0.  1.
         11   -1    0    0    0    0 -0.00000000000E+00 -0.00000000000E+00 -0.45593999997E+02  0.45594000000E+02  0.51100000000E-03 0. -1.
    9900012    2    1    2    0    0 -0.12765373083E+02  0.19320734940E+01 -0.13564386336E+02  0.72461541857E+02  0.69999962955E+02 0.  0.
        -12    1    1    2    0    0  0.12765373083E+02 -0.19320734940E+01  0.13564386336E+02  0.18726458143E+02  0.00000000000E+00 0.  1.
         11    1    3    3    0    0  0.16761562090E+02  0.64312523336E+01 -0.10393592351E+02  0.20744583208E+02  0.51100000000E-03 0. -1.
        -11    1    3    3    0    0 -0.38404609916E+01  0.49053194358E+01 -0.19081134549E+02  0.20072393862E+02  0.51100000000E-03 0.  1.
        -12    1    3    3    0    0 -0.25686474181E+02 -0.94044982755E+01  0.15910340564E+02  0.31644564787E+02  0.00000000000E+00 0.  1.
</event>
<event>
 7    1  0.2489154E-013  0.7246145E+02  0.7816164E-02  0.1226708E+00
        -11   -1    0    0    0    0  0.00000000000E+00  0.00000000000E+00  0.45593999997E+02  0.45594000000E+02  0.51100000000E-03 0.  1.
         11   -1    0    0    0    0 -0.00000000000E+00 -0.00000000000E+00 -0.45593999997E+02  0.45594000000E+02  0.51100000000E-03 0. -1.
    9900012    2    1    2    0    0  0.11616308935E+02 -0.14076034635E+02 -0.41964644648E+01  0.72461449374E+02  0.69999842479E+02 0.  0.
        -12    1    1    2    0    0 -0.11616308935E+02  0.14076034635E+02  0.41964644648E+01  0.18726550626E+02  0.00000000000E+00 0.  1.
         11    1    3    3    0    0 -0.94202554098E+01  0.18655535938E+01  0.81444072454E+01  0.12591777946E+02  0.51100000000E-03 0. -1.
        -11    1    3    3    0    0  0.24184341852E+02  0.13679704981E+02 -0.11496331249E+02  0.30069625066E+02  0.51100000000E-03 0.  1.
         12    1    3    3    0    0 -0.31477775067E+01 -0.29621293210E+02 -0.84454046156E+00  0.29800046363E+02  0.00000000000E+00 0. -1.
</event>
<event>
 7    1  0.2489154E-013  0.7246157E+02  0.7816164E-02  0.1226708E+00
        -11   -1    0    0    0    0  0.00000000000E+00  0.00000000000E+00  0.45593999997E+02  0.45594000000E+02  0.51100000000E-03 0.  1.
         11   -1    0    0    0    0 -0.00000000000E+00 -0.00000000000E+00 -0.45593999997E+02  0.45594000000E+02  0.51100000000E-03 0. -1.
    9900012    2    1    2    0    0 -0.12606685594E+02  0.13218498899E+02 -0.41257606961E+01  0.72461571185E+02  0.70000001161E+02 0.  0.
        -12    1    1    2    0    0  0.12606685594E+02 -0.13218498899E+02  0.41257606961E+01  0.18726428815E+02  0.00000000000E+00 0.  1.
         11    1    3    3    0    0 -0.30580102042E+02 -0.77053646876E+01 -0.10120230730E+02  0.33119999338E+02  0.51100000000E-03 0. -1.
        -11    1    3    3    0    0  0.32174752961E+01  0.54363154299E+01 -0.10551322121E+02  0.12297807589E+02  0.51100000000E-03 0.  1.
        -12    1    3    3    0    0  0.14755941151E+02  0.15487548157E+02  0.16545792156E+02  0.27043764258E+02  0.00000000000E+00 0.  1.
</event>
<event>
 7    1  0.2489154E-013  0.7246158E+02  0.7816164E-02  0.1226708E+00
        -11   -1    0    0    0    0  0.00000000000E+00  0.00000000000E+00  0.45593999997E+02  0.45594000000E+02  0.51100000000E-03 0. -1.
         11   -1    0    0    0    0 -0.00000000000E+00 -0.00000000000E+00 -0.45593999997E+02  0.45594000000E+02  0.51100000000E-03 0.  1.
    9900012    2    1    2    0    0 -0.65930860156E+01  0.20877474629E+01  0.17402623225E+02  0.72461581020E+02  0.70000013973E+02 0.  0.
        -12    1    1    2    0    0  0.65930860156E+01 -0.20877474629E+01 -0.17402623225E+02  0.18726418980E+02  0.00000000000E+00 0.  1.
         11    1    3    3    0    0 -0.28984676049E+02 -0.27496369071E+01  0.27704917536E+02  0.40189978909E+02  0.51100000000E-03 0. -1.
        -11    1    3    3    0    0 -0.27447045718E+01 -0.11019805086E+00  0.24264059836E+01  0.36651047810E+01  0.51100000000E-03 0.  1.
        -12    1    3    3    0    0  0.25136294606E+02  0.49475824209E+01 -0.12728700294E+02  0.28606497330E+02  0.00000000000E+00 0.  1.
</event>
<event>
 7    1  0.2489154E-013  0.7246153E+02  0.7816164E-02  0.1226708E+00
        -11   -1    0    0    0    0  0.00000000000E+00  0.00000000000E+00  0.45593999997E+02  0.45594000000E+02  0.51100000000E-03 0. -1.
         11   -1    0    0    0    0 -0.00000000000E+00 -0.00000000000E+00 -0.45593999997E+02  0.45594000000E+02  0.51100000000E-03 0.  1.
    9900012    2    1    2    0    0 -0.98070749202E+01 -0.67951936331E+01  0.14433541819E+02  0.72461534651E+02  0.69999953568E+02 0.  0.
        -12    1    1    2    0    0  0.98070749202E+01  0.67951936331E+01 -0.14433541819E+02  0.18726465349E+02  0.00000000000E+00 0.  1.
         11    1    3    3    0    0  0.94012678634E+00  0.58724587507E+01  0.18800838211E+01  0.62373332113E+01  0.51100000000E-03 0. -1.
        -11    1    3    3    0    0  0.20585754100E+02 -0.34486952114E+01  0.23823192945E+02  0.31673510902E+02  0.51100000000E-03 0.  1.
         12    1    3    3    0    0 -0.31332955806E+02 -0.92189571724E+01 -0.11269734946E+02  0.34550690538E+02  0.00000000000E+00 0. -1.
</event>
<event>
 7    1  0.2489154E-013  0.7246154E+02  0.7816164E-02  0.1226708E+00
        -11   -1    0    0    0    0  0.00000000000E+00  0.00000000000E+00  0.45593999997E+02  0.45594000000E+02  0.51100000000E-03 0.  1.
         11   -1    0    0    0    0 -0.00000000000E+00 -0.00000000000E+00 -0.45593999997E+02  0.45594000000E+02  0.51100000000E-03 0. -1.
    9900012    2    1    2    0    0  0.74362148219E+01  0.16715000389E+02 -0.39989633640E+01  0.72461541796E+02  0.69999962876E+02 0.  0.
        -12    1    1    2    0    0 -0.74362148219E+01 -0.16715000389E+02  0.39989633640E+01  0.18726458204E+02  0.00000000000E+00 0.  1.
         11    1    3    3    0    0 -0.38744931183E+00 -0.54299773997E+00  0.68433419186E+00  0.95565530507E+00  0.51100000000E-03 0. -1.
        -11    1    3    3    0    0  0.31155264392E+02 -0.12231531513E+02  0.94633234619E+00  0.33483673748E+02  0.51100000000E-03 0.  1.
         12    1    3    3    0    0 -0.23331600258E+02  0.29489529642E+02 -0.56296299021E+01  0.38022212744E+02  0.00000000000E+00 0. -1.
</event>
<event>
 7    1  0.2489154E-013  0.7246154E+02  0.7816164E-02  0.1226708E+00
        -11   -1    0    0    0    0  0.00000000000E+00  0.00000000000E+00  0.45593999997E+02  0.45594000000E+02  0.51100000000E-03 0. -1.
         11   -1    0    0    0    0 -0.00000000000E+00 -0.00000000000E+00 -0.45593999997E+02  0.45594000000E+02  0.51100000000E-03 0.  1.
    9900012    2    1    2    0    0 -0.16296503446E+02  0.55224559591E+01 -0.73896417693E+01  0.72461538779E+02  0.69999958945E+02 0.  0.
        -12    1    1    2    0    0  0.16296503446E+02 -0.55224559591E+01  0.73896417693E+01  0.18726461221E+02  0.00000000000E+00 0.  1.
         11    1    3    3    0    0 -0.95435993783E+00  0.27309611752E+02  0.52752361179E+01  0.27830806911E+02  0.51100000000E-03 0. -1.
        -11    1    3    3    0    0  0.44715668134E+01 -0.42193652635E+01  0.86675390751E+01  0.10626579265E+02  0.51100000000E-03 0.  1.
        -12    1    3    3    0    0 -0.19813710321E+02 -0.17567790530E+02 -0.21332416962E+02  0.34004152603E+02  0.00000000000E+00 0.  1.
</event>
<event>
 7    1  0.2489154E-013  0.7246166E+02  0.7816164E-02  0.1226708E+00
        -11   -1    0    0    0    0  0.00000000000E+00  0.00000000000E+00  0.45593999997E+02  0.45594000000E+02  0.51100000000E-03 0. -1.
         11   -1    0    0    0    0 -0.00000000000E+00 -0.00000000000E+00 -0.45593999997E+02  0.45594000000E+02  0.51100000000E-03 0.  1.
    9900012    2    1    2    0    0  0.17925041366E-01  0.21946379973E+01  0.18597290094E+02  0.72461656094E+02  0.70000111770E+02 0.  0.
        -12    1    1    2    0    0 -0.17925041366E-01 -0.21946379973E+01 -0.18597290094E+02  0.18726343906E+02  0.00000000000E+00 0.  1.
         11    1    3    3    0    0  0.18521882532E+02  0.48236168469E+01  0.81352517323E+01  0.20796868347E+02  0.51100000000E-03 0. -1.
        -11    1    3    3    0    0 -0.77541902514E+01  0.22078946648E+02  0.23165212627E+01  0.23515391184E+02  0.51100000000E-03 0.  1.
         12    1    3    3    0    0 -0.10749767239E+02 -0.24707925497E+02  0.81455170985E+01  0.28149396563E+02  0.00000000000E+00 0. -1.
</event>
<event>
 7    1  0.2489154E-013  0.7246153E+02  0.7816164E-02  0.1226708E+00
        -11   -1    0    0    0    0  0.00000000000E+00  0.00000000000E+00  0.45593999997E+02  0.45594000000E+02  0.51100000000E-03 0.  1.
         11   -1    0    0    0    0 -0.00000000000E+00 -0.00000000000E+00 -0.45593999997E+02  0.45594000000E+02  0.51100000000E-03 0. -1.
    9900012    2    1    2    0    0 -0.11025058033E+02 -0.52468671648E+01  0.14198556871E+02  0.72461533785E+02  0.69999952439E+02 0.  0.
        -12    1    1    2    0    0  0.11025058033E+02  0.52468671648E+01 -0.14198556871E+02  0.18726466215E+02  0.00000000000E+00 0.  1.
         11    1    3    3    0    0 -0.47745103251E+01 -0.13721750870E+02  0.73011259906E+00  0.14547008643E+02  0.51100000000E-03 0. -1.
        -11    1    3    3    0    0 -0.24065154046E+02 -0.12770695839E+02  0.12995263737E+02  0.30184419679E+02  0.51100000000E-03 0.  1.
         12    1    3    3    0    0  0.17814606338E+02  0.21245579545E+02  0.47318053514E+00  0.27730105463E+02  0.00000000000E+00 0. -1.
</event>
<event>
 7    1  0.2489154E-013  0.7246160E+02  0.7816164E-02  0.1226708E+00
        -11   -1    0    0    0    0  0.00000000000E+00  0.00000000000E+00  0.45593999997E+02  0.45594000000E+02  0.51100000000E-03 0.  1.
         11   -1    0    0    0    0 -0.00000000000E+00 -0.00000000000E+00 -0.45593999997E+02  0.45594000000E+02  0.51100000000E-03 0. -1.
    9900012    2    1    2    0    0  0.13916834545E+02  0.99923960004E+01  0.75598753525E+01  0.72461602137E+02  0.70000041481E+02 0.  0.
        -12    1    1    2    0    0 -0.13916834545E+02 -0.99923960004E+01 -0.75598753525E+01  0.18726397863E+02  0.00000000000E+00 0.  1.
         11    1    3    3    0    0 -0.14569745123E+02  0.93106295476E+01  0.75804133523E+00  0.17307221685E+02  0.51100000000E-03 0. -1.
        -11    1    3    3    0    0 -0.27478152044E+01 -0.54571543148E+01  0.19837175077E+02  0.20756794958E+02  0.51100000000E-03 0.  1.
         12    1    3    3    0    0  0.31234394873E+02  0.61389207676E+01 -0.13035341060E+02  0.34397585494E+02  0.00000000000E+00 0. -1.
</event>
<event>
 7    1  0.2489154E-013  0.7246159E+02  0.7816164E-02  0.1226708E+00
        -11   -1    0    0    0    0  0.00000000000E+00  0.00000000000E+00  0.45593999997E+02  0.45594000000E+02  0.51100000000E-03 0.  1.
         11   -1    0    0    0    0 -0.00000000000E+00 -0.00000000000E+00 -0.45593999997E+02  0.45594000000E+02  0.51100000000E-03 0. -1.
    9900012    2    1    2    0    0  0.10040258777E+02  0.15797982594E+02 -0.54346371472E+00  0.72461590757E+02  0.70000026656E+02 0.  0.
        -12    1    1    2    0    0 -0.10040258777E+02 -0.15797982594E+02  0.54346371472E+00  0.18726409243E+02  0.00000000000E+00 0.  1.
         11    1    3    3    0    0  0.21062022282E+01  0.25031433097E+01 -0.48723025520E+01  0.58686579960E+01  0.51100000000E-03 0. -1.
        -11    1    3    3    0    0 -0.24978343339E+02  0.62005355498E+01 -0.12882308401E+02  0.28780516796E+02  0.51100000000E-03 0.  1.
         12    1    3    3    0    0  0.32912399887E+02  0.70943037344E+01  0.17211147238E+02  0.37812415964E+02  0.00000000000E+00 0. -1.
</event>
<event>
 7    1  0.2489154E-013  0.7246134E+02  0.7816164E-02  0.1226709E+00
        -11   -1    0    0    0    0  0.00000000000E+00  0.00000000000E+00  0.45593999997E+02  0.45594000000E+02  0.51100000000E-03 0. -1.
         11   -1    0    0    0    0 -0.00000000000E+00 -0.00000000000E+00 -0.45593999997E+02  0.45594000000E+02  0.51100000000E-03 0.  1.
    9900012    2    1    2    0    0  0.71761250263E+01 -0.25788369484E+00  0.17295221988E+02  0.72461335108E+02  0.69999693625E+02 0.  0.
        -12    1    1    2    0    0 -0.71761250263E+01  0.25788369484E+00 -0.17295221988E+02  0.18726664892E+02  0.00000000000E+00 0.  1.
         11    1    3    3    0    0  0.12226288695E+02  0.18472277317E+02  0.81926640238E+01  0.23618359566E+02  0.51100000000E-03 0. -1.
        -11    1    3    3    0    0 -0.43425226419E+01  0.11376084275E+02  0.13755798149E+02  0.18371030981E+02  0.51100000000E-03 0.  1.
        -12    1    3    3    0    0 -0.70764102726E+00 -0.30106245286E+02 -0.46532401854E+01  0.30471944560E+02  0.00000000000E+00 0.  1.
</event>
<event>
 7    1  0.2489154E-013  0.7246155E+02  0.7816164E-02  0.1226708E+00
        -11   -1    0    0    0    0  0.00000000000E+00  0.00000000000E+00  0.45593999997E+02  0.45594000000E+02  0.51100000000E-03 0. -1.
         11   -1    0    0    0    0 -0.00000000000E+00 -0.00000000000E+00 -0.45593999997E+02  0.45594000000E+02  0.51100000000E-03 0.  1.
    9900012    2    1    2    0    0 -0.14129661711E+02  0.11194495771E+02  0.50710861120E+01  0.72461548388E+02  0.69999971463E+02 0.  0.
        -12    1    1    2    0    0  0.14129661711E+02 -0.11194495771E+02 -0.50710861120E+01  0.18726451612E+02  0.00000000000E+00 0.  1.
         11    1    3    3    0    0 -0.24094468161E+02  0.25260708946E+02  0.68229740212E+01  0.35569646993E+02  0.51100000000E-03 0. -1.
        -11    1    3    3    0    0 -0.91049335541E+01  0.45611530396E+01 -0.11869514691E+00  0.10184204479E+02  0.51100000000E-03 0.  1.
        -12    1    3    3    0    0  0.19069740005E+02 -0.18627366215E+02 -0.16331927623E+01  0.26707696916E+02  0.00000000000E+00 0.  1.
</event>
<event>
 7    1  0.2489154E-013  0.7246153E+02  0.7816164E-02  0.1226708E+00
        -11   -1    0    0    0    0  0.00000000000E+00  0.00000000000E+00  0.45593999997E+02  0.45594000000E+02  0.51100000000E-03 0. -1.
         11   -1    0    0    0    0 -0.00000000000E+00 -0.00000000000E+00 -0.45593999997E+02  0.45594000000E+02  0.51100000000E-03 0.  1.
    9900012    2    1    2    0    0  0.70756983624E+01  0.16464811257E+02  0.54337049461E+01  0.72461530325E+02  0.69999947932E+02 0.  0.
        -12    1    1    2    0    0 -0.70756983624E+01 -0.16464811257E+02 -0.54337049461E+01  0.18726469675E+02  0.00000000000E+00 0.  1.
         11    1    3    3    0    0 -0.27126555617E+02  0.15273677706E+01  0.10133029690E+02  0.28997606158E+02  0.51100000000E-03 0. -1.
        -11    1    3    3    0    0  0.15597374184E+01 -0.80265208741E+00 -0.69372809918E+01  0.71556200995E+01  0.51100000000E-03 0.  1.
        -12    1    3    3    0    0  0.32642516561E+02  0.15740095574E+02  0.22379562483E+01  0.36308304068E+02  0.00000000000E+00 0.  1.
</event>
<event>
 7    1  0.2489154E-013  0.7246156E+02  0.7816164E-02  0.1226708E+00
        -11   -1    0    0    0    0  0.00000000000E+00  0.00000000000E+00  0.45593999997E+02  0.45594000000E+02  0.51100000000E-03 0.  1.
         11   -1    0    0    0    0 -0.00000000000E+00 -0.00000000000E+00 -0.45593999997E+02  0.45594000000E+02  0.51100000000E-03 0. -1.
    9900012    2    1    2    0    0  0.75267525677E+01 -0.53490499876E+01 -0.16291574411E+02  0.72461555148E+02  0.69999980270E+02 0.  0.
        -12    1    1    2    0    0 -0.75267525677E+01  0.53490499876E+01  0.16291574411E+02  0.18726444852E+02  0.00000000000E+00 0.  1.
         11    1    3    3    0    0  0.14657780863E+02  0.74998489710E+01 -0.17841776913E+02  0.24278123446E+02  0.51100000000E-03 0. -1.
        -11    1    3    3    0    0  0.16660641306E+02 -0.13041115691E+02  0.93688869094E+01  0.23139224476E+02  0.51100000000E-03 0.  1.
         12    1    3    3    0    0 -0.23791669601E+02  0.19221673244E+00 -0.78186844080E+01  0.25044207226E+02  0.00000000000E+00 0. -1.
</event>
<event>
 7    1  0.2489154E-013  0.7246155E+02  0.7816164E-02  0.1226708E+00
        -11   -1    0    0    0    0  0.00000000000E+00  0.00000000000E+00  0.45593999997E+02  0.45594000000E+02  0.51100000000E-03 0. -1.
         11   -1    0    0    0    0 -0.00000000000E+00 -0.00000000000E+00 -0.45593999997E+02  0.45594000000E+02  0.51100000000E-03 0.  1.
    9900012    2    1    2    0    0  0.16457886111E+02  0.69720332100E+01  0.55864687032E+01  0.72461550927E+02  0.69999974770E+02 0.  0.
        -12    1    1    2    0    0 -0.16457886111E+02 -0.69720332100E+01 -0.55864687032E+01  0.18726449073E+02  0.00000000000E+00 0.  1.
         11    1    3    3    0    0  0.89853014530E+00 -0.49084698243E+01 -0.37546316356E+00  0.50041388157E+01  0.51100000000E-03 0. -1.
        -11    1    3    3    0    0  0.58030846244E+01 -0.26729594648E+02  0.16716361933E+01  0.27403309818E+02  0.51100000000E-03 0.  1.
         12    1    3    3    0    0  0.97562713413E+01  0.38610097682E+02  0.42902956735E+01  0.40054102292E+02  0.00000000000E+00 0. -1.
</event>
<event>
 7    1  0.2489154E-013  0.7246163E+02  0.7816164E-02  0.1226708E+00
        -11   -1    0    0    0    0  0.00000000000E+00  0.00000000000E+00  0.45593999997E+02  0.45594000000E+02  0.51100000000E-03 0.  1.
         11   -1    0    0    0    0 -0.00000000000E+00 -0.00000000000E+00 -0.45593999997E+02  0.45594000000E+02  0.51100000000E-03 0. -1.
    9900012    2    1    2    0    0 -0.47422962620E+01  0.18082380385E+02  0.11022497766E+01  0.72461633326E+02  0.70000082111E+02 0.  0.
        -12    1    1    2    0    0  0.47422962620E+01 -0.18082380385E+02 -0.11022497766E+01  0.18726366674E+02  0.00000000000E+00 0.  1.
         11    1    3    3    0    0 -0.13493537038E+01 -0.35736611850E+01 -0.72037476379E+01  0.81538818961E+01  0.51100000000E-03 0. -1.
        -11    1    3    3    0    0 -0.24469989523E+02 -0.94189273529E+01  0.35217136338E+01  0.26455605208E+02  0.51100000000E-03 0.  1.
         12    1    3    3    0    0  0.21077046965E+02  0.31074968923E+02  0.47842837807E+01  0.37852146222E+02  0.00000000000E+00 0. -1.
</event>
<event>
 7    1  0.2489154E-013  0.7246159E+02  0.7816164E-02  0.1226708E+00
        -11   -1    0    0    0    0  0.00000000000E+00  0.00000000000E+00  0.45593999997E+02  0.45594000000E+02  0.51100000000E-03 0. -1.
         11   -1    0    0    0    0 -0.00000000000E+00 -0.00000000000E+00 -0.45593999997E+02  0.45594000000E+02  0.51100000000E-03 0.  1.
    9900012    2    1    2    0    0 -0.73055970777E+01 -0.13167733214E+02  0.11131827191E+02  0.72461587549E+02  0.70000022478E+02 0.  0.
        -12    1    1    2    0    0  0.73055970777E+01  0.13167733214E+02 -0.11131827191E+02  0.18726412451E+02  0.00000000000E+00 0.  1.
         11    1    3    3    0    0  0.88531270211E+01 -0.18431684378E+01  0.21622241842E+01  0.92978675849E+01  0.51100000000E-03 0. -1.
        -11    1    3    3    0    0  0.38125803619E+01 -0.25254376981E+02 -0.14479225026E+02  0.29359279339E+02  0.51100000000E-03 0.  1.
         12    1    3    3    0    0 -0.19971304461E+02  0.13929812204E+02  0.23448828032E+02  0.33804440625E+02  0.00000000000E+00 0. -1.
</event>
<event>
 7    1  0.2489154E-013  0.7246162E+02  0.7816164E-02  0.1226708E+00
        -11   -1    0    0    0    0  0.00000000000E+00  0.00000000000E+00  0.45593999997E+02  0.45594000000E+02  0.51100000000E-03 0. -1.
         11   -1    0    0    0    0 -0.00000000000E+00 -0.00000000000E+00 -0.45593999997E+02  0.45594000000E+02  0.51100000000E-03 0.  1.
    9900012    2    1    2    0    0 -0.18520351061E+02  0.71790959318E+00 -0.26755716218E+01  0.72461615375E+02  0.70000058726E+02 0.  0.
        -12    1    1    2    0    0  0.18520351061E+02 -0.71790959318E+00  0.26755716218E+01  0.18726384625E+02  0.00000000000E+00 0.  1.
         11    1    3    3    0    0  0.74382413263E+01  0.10144196261E+02  0.43531983913E+00  0.12586566467E+02  0.51100000000E-03 0. -1.
        -11    1    3    3    0    0 -0.21386489432E+02 -0.27933393426E+02 -0.14065843750E+02  0.37888050348E+02  0.51100000000E-03 0.  1.
         12    1    3    3    0    0 -0.45721029561E+01  0.18507106758E+02  0.10954952289E+02  0.21986998559E+02  0.00000000000E+00 0. -1.
</event>
<event>
 7    1  0.2489154E-013  0.7246148E+02  0.7816164E-02  0.1226708E+00
        -11   -1    0    0    0    0  0.00000000000E+00  0.00000000000E+00  0.45593999997E+02  0.45594000000E+02  0.51100000000E-03 0.  1.
         11   -1    0    0    0    0 -0.00000000000E+00 -0.00000000000E+00 -0.45593999997E+02  0.45594000000E+02  0.51100000000E-03 0. -1.
    9900012    2    1    2    0    0  0.42701996809E+01 -0.18165457322E+02  0.15697040718E+01  0.72461483615E+02  0.69999887084E+02 0.  0.
        -12    1    1    2    0    0 -0.42701996809E+01  0.18165457322E+02 -0.15697040718E+01  0.18726516385E+02  0.00000000000E+00 0.  1.
         11    1    3    3    0    0 -0.15292209954E+02 -0.19198730045E+02 -0.12393740790E+02  0.27496322148E+02  0.51100000000E-03 0. -1.
        -11    1    3    3    0    0  0.17373523060E+01  0.14793495110E+02 -0.48048007767E+01  0.15650942507E+02  0.51100000000E-03 0.  1.
        -12    1    3    3    0    0  0.17825057329E+02 -0.13760222387E+02  0.18768245638E+02  0.29314218960E+02  0.00000000000E+00 0.  1.
</event>
<event>
 7    1  0.2489154E-013  0.7246166E+02  0.7816164E-02  0.1226708E+00
        -11   -1    0    0    0    0  0.00000000000E+00  0.00000000000E+00  0.45593999997E+02  0.45594000000E+02  0.51100000000E-03 0.  1.
         11   -1    0    0    0    0 -0.00000000000E+00 -0.00000000000E+00 -0.45593999997E+02  0.45594000000E+02  0.51100000000E-03 0. -1.
    9900012    2    1    2    0    0  0.20210953914E+01  0.16429993379E+02 -0.87547927459E+01  0.72461657457E+02  0.70000113545E+02 0.  0.
        -12    1    1    2    0    0 -0.20210953914E+01 -0.16429993379E+02  0.87547927459E+01  0.18726342543E+02  0.00000000000E+00 0.  1.
         11    1    3    3    0    0  0.87152024612E+01 -0.39613868438E+01 -0.90784773666E+01  0.13193410902E+02  0.51100000000E-03 0. -1.
        -11    1    3    3    0    0  0.32691234949E+00 -0.63297658680E+01  0.22792261709E+02  0.23657134266E+02  0.51100000000E-03 0.  1.
         12    1    3    3    0    0 -0.70210194193E+01  0.26721146091E+02 -0.22468577088E+02  0.35611112289E+02  0.00000000000E+00 0. -1.
</event>
<event>
 7    1  0.2489154E-013  0.7246154E+02  0.7816164E-02  0.1226708E+00
        -11   -1    0    0    0    0  0.00000000000E+00  0.00000000000E+00  0.45593999997E+02  0.45594000000E+02  0.51100000000E-03 0. -1.
         11   -1    0    0    0    0 -0.00000000000E+00 -0.00000000000E+00 -0.45593999997E+02  0.45594000000E+02  0.51100000000E-03 0.  1.
    9900012    2    1    2    0    0 -0.16980973816E+02 -0.60510519886E+01  0.50706647749E+01  0.72461538958E+02  0.69999959178E+02 0.  0.
        -12    1    1    2    0    0  0.16980973816E+02  0.60510519886E+01 -0.50706647749E+01  0.18726461042E+02  0.00000000000E+00 0.  1.
         11    1    3    3    0    0 -0.23324590783E+02  0.43789919140E-01  0.18803588395E+02  0.29960196755E+02  0.51100000000E-03 0. -1.
        -11    1    3    3    0    0 -0.13316782532E+02 -0.21611986621E+01  0.56385996989E+01  0.14621945270E+02  0.51100000000E-03 0.  1.
        -12    1    3    3    0    0  0.19660399499E+02 -0.39336432456E+01 -0.19371523319E+02  0.27879396933E+02  0.00000000000E+00 0.  1.
</event>
<event>
 7    1  0.2489154E-013  0.7246157E+02  0.7816164E-02  0.1226708E+00
        -11   -1    0    0    0    0  0.00000000000E+00  0.00000000000E+00  0.45593999997E+02  0.45594000000E+02  0.51100000000E-03 0.  1.
         11   -1    0    0    0    0 -0.00000000000E+00 -0.00000000000E+00 -0.45593999997E+02  0.45594000000E+02  0.51100000000E-03 0. -1.
    9900012    2    1    2    0    0  0.13550119221E+02  0.12172359481E+02 -0.43482383126E+01  0.72461568342E+02  0.69999997456E+02 0.  0.
        -12    1    1    2    0    0 -0.13550119221E+02 -0.12172359481E+02  0.43482383126E+01  0.18726431658E+02  0.00000000000E+00 0.  1.
         11    1    3    3    0    0 -0.12139960797E+02  0.23119454872E+02 -0.13773751799E+02  0.29522941598E+02  0.51100000000E-03 0. -1.
        -11    1    3    3    0    0  0.22092469929E+02  0.73107358313E+01  0.47310911281E+01  0.23746732607E+02  0.51100000000E-03 0.  1.
        -12    1    3    3    0    0  0.35976100884E+01 -0.18257831222E+02  0.46944223582E+01  0.19191894137E+02  0.00000000000E+00 0.  1.
</event>
<event>
 7    1  0.2489154E-013  0.7246149E+02  0.7816164E-02  0.1226708E+00
        -11   -1    0    0    0    0  0.00000000000E+00  0.00000000000E+00  0.45593999997E+02  0.45594000000E+02  0.51100000000E-03 0. -1.
         11   -1    0    0    0    0 -0.00000000000E+00 -0.00000000000E+00 -0.45593999997E+02  0.45594000000E+02  0.51100000000E-03 0.  1.
    9900012    2    1    2    0    0  0.14009237171E+02  0.11831116077E+02  0.38010653348E+01  0.72461491211E+02  0.69999896979E+02 0.  0.
        -12    1    1    2    0    0 -0.14009237171E+02 -0.11831116077E+02 -0.38010653348E+01  0.18726508789E+02  0.00000000000E+00 0.  1.
         11    1    3    3    0    0 -0.16329900717E+02  0.27346149648E+02 -0.78668896884E+01  0.32808009870E+02  0.51100000000E-03 0. -1.
        -11    1    3    3    0    0  0.35299749475E+01 -0.17333403802E+01 -0.40605440912E+01  0.56527170972E+01  0.51100000000E-03 0.  1.
        -12    1    3    3    0    0  0.26809162941E+02 -0.13781693191E+02  0.15728499114E+02  0.34000764244E+02  0.00000000000E+00 0.  1.
</event>
<event>
 7    1  0.2489154E-013  0.7246104E+02  0.7816164E-02  0.1226709E+00
        -11   -1    0    0    0    0  0.00000000000E+00  0.00000000000E+00  0.45593999997E+02  0.45594000000E+02  0.51100000000E-03 0. -1.
         11   -1    0    0    0    0 -0.00000000000E+00 -0.00000000000E+00 -0.45593999997E+02  0.45594000000E+02  0.51100000000E-03 0.  1.
    9900012    2    1    2    0    0  0.68395927448E+01 -0.16161651130E+02  0.65360535969E+01  0.72461041016E+02  0.69999310513E+02 0.  0.
        -12    1    1    2    0    0 -0.68395927448E+01  0.16161651130E+02 -0.65360535969E+01  0.18726958984E+02  0.00000000000E+00 0.  1.
         11    1    3    3    0    0  0.27460958436E+01 -0.17365314812E+02  0.61291334882E+01  0.18618847399E+02  0.51100000000E-03 0. -1.
        -11    1    3    3    0    0  0.17136979233E+02  0.10923936449E+02 -0.19479092826E+02  0.28150373041E+02  0.51100000000E-03 0.  1.
         12    1    3    3    0    0 -0.13043482332E+02 -0.97202727669E+01  0.19886012935E+02  0.25691820575E+02  0.00000000000E+00 0. -1.
</event>
<event>
 7    1  0.2489154E-013  0.7246184E+02  0.7816164E-02  0.1226707E+00
        -11   -1    0    0    0    0  0.00000000000E+00  0.00000000000E+00  0.45593999997E+02  0.45594000000E+02  0.51100000000E-03 0.  1.
         11   -1    0    0    0    0 -0.00000000000E+00 -0.00000000000E+00 -0.45593999997E+02  0.45594000000E+02  0.51100000000E-03 0. -1.
    9900012    2    1    2    0    0  0.11644410041E+02  0.12978317826E+02 -0.68293417745E+01  0.72461843751E+02  0.70000356227E+02 0.  0.
        -12    1    1    2    0    0 -0.11644410041E+02 -0.12978317826E+02  0.68293417745E+01  0.18726156249E+02  0.00000000000E+00 0.  1.
         11    1    3    3    0    0  0.91620702216E+01 -0.70706109573E+01 -0.14239293506E+02  0.18349238400E+02  0.51100000000E-03 0. -1.
        -11    1    3    3    0    0  0.21280513372E+01  0.15300430242E+02 -0.20573212249E+02  0.25727200209E+02  0.51100000000E-03 0.  1.
         12    1    3    3    0    0  0.35428848185E+00  0.47484985415E+01  0.27983163980E+02  0.28385405142E+02  0.00000000000E+00 0. -1.
</event>
<event>
 7    1  0.2489154E-013  0.7246147E+02  0.7816164E-02  0.1226708E+00
        -11   -1    0    0    0    0  0.00000000000E+00  0.00000000000E+00  0.45593999997E+02  0.45594000000E+02  0.51100000000E-03 0.  1.
         11   -1    0    0    0    0 -0.00000000000E+00 -0.00000000000E+00 -0.45593999997E+02  0.45594000000E+02  0.51100000000E-03 0. -1.
    9900012    2    1    2    0    0  0.11732653485E+02  0.43735231215E+01 -0.13924796490E+02  0.72461472837E+02  0.69999873044E+02 0.  0.
        -12    1    1    2    0    0 -0.11732653485E+02 -0.43735231215E+01  0.13924796490E+02  0.18726527163E+02  0.00000000000E+00 0.  1.
         11    1    3    3    0    0 -0.19303640641E+02  0.15473704539E+02 -0.44036198662E+01  0.25128826919E+02  0.51100000000E-03 0. -1.
        -11    1    3    3    0    0 -0.51356564016E+01 -0.85907336258E+01 -0.33352735856E+01  0.10549868296E+02  0.51100000000E-03 0.  1.
        -12    1    3    3    0    0  0.36171950527E+02 -0.25094477921E+01 -0.61859030386E+01  0.36782777622E+02  0.00000000000E+00 0.  1.
</event>
<event>
 7    1  0.2489154E-013  0.7246157E+02  0.7816164E-02  0.1226708E+00
        -11   -1    0    0    0    0  0.00000000000E+00  0.00000000000E+00  0.45593999997E+02  0.45594000000E+02  0.51100000000E-03 0.  1.
         11   -1    0    0    0    0 -0.00000000000E+00 -0.00000000000E+00 -0.45593999997E+02  0.45594000000E+02  0.51100000000E-03 0. -1.
    9900012    2    1    2    0    0 -0.17161224233E+01 -0.32955110800E+01 -0.18354119683E+02  0.72461570047E+02  0.69999999678E+02 0.  0.
        -12    1    1    2    0    0  0.17161224233E+01  0.32955110800E+01  0.18354119683E+02  0.18726429953E+02  0.00000000000E+00 0.  1.
         11    1    3    3    0    0 -0.86185527778E+01  0.11554153784E+02  0.63395089319E+01  0.15746977342E+02  0.51100000000E-03 0. -1.
        -11    1    3    3    0    0 -0.82288144572E+01  0.13814349415E+02 -0.18764521368E+00  0.16080573625E+02  0.51100000000E-03 0.  1.
         12    1    3    3    0    0  0.15131244812E+02 -0.28664014279E+02 -0.24505983401E+02  0.40634019080E+02  0.00000000000E+00 0. -1.
</event>
<event>
 7    1  0.2489154E-013  0.7246157E+02  0.7816164E-02  0.1226708E+00
        -11   -1    0    0    0    0  0.00000000000E+00  0.00000000000E+00  0.45593999997E+02  0.45594000000E+02  0.51100000000E-03 0. -1.
         11   -1    0    0    0    0 -0.00000000000E+00 -0.00000000000E+00 -0.45593999997E+02  0.45594000000E+02  0.51100000000E-03 0.  1.
    9900012    2    1    2    0    0 -0.17142735023E+02  0.42636356702E+01  0.62150818002E+01  0.72461569615E+02  0.69999999115E+02 0.  0.
        -12    1    1    2    0    0  0.17142735023E+02 -0.42636356702E+01 -0.62150818002E+01  0.18726430385E+02  0.00000000000E+00 0.  1.
         11    1    3    3    0    0 -0.99011116141E+00  0.15701679633E+02 -0.91689562503E+01  0.18209690343E+02  0.51100000000E-03 0. -1.
        -11    1    3    3    0    0 -0.26266741412E+02 -0.53962560049E+01 -0.80715498310E+01  0.28003771179E+02  0.51100000000E-03 0.  1.
         12    1    3    3    0    0  0.10114117551E+02 -0.60417879583E+01  0.23455587882E+02  0.26248108092E+02  0.00000000000E+00 0. -1.
</event>
<event>
 7    1  0.2489154E-013  0.7246138E+02  0.7816164E-02  0.1226709E+00
        -11   -1    0    0    0    0  0.00000000000E+00  0.00000000000E+00  0.45593999997E+02  0.45594000000E+02  0.51100000000E-03 0. -1.
         11   -1    0    0    0    0 -0.00000000000E+00 -0.00000000000E+00 -0.45593999997E+02  0.45594000000E+02  0.51100000000E-03 0.  1.
    9900012    2    1    2    0    0  0.17846530792E+02  0.87032299266E+00  0.56062777385E+01  0.72461375277E+02  0.69999745953E+02 0.  0.
        -12    1    1    2    0    0 -0.17846530792E+02 -0.87032299266E+00 -0.56062777385E+01  0.18726624723E+02  0.00000000000E+00 0.  1.
         11    1    3    3    0    0 -0.30301043131E+01 -0.13042906444E+01 -0.44033975355E+01  0.55020556477E+01  0.51100000000E-03 0. -1.
        -11    1    3    3    0    0 -0.30712187391E+01  0.33840334081E+01 -0.24507971053E+02  0.24930397351E+02  0.51100000000E-03 0.  1.
         12    1    3    3    0    0  0.23947853844E+02 -0.12094197710E+01  0.34517646327E+02  0.42028922279E+02  0.00000000000E+00 0. -1.
</event>
<event>
 7    1  0.2489154E-013  0.7246155E+02  0.7816164E-02  0.1226708E+00
        -11   -1    0    0    0    0  0.00000000000E+00  0.00000000000E+00  0.45593999997E+02  0.45594000000E+02  0.51100000000E-03 0. -1.
         11   -1    0    0    0    0 -0.00000000000E+00 -0.00000000000E+00 -0.45593999997E+02  0.45594000000E+02  0.51100000000E-03 0.  1.
    9900012    2    1    2    0    0 -0.14087994025E+02 -0.83599755542E+01 -0.90729842477E+01  0.72461553191E+02  0.69999977720E+02 0.  0.
        -12    1    1    2    0    0  0.14087994025E+02  0.83599755542E+01  0.90729842477E+01  0.18726446809E+02  0.00000000000E+00 0.  1.
         11    1    3    3    0    0  0.21125823974E+02 -0.16288734174E+02  0.11619366229E+02  0.29096958112E+02  0.51100000000E-03 0. -1.
        -11    1    3    3    0    0 -0.13969087307E+02  0.36511390668E+00 -0.14142600268E+02  0.19881696380E+02  0.51100000000E-03 0.  1.
        -12    1    3    3    0    0 -0.21244730692E+02  0.75636447130E+01 -0.65497502095E+01  0.23482898699E+02  0.00000000000E+00 0.  1.
</event>
<event>
 7    1  0.2489154E-013  0.7246153E+02  0.7816164E-02  0.1226708E+00
        -11   -1    0    0    0    0  0.00000000000E+00  0.00000000000E+00  0.45593999997E+02  0.45594000000E+02  0.51100000000E-03 0.  1.
         11   -1    0    0    0    0 -0.00000000000E+00 -0.00000000000E+00 -0.45593999997E+02  0.45594000000E+02  0.51100000000E-03 0. -1.
    9900012    2    1    2    0    0  0.12433255181E+02 -0.11270158767E+02  0.83113355276E+01  0.72461531799E+02  0.69999949853E+02 0.  0.
        -12    1    1    2    0    0 -0.12433255181E+02  0.11270158767E+02 -0.83113355276E+01  0.18726468201E+02  0.00000000000E+00 0.  1.
         11    1    3    3    0    0 -0.78514820691E+01  0.11868090550E+01  0.51694652305E+01  0.94751072524E+01  0.51100000000E-03 0. -1.
        -11    1    3    3    0    0 -0.49450551592E+01 -0.11564787680E+02  0.26030302148E+02  0.28909765042E+02  0.51100000000E-03 0.  1.
         12    1    3    3    0    0  0.25229792409E+02 -0.89218014191E+00 -0.22888431851E+02  0.34076659505E+02  0.00000000000E+00 0. -1.
</event>
<event>
 7    1  0.2489154E-013  0.7246113E+02  0.7816164E-02  0.1226709E+00
        -11   -1    0    0    0    0  0.00000000000E+00  0.00000000000E+00  0.45593999997E+02  0.45594000000E+02  0.51100000000E-03 0. -1.
         11   -1    0    0    0    0 -0.00000000000E+00 -0.00000000000E+00 -0.45593999997E+02  0.45594000000E+02  0.51100000000E-03 0.  1.
    9900012    2    1    2    0    0  0.98183222886E+01 -0.15862758435E+02 -0.16337795729E+01  0.72461126437E+02  0.69999421791E+02 0.  0.
        -12    1    1    2    0    0 -0.98183222886E+01  0.15862758435E+02  0.16337795729E+01  0.18726873563E+02  0.00000000000E+00 0.  1.
         11    1    3    3    0    0 -0.14044958675E+02 -0.11496743155E+02  0.41587043756E-01  0.18150418648E+02  0.51100000000E-03 0. -1.
        -11    1    3    3    0    0 -0.13062759582E+02 -0.10091830998E+02 -0.35956609369E+01  0.16894067557E+02  0.51100000000E-03 0.  1.
         12    1    3    3    0    0  0.36926040545E+02  0.57258157177E+01  0.19202943203E+01  0.37416640232E+02  0.00000000000E+00 0. -1.
</event>
<event>
 7    1  0.2489154E-013  0.7246157E+02  0.7816164E-02  0.1226708E+00
        -11   -1    0    0    0    0  0.00000000000E+00  0.00000000000E+00  0.45593999997E+02  0.45594000000E+02  0.51100000000E-03 0.  1.
         11   -1    0    0    0    0 -0.00000000000E+00 -0.00000000000E+00 -0.45593999997E+02  0.45594000000E+02  0.51100000000E-03 0. -1.
    9900012    2    1    2    0    0  0.42734222930E+01  0.67922970961E+01 -0.16919865844E+02  0.72461566861E+02  0.69999995528E+02 0.  0.
        -12    1    1    2    0    0 -0.42734222930E+01 -0.67922970961E+01  0.16919865844E+02  0.18726433139E+02  0.00000000000E+00 0.  1.
         11    1    3    3    0    0  0.13274695276E+01  0.37083498033E+00  0.64017900838E+01  0.65484815391E+01  0.51100000000E-03 0. -1.
        -11    1    3    3    0    0 -0.44816742988E+01 -0.63023803836E+01  0.19313411129E+02  0.20804164312E+02  0.51100000000E-03 0.  1.
         12    1    3    3    0    0  0.74276270642E+01  0.12723842499E+02 -0.42635067057E+02  0.45108921010E+02  0.00000000000E+00 0. -1.
</event>
<event>
 7    1  0.2489154E-013  0.7246156E+02  0.7816164E-02  0.1226708E+00
        -11   -1    0    0    0    0  0.00000000000E+00  0.00000000000E+00  0.45593999997E+02  0.45594000000E+02  0.51100000000E-03 0. -1.
         11   -1    0    0    0    0 -0.00000000000E+00 -0.00000000000E+00 -0.45593999997E+02  0.45594000000E+02  0.51100000000E-03 0.  1.
    9900012    2    1    2    0    0  0.12700640752E+02  0.35418382176E+01  0.13297689070E+02  0.72461563391E+02  0.69999991007E+02 0.  0.
        -12    1    1    2    0    0 -0.12700640752E+02 -0.35418382176E+01 -0.13297689070E+02  0.18726436609E+02  0.00000000000E+00 0.  1.
         11    1    3    3    0    0  0.13504566359E+02  0.20583999224E+01 -0.16230561556E+02  0.21214180433E+02  0.51100000000E-03 0. -1.
        -11    1    3    3    0    0 -0.25138377553E+01  0.71193385580E+01 -0.92977817816E+01  0.11977191160E+02  0.51100000000E-03 0.  1.
         12    1    3    3    0    0  0.17099121488E+01 -0.56359002629E+01  0.38826032407E+02  0.39270191798E+02  0.00000000000E+00 0. -1.
</event>
<event>
 7    1  0.2489154E-013  0.7246156E+02  0.7816164E-02  0.1226708E+00
        -11   -1    0    0    0    0  0.00000000000E+00  0.00000000000E+00  0.45593999997E+02  0.45594000000E+02  0.51100000000E-03 0.  1.
         11   -1    0    0    0    0 -0.00000000000E+00 -0.00000000000E+00 -0.45593999997E+02  0.45594000000E+02  0.51100000000E-03 0. -1.
    9900012    2    1    2    0    0 -0.63672134276E+01 -0.78042098472E+01 -0.15787095515E+02  0.72461561926E+02  0.69999989098E+02 0.  0.
        -12    1    1    2    0    0  0.63672134276E+01  0.78042098472E+01  0.15787095515E+02  0.18726438074E+02  0.00000000000E+00 0.  1.
         11    1    3    3    0    0 -0.13539743577E+02 -0.10591313734E+02 -0.22511201971E+01  0.17336900679E+02  0.51100000000E-03 0. -1.
        -11    1    3    3    0    0 -0.13825046793E+02  0.58475133237E+01  0.13887945328E+02  0.20449947594E+02  0.51100000000E-03 0.  1.
        -12    1    3    3    0    0  0.20997576942E+02 -0.30604094365E+01 -0.27423920646E+02  0.34674713653E+02  0.00000000000E+00 0.  1.
</event>
<event>
 7    1  0.2489154E-013  0.7246154E+02  0.7816164E-02  0.1226708E+00
        -11   -1    0    0    0    0  0.00000000000E+00  0.00000000000E+00  0.45593999997E+02  0.45594000000E+02  0.51100000000E-03 0. -1.
         11   -1    0    0    0    0 -0.00000000000E+00 -0.00000000000E+00 -0.45593999997E+02  0.45594000000E+02  0.51100000000E-03 0.  1.
    9900012    2    1    2    0    0 -0.85037408588E+01  0.14350694144E+02  0.85102409133E+01  0.72461541941E+02  0.69999963065E+02 0.  0.
        -12    1    1    2    0    0  0.85037408588E+01 -0.14350694144E+02 -0.85102409133E+01  0.18726458059E+02  0.00000000000E+00 0.  1.
         11    1    3    3    0    0  0.14690370514E+02 -0.61729497938E+01  0.60261223829E+01  0.17036033759E+02  0.51100000000E-03 0. -1.
        -11    1    3    3    0    0  0.11136305669E+02 -0.31362296838E+01  0.69448130237E+01  0.13493838178E+02  0.51100000000E-03 0.  1.
         12    1    3    3    0    0 -0.34330417041E+02  0.23659873622E+02 -0.44606944933E+01  0.41931670005E+02  0.00000000000E+00 0. -1.
</event>
<event>
 7    1  0.2489154E-013  0.7246167E+02  0.7816164E-02  0.1226708E+00
        -11   -1    0    0    0    0  0.00000000000E+00  0.00000000000E+00  0.45593999997E+02  0.45594000000E+02  0.51100000000E-03 0.  1.
         11   -1    0    0    0    0 -0.00000000000E+00 -0.00000000000E+00 -0.45593999997E+02  0.45594000000E+02  0.51100000000E-03 0. -1.
    9900012    2    1    2    0    0 -0.39997241182E+01 -0.39612968657E+00 -0.18289905834E+02  0.72461671818E+02  0.70000132253E+02 0.  0.
        -12    1    1    2    0    0  0.39997241182E+01  0.39612968657E+00  0.18289905834E+02  0.18726328182E+02  0.00000000000E+00 0.  1.
         11    1    3    3    0    0  0.18835520119E+02  0.90355190758E+01 -0.26821176120E+01  0.21062079154E+02  0.51100000000E-03 0. -1.
        -11    1    3    3    0    0 -0.32425530301E+01  0.44522272290E+01  0.12958894890E+02  0.14080817962E+02  0.51100000000E-03 0.  1.
         12    1    3    3    0    0 -0.19592691207E+02 -0.13883875991E+02 -0.28566683112E+02  0.37318774703E+02  0.00000000000E+00 0. -1.
</event>
<event>
 7    1  0.2489154E-013  0.7246156E+02  0.7816164E-02  0.1226708E+00
        -11   -1    0    0    0    0  0.00000000000E+00  0.00000000000E+00  0.45593999997E+02  0.45594000000E+02  0.51100000000E-03 0.  1.
         11   -1    0    0    0    0 -0.00000000000E+00 -0.00000000000E+00 -0.45593999997E+02  0.45594000000E+02  0.51100000000E-03 0. -1.
    9900012    2    1    2    0    0  0.10777684675E+02 -0.52357819771E+01 -0.14391239936E+02  0.72461556484E+02  0.69999982009E+02 0.  0.
        -12    1    1    2    0    0 -0.10777684675E+02  0.52357819771E+01  0.14391239936E+02  0.18726443516E+02  0.00000000000E+00 0.  1.
         11    1    3    3    0    0  0.24458084881E+02 -0.28354728542E+02  0.45063922394E+00  0.37448519633E+02  0.51100000000E-03 0.  1.
        -11    1    3    3    0    0 -0.24718016359E+01  0.85461623240E+01 -0.14026880131E+02  0.16610239621E+02  0.51100000000E-03 0. -1.
        -12    1    3    3    0    0 -0.11208598571E+02  0.14572784241E+02 -0.81499902880E+00  0.18402797229E+02  0.00000000000E+00 0.  1.
</event>
<event>
 7    1  0.2489154E-013  0.7246098E+02  0.7816164E-02  0.1226710E+00
        -11   -1    0    0    0    0  0.00000000000E+00  0.00000000000E+00  0.45593999997E+02  0.45594000000E+02  0.51100000000E-03 0. -1.
         11   -1    0    0    0    0 -0.00000000000E+00 -0.00000000000E+00 -0.45593999997E+02  0.45594000000E+02  0.51100000000E-03 0.  1.
    9900012    2    1    2    0    0 -0.85423930036E+01 -0.43081292836E+01  0.16098721662E+02  0.72460979540E+02  0.69999230429E+02 0.  0.
        -12    1    1    2    0    0  0.85423930036E+01  0.43081292836E+01 -0.16098721662E+02  0.18727020460E+02  0.00000000000E+00 0.  1.
         11    1    3    3    0    0 -0.54452657280E+01  0.59270797585E+01  0.14328194110E+02  0.16434060364E+02  0.51100000000E-03 0. -1.
        -11    1    3    3    0    0  0.98173607563E+01  0.10863208374E+02  0.20363698530E+02  0.25081269634E+02  0.51100000000E-03 0.  1.
        -12    1    3    3    0    0 -0.12914488032E+02 -0.21098417416E+02 -0.18593170978E+02  0.30945649543E+02  0.00000000000E+00 0.  1.
</event>
<event>
 7    1  0.2489154E-013  0.7246152E+02  0.7816164E-02  0.1226708E+00
        -11   -1    0    0    0    0  0.00000000000E+00  0.00000000000E+00  0.45593999997E+02  0.45594000000E+02  0.51100000000E-03 0. -1.
         11   -1    0    0    0    0 -0.00000000000E+00 -0.00000000000E+00 -0.45593999997E+02  0.45594000000E+02  0.51100000000E-03 0.  1.
    9900012    2    1    2    0    0 -0.14667722912E+02  0.42741511303E+01  0.10829154932E+02  0.72461519822E+02  0.69999934251E+02 0.  0.
        -12    1    1    2    0    0  0.14667722912E+02 -0.42741511303E+01 -0.10829154932E+02  0.18726480178E+02  0.00000000000E+00 0.  1.
         11    1    3    3    0    0 -0.15158923372E+02 -0.59473762735E+00  0.24177257660E+02  0.28542712886E+02  0.51100000000E-03 0. -1.
        -11    1    3    3    0    0 -0.77508731551E+01  0.20934762772E+02 -0.16086458759E+01  0.22381422404E+02  0.51100000000E-03 0.  1.
         12    1    3    3    0    0  0.82420736149E+01 -0.16065874015E+02 -0.11739456852E+02  0.21537384533E+02  0.00000000000E+00 0. -1.
</event>
<event>
 7    1  0.2489154E-013  0.7246156E+02  0.7816164E-02  0.1226708E+00
        -11   -1    0    0    0    0  0.00000000000E+00  0.00000000000E+00  0.45593999997E+02  0.45594000000E+02  0.51100000000E-03 0.  1.
         11   -1    0    0    0    0 -0.00000000000E+00 -0.00000000000E+00 -0.45593999997E+02  0.45594000000E+02  0.51100000000E-03 0. -1.
    9900012    2    1    2    0    0 -0.85756300518E+00 -0.61500778279E+01 -0.17666941689E+02  0.72461556124E+02  0.69999981541E+02 0.  0.
        -12    1    1    2    0    0  0.85756300518E+00  0.61500778279E+01  0.17666941689E+02  0.18726443876E+02  0.00000000000E+00 0.  1.
         11    1    3    3    0    0 -0.83381636385E+01 -0.12646664064E+02  0.14717779541E+02  0.21120514191E+02  0.51100000000E-03 0. -1.
        -11    1    3    3    0    0 -0.99817124161E+01 -0.63575601536E+01  0.62027295411E+00  0.11850649462E+02  0.51100000000E-03 0.  1.
         12    1    3    3    0    0  0.17462313049E+02  0.12854146390E+02 -0.33004994184E+02  0.39490392471E+02  0.00000000000E+00 0. -1.
</event>
<event>
 7    1  0.2489154E-013  0.7246142E+02  0.7816164E-02  0.1226708E+00
        -11   -1    0    0    0    0  0.00000000000E+00  0.00000000000E+00  0.45593999997E+02  0.45594000000E+02  0.51100000000E-03 0. -1.
         11   -1    0    0    0    0 -0.00000000000E+00 -0.00000000000E+00 -0.45593999997E+02  0.45594000000E+02  0.51100000000E-03 0.  1.
    9900012    2    1    2    0    0 -0.17985233995E+02 -0.51378400239E+01 -0.90477021044E+00  0.72461423935E+02  0.69999809340E+02 0.  0.
        -12    1    1    2    0    0  0.17985233995E+02  0.51378400239E+01  0.90477021044E+00  0.18726576065E+02  0.00000000000E+00 0.  1.
         11    1    3    3    0    0  0.12166228447E+02  0.20251614972E+02 -0.89160383415E+01  0.25251549726E+02  0.51100000000E-03 0. -1.
        -11    1    3    3    0    0 -0.17781023413E+01 -0.13285388340E+02 -0.41805548737E+01  0.14040663467E+02  0.51100000000E-03 0.  1.
        -12    1    3    3    0    0 -0.28373360101E+02 -0.12104066655E+02  0.12191823005E+02  0.33169210742E+02  0.00000000000E+00 0.  1.
</event>
<event>
 7    1  0.2489154E-013  0.7246158E+02  0.7816164E-02  0.1226708E+00
        -11   -1    0    0    0    0  0.00000000000E+00  0.00000000000E+00  0.45593999997E+02  0.45594000000E+02  0.51100000000E-03 0. -1.
         11   -1    0    0    0    0 -0.00000000000E+00 -0.00000000000E+00 -0.45593999997E+02  0.45594000000E+02  0.51100000000E-03 0.  1.
    9900012    2    1    2    0    0  0.12485811537E+02  0.12771643025E+02  0.56274626388E+01  0.72461583070E+02  0.70000016642E+02 0.  0.
        -12    1    1    2    0    0 -0.12485811537E+02 -0.12771643025E+02 -0.56274626388E+01  0.18726416930E+02  0.00000000000E+00 0.  1.
         11    1    3    3    0    0  0.15559944326E-01 -0.45727123923E+01 -0.90220854411E+01  0.10114740071E+02  0.51100000000E-03 0.  1.
        -11    1    3    3    0    0  0.11117058981E+02 -0.20063891256E+02  0.29410335873E+01  0.23125708887E+02  0.51100000000E-03 0. -1.
         12    1    3    3    0    0  0.13531926114E+01  0.37408246673E+02  0.11708514493E+02  0.39221134112E+02  0.00000000000E+00 0. -1.
</event>
<event>
 7    1  0.2489154E-013  0.7246158E+02  0.7816164E-02  0.1226708E+00
        -11   -1    0    0    0    0  0.00000000000E+00  0.00000000000E+00  0.45593999997E+02  0.45594000000E+02  0.51100000000E-03 0. -1.
         11   -1    0    0    0    0 -0.00000000000E+00 -0.00000000000E+00 -0.45593999997E+02  0.45594000000E+02  0.51100000000E-03 0.  1.
    9900012    2    1    2    0    0 -0.17804754508E+02  0.97740813886E+00  0.57196389186E+01  0.72461578048E+02  0.70000010101E+02 0.  0.
        -12    1    1    2    0    0  0.17804754508E+02 -0.97740813886E+00 -0.57196389186E+01  0.18726421952E+02  0.00000000000E+00 0.  1.
         11    1    3    3    0    0  0.11857466379E+02 -0.10856240919E+02 -0.99554792972E+01  0.18909496136E+02  0.51100000000E-03 0. -1.
        -11    1    3    3    0    0  0.70482828688E+01  0.33440542289E+01  0.13767829555E+02  0.15824478538E+02  0.51100000000E-03 0.  1.
         12    1    3    3    0    0 -0.36710503756E+02  0.84895948285E+01  0.19072886605E+01  0.37727603374E+02  0.00000000000E+00 0. -1.
</event>
<event>
 7    1  0.2489154E-013  0.7246160E+02  0.7816164E-02  0.1226708E+00
        -11   -1    0    0    0    0  0.00000000000E+00  0.00000000000E+00  0.45593999997E+02  0.45594000000E+02  0.51100000000E-03 0.  1.
         11   -1    0    0    0    0 -0.00000000000E+00 -0.00000000000E+00 -0.45593999997E+02  0.45594000000E+02  0.51100000000E-03 0. -1.
    9900012    2    1    2    0    0  0.49810893459E+01  0.13520051331E+02 -0.11961401987E+02  0.72461596806E+02  0.70000034537E+02 0.  0.
        -12    1    1    2    0    0 -0.49810893459E+01 -0.13520051331E+02  0.11961401987E+02  0.18726403194E+02  0.00000000000E+00 0.  1.
         11    1    3    3    0    0 -0.97891281468E+00  0.40664973896E+01  0.20573740074E+01  0.46612722926E+01  0.51100000000E-03 0. -1.
        -11    1    3    3    0    0  0.15656659891E+02  0.18657071998E+02  0.19829564778E+02  0.31407466852E+02  0.51100000000E-03 0.  1.
         12    1    3    3    0    0 -0.96966577308E+01 -0.92035180564E+01 -0.33848340773E+02  0.36392857662E+02  0.00000000000E+00 0. -1.
</event>
<event>
 7    1  0.2489154E-013  0.7246166E+02  0.7816164E-02  0.1226708E+00
        -11   -1    0    0    0    0  0.00000000000E+00  0.00000000000E+00  0.45593999997E+02  0.45594000000E+02  0.51100000000E-03 0. -1.
         11   -1    0    0    0    0 -0.00000000000E+00 -0.00000000000E+00 -0.45593999997E+02  0.45594000000E+02  0.51100000000E-03 0.  1.
    9900012    2    1    2    0    0 -0.11756264978E+02  0.14551220038E+02 -0.85315929410E+00  0.72461664223E+02  0.70000122360E+02 0.  0.
        -12    1    1    2    0    0  0.11756264978E+02 -0.14551220038E+02  0.85315929410E+00  0.18726335777E+02  0.00000000000E+00 0.  1.
         11    1    3    3    0    0  0.23293586565E+02 -0.37786459040E+01 -0.13946595449E+02  0.27411254346E+02  0.51100000000E-03 0. -1.
        -11    1    3    3    0    0 -0.32822307005E+00 -0.15692396809E+01 -0.17439374905E+01  0.23688735280E+01  0.51100000000E-03 0.  1.
        -12    1    3    3    0    0 -0.34721628474E+02  0.19899105623E+02  0.14837373645E+02  0.42681536349E+02  0.00000000000E+00 0.  1.
</event>
<event>
 7    1  0.2489154E-013  0.7246162E+02  0.7816164E-02  0.1226708E+00
        -11   -1    0    0    0    0  0.00000000000E+00  0.00000000000E+00  0.45593999997E+02  0.45594000000E+02  0.51100000000E-03 0.  1.
         11   -1    0    0    0    0 -0.00000000000E+00 -0.00000000000E+00 -0.45593999997E+02  0.45594000000E+02  0.51100000000E-03 0. -1.
    9900012    2    1    2    0    0 -0.14548875543E+02  0.10950655502E+02  0.43692990277E+01  0.72461617288E+02  0.70000061218E+02 0.  0.
        -12    1    1    2    0    0  0.14548875543E+02 -0.10950655502E+02 -0.43692990277E+01  0.18726382712E+02  0.00000000000E+00 0.  1.
         11    1    3    3    0    0 -0.11584977659E+02  0.29442158988E+00 -0.12858839270E+02  0.17310347745E+02  0.51100000000E-03 0. -1.
        -11    1    3    3    0    0  0.20374263908E+02  0.18732168317E+02  0.98375323083E+01  0.29373147632E+02  0.51100000000E-03 0.  1.
         12    1    3    3    0    0 -0.23338161792E+02 -0.80759344053E+01  0.73906059890E+01  0.25778121910E+02  0.00000000000E+00 0. -1.
</event>
<event>
 7    1  0.2489154E-013  0.7246153E+02  0.7816164E-02  0.1226708E+00
        -11   -1    0    0    0    0  0.00000000000E+00  0.00000000000E+00  0.45593999997E+02  0.45594000000E+02  0.51100000000E-03 0.  1.
         11   -1    0    0    0    0 -0.00000000000E+00 -0.00000000000E+00 -0.45593999997E+02  0.45594000000E+02  0.51100000000E-03 0. -1.
    9900012    2    1    2    0    0  0.15699258289E+02 -0.17389557261E+01 -0.10059331721E+02  0.72461525892E+02  0.69999942157E+02 0.  0.
        -12    1    1    2    0    0 -0.15699258289E+02  0.17389557261E+01  0.10059331721E+02  0.18726474108E+02  0.00000000000E+00 0.  1.
         11    1    3    3    0    0 -0.16291988134E+01  0.18944532492E+01  0.49826972669E+00  0.25478451421E+01  0.51100000000E-03 0. -1.
        -11    1    3    3    0    0 -0.13700973017E+02 -0.12915200874E+02  0.18503641254E+02  0.26398935871E+02  0.51100000000E-03 0.  1.
         12    1    3    3    0    0  0.31029430120E+02  0.92817918984E+01 -0.29061242702E+02  0.43514744878E+02  0.00000000000E+00 0. -1.
</event>
<event>
 7    1  0.2489154E-013  0.7246155E+02  0.7816164E-02  0.1226708E+00
        -11   -1    0    0    0    0  0.00000000000E+00  0.00000000000E+00  0.45593999997E+02  0.45594000000E+02  0.51100000000E-03 0.  1.
         11   -1    0    0    0    0 -0.00000000000E+00 -0.00000000000E+00 -0.45593999997E+02  0.45594000000E+02  0.51100000000E-03 0. -1.
    9900012    2    1    2    0    0  0.15807587116E+02  0.10038488391E+02 -0.17035544770E+00  0.72461545968E+02  0.69999968311E+02 0.  0.
        -12    1    1    2    0    0 -0.15807587116E+02 -0.10038488391E+02  0.17035544770E+00  0.18726454032E+02  0.00000000000E+00 0.  1.
         11    1    3    3    0    0 -0.53651868391E+01  0.27504026511E+02  0.22272423246E+01  0.28110804200E+02  0.51100000000E-03 0. -1.
        -11    1    3    3    0    0  0.20557020728E+02  0.23105109190E+01  0.77797906201E+01  0.22101011385E+02  0.51100000000E-03 0.  1.
        -12    1    3    3    0    0  0.61575322785E+00 -0.19776049039E+02 -0.10177388392E+02  0.22249730383E+02  0.00000000000E+00 0.  1.
</event>
<event>
 7    1  0.2489154E-013  0.7246149E+02  0.7816164E-02  0.1226708E+00
        -11   -1    0    0    0    0  0.00000000000E+00  0.00000000000E+00  0.45593999997E+02  0.45594000000E+02  0.51100000000E-03 0.  1.
         11   -1    0    0    0    0 -0.00000000000E+00 -0.00000000000E+00 -0.45593999997E+02  0.45594000000E+02  0.51100000000E-03 0. -1.
    9900012    2    1    2    0    0  0.32554472703E+01 -0.15026945027E+01 -0.18380049164E+02  0.72461488446E+02  0.69999893378E+02 0.  0.
        -12    1    1    2    0    0 -0.32554472703E+01  0.15026945027E+01  0.18380049164E+02  0.18726511554E+02  0.00000000000E+00 0.  1.
         11    1    3    3    0    0  0.22250656049E+02  0.94559969415E+01 -0.27799067771E+01  0.24335888205E+02  0.51100000000E-03 0. -1.
        -11    1    3    3    0    0  0.25999054456E+01 -0.11491842370E+02  0.94094622917E+01  0.15078459147E+02  0.51100000000E-03 0.  1.
        -12    1    3    3    0    0 -0.21595114225E+02  0.53315092537E+00 -0.25009604679E+02  0.33047141094E+02  0.00000000000E+00 0.  1.
</event>
<event>
 7    1  0.2489154E-013  0.7246151E+02  0.7816164E-02  0.1226708E+00
        -11   -1    0    0    0    0  0.00000000000E+00  0.00000000000E+00  0.45593999997E+02  0.45594000000E+02  0.51100000000E-03 0.  1.
         11   -1    0    0    0    0 -0.00000000000E+00 -0.00000000000E+00 -0.45593999997E+02  0.45594000000E+02  0.51100000000E-03 0. -1.
    9900012    2    1    2    0    0 -0.57381078118E+00  0.37972029975E+01 -0.18328487724E+02  0.72461508827E+02  0.69999919927E+02 0.  0.
        -12    1    1    2    0    0  0.57381078118E+00 -0.37972029975E+01  0.18328487724E+02  0.18726491173E+02  0.00000000000E+00 0.  1.
         11    1    3    3    0    0 -0.12599577832E+02  0.14571708265E+02 -0.15911545658E+02  0.24985222208E+02  0.51100000000E-03 0. -1.
        -11    1    3    3    0    0 -0.16744008607E+01  0.12069891200E+02 -0.13886055579E+02  0.18474534679E+02  0.51100000000E-03 0.  1.
        -12    1    3    3    0    0  0.13700167912E+02 -0.22844396467E+02  0.11469113513E+02  0.29001751939E+02  0.00000000000E+00 0.  1.
</event>
<event>
 7    1  0.2489154E-013  0.7246156E+02  0.7816164E-02  0.1226708E+00
        -11   -1    0    0    0    0  0.00000000000E+00  0.00000000000E+00  0.45593999997E+02  0.45594000000E+02  0.51100000000E-03 0. -1.
         11   -1    0    0    0    0 -0.00000000000E+00 -0.00000000000E+00 -0.45593999997E+02  0.45594000000E+02  0.51100000000E-03 0.  1.
    9900012    2    1    2    0    0  0.46937349686E+01 -0.11432243550E+02  0.14069548633E+02  0.72461560422E+02  0.69999987139E+02 0.  0.
        -12    1    1    2    0    0 -0.46937349686E+01  0.11432243550E+02 -0.14069548633E+02  0.18726439578E+02  0.00000000000E+00 0.  1.
         11    1    3    3    0    0 -0.96115835265E+01  0.31276822815E+01  0.21759476816E+02  0.23992493949E+02  0.51100000000E-03 0. -1.
        -11    1    3    3    0    0 -0.27142649793E+01  0.10521111551E+02 -0.13784420965E+02  0.17551959556E+02  0.51100000000E-03 0.  1.
         12    1    3    3    0    0  0.17019583474E+02 -0.25081037382E+02  0.60944927828E+01  0.30917106917E+02  0.00000000000E+00 0. -1.
</event>
<event>
 7    1  0.2489154E-013  0.7246151E+02  0.7816164E-02  0.1226708E+00
        -11   -1    0    0    0    0  0.00000000000E+00  0.00000000000E+00  0.45593999997E+02  0.45594000000E+02  0.51100000000E-03 0. -1.
         11   -1    0    0    0    0 -0.00000000000E+00 -0.00000000000E+00 -0.45593999997E+02  0.45594000000E+02  0.51100000000E-03 0.  1.
    9900012    2    1    2    0    0  0.18312415441E+02 -0.38470201541E+01 -0.73303213720E+00  0.72461509152E+02  0.69999920351E+02 0.  0.
        -12    1    1    2    0    0 -0.18312415441E+02  0.38470201541E+01  0.73303213720E+00  0.18726490848E+02  0.00000000000E+00 0.  1.
         11    1    3    3    0    0  0.22679446178E+02 -0.21827601418E+01  0.67756483241E+01  0.23770383489E+02  0.51100000000E-03 0. -1.
        -11    1    3    3    0    0 -0.10958891121E+02 -0.22079832942E+02  0.29471034491E+01  0.24825425200E+02  0.51100000000E-03 0.  1.
         12    1    3    3    0    0  0.65918603850E+01  0.20415572930E+02 -0.10455783910E+02  0.23865700463E+02  0.00000000000E+00 0. -1.
</event>
<event>
 7    1  0.2489154E-013  0.7246159E+02  0.7816164E-02  0.1226708E+00
        -11   -1    0    0    0    0  0.00000000000E+00  0.00000000000E+00  0.45593999997E+02  0.45594000000E+02  0.51100000000E-03 0.  1.
         11   -1    0    0    0    0 -0.00000000000E+00 -0.00000000000E+00 -0.45593999997E+02  0.45594000000E+02  0.51100000000E-03 0. -1.
    9900012    2    1    2    0    0 -0.41625356668E+01  0.16263655472E+02  0.82972979138E+01  0.72461592305E+02  0.70000028673E+02 0.  0.
        -12    1    1    2    0    0  0.41625356668E+01 -0.16263655472E+02 -0.82972979138E+01  0.18726407695E+02  0.00000000000E+00 0.  1.
         11    1    3    3    0    0 -0.11938516838E+02 -0.98505387511E+01  0.21421184725E+02  0.26427796981E+02  0.51100000000E-03 0. -1.
        -11    1    3    3    0    0 -0.81409793002E+01 -0.41783101265E+01  0.58724252467E+00  0.91694423780E+01  0.51100000000E-03 0.  1.
         12    1    3    3    0    0  0.15916960471E+02  0.30292504350E+02 -0.13711129336E+02  0.36864352946E+02  0.00000000000E+00 0. -1.
</event>
<event>
 7    1  0.2489154E-013  0.7246152E+02  0.7816164E-02  0.1226708E+00
        -11   -1    0    0    0    0  0.00000000000E+00  0.00000000000E+00  0.45593999997E+02  0.45594000000E+02  0.51100000000E-03 0.  1.
         11   -1    0    0    0    0 -0.00000000000E+00 -0.00000000000E+00 -0.45593999997E+02  0.45594000000E+02  0.51100000000E-03 0. -1.
    9900012    2    1    2    0    0  0.13877782647E+02 -0.27337051784E+01 -0.12272525469E+02  0.72461524716E+02  0.69999940625E+02 0.  0.
        -12    1    1    2    0    0 -0.13877782647E+02  0.27337051784E+01  0.12272525469E+02  0.18726475284E+02  0.00000000000E+00 0.  1.
         11    1    3    3    0    0  0.32006717988E+02  0.12762056695E+02 -0.12576410504E+02  0.36680596899E+02  0.51100000000E-03 0. -1.
        -11    1    3    3    0    0 -0.81820113645E+01 -0.22219451084E+01 -0.12306625549E+02  0.14944409747E+02  0.51100000000E-03 0.  1.
        -12    1    3    3    0    0 -0.99469239763E+01 -0.13273816765E+02  0.12610510583E+02  0.20836518070E+02  0.00000000000E+00 0.  1.
</event>
<event>
 7    1  0.2489154E-013  0.7246158E+02  0.7816164E-02  0.1226708E+00
        -11   -1    0    0    0    0  0.00000000000E+00  0.00000000000E+00  0.45593999997E+02  0.45594000000E+02  0.51100000000E-03 0. -1.
         11   -1    0    0    0    0 -0.00000000000E+00 -0.00000000000E+00 -0.45593999997E+02  0.45594000000E+02  0.51100000000E-03 0.  1.
    9900012    2    1    2    0    0  0.18563943602E+02 -0.21645874840E+01  0.11719392098E+01  0.72461577956E+02  0.70000009981E+02 0.  0.
        -12    1    1    2    0    0 -0.18563943602E+02  0.21645874840E+01 -0.11719392098E+01  0.18726422044E+02  0.00000000000E+00 0.  1.
         11    1    3    3    0    0  0.15359311392E+02  0.29004813692E+01  0.21702970739E+02  0.26745844122E+02  0.51100000000E-03 0. -1.
        -11    1    3    3    0    0  0.13966146323E+02 -0.18446311891E+02 -0.80888889048E+01  0.24510197663E+02  0.51100000000E-03 0.  1.
         12    1    3    3    0    0 -0.10761514113E+02  0.13381243038E+02 -0.12442142624E+02  0.21205536172E+02  0.00000000000E+00 0. -1.
</event>
<event>
 7    1  0.2489154E-013  0.7246164E+02  0.7816164E-02  0.1226708E+00
        -11   -1    0    0    0    0  0.00000000000E+00  0.00000000000E+00  0.45593999997E+02  0.45594000000E+02  0.51100000000E-03 0.  1.
         11   -1    0    0    0    0 -0.00000000000E+00 -0.00000000000E+00 -0.45593999997E+02  0.45594000000E+02  0.51100000000E-03 0. -1.
    9900012    2    1    2    0    0 -0.12917186764E+02  0.47653972001E+01 -0.12693057914E+02  0.72461643078E+02  0.70000094814E+02 0.  0.
        -12    1    1    2    0    0  0.12917186764E+02 -0.47653972001E+01  0.12693057914E+02  0.18726356922E+02  0.00000000000E+00 0.  1.
         11    1    3    3    0    0  0.32918712272E+01  0.88062134724E+01  0.16656043268E+01  0.95477772247E+01  0.51100000000E-03 0. -1.
        -11    1    3    3    0    0 -0.13912203453E+01 -0.19345732095E+02  0.16467206840E+02  0.25443304536E+02  0.51100000000E-03 0.  1.
         12    1    3    3    0    0 -0.14817837646E+02  0.15304915823E+02 -0.30825869081E+02  0.37470561317E+02  0.00000000000E+00 0. -1.
</event>
<event>
 7    1  0.2489154E-013  0.7246158E+02  0.7816164E-02  0.1226708E+00
        -11   -1    0    0    0    0  0.00000000000E+00  0.00000000000E+00  0.45593999997E+02  0.45594000000E+02  0.51100000000E-03 0. -1.
         11   -1    0    0    0    0 -0.00000000000E+00 -0.00000000000E+00 -0.45593999997E+02  0.45594000000E+02  0.51100000000E-03 0.  1.
    9900012    2    1    2    0    0 -0.82566964760E+01  0.16742216315E+02 -0.14845583149E+01  0.72461581303E+02  0.70000014341E+02 0.  0.
        -12    1    1    2    0    0  0.82566964760E+01 -0.16742216315E+02  0.14845583149E+01  0.18726418697E+02  0.00000000000E+00 0.  1.
         11    1    3    3    0    0 -0.27518456985E+01 -0.30767707859E+01 -0.75049461258E+01  0.85652431273E+01  0.51100000000E-03 0. -1.
        -11    1    3    3    0    0  0.15292608558E+02  0.32773454426E+02 -0.59076265316E+01  0.36645098485E+02  0.51100000000E-03 0.  1.
         12    1    3    3    0    0 -0.20797459336E+02 -0.12954467325E+02  0.11928014342E+02  0.27251239690E+02  0.00000000000E+00 0. -1.
</event>
<event>
 7    1  0.2489154E-013  0.7246152E+02  0.7816164E-02  0.1226708E+00
        -11   -1    0    0    0    0  0.00000000000E+00  0.00000000000E+00  0.45593999997E+02  0.45594000000E+02  0.51100000000E-03 0. -1.
         11   -1    0    0    0    0 -0.00000000000E+00 -0.00000000000E+00 -0.45593999997E+02  0.45594000000E+02  0.51100000000E-03 0.  1.
    9900012    2    1    2    0    0  0.13419921340E+02 -0.37362872366E+00  0.13055539418E+02  0.72461521509E+02  0.69999936448E+02 0.  0.
        -12    1    1    2    0    0 -0.13419921340E+02  0.37362872366E+00 -0.13055539418E+02  0.18726478491E+02  0.00000000000E+00 0.  1.
         11    1    3    3    0    0  0.48901029560E+01 -0.13774355322E+02  0.10503519540E+02  0.17999163715E+02  0.51100000000E-03 0. -1.
        -11    1    3    3    0    0  0.16678962716E+02  0.11071011491E+02  0.24086745653E+02  0.31319744717E+02  0.51100000000E-03 0.  1.
        -12    1    3    3    0    0 -0.81491443316E+01  0.23297151071E+01 -0.21534725775E+02  0.23142613077E+02  0.00000000000E+00 0.  1.
</event>
<event>
 7    1  0.2489154E-013  0.7246174E+02  0.7816164E-02  0.1226708E+00
        -11   -1    0    0    0    0  0.00000000000E+00  0.00000000000E+00  0.45593999997E+02  0.45594000000E+02  0.51100000000E-03 0. -1.
         11   -1    0    0    0    0 -0.00000000000E+00 -0.00000000000E+00 -0.45593999997E+02  0.45594000000E+02  0.51100000000E-03 0.  1.
    9900012    2    1    2    0    0 -0.16637017187E+02 -0.84561411004E+01  0.15415230503E+01  0.72461736184E+02  0.70000216101E+02 0.  0.
        -12    1    1    2    0    0  0.16637017187E+02  0.84561411004E+01 -0.15415230503E+01  0.18726263816E+02  0.00000000000E+00 0.  1.
         11    1    3    3    0    0 -0.34508628634E+00  0.33003046793E+01  0.15071967057E+02  0.15432928651E+02  0.51100000000E-03 0. -1.
        -11    1    3    3    0    0  0.46150119026E+01 -0.27472008719E+02 -0.62668510456E+00  0.27863997064E+02  0.51100000000E-03 0.  1.
        -12    1    3    3    0    0 -0.20906942804E+02  0.15715562939E+02 -0.12903758902E+02  0.29164810469E+02  0.00000000000E+00 0.  1.
</event>
<event>
 7    1  0.2489154E-013  0.7246155E+02  0.7816164E-02  0.1226708E+00
        -11   -1    0    0    0    0  0.00000000000E+00  0.00000000000E+00  0.45593999997E+02  0.45594000000E+02  0.51100000000E-03 0.  1.
         11   -1    0    0    0    0 -0.00000000000E+00 -0.00000000000E+00 -0.45593999997E+02  0.45594000000E+02  0.51100000000E-03 0. -1.
    9900012    2    1    2    0    0 -0.12569956653E+02 -0.74535856477E+01 -0.11709837094E+02  0.72461547212E+02  0.69999969930E+02 0.  0.
        -12    1    1    2    0    0  0.12569956653E+02  0.74535856477E+01  0.11709837094E+02  0.18726452788E+02  0.00000000000E+00 0.  1.
         11    1    3    3    0    0  0.13193405241E+02 -0.26594059525E+02 -0.12774551281E+02  0.32318711369E+02  0.51100000000E-03 0. -1.
        -11    1    3    3    0    0 -0.51944302346E+01 -0.57976481171E+01 -0.27033406642E+00  0.77889607728E+01  0.51100000000E-03 0.  1.
        -12    1    3    3    0    0 -0.20568931659E+02  0.24938121994E+02  0.13350482530E+01  0.32353875070E+02  0.00000000000E+00 0.  1.
</event>
<event>
 7    1  0.2489154E-013  0.7246114E+02  0.7816164E-02  0.1226709E+00
        -11   -1    0    0    0    0  0.00000000000E+00  0.00000000000E+00  0.45593999997E+02  0.45594000000E+02  0.51100000000E-03 0.  1.
         11   -1    0    0    0    0 -0.00000000000E+00 -0.00000000000E+00 -0.45593999997E+02  0.45594000000E+02  0.51100000000E-03 0. -1.
    9900012    2    1    2    0    0  0.12527883216E+02  0.13813445425E+02 -0.17135010768E+01  0.72461141792E+02  0.69999441795E+02 0.  0.
        -12    1    1    2    0    0 -0.12527883216E+02 -0.13813445425E+02  0.17135010768E+01  0.18726858208E+02  0.00000000000E+00 0.  1.
         11    1    3    3    0    0  0.12267892505E+02 -0.33465047606E+01  0.18245157448E+02  0.22239290708E+02  0.51100000000E-03 0. -1.
        -11    1    3    3    0    0 -0.19779325049E+02  0.11868762624E+02 -0.26498113446E+01  0.23218758064E+02  0.51100000000E-03 0.  1.
         12    1    3    3    0    0  0.20039315760E+02  0.52911875617E+01 -0.17308847181E+02  0.27003093020E+02  0.00000000000E+00 0. -1.
</event>
<event>
 7    1  0.2489154E-013  0.7246157E+02  0.7816164E-02  0.1226708E+00
        -11   -1    0    0    0    0  0.00000000000E+00  0.00000000000E+00  0.45593999997E+02  0.45594000000E+02  0.51100000000E-03 0.  1.
         11   -1    0    0    0    0 -0.00000000000E+00 -0.00000000000E+00 -0.45593999997E+02  0.45594000000E+02  0.51100000000E-03 0. -1.
    9900012    2    1    2    0    0 -0.83181633373E+01  0.98208449938E+01 -0.13602878688E+02  0.72461570914E+02  0.70000000808E+02 0.  0.
        -12    1    1    2    0    0  0.83181633373E+01 -0.98208449938E+01  0.13602878688E+02  0.18726429086E+02  0.00000000000E+00 0.  1.
         11    1    3    3    0    0 -0.51766582908E+01  0.12612159037E+02 -0.37739431031E+01  0.14145917908E+02  0.51100000000E-03 0. -1.
        -11    1    3    3    0    0  0.21855545551E+02  0.99919162777E+01  0.76785908154E+01  0.25228238531E+02  0.51100000000E-03 0.  1.
         12    1    3    3    0    0 -0.24997050597E+02 -0.12783230321E+02 -0.17507526400E+02  0.33087414475E+02  0.00000000000E+00 0. -1.
</event>
<event>
 7    1  0.2489154E-013  0.7246157E+02  0.7816164E-02  0.1226708E+00
        -11   -1    0    0    0    0  0.00000000000E+00  0.00000000000E+00  0.45593999997E+02  0.45594000000E+02  0.51100000000E-03 0.  1.
         11   -1    0    0    0    0 -0.00000000000E+00 -0.00000000000E+00 -0.45593999997E+02  0.45594000000E+02  0.51100000000E-03 0. -1.
    9900012    2    1    2    0    0 -0.10204084296E+02  0.81547586213E+01 -0.13418480919E+02  0.72461573361E+02  0.70000003995E+02 0.  0.
        -12    1    1    2    0    0  0.10204084296E+02 -0.81547586213E+01  0.13418480919E+02  0.18726426639E+02  0.00000000000E+00 0.  1.
         11    1    3    3    0    0 -0.18402389030E+02 -0.10660252581E+02 -0.10865284343E+02  0.23881861553E+02  0.51100000000E-03 0. -1.
        -11    1    3    3    0    0 -0.14860556312E+02 -0.46922919488E+01 -0.84494210100E+00  0.15606654511E+02  0.51100000000E-03 0.  1.
        -12    1    3    3    0    0  0.23058861046E+02  0.23507303151E+02 -0.17082544746E+01  0.32973057297E+02  0.00000000000E+00 0.  1.
</event>
<event>
 7    1  0.2489154E-013  0.7246157E+02  0.7816164E-02  0.1226708E+00
        -11   -1    0    0    0    0  0.00000000000E+00  0.00000000000E+00  0.45593999997E+02  0.45594000000E+02  0.51100000000E-03 0.  1.
         11   -1    0    0    0    0 -0.00000000000E+00 -0.00000000000E+00 -0.45593999997E+02  0.45594000000E+02  0.51100000000E-03 0. -1.
    9900012    2    1    2    0    0 -0.12630013063E+01 -0.56581148072E+01 -0.17806453891E+02  0.72461568529E+02  0.69999997700E+02 0.  0.
        -12    1    1    2    0    0  0.12630013063E+01  0.56581148072E+01  0.17806453891E+02  0.18726431471E+02  0.00000000000E+00 0.  1.
         11    1    3    3    0    0  0.17469470195E+01 -0.81867294021E+01 -0.33394816009E+02  0.34428013284E+02  0.51100000000E-03 0. -1.
        -11    1    3    3    0    0 -0.11611847194E+01 -0.62833590111E+01 -0.94601645382E+01  0.11415939023E+02  0.51100000000E-03 0.  1.
        -12    1    3    3    0    0 -0.18487636064E+01  0.88119736060E+01  0.25048526656E+02  0.26617616222E+02  0.00000000000E+00 0.  1.
</event>
<event>
 7    1  0.2489154E-013  0.7246147E+02  0.7816164E-02  0.1226708E+00
        -11   -1    0    0    0    0  0.00000000000E+00  0.00000000000E+00  0.45593999997E+02  0.45594000000E+02  0.51100000000E-03 0.  1.
         11   -1    0    0    0    0 -0.00000000000E+00 -0.00000000000E+00 -0.45593999997E+02  0.45594000000E+02  0.51100000000E-03 0. -1.
    9900012    2    1    2    0    0 -0.32879557222E+01  0.72363408608E+01 -0.16956055756E+02  0.72461465118E+02  0.69999862989E+02 0.  0.
        -12    1    1    2    0    0  0.32879557222E+01 -0.72363408608E+01  0.16956055756E+02  0.18726534882E+02  0.00000000000E+00 0.  1.
         11    1    3    3    0    0 -0.60818287253E+01 -0.67696099910E+01 -0.10158058179E+02  0.13638269916E+02  0.51100000000E-03 0. -1.
        -11    1    3    3    0    0 -0.17125404848E+01  0.11550021664E+02  0.24482583199E+02  0.27124392633E+02  0.51100000000E-03 0.  1.
         12    1    3    3    0    0  0.45064134879E+01  0.24559291876E+01 -0.31280580775E+02  0.31698802570E+02  0.00000000000E+00 0. -1.
</event>
<event>
 7    1  0.2489154E-013  0.7246159E+02  0.7816164E-02  0.1226708E+00
        -11   -1    0    0    0    0  0.00000000000E+00  0.00000000000E+00  0.45593999997E+02  0.45594000000E+02  0.51100000000E-03 0. -1.
         11   -1    0    0    0    0 -0.00000000000E+00 -0.00000000000E+00 -0.45593999997E+02  0.45594000000E+02  0.51100000000E-03 0.  1.
    9900012    2    1    2    0    0  0.93703429089E+01 -0.21283025645E+01  0.16073126056E+02  0.72461591395E+02  0.70000027487E+02 0.  0.
        -12    1    1    2    0    0 -0.93703429089E+01  0.21283025645E+01 -0.16073126056E+02  0.18726408605E+02  0.00000000000E+00 0.  1.
         11    1    3    3    0    0  0.17725111697E+02 -0.13721945893E+02 -0.10470942606E+02  0.24740897783E+02  0.51100000000E-03 0. -1.
        -11    1    3    3    0    0 -0.47288709223E+01  0.25856023573E+01 -0.92102178214E+01  0.10671254487E+02  0.51100000000E-03 0.  1.
        -12    1    3    3    0    0 -0.36258978660E+01  0.90080409713E+01  0.35754286484E+02  0.37049439125E+02  0.00000000000E+00 0.  1.
</event>
<event>
 7    1  0.2489154E-013  0.7246152E+02  0.7816164E-02  0.1226708E+00
        -11   -1    0    0    0    0  0.00000000000E+00  0.00000000000E+00  0.45593999997E+02  0.45594000000E+02  0.51100000000E-03 0. -1.
         11   -1    0    0    0    0 -0.00000000000E+00 -0.00000000000E+00 -0.45593999997E+02  0.45594000000E+02  0.51100000000E-03 0.  1.
    9900012    2    1    2    0    0  0.82843259465E+01 -0.18511939362E+01  0.16692031207E+02  0.72461524593E+02  0.69999940465E+02 0.  0.
        -12    1    1    2    0    0 -0.82843259465E+01  0.18511939362E+01 -0.16692031207E+02  0.18726475407E+02  0.00000000000E+00 0.  1.
         11    1    3    3    0    0 -0.11674457387E+02  0.28360186611E+02  0.23479797675E+01  0.30758838554E+02  0.51100000000E-03 0.  1.
        -11    1    3    3    0    0  0.22335748383E+01 -0.16742130260E+02  0.65359163341E+01  0.18110935503E+02  0.51100000000E-03 0. -1.
        -12    1    3    3    0    0  0.17725208496E+02 -0.13469250287E+02  0.78081351052E+01  0.23591750536E+02  0.00000000000E+00 0.  1.
</event>
<event>
 7    1  0.2489154E-013  0.7246148E+02  0.7816164E-02  0.1226708E+00
        -11   -1    0    0    0    0  0.00000000000E+00  0.00000000000E+00  0.45593999997E+02  0.45594000000E+02  0.51100000000E-03 0.  1.
         11   -1    0    0    0    0 -0.00000000000E+00 -0.00000000000E+00 -0.45593999997E+02  0.45594000000E+02  0.51100000000E-03 0. -1.
    9900012    2    1    2    0    0  0.38689866790E+01 -0.29919043497E+01 -0.18076554424E+02  0.72461484857E+02  0.69999888702E+02 0.  0.
        -12    1    1    2    0    0 -0.38689866790E+01  0.29919043497E+01  0.18076554424E+02  0.18726515143E+02  0.00000000000E+00 0.  1.
         11    1    3    3    0    0  0.12979884564E+02  0.31948162065E+01 -0.10150184144E+02  0.16784233444E+02  0.51100000000E-03 0. -1.
        -11    1    3    3    0    0 -0.43157115569E+01 -0.14435345299E+02 -0.28924355332E+02  0.32613231852E+02  0.51100000000E-03 0.  1.
        -12    1    3    3    0    0 -0.47951863282E+01  0.82486247433E+01  0.20997985052E+02  0.23064019562E+02  0.00000000000E+00 0.  1.
</event>
<event>
 7    1  0.2489154E-013  0.7246158E+02  0.7816164E-02  0.1226708E+00
        -11   -1    0    0    0    0  0.00000000000E+00  0.00000000000E+00  0.45593999997E+02  0.45594000000E+02  0.51100000000E-03 0.  1.
         11   -1    0    0    0    0 -0.00000000000E+00 -0.00000000000E+00 -0.45593999997E+02  0.45594000000E+02  0.51100000000E-03 0. -1.
    9900012    2    1    2    0    0 -0.12070355755E+02  0.14311094874E+02 -0.42188372266E+00  0.72461577213E+02  0.70000009012E+02 0.  0.
        -12    1    1    2    0    0  0.12070355755E+02 -0.14311094874E+02  0.42188372266E+00  0.18726422787E+02  0.00000000000E+00 0.  1.
         11    1    3    3    0    0  0.33323896660E+01 -0.26466330395E+00 -0.45494391454E+01  0.56455526168E+01  0.51100000000E-03 0. -1.
        -11    1    3    3    0    0 -0.83409793667E+01 -0.22530730516E+02 -0.10618701662E+02  0.26267138779E+02  0.51100000000E-03 0.  1.
         12    1    3    3    0    0 -0.70617660543E+01  0.37106488694E+02  0.14746257085E+02  0.40548885817E+02  0.00000000000E+00 0. -1.
</event>
<event>
 7    1  0.2489154E-013  0.7246158E+02  0.7816164E-02  0.1226708E+00
        -11   -1    0    0    0    0  0.00000000000E+00  0.00000000000E+00  0.45593999997E+02  0.45594000000E+02  0.51100000000E-03 0. -1.
         11   -1    0    0    0    0 -0.00000000000E+00 -0.00000000000E+00 -0.45593999997E+02  0.45594000000E+02  0.51100000000E-03 0.  1.
    9900012    2    1    2    0    0  0.15656155240E+02 -0.24774543932E+01 -0.99712528056E+01  0.72461578567E+02  0.70000010777E+02 0.  0.
        -12    1    1    2    0    0 -0.15656155240E+02  0.24774543932E+01  0.99712528056E+01  0.18726421433E+02  0.00000000000E+00 0.  1.
         11    1    3    3    0    0  0.20155007598E+02 -0.29468028100E+01  0.20096670143E+00  0.20370281440E+02  0.51100000000E-03 0. -1.
        -11    1    3    3    0    0  0.21501489733E+02 -0.29275949643E+01  0.43287128213E+01  0.22127418014E+02  0.51100000000E-03 0.  1.
         12    1    3    3    0    0 -0.26000342091E+02  0.33969433812E+01 -0.14500932328E+02  0.29963879114E+02  0.00000000000E+00 0. -1.
</event>
<event>
 7    1  0.2489154E-013  0.7246164E+02  0.7816164E-02  0.1226708E+00
        -11   -1    0    0    0    0  0.00000000000E+00  0.00000000000E+00  0.45593999997E+02  0.45594000000E+02  0.51100000000E-03 0.  1.
         11   -1    0    0    0    0 -0.00000000000E+00 -0.00000000000E+00 -0.45593999997E+02  0.45594000000E+02  0.51100000000E-03 0. -1.
    9900012    2    1    2    0    0 -0.17464483950E+02  0.48252229189E+01 -0.47313291909E+01  0.72461642859E+02  0.70000094529E+02 0.  0.
        -12    1    1    2    0    0  0.17464483950E+02 -0.48252229189E+01  0.47313291909E+01  0.18726357141E+02  0.00000000000E+00 0.  1.
         11    1    3    3    0    0 -0.22369097313E+02  0.14826321528E+02 -0.10770016658E+02  0.28916942848E+02  0.51100000000E-03 0. -1.
        -11    1    3    3    0    0  0.54547715950E+01 -0.23984733580E+02 -0.57343192925E+01  0.25256769311E+02  0.51100000000E-03 0.  1.
         12    1    3    3    0    0 -0.55015823230E+00  0.13983634971E+02  0.11773006760E+02  0.18287930699E+02  0.00000000000E+00 0. -1.
</event>
<event>
 7    1  0.2489154E-013  0.7246161E+02  0.7816164E-02  0.1226708E+00
        -11   -1    0    0    0    0  0.00000000000E+00  0.00000000000E+00  0.45593999997E+02  0.45594000000E+02  0.51100000000E-03 0.  1.
         11   -1    0    0    0    0 -0.00000000000E+00 -0.00000000000E+00 -0.45593999997E+02  0.45594000000E+02  0.51100000000E-03 0. -1.
    9900012    2    1    2    0    0 -0.17185085261E+02 -0.60697465526E+01  0.43021615181E+01  0.72461612938E+02  0.70000055552E+02 0.  0.
        -12    1    1    2    0    0  0.17185085261E+02  0.60697465526E+01 -0.43021615181E+01  0.18726387062E+02  0.00000000000E+00 0.  1.
         11    1    3    3    0    0 -0.14631876093E+02  0.17960181501E+02 -0.20198058670E+02  0.30734695246E+02  0.51100000000E-03 0. -1.
        -11    1    3    3    0    0 -0.69965973867E+01  0.15668424832E+01  0.22305474684E+01  0.75088422962E+01  0.51100000000E-03 0.  1.
        -12    1    3    3    0    0  0.44433882188E+01 -0.25596770537E+02  0.22269672720E+02  0.34218075396E+02  0.00000000000E+00 0.  1.
</event>
<event>
 7    1  0.2489154E-013  0.7246159E+02  0.7816164E-02  0.1226708E+00
        -11   -1    0    0    0    0  0.00000000000E+00  0.00000000000E+00  0.45593999997E+02  0.45594000000E+02  0.51100000000E-03 0.  1.
         11   -1    0    0    0    0 -0.00000000000E+00 -0.00000000000E+00 -0.45593999997E+02  0.45594000000E+02  0.51100000000E-03 0. -1.
    9900012    2    1    2    0    0  0.67843358079E+01  0.17336818231E+02 -0.20214171044E+01  0.72461585345E+02  0.70000019606E+02 0.  0.
        -12    1    1    2    0    0 -0.67843358079E+01 -0.17336818231E+02  0.20214171044E+01  0.18726414655E+02  0.00000000000E+00 0.  1.
         11    1    3    3    0    0  0.13043889787E+02  0.61026885090E+00 -0.13320385564E+02  0.18653368615E+02  0.51100000000E-03 0. -1.
        -11    1    3    3    0    0 -0.36596897664E+01 -0.14235977313E+02  0.16725377706E+02  0.22266446481E+02  0.51100000000E-03 0.  1.
        -12    1    3    3    0    0 -0.25998642126E+01  0.30962526693E+02 -0.54264092460E+01  0.31541770249E+02  0.00000000000E+00 0.  1.
</event>
<event>
 7    1  0.2489154E-013  0.7246143E+02  0.7816164E-02  0.1226708E+00
        -11   -1    0    0    0    0  0.00000000000E+00  0.00000000000E+00  0.45593999997E+02  0.45594000000E+02  0.51100000000E-03 0. -1.
         11   -1    0    0    0    0 -0.00000000000E+00 -0.00000000000E+00 -0.45593999997E+02  0.45594000000E+02  0.51100000000E-03 0.  1.
    9900012    2    1    2    0    0 -0.12477713364E+01  0.17194864236E+02  0.73119073475E+01  0.72461433885E+02  0.69999822301E+02 0.  0.
        -12    1    1    2    0    0  0.12477713364E+01 -0.17194864236E+02 -0.73119073475E+01  0.18726566115E+02  0.00000000000E+00 0.  1.
         11    1    3    3    0    0  0.11095650118E+02  0.26525335067E+02 -0.14983370456E+02  0.32422341718E+02  0.51100000000E-03 0. -1.
        -11    1    3    3    0    0 -0.82120355917E+01  0.71905081371E+01 -0.12436890996E+01  0.10985795313E+02  0.51100000000E-03 0.  1.
        -12    1    3    3    0    0 -0.41313858628E+01 -0.16520978969E+02  0.23538966903E+02  0.29053296854E+02  0.00000000000E+00 0.  1.
</event>
<event>
 7    1  0.2489154E-013  0.7246155E+02  0.7816164E-02  0.1226708E+00
        -11   -1    0    0    0    0  0.00000000000E+00  0.00000000000E+00  0.45593999997E+02  0.45594000000E+02  0.51100000000E-03 0.  1.
         11   -1    0    0    0    0 -0.00000000000E+00 -0.00000000000E+00 -0.45593999997E+02  0.45594000000E+02  0.51100000000E-03 0. -1.
    9900012    2    1    2    0    0 -0.84821561345E+01  0.12506133044E+01  0.16648387456E+02  0.72461553161E+02  0.69999977681E+02 0.  0.
        -12    1    1    2    0    0  0.84821561345E+01 -0.12506133044E+01 -0.16648387456E+02  0.18726446839E+02  0.00000000000E+00 0.  1.
         11    1    3    3    0    0  0.15856626913E+01 -0.28342849454E+01 -0.25587790250E+01  0.41345915980E+01  0.51100000000E-03 0. -1.
        -11    1    3    3    0    0 -0.87099936476E+01  0.29631119780E+02 -0.70379185515E+01  0.31676482548E+02  0.51100000000E-03 0.  1.
         12    1    3    3    0    0 -0.13578251782E+01 -0.25546221531E+02  0.26245085032E+02  0.36650479016E+02  0.00000000000E+00 0. -1.
</event>
<event>
 7    1  0.2489154E-013  0.7246151E+02  0.7816164E-02  0.1226708E+00
        -11   -1    0    0    0    0  0.00000000000E+00  0.00000000000E+00  0.45593999997E+02  0.45594000000E+02  0.51100000000E-03 0. -1.
         11   -1    0    0    0    0 -0.00000000000E+00 -0.00000000000E+00 -0.45593999997E+02  0.45594000000E+02  0.51100000000E-03 0.  1.
    9900012    2    1    2    0    0  0.15843994046E+02 -0.89334031413E+01 -0.44546161661E+01  0.72461509560E+02  0.69999920882E+02 0.  0.
        -12    1    1    2    0    0 -0.15843994046E+02  0.89334031413E+01  0.44546161661E+01  0.18726490440E+02  0.00000000000E+00 0.  1.
         11    1    3    3    0    0  0.11334797797E+02  0.58860232586E+00 -0.26720806472E+01  0.11660364876E+02  0.51100000000E-03 0. -1.
        -11    1    3    3    0    0  0.24221745898E+02  0.15455677935E+02 -0.34443250406E+01  0.28938457631E+02  0.51100000000E-03 0.  1.
         12    1    3    3    0    0 -0.19712549649E+02 -0.24977683402E+02  0.16617895217E+01  0.31862687053E+02  0.00000000000E+00 0. -1.
</event>
<event>
 7    1  0.2489154E-013  0.7246160E+02  0.7816164E-02  0.1226708E+00
        -11   -1    0    0    0    0  0.00000000000E+00  0.00000000000E+00  0.45593999997E+02  0.45594000000E+02  0.51100000000E-03 0. -1.
         11   -1    0    0    0    0 -0.00000000000E+00 -0.00000000000E+00 -0.45593999997E+02  0.45594000000E+02  0.51100000000E-03 0.  1.
    9900012    2    1    2    0    0  0.10928670236E+02 -0.87373873181E+01  0.12445900626E+02  0.72461595842E+02  0.70000033281E+02 0.  0.
        -12    1    1    2    0    0 -0.10928670236E+02  0.87373873181E+01 -0.12445900626E+02  0.18726404158E+02  0.00000000000E+00 0.  1.
         11    1    3    3    0    0 -0.31670356247E+01  0.60991512612E+01  0.15881529632E+02  0.17304702958E+02  0.51100000000E-03 0. -1.
        -11    1    3    3    0    0  0.88504632027E+01 -0.12730183163E+02  0.23213377405E+02  0.27915034535E+02  0.51100000000E-03 0.  1.
        -12    1    3    3    0    0  0.52452426583E+01 -0.21063554159E+01 -0.26649006410E+02  0.27241858350E+02  0.00000000000E+00 0.  1.
</event>
<event>
 7    1  0.2489154E-013  0.7246167E+02  0.7816164E-02  0.1226708E+00
        -11   -1    0    0    0    0  0.00000000000E+00  0.00000000000E+00  0.45593999997E+02  0.45594000000E+02  0.51100000000E-03 0.  1.
         11   -1    0    0    0    0 -0.00000000000E+00 -0.00000000000E+00 -0.45593999997E+02  0.45594000000E+02  0.51100000000E-03 0. -1.
    9900012    2    1    2    0    0  0.31448029575E+01 -0.18424318960E+02 -0.11533394123E+01  0.72461668096E+02  0.70000127405E+02 0.  0.
        -12    1    1    2    0    0 -0.31448029575E+01  0.18424318960E+02  0.11533394123E+01  0.18726331904E+02  0.00000000000E+00 0.  1.
         11    1    3    3    0    0 -0.12079173297E+02 -0.12043344529E+02 -0.76258737186E+01  0.18684285516E+02  0.51100000000E-03 0. -1.
        -11    1    3    3    0    0 -0.13359229319E+02 -0.17477160331E+02 -0.16449083241E+01  0.22059598022E+02  0.51100000000E-03 0.  1.
        -12    1    3    3    0    0  0.28583205574E+02  0.11096185901E+02  0.81174426304E+01  0.31717784558E+02  0.00000000000E+00 0.  1.
</event>
<event>
 7    1  0.2489154E-013  0.7246156E+02  0.7816164E-02  0.1226708E+00
        -11   -1    0    0    0    0  0.00000000000E+00  0.00000000000E+00  0.45593999997E+02  0.45594000000E+02  0.51100000000E-03 0. -1.
         11   -1    0    0    0    0 -0.00000000000E+00 -0.00000000000E+00 -0.45593999997E+02  0.45594000000E+02  0.51100000000E-03 0.  1.
    9900012    2    1    2    0    0 -0.18520419842E+02 -0.15044101704E+01 -0.23260516674E+01  0.72461555665E+02  0.69999980942E+02 0.  0.
        -12    1    1    2    0    0  0.18520419842E+02  0.15044101704E+01  0.23260516674E+01  0.18726444335E+02  0.00000000000E+00 0.  1.
         11    1    3    3    0    0  0.89344410721E+01 -0.20646704463E+02  0.18367661518E+01  0.22571760069E+02  0.51100000000E-03 0. -1.
        -11    1    3    3    0    0  0.91841895971E+01  0.28598781144E+01 -0.10054471830E+01  0.96715648001E+01  0.51100000000E-03 0.  1.
        -12    1    3    3    0    0 -0.36639050511E+02  0.16282416179E+02 -0.31573706363E+01  0.40218230795E+02  0.00000000000E+00 0.  1.
</event>
<event>
 7    1  0.2489154E-013  0.7246157E+02  0.7816164E-02  0.1226708E+00
        -11   -1    0    0    0    0  0.00000000000E+00  0.00000000000E+00  0.45593999997E+02  0.45594000000E+02  0.51100000000E-03 0. -1.
         11   -1    0    0    0    0 -0.00000000000E+00 -0.00000000000E+00 -0.45593999997E+02  0.45594000000E+02  0.51100000000E-03 0.  1.
    9900012    2    1    2    0    0  0.18607546718E+02  0.17232996473E+01  0.12118941540E+01  0.72461568307E+02  0.69999997411E+02 0.  0.
        -12    1    1    2    0    0 -0.18607546718E+02 -0.17232996473E+01 -0.12118941540E+01  0.18726431693E+02  0.00000000000E+00 0.  1.
         11    1    3    3    0    0  0.24504941667E+02  0.17772433457E+02  0.51420555775E+01  0.30704922942E+02  0.51100000000E-03 0. -1.
        -11    1    3    3    0    0  0.20223910240E+00  0.84128614929E+01 -0.12552179461E+02  0.15112059709E+02  0.51100000000E-03 0.  1.
        -12    1    3    3    0    0 -0.60996340516E+01 -0.24461995302E+02  0.86220180375E+01  0.26644585656E+02  0.00000000000E+00 0.  1.
</event>
<event>
 7    1  0.2489154E-013  0.7246140E+02  0.7816164E-02  0.1226708E+00
        -11   -1    0    0    0    0  0.00000000000E+00  0.00000000000E+00  0.45593999997E+02  0.45594000000E+02  0.51100000000E-03 0. -1.
         11   -1    0    0    0    0 -0.00000000000E+00 -0.00000000000E+00 -0.45593999997E+02  0.45594000000E+02  0.51100000000E-03 0.  1.
    9900012    2    1    2    0    0 -0.14315282045E+02 -0.11779970269E+02 -0.26439423934E+01  0.72461403114E+02  0.69999782216E+02 0.  0.
        -12    1    1    2    0    0  0.14315282045E+02  0.11779970269E+02  0.26439423934E+01  0.18726596886E+02  0.00000000000E+00 0.  1.
         11    1    3    3    0    0 -0.15102530701E+02  0.69225921304E+01 -0.10031032776E+02  0.19406966125E+02  0.51100000000E-03 0. -1.
        -11    1    3    3    0    0 -0.16324863478E+02 -0.27582785906E+02 -0.91271447994E+00  0.32064689206E+02  0.51100000000E-03 0.  1.
         12    1    3    3    0    0  0.17112112134E+02  0.88802235072E+01  0.82998048626E+01  0.20989747782E+02  0.00000000000E+00 0. -1.
</event>
<event>
 7    1  0.2489154E-013  0.7246156E+02  0.7816164E-02  0.1226708E+00
        -11   -1    0    0    0    0  0.00000000000E+00  0.00000000000E+00  0.45593999997E+02  0.45594000000E+02  0.51100000000E-03 0. -1.
         11   -1    0    0    0    0 -0.00000000000E+00 -0.00000000000E+00 -0.45593999997E+02  0.45594000000E+02  0.51100000000E-03 0.  1.
    9900012    2    1    2    0    0  0.15489798493E+02 -0.10456094222E+02 -0.11898400642E+01  0.72461561922E+02  0.69999989093E+02 0.  0.
        -12    1    1    2    0    0 -0.15489798493E+02  0.10456094222E+02  0.11898400642E+01  0.18726438078E+02  0.00000000000E+00 0.  1.
         11    1    3    3    0    0  0.14830562839E+02  0.67235311195E+01 -0.14757303656E+02  0.21975656448E+02  0.51100000000E-03 0.  1.
        -11    1    3    3    0    0 -0.16398358759E+02 -0.11195322026E+02  0.22761935162E+02  0.30205083973E+02  0.51100000000E-03 0. -1.
         12    1    3    3    0    0  0.17057594412E+02 -0.59843033159E+01 -0.91944715699E+01  0.20280821501E+02  0.00000000000E+00 0. -1.
</event>
<event>
 7    1  0.2489154E-013  0.7246164E+02  0.7816164E-02  0.1226708E+00
        -11   -1    0    0    0    0  0.00000000000E+00  0.00000000000E+00  0.45593999997E+02  0.45594000000E+02  0.51100000000E-03 0.  1.
         11   -1    0    0    0    0 -0.00000000000E+00 -0.00000000000E+00 -0.45593999997E+02  0.45594000000E+02  0.51100000000E-03 0. -1.
    9900012    2    1    2    0    0  0.86022910809E+01  0.13426828280E+02 -0.98182123153E+01  0.72461643639E+02  0.70000095545E+02 0.  0.
        -12    1    1    2    0    0 -0.86022910809E+01 -0.13426828280E+02  0.98182123153E+01  0.18726356361E+02  0.00000000000E+00 0.  1.
         11    1    3    3    0    0  0.16758702612E+01 -0.40554990561E+01 -0.74240340633E+01  0.86239141787E+01  0.51100000000E-03 0. -1.
        -11    1    3    3    0    0  0.23569005998E+01 -0.18891016913E+02 -0.15865309090E+02  0.24781717722E+02  0.51100000000E-03 0.  1.
         12    1    3    3    0    0  0.45695202199E+01  0.36373344249E+02  0.13471130838E+02  0.39056011739E+02  0.00000000000E+00 0. -1.
</event>
<event>
 7    1  0.2489154E-013  0.7246158E+02  0.7816164E-02  0.1226708E+00
        -11   -1    0    0    0    0  0.00000000000E+00  0.00000000000E+00  0.45593999997E+02  0.45594000000E+02  0.51100000000E-03 0. -1.
         11   -1    0    0    0    0 -0.00000000000E+00 -0.00000000000E+00 -0.45593999997E+02  0.45594000000E+02  0.51100000000E-03 0.  1.
    9900012    2    1    2    0    0 -0.15250139892E+02 -0.89344465055E+01 -0.61877014038E+01  0.72461581502E+02  0.70000014600E+02 0.  0.
        -12    1    1    2    0    0  0.15250139892E+02  0.89344465055E+01  0.61877014038E+01  0.18726418498E+02  0.00000000000E+00 0.  1.
         11    1    3    3    0    0 -0.10700492110E+02 -0.92916502726E+01 -0.24063695653E+02  0.27926631464E+02  0.51100000000E-03 0. -1.
        -11    1    3    3    0    0  0.16052877147E+02 -0.36167478545E+00 -0.16487173202E+01  0.16141373622E+02  0.51100000000E-03 0.  1.
         12    1    3    3    0    0 -0.20602524929E+02  0.71887855250E+00  0.19524711570E+02  0.28393576416E+02  0.00000000000E+00 0. -1.
</event>
<event>
 7    1  0.2489154E-013  0.7246165E+02  0.7816164E-02  0.1226708E+00
        -11   -1    0    0    0    0  0.00000000000E+00  0.00000000000E+00  0.45593999997E+02  0.45594000000E+02  0.51100000000E-03 0. -1.
         11   -1    0    0    0    0 -0.00000000000E+00 -0.00000000000E+00 -0.45593999997E+02  0.45594000000E+02  0.51100000000E-03 0.  1.
    9900012    2    1    2    0    0  0.12376463119E+02  0.34676535547E+00  0.14049162150E+02  0.72461653782E+02  0.70000108759E+02 0.  0.
        -12    1    1    2    0    0 -0.12376463119E+02 -0.34676535547E+00 -0.14049162150E+02  0.18726346218E+02  0.00000000000E+00 0.  1.
         11    1    3    3    0    0  0.19984289866E+02 -0.21764465857E+02  0.15904357210E+02  0.33556108147E+02  0.51100000000E-03 0. -1.
        -11    1    3    3    0    0  0.98338460477E+01  0.17601000736E+02 -0.46062284046E+01  0.20681322380E+02  0.51100000000E-03 0.  1.
         12    1    3    3    0    0 -0.17441672794E+02  0.45102304763E+01  0.27510333445E+01  0.18224223256E+02  0.00000000000E+00 0. -1.
</event>
<event>
 7    1  0.2489154E-013  0.7246157E+02  0.7816164E-02  0.1226708E+00
        -11   -1    0    0    0    0  0.00000000000E+00  0.00000000000E+00  0.45593999997E+02  0.45594000000E+02  0.51100000000E-03 0. -1.
         11   -1    0    0    0    0 -0.00000000000E+00 -0.00000000000E+00 -0.45593999997E+02  0.45594000000E+02  0.51100000000E-03 0.  1.
    9900012    2    1    2    0    0 -0.79135401074E+01 -0.14064594059E+02  0.94995924071E+01  0.72461570042E+02  0.69999999671E+02 0.  0.
        -12    1    1    2    0    0  0.79135401074E+01  0.14064594059E+02 -0.94995924071E+01  0.18726429958E+02  0.00000000000E+00 0.  1.
         11    1    3    3    0    0  0.21636571091E+01 -0.18254681790E+02 -0.34289620878E+01  0.18699534769E+02  0.51100000000E-03 0. -1.
        -11    1    3    3    0    0 -0.26855954550E+02  0.11760465351E+00 -0.66404111025E+01  0.27664981213E+02  0.51100000000E-03 0.  1.
         12    1    3    3    0    0  0.16778757333E+02  0.40724830777E+01  0.19568965597E+02  0.26097054060E+02  0.00000000000E+00 0. -1.
</event>
<event>
 7    1  0.2489154E-013  0.7246160E+02  0.7816164E-02  0.1226708E+00
        -11   -1    0    0    0    0  0.00000000000E+00  0.00000000000E+00  0.45593999997E+02  0.45594000000E+02  0.51100000000E-03 0. -1.
         11   -1    0    0    0    0 -0.00000000000E+00 -0.00000000000E+00 -0.45593999997E+02  0.45594000000E+02  0.51100000000E-03 0.  1.
    9900012    2    1    2    0    0 -0.32383096104E+01  0.10432216941E+01  0.18414754202E+02  0.72461597971E+02  0.70000036053E+02 0.  0.
        -12    1    1    2    0    0  0.32383096104E+01 -0.10432216941E+01 -0.18414754202E+02  0.18726402029E+02  0.00000000000E+00 0.  1.
         11    1    3    3    0    0 -0.12775507852E+02  0.37684031257E+01  0.12826057228E+02  0.18491138615E+02  0.51100000000E-03 0. -1.
        -11    1    3    3    0    0 -0.93665121242E+01 -0.22851860844E+02  0.86977605027E+01  0.26183776111E+02  0.51100000000E-03 0.  1.
        -12    1    3    3    0    0  0.18903710366E+02  0.20126679412E+02 -0.31090635286E+01  0.27786683245E+02  0.00000000000E+00 0.  1.
</event>
<event>
 7    1  0.2489154E-013  0.7246148E+02  0.7816164E-02  0.1226708E+00
        -11   -1    0    0    0    0  0.00000000000E+00  0.00000000000E+00  0.45593999997E+02  0.45594000000E+02  0.51100000000E-03 0. -1.
         11   -1    0    0    0    0 -0.00000000000E+00 -0.00000000000E+00 -0.45593999997E+02  0.45594000000E+02  0.51100000000E-03 0.  1.
    9900012    2    1    2    0    0 -0.57611663552E+01  0.11155836188E+02  0.13893841429E+02  0.72461480075E+02  0.69999882473E+02 0.  0.
        -12    1    1    2    0    0  0.57611663552E+01 -0.11155836188E+02 -0.13893841429E+02  0.18726519925E+02  0.00000000000E+00 0.  1.
         11    1    3    3    0    0 -0.14905392593E+02  0.27503266544E+02 -0.35702792208E+01  0.31485668056E+02  0.51100000000E-03 0. -1.
        -11    1    3    3    0    0 -0.80667935868E+01 -0.23614286494E+01  0.16803856440E+02  0.18788802398E+02  0.51100000000E-03 0.  1.
        -12    1    3    3    0    0  0.17211019825E+02 -0.13986001706E+02  0.66026421035E+00  0.22187009622E+02  0.00000000000E+00 0.  1.
</event>
<event>
 7    1  0.2489154E-013  0.7246162E+02  0.7816164E-02  0.1226708E+00
        -11   -1    0    0    0    0  0.00000000000E+00  0.00000000000E+00  0.45593999997E+02  0.45594000000E+02  0.51100000000E-03 0. -1.
         11   -1    0    0    0    0 -0.00000000000E+00 -0.00000000000E+00 -0.45593999997E+02  0.45594000000E+02  0.51100000000E-03 0.  1.
    9900012    2    1    2    0    0 -0.12785777729E+02 -0.12373063775E+02  0.58402626129E+01  0.72461615226E+02  0.70000058532E+02 0.  0.
        -12    1    1    2    0    0  0.12785777729E+02  0.12373063775E+02 -0.58402626129E+01  0.18726384774E+02  0.00000000000E+00 0.  1.
         11    1    3    3    0    0  0.15151117051E+02 -0.15631367306E+01 -0.81343907370E+01  0.17267543463E+02  0.51100000000E-03 0. -1.
        -11    1    3    3    0    0 -0.38255397740E+01 -0.14347205771E+02 -0.12355885840E+02  0.19316961023E+02  0.51100000000E-03 0.  1.
        -12    1    3    3    0    0 -0.24111355006E+02  0.35372787265E+01  0.26330539190E+02  0.35877110740E+02  0.00000000000E+00 0.  1.
</event>
<event>
 7    1  0.2489154E-013  0.7246157E+02  0.7816164E-02  0.1226708E+00
        -11   -1    0    0    0    0  0.00000000000E+00  0.00000000000E+00  0.45593999997E+02  0.45594000000E+02  0.51100000000E-03 0.  1.
         11   -1    0    0    0    0 -0.00000000000E+00 -0.00000000000E+00 -0.45593999997E+02  0.45594000000E+02  0.51100000000E-03 0. -1.
    9900012    2    1    2    0    0  0.84905895535E+01 -0.40726149619E+01 -0.16186498822E+02  0.72461573547E+02  0.70000004237E+02 0.  0.
        -12    1    1    2    0    0 -0.84905895535E+01  0.40726149619E+01  0.16186498822E+02  0.18726426453E+02  0.00000000000E+00 0.  1.
         11    1    3    3    0    0 -0.22984323798E+02 -0.57967528390E+01 -0.29791278968E+01  0.23890514587E+02  0.51100000000E-03 0. -1.
        -11    1    3    3    0    0 -0.62781978033E+01  0.47478240038E+01  0.13679322442E+01  0.79892952952E+01  0.51100000000E-03 0.  1.
         12    1    3    3    0    0  0.37753111155E+02 -0.30236861267E+01 -0.14575303169E+02  0.40581763665E+02  0.00000000000E+00 0. -1.
</event>
<event>
 7    1  0.2489154E-013  0.7246164E+02  0.7816164E-02  0.1226708E+00
        -11   -1    0    0    0    0  0.00000000000E+00  0.00000000000E+00  0.45593999997E+02  0.45594000000E+02  0.51100000000E-03 0.  1.
         11   -1    0    0    0    0 -0.00000000000E+00 -0.00000000000E+00 -0.45593999997E+02  0.45594000000E+02  0.51100000000E-03 0. -1.
    9900012    2    1    2    0    0 -0.72984880726E+00 -0.12214925220E+02  0.14175307945E+02  0.72461643367E+02  0.70000095191E+02 0.  0.
        -12    1    1    2    0    0  0.72984880726E+00  0.12214925220E+02 -0.14175307945E+02  0.18726356633E+02  0.00000000000E+00 0.  1.
         11    1    3    3    0    0 -0.15846951015E+02  0.17482190152E+02  0.53338717586E+01  0.24190969744E+02  0.51100000000E-03 0. -1.
        -11    1    3    3    0    0 -0.64414464287E+01  0.39692822024E+00  0.92142946812E+01  0.11249578252E+02  0.51100000000E-03 0.  1.
         12    1    3    3    0    0  0.21558548636E+02 -0.30094043592E+02 -0.37285849483E+00  0.37021095371E+02  0.00000000000E+00 0. -1.
</event>
<event>
 7    1  0.2489154E-013  0.7246156E+02  0.7816164E-02  0.1226708E+00
        -11   -1    0    0    0    0  0.00000000000E+00  0.00000000000E+00  0.45593999997E+02  0.45594000000E+02  0.51100000000E-03 0.  1.
         11   -1    0    0    0    0 -0.00000000000E+00 -0.00000000000E+00 -0.45593999997E+02  0.45594000000E+02  0.51100000000E-03 0. -1.
    9900012    2    1    2    0    0  0.96714677789E+01 -0.66900410753E+01 -0.14573456082E+02  0.72461559848E+02  0.69999986392E+02 0.  0.
        -12    1    1    2    0    0 -0.96714677789E+01  0.66900410753E+01  0.14573456082E+02  0.18726440152E+02  0.00000000000E+00 0.  1.
         11    1    3    3    0    0  0.12473938301E+02  0.14433343495E+02 -0.27368016375E+02  0.33360588450E+02  0.51100000000E-03 0. -1.
        -11    1    3    3    0    0  0.62636812496E+01  0.47711103945E+01  0.80453461148E+01  0.11257210647E+02  0.51100000000E-03 0.  1.
        -12    1    3    3    0    0 -0.90661517714E+01 -0.25894494965E+02  0.47492141783E+01  0.27843760750E+02  0.00000000000E+00 0.  1.
</event>
<event>
 7    1  0.2489154E-013  0.7246182E+02  0.7816164E-02  0.1226707E+00
        -11   -1    0    0    0    0  0.00000000000E+00  0.00000000000E+00  0.45593999997E+02  0.45594000000E+02  0.51100000000E-03 0.  1.
         11   -1    0    0    0    0 -0.00000000000E+00 -0.00000000000E+00 -0.45593999997E+02  0.45594000000E+02  0.51100000000E-03 0. -1.
    9900012    2    1    2    0    0 -0.39292110750E+00  0.18617676245E+02 -0.19742398294E+01  0.72461818364E+02  0.70000323156E+02 0.  0.
        -12    1    1    2    0    0  0.39292110750E+00 -0.18617676245E+02  0.19742398294E+01  0.18726181636E+02  0.00000000000E+00 0.  1.
         11    1    3    3    0    0  0.80708241080E+01 -0.53572516483E+01 -0.25406206225E+02  0.27190322948E+02  0.51100000000E-03 0. -1.
        -11    1    3    3    0    0 -0.50663002537E+01  0.19275297491E+02 -0.12000180397E+01  0.19966084624E+02  0.51100000000E-03 0.  1.
        -12    1    3    3    0    0 -0.33974449618E+01  0.46996304021E+01  0.24631984435E+02  0.25305410793E+02  0.00000000000E+00 0.  1.
</event>
<event>
 7    1  0.2489154E-013  0.7246155E+02  0.7816164E-02  0.1226708E+00
        -11   -1    0    0    0    0  0.00000000000E+00  0.00000000000E+00  0.45593999997E+02  0.45594000000E+02  0.51100000000E-03 0.  1.
         11   -1    0    0    0    0 -0.00000000000E+00 -0.00000000000E+00 -0.45593999997E+02  0.45594000000E+02  0.51100000000E-03 0. -1.
    9900012    2    1    2    0    0 -0.86410268845E+01  0.80114575865E+00 -0.16594300402E+02  0.72461548495E+02  0.69999971602E+02 0.  0.
        -12    1    1    2    0    0  0.86410268845E+01 -0.80114575865E+00  0.16594300402E+02  0.18726451505E+02  0.00000000000E+00 0.  1.
         11    1    3    3    0    0 -0.75482161775E+01  0.31922419152E+01 -0.28890151642E+01  0.86897862337E+01  0.51100000000E-03 0. -1.
        -11    1    3    3    0    0  0.65210036599E+01  0.15027067330E+01  0.24099740015E+02  0.25011579025E+02  0.51100000000E-03 0.  1.
         12    1    3    3    0    0 -0.76138143669E+01 -0.38938028895E+01 -0.37805025253E+02  0.38760183236E+02  0.00000000000E+00 0. -1.
</event>
<event>
 7    1  0.2489154E-013  0.7246183E+02  0.7816164E-02  0.1226707E+00
        -11   -1    0    0    0    0  0.00000000000E+00  0.00000000000E+00  0.45593999997E+02  0.45594000000E+02  0.51100000000E-03 0.  1.
         11   -1    0    0    0    0 -0.00000000000E+00 -0.00000000000E+00 -0.45593999997E+02  0.45594000000E+02  0.51100000000E-03 0. -1.
    9900012    2    1    2    0    0  0.18194758399E+02 -0.28647178295E+01 -0.33784258519E+01  0.72461825734E+02  0.70000332756E+02 0.  0.
        -12    1    1    2    0    0 -0.18194758399E+02  0.28647178295E+01  0.33784258519E+01  0.18726174266E+02  0.00000000000E+00 0.  1.
         11    1    3    3    0    0  0.17238657197E+02 -0.74342196693E+01 -0.26750787161E+02  0.32680935392E+02  0.51100000000E-03 0. -1.
        -11    1    3    3    0    0  0.14545450436E+02 -0.31263237099E+01  0.50624061698E+01  0.15715342338E+02  0.51100000000E-03 0.  1.
        -12    1    3    3    0    0 -0.13589349234E+02  0.76958255497E+01  0.18309955140E+02  0.24065548004E+02  0.00000000000E+00 0.  1.
</event>
<event>
 7    1  0.2489154E-013  0.7246157E+02  0.7816164E-02  0.1226708E+00
        -11   -1    0    0    0    0  0.00000000000E+00  0.00000000000E+00  0.45593999997E+02  0.45594000000E+02  0.51100000000E-03 0.  1.
         11   -1    0    0    0    0 -0.00000000000E+00 -0.00000000000E+00 -0.45593999997E+02  0.45594000000E+02  0.51100000000E-03 0. -1.
    9900012    2    1    2    0    0 -0.17204552272E+02 -0.54724082473E+01 -0.49734436080E+01  0.72461574494E+02  0.70000005471E+02 0.  0.
        -12    1    1    2    0    0  0.17204552272E+02  0.54724082473E+01  0.49734436080E+01  0.18726425506E+02  0.00000000000E+00 0.  1.
         11    1    3    3    0    0 -0.53592090735E+01  0.14035543421E+01  0.20017061485E+02  0.20769541098E+02  0.51100000000E-03 0. -1.
        -11    1    3    3    0    0 -0.47240784306E+01  0.11664081819E+01  0.12118820910E+02  0.13059220711E+02  0.51100000000E-03 0.  1.
         12    1    3    3    0    0 -0.71212647678E+01 -0.80423707713E+01 -0.37109326003E+02  0.38632812685E+02  0.00000000000E+00 0. -1.
</event>
<event>
 7    1  0.2489154E-013  0.7246168E+02  0.7816164E-02  0.1226708E+00
        -11   -1    0    0    0    0  0.00000000000E+00  0.00000000000E+00  0.45593999997E+02  0.45594000000E+02  0.51100000000E-03 0.  1.
         11   -1    0    0    0    0 -0.00000000000E+00 -0.00000000000E+00 -0.45593999997E+02  0.45594000000E+02  0.51100000000E-03 0. -1.
    9900012    2    1    2    0    0 -0.17060127740E+02 -0.24803348212E+01 -0.73126709771E+01  0.72461676919E+02  0.70000138898E+02 0.  0.
        -12    1    1    2    0    0  0.17060127740E+02  0.24803348212E+01  0.73126709771E+01  0.18726323081E+02  0.00000000000E+00 0.  1.
         11    1    3    3    0    0  0.10831027133E+01  0.10812061942E-01  0.14435927563E+02  0.14476506251E+02  0.51100000000E-03 0. -1.
        -11    1    3    3    0    0 -0.28984430737E+02  0.99754784254E+01  0.25187033167E-01  0.30653026435E+02  0.51100000000E-03 0.  1.
         12    1    3    3    0    0  0.10841200284E+02 -0.12466625308E+02 -0.21773785573E+02  0.27332144233E+02  0.00000000000E+00 0. -1.
</event>
<event>
 7    1  0.2489154E-013  0.7246172E+02  0.7816164E-02  0.1226708E+00
        -11   -1    0    0    0    0  0.00000000000E+00  0.00000000000E+00  0.45593999997E+02  0.45594000000E+02  0.51100000000E-03 0.  1.
         11   -1    0    0    0    0 -0.00000000000E+00 -0.00000000000E+00 -0.45593999997E+02  0.45594000000E+02  0.51100000000E-03 0. -1.
    9900012    2    1    2    0    0 -0.14566066753E+02 -0.27238716136E+01 -0.11449181946E+02  0.72461720486E+02  0.70000195652E+02 0.  0.
        -12    1    1    2    0    0  0.14566066753E+02  0.27238716136E+01  0.11449181946E+02  0.18726279514E+02  0.00000000000E+00 0.  1.
         11    1    3    3    0    0  0.68056667106E+01 -0.13579191253E+02 -0.22448565175E+02  0.27104420546E+02  0.51100000000E-03 0. -1.
        -11    1    3    3    0    0  0.47384143992E+00  0.10551302056E+02 -0.10366146588E+02  0.14799037000E+02  0.51100000000E-03 0.  1.
        -12    1    3    3    0    0 -0.21845574903E+02  0.30401758304E+00  0.21365529817E+02  0.30558262940E+02  0.00000000000E+00 0.  1.
</event>
<event>
 7    1  0.2489154E-013  0.7246157E+02  0.7816164E-02  0.1226708E+00
        -11   -1    0    0    0    0  0.00000000000E+00  0.00000000000E+00  0.45593999997E+02  0.45594000000E+02  0.51100000000E-03 0.  1.
         11   -1    0    0    0    0 -0.00000000000E+00 -0.00000000000E+00 -0.45593999997E+02  0.45594000000E+02  0.51100000000E-03 0. -1.
    9900012    2    1    2    0    0  0.17816907651E+02  0.56343256791E+01  0.12212530448E+01  0.72461567262E+02  0.69999996049E+02 0.  0.
        -12    1    1    2    0    0 -0.17816907651E+02 -0.56343256791E+01 -0.12212530448E+01  0.18726432738E+02  0.00000000000E+00 0.  1.
         11    1    3    3    0    0  0.94218082424E+00 -0.10279955205E+01  0.53322488029E+01  0.55115657533E+01  0.51100000000E-03 0. -1.
        -11    1    3    3    0    0  0.99167849820E+00 -0.12457233222E+02  0.25435048913E+02  0.28339156643E+02  0.51100000000E-03 0.  1.
         12    1    3    3    0    0  0.15883048329E+02  0.19119554421E+02 -0.29546044671E+02  0.38610844865E+02  0.00000000000E+00 0. -1.
</event>
<event>
 7    1  0.2489154E-013  0.7246154E+02  0.7816164E-02  0.1226708E+00
        -11   -1    0    0    0    0  0.00000000000E+00  0.00000000000E+00  0.45593999997E+02  0.45594000000E+02  0.51100000000E-03 0.  1.
         11   -1    0    0    0    0 -0.00000000000E+00 -0.00000000000E+00 -0.45593999997E+02  0.45594000000E+02  0.51100000000E-03 0. -1.
    9900012    2    1    2    0    0  0.34805211863E+01  0.18318546407E+02 -0.17312368143E+01  0.72461538746E+02  0.69999958902E+02 0.  0.
        -12    1    1    2    0    0 -0.34805211863E+01 -0.18318546407E+02  0.17312368143E+01  0.18726461254E+02  0.00000000000E+00 0.  1.
         11    1    3    3    0    0 -0.26668935921E+02  0.34911512682E+01  0.58497257698E+01  0.27525253353E+02  0.51100000000E-03 0. -1.
        -11    1    3    3    0    0 -0.29665643421E+01  0.88816828506E+01 -0.62620504452E+01  0.11264904362E+02  0.51100000000E-03 0.  1.
        -12    1    3    3    0    0  0.33116021449E+02  0.59457122880E+01 -0.13189121390E+01  0.33671381030E+02  0.00000000000E+00 0.  1.
</event>
<event>
 7    1  0.2489154E-013  0.7246160E+02  0.7816164E-02  0.1226708E+00
        -11   -1    0    0    0    0  0.00000000000E+00  0.00000000000E+00  0.45593999997E+02  0.45594000000E+02  0.51100000000E-03 0.  1.
         11   -1    0    0    0    0 -0.00000000000E+00 -0.00000000000E+00 -0.45593999997E+02  0.45594000000E+02  0.51100000000E-03 0. -1.
    9900012    2    1    2    0    0 -0.18403153348E+01 -0.78125813281E+01 -0.16919070591E+02  0.72461597858E+02  0.70000035906E+02 0.  0.
        -12    1    1    2    0    0  0.18403153348E+01  0.78125813281E+01  0.16919070591E+02  0.18726402142E+02  0.00000000000E+00 0.  1.
         11    1    3    3    0    0  0.80590097317E+01 -0.25410606752E+02 -0.36178517492E+01  0.26902331217E+02  0.51100000000E-03 0. -1.
        -11    1    3    3    0    0 -0.78517926586E+01 -0.11464105731E+02 -0.98909208710E+00  0.13930350734E+02  0.51100000000E-03 0.  1.
        -12    1    3    3    0    0 -0.20475324079E+01  0.29062131155E+02 -0.12312126755E+02  0.31628915907E+02  0.00000000000E+00 0.  1.
</event>
<event>
 7    1  0.2489154E-013  0.7246157E+02  0.7816164E-02  0.1226708E+00
        -11   -1    0    0    0    0  0.00000000000E+00  0.00000000000E+00  0.45593999997E+02  0.45594000000E+02  0.51100000000E-03 0. -1.
         11   -1    0    0    0    0 -0.00000000000E+00 -0.00000000000E+00 -0.45593999997E+02  0.45594000000E+02  0.51100000000E-03 0.  1.
    9900012    2    1    2    0    0 -0.10442587523E+02  0.24986641887E+01  0.15342364264E+02  0.72461572201E+02  0.70000002483E+02 0.  0.
        -12    1    1    2    0    0  0.10442587523E+02 -0.24986641887E+01 -0.15342364264E+02  0.18726427799E+02  0.00000000000E+00 0.  1.
         11    1    3    3    0    0  0.91133883796E+00 -0.28216505831E+01 -0.14452670755E+02  0.14753709456E+02  0.51100000000E-03 0.  1.
        -11    1    3    3    0    0 -0.74965146079E+01 -0.19619689235E+02  0.23851488203E+02  0.31780865733E+02  0.51100000000E-03 0. -1.
         12    1    3    3    0    0 -0.38574117534E+01  0.24940004007E+02  0.59435468161E+01  0.25926997012E+02  0.00000000000E+00 0. -1.
</event>
<event>
 7    1  0.2489154E-013  0.7246158E+02  0.7816164E-02  0.1226708E+00
        -11   -1    0    0    0    0  0.00000000000E+00  0.00000000000E+00  0.45593999997E+02  0.45594000000E+02  0.51100000000E-03 0. -1.
         11   -1    0    0    0    0 -0.00000000000E+00 -0.00000000000E+00 -0.45593999997E+02  0.45594000000E+02  0.51100000000E-03 0.  1.
    9900012    2    1    2    0    0 -0.54671472711E+01  0.72964135643E+01  0.16357002478E+02  0.72461578018E+02  0.70000010062E+02 0.  0.
        -12    1    1    2    0    0  0.54671472711E+01 -0.72964135643E+01 -0.16357002478E+02  0.18726421982E+02  0.00000000000E+00 0.  1.
         11    1    3    3    0    0 -0.96372060079E+01  0.87348674004E+01  0.23007664435E+02  0.26429647579E+02  0.51100000000E-03 0. -1.
        -11    1    3    3    0    0 -0.12883600126E+02 -0.16499197579E+02  0.33127749155E+01  0.21193988555E+02  0.51100000000E-03 0.  1.
        -12    1    3    3    0    0  0.17053658863E+02  0.15060743743E+02 -0.99634368725E+01  0.24837941884E+02  0.00000000000E+00 0.  1.
</event>
<event>
 7    1  0.2489154E-013  0.7246158E+02  0.7816164E-02  0.1226708E+00
        -11   -1    0    0    0    0  0.00000000000E+00  0.00000000000E+00  0.45593999997E+02  0.45594000000E+02  0.51100000000E-03 0.  1.
         11   -1    0    0    0    0 -0.00000000000E+00 -0.00000000000E+00 -0.45593999997E+02  0.45594000000E+02  0.51100000000E-03 0. -1.
    9900012    2    1    2    0    0 -0.47988204324E+00  0.89951659761E+01 -0.16417535907E+02  0.72461580616E+02  0.70000013445E+02 0.  0.
        -12    1    1    2    0    0  0.47988204324E+00 -0.89951659761E+01  0.16417535907E+02  0.18726419384E+02  0.00000000000E+00 0.  1.
         11    1    3    3    0    0  0.18383887331E+01  0.87443087154E+01  0.11592899495E+01  0.90103585662E+01  0.51100000000E-03 0. -1.
        -11    1    3    3    0    0 -0.22779250126E+02 -0.12199098174E+02  0.92891661896E+01  0.27459075755E+02  0.51100000000E-03 0.  1.
         12    1    3    3    0    0  0.20460979350E+02  0.12449955435E+02 -0.26865992046E+02  0.35992146294E+02  0.00000000000E+00 0. -1.
</event>
<event>
 7    1  0.2489154E-013  0.7246160E+02  0.7816164E-02  0.1226708E+00
        -11   -1    0    0    0    0  0.00000000000E+00  0.00000000000E+00  0.45593999997E+02  0.45594000000E+02  0.51100000000E-03 0.  1.
         11   -1    0    0    0    0 -0.00000000000E+00 -0.00000000000E+00 -0.45593999997E+02  0.45594000000E+02  0.51100000000E-03 0. -1.
    9900012    2    1    2    0    0 -0.18547756917E+02 -0.18911192608E+01 -0.17556895732E+01  0.72461599796E+02  0.70000038432E+02 0.  0.
        -12    1    1    2    0    0  0.18547756917E+02  0.18911192608E+01  0.17556895732E+01  0.18726400204E+02  0.00000000000E+00 0.  1.
         11    1    3    3    0    0 -0.10988378332E+02 -0.41554202784E+01 -0.16144988544E+02  0.19966788210E+02  0.51100000000E-03 0. -1.
        -11    1    3    3    0    0 -0.23770722248E+02  0.83986853629E+01 -0.58165644139E+01  0.25873105222E+02  0.51100000000E-03 0.  1.
         12    1    3    3    0    0  0.16211343662E+02 -0.61343843453E+01  0.20205863385E+02  0.26621706365E+02  0.00000000000E+00 0. -1.
</event>
<event>
 7    1  0.2489154E-013  0.7246145E+02  0.7816164E-02  0.1226708E+00
        -11   -1    0    0    0    0  0.00000000000E+00  0.00000000000E+00  0.45593999997E+02  0.45594000000E+02  0.51100000000E-03 0. -1.
         11   -1    0    0    0    0 -0.00000000000E+00 -0.00000000000E+00 -0.45593999997E+02  0.45594000000E+02  0.51100000000E-03 0.  1.
    9900012    2    1    2    0    0 -0.16550747698E+02 -0.45239109990E+00  0.87493963684E+01  0.72461445488E+02  0.69999837417E+02 0.  0.
        -12    1    1    2    0    0  0.16550747698E+02  0.45239109990E+00 -0.87493963684E+01  0.18726554512E+02  0.00000000000E+00 0.  1.
         11    1    3    3    0    0 -0.45932660615E+01  0.91579006002E+01 -0.31473266358E+01  0.10717784367E+02  0.51100000000E-03 0. -1.
        -11    1    3    3    0    0 -0.18431046653E+02  0.11433195101E+02 -0.15454547387E+02  0.26632019566E+02  0.51100000000E-03 0.  1.
         12    1    3    3    0    0  0.64735650169E+01 -0.21043486801E+02  0.27351270391E+02  0.35111641556E+02  0.00000000000E+00 0. -1.
</event>
<event>
 7    1  0.2489154E-013  0.7246160E+02  0.7816164E-02  0.1226708E+00
        -11   -1    0    0    0    0  0.00000000000E+00  0.00000000000E+00  0.45593999997E+02  0.45594000000E+02  0.51100000000E-03 0.  1.
         11   -1    0    0    0    0 -0.00000000000E+00 -0.00000000000E+00 -0.45593999997E+02  0.45594000000E+02  0.51100000000E-03 0. -1.
    9900012    2    1    2    0    0 -0.13507623952E+02 -0.54220595009E+01 -0.11782327440E+02  0.72461604887E+02  0.70000045063E+02 0.  0.
        -12    1    1    2    0    0  0.13507623952E+02  0.54220595009E+01  0.11782327440E+02  0.18726395113E+02  0.00000000000E+00 0.  1.
         11    1    3    3    0    0 -0.62768440169E+00  0.47032906982E+01  0.14351445574E+01  0.49572745800E+01  0.51100000000E-03 0. -1.
        -11    1    3    3    0    0 -0.34055171468E+01  0.16828890331E+02  0.18211891533E+02  0.25029624253E+02  0.51100000000E-03 0.  1.
         12    1    3    3    0    0 -0.94744224031E+01 -0.26954240530E+02 -0.31429363530E+02  0.42474706053E+02  0.00000000000E+00 0. -1.
</event>
<event>
 7    1  0.2489154E-013  0.7246157E+02  0.7816164E-02  0.1226708E+00
        -11   -1    0    0    0    0  0.00000000000E+00  0.00000000000E+00  0.45593999997E+02  0.45594000000E+02  0.51100000000E-03 0.  1.
         11   -1    0    0    0    0 -0.00000000000E+00 -0.00000000000E+00 -0.45593999997E+02  0.45594000000E+02  0.51100000000E-03 0. -1.
    9900012    2    1    2    0    0 -0.13001698823E+02 -0.10661481541E+02 -0.82442655653E+01  0.72461567461E+02  0.69999996309E+02 0.  0.
        -12    1    1    2    0    0  0.13001698823E+02  0.10661481541E+02  0.82442655653E+01  0.18726432539E+02  0.00000000000E+00 0.  1.
         11    1    3    3    0    0  0.61856365970E+01 -0.19503612701E+02 -0.22184847835E+01  0.20580930093E+02  0.51100000000E-03 0. -1.
        -11    1    3    3    0    0  0.13554708494E+02  0.12669145055E+02 -0.26834626871E+01  0.18746688535E+02  0.51100000000E-03 0.  1.
         12    1    3    3    0    0 -0.32742043914E+02 -0.38270138943E+01 -0.33423180947E+01  0.33133948833E+02  0.00000000000E+00 0. -1.
</event>
<event>
 7    1  0.2489154E-013  0.7246166E+02  0.7816164E-02  0.1226708E+00
        -11   -1    0    0    0    0  0.00000000000E+00  0.00000000000E+00  0.45593999997E+02  0.45594000000E+02  0.51100000000E-03 0.  1.
         11   -1    0    0    0    0 -0.00000000000E+00 -0.00000000000E+00 -0.45593999997E+02  0.45594000000E+02  0.51100000000E-03 0. -1.
    9900012    2    1    2    0    0 -0.16154635320E+02 -0.69325457053E+01 -0.64531540381E+01  0.72461664819E+02  0.70000123136E+02 0.  0.
        -12    1    1    2    0    0  0.16154635320E+02  0.69325457053E+01  0.64531540381E+01  0.18726335181E+02  0.00000000000E+00 0.  1.
         11    1    3    3    0    0 -0.83849828660E+01 -0.48378052899E+01 -0.10202285195E+02  0.14064100439E+02  0.51100000000E-03 0. -1.
        -11    1    3    3    0    0 -0.11891695211E+02 -0.28744594737E+02 -0.42177771199E+00  0.31110159728E+02  0.51100000000E-03 0.  1.
        -12    1    3    3    0    0  0.41220427564E+01  0.26649854322E+02  0.41709088691E+01  0.27287404652E+02  0.00000000000E+00 0.  1.
</event>
<event>
 7    1  0.2489154E-013  0.7246139E+02  0.7816164E-02  0.1226709E+00
        -11   -1    0    0    0    0  0.00000000000E+00  0.00000000000E+00  0.45593999997E+02  0.45594000000E+02  0.51100000000E-03 0. -1.
         11   -1    0    0    0    0 -0.00000000000E+00 -0.00000000000E+00 -0.45593999997E+02  0.45594000000E+02  0.51100000000E-03 0.  1.
    9900012    2    1    2    0    0  0.12099715338E+02 -0.27570603200E+01  0.14024321290E+02  0.72461385770E+02  0.69999759622E+02 0.  0.
        -12    1    1    2    0    0 -0.12099715338E+02  0.27570603200E+01 -0.14024321290E+02  0.18726614230E+02  0.00000000000E+00 0.  1.
         11    1    3    3    0    0  0.19380023303E+01 -0.41276063534E+00  0.23100972538E+02  0.23185796446E+02  0.51100000000E-03 0. -1.
        -11    1    3    3    0    0  0.15272624055E+02  0.58933027588E+01  0.15692542125E+02  0.22676859164E+02  0.51100000000E-03 0.  1.
        -12    1    3    3    0    0 -0.51109110471E+01 -0.82376024435E+01 -0.24769193373E+02  0.26598730159E+02  0.00000000000E+00 0.  1.
</event>
<event>
 7    1  0.2489154E-013  0.7246158E+02  0.7816164E-02  0.1226708E+00
        -11   -1    0    0    0    0  0.00000000000E+00  0.00000000000E+00  0.45593999997E+02  0.45594000000E+02  0.51100000000E-03 0.  1.
         11   -1    0    0    0    0 -0.00000000000E+00 -0.00000000000E+00 -0.45593999997E+02  0.45594000000E+02  0.51100000000E-03 0. -1.
    9900012    2    1    2    0    0  0.76338042917E+01  0.98283963906E+01 -0.13993092635E+02  0.72461575219E+02  0.70000006416E+02 0.  0.
        -12    1    1    2    0    0 -0.76338042917E+01 -0.98283963906E+01  0.13993092635E+02  0.18726424781E+02  0.00000000000E+00 0.  1.
         11    1    3    3    0    0 -0.83469283823E+01  0.16449466221E+01  0.18813539918E+01  0.87130107261E+01  0.51100000000E-03 0. -1.
        -11    1    3    3    0    0  0.74968590891E+01 -0.74186355584E+01  0.20620822142E+02  0.23161549081E+02  0.51100000000E-03 0.  1.
         12    1    3    3    0    0  0.84838735849E+01  0.15602085327E+02 -0.36495268769E+02  0.40587015412E+02  0.00000000000E+00 0. -1.
</event>
<event>
 7    1  0.2489154E-013  0.7246160E+02  0.7816164E-02  0.1226708E+00
        -11   -1    0    0    0    0  0.00000000000E+00  0.00000000000E+00  0.45593999997E+02  0.45594000000E+02  0.51100000000E-03 0. -1.
         11   -1    0    0    0    0 -0.00000000000E+00 -0.00000000000E+00 -0.45593999997E+02  0.45594000000E+02  0.51100000000E-03 0.  1.
    9900012    2    1    2    0    0  0.17252275184E+01 -0.94329735004E+00  0.18622879986E+02  0.72461604756E+02  0.70000044892E+02 0.  0.
        -12    1    1    2    0    0 -0.17252275184E+01  0.94329735004E+00 -0.18622879986E+02  0.18726395244E+02  0.00000000000E+00 0.  1.
         11    1    3    3    0    0  0.33811225438E+02  0.53770738422E+01  0.13989215950E+02  0.36983916124E+02  0.51100000000E-03 0. -1.
        -11    1    3    3    0    0 -0.38369452079E+01 -0.53578713998E+01  0.27771860215E+01  0.71513423163E+01  0.51100000000E-03 0.  1.
        -12    1    3    3    0    0 -0.28249052712E+02 -0.96249979235E+00  0.18564780141E+01  0.28326346315E+02  0.00000000000E+00 0.  1.
</event>
<event>
 7    1  0.2489154E-013  0.7246162E+02  0.7816164E-02  0.1226708E+00
        -11   -1    0    0    0    0  0.00000000000E+00  0.00000000000E+00  0.45593999997E+02  0.45594000000E+02  0.51100000000E-03 0. -1.
         11   -1    0    0    0    0 -0.00000000000E+00 -0.00000000000E+00 -0.45593999997E+02  0.45594000000E+02  0.51100000000E-03 0.  1.
    9900012    2    1    2    0    0 -0.18227740421E+02 -0.27328669395E+01 -0.33102988830E+01  0.72461623915E+02  0.70000069851E+02 0.  0.
        -12    1    1    2    0    0  0.18227740421E+02  0.27328669395E+01  0.33102988830E+01  0.18726376085E+02  0.00000000000E+00 0.  1.
         11    1    3    3    0    0 -0.10740686253E+02 -0.90762554631E+01  0.12790038522E+02  0.19008572804E+02  0.51100000000E-03 0. -1.
        -11    1    3    3    0    0 -0.12649744073E+02 -0.94600257887E+01  0.12653352411E+02  0.20238958484E+02  0.51100000000E-03 0.  1.
         12    1    3    3    0    0  0.51626899047E+01  0.15803414312E+02 -0.28753689816E+02  0.33214092626E+02  0.00000000000E+00 0. -1.
</event>
<event>
 7    1  0.2489154E-013  0.7246158E+02  0.7816164E-02  0.1226708E+00
        -11   -1    0    0    0    0  0.00000000000E+00  0.00000000000E+00  0.45593999997E+02  0.45594000000E+02  0.51100000000E-03 0. -1.
         11   -1    0    0    0    0 -0.00000000000E+00 -0.00000000000E+00 -0.45593999997E+02  0.45594000000E+02  0.51100000000E-03 0.  1.
    9900012    2    1    2    0    0 -0.95292538560E+01  0.63919807604E+01  0.14799151285E+02  0.72461575465E+02  0.70000006736E+02 0.  0.
        -12    1    1    2    0    0  0.95292538560E+01 -0.63919807604E+01 -0.14799151285E+02  0.18726424535E+02  0.00000000000E+00 0.  1.
         11    1    3    3    0    0 -0.36298831909E+01 -0.71340444483E+01  0.66399455578E+01  0.10399976896E+02  0.51100000000E-03 0. -1.
        -11    1    3    3    0    0 -0.28132038686E+02  0.16297321141E+02 -0.91212009008E+01  0.33767004355E+02  0.51100000000E-03 0.  1.
         12    1    3    3    0    0  0.22232668021E+02 -0.27712959322E+01  0.17280406628E+02  0.28294594214E+02  0.00000000000E+00 0. -1.
</event>
<event>
 7    1  0.2489154E-013  0.7246180E+02  0.7816164E-02  0.1226707E+00
        -11   -1    0    0    0    0  0.00000000000E+00  0.00000000000E+00  0.45593999997E+02  0.45594000000E+02  0.51100000000E-03 0.  1.
         11   -1    0    0    0    0 -0.00000000000E+00 -0.00000000000E+00 -0.45593999997E+02  0.45594000000E+02  0.51100000000E-03 0. -1.
    9900012    2    1    2    0    0  0.93448988285E+01  0.10578185485E+02 -0.12306314746E+02  0.72461801109E+02  0.70000300678E+02 0.  0.
        -12    1    1    2    0    0 -0.93448988285E+01 -0.10578185485E+02  0.12306314746E+02  0.18726198891E+02  0.00000000000E+00 0.  1.
         11    1    3    3    0    0  0.16743296675E+02  0.98641095125E+01 -0.88594476197E+01  0.21357163960E+02  0.51100000000E-03 0. -1.
        -11    1    3    3    0    0 -0.66544028773E+01  0.17081423357E+02  0.16932854702E+02  0.24955513823E+02  0.51100000000E-03 0.  1.
        -12    1    3    3    0    0 -0.74399496968E+00 -0.16367347384E+02 -0.20379721828E+02  0.26149123326E+02  0.00000000000E+00 0.  1.
</event>
<event>
 7    1  0.2489154E-013  0.7246153E+02  0.7816164E-02  0.1226708E+00
        -11   -1    0    0    0    0  0.00000000000E+00  0.00000000000E+00  0.45593999997E+02  0.45594000000E+02  0.51100000000E-03 0.  1.
         11   -1    0    0    0    0 -0.00000000000E+00 -0.00000000000E+00 -0.45593999997E+02  0.45594000000E+02  0.51100000000E-03 0. -1.
    9900012    2    1    2    0    0 -0.16129466409E+02  0.59911800529E+01 -0.73909879248E+01  0.72461531364E+02  0.69999949287E+02 0.  0.
        -12    1    1    2    0    0  0.16129466409E+02 -0.59911800529E+01  0.73909879248E+01  0.18726468636E+02  0.00000000000E+00 0.  1.
         11    1    3    3    0    0  0.19323309320E+02  0.18871419755E+02 -0.90918468594E+01  0.28498814821E+02  0.51100000000E-03 0. -1.
        -11    1    3    3    0    0 -0.38995195461E+01 -0.11703724975E+02  0.10493284416E+01  0.12380812632E+02  0.51100000000E-03 0.  1.
        -12    1    3    3    0    0 -0.31553256183E+02 -0.11765147264E+01  0.65153049305E+00  0.31581903911E+02  0.00000000000E+00 0.  1.
</event>
<event>
 7    1  0.2489154E-013  0.7246159E+02  0.7816164E-02  0.1226708E+00
        -11   -1    0    0    0    0  0.00000000000E+00  0.00000000000E+00  0.45593999997E+02  0.45594000000E+02  0.51100000000E-03 0.  1.
         11   -1    0    0    0    0 -0.00000000000E+00 -0.00000000000E+00 -0.45593999997E+02  0.45594000000E+02  0.51100000000E-03 0. -1.
    9900012    2    1    2    0    0  0.11989737588E+02 -0.11089758893E+02 -0.91619867839E+01  0.72461586527E+02  0.70000021147E+02 0.  0.
        -12    1    1    2    0    0 -0.11989737588E+02  0.11089758893E+02  0.91619867839E+01  0.18726413473E+02  0.00000000000E+00 0.  1.
         11    1    3    3    0    0 -0.86097464212E+01 -0.15238445311E+02  0.91099897065E+01  0.19731443476E+02  0.51100000000E-03 0. -1.
        -11    1    3    3    0    0  0.13926948453E+02 -0.17211165960E+02  0.23944813745E+01  0.22269208972E+02  0.51100000000E-03 0.  1.
         12    1    3    3    0    0  0.66725355557E+01  0.21359852378E+02 -0.20666457865E+02  0.30460934080E+02  0.00000000000E+00 0. -1.
</event>
<event>
 7    1  0.2489154E-013  0.7246156E+02  0.7816164E-02  0.1226708E+00
        -11   -1    0    0    0    0  0.00000000000E+00  0.00000000000E+00  0.45593999997E+02  0.45594000000E+02  0.51100000000E-03 0.  1.
         11   -1    0    0    0    0 -0.00000000000E+00 -0.00000000000E+00 -0.45593999997E+02  0.45594000000E+02  0.51100000000E-03 0. -1.
    9900012    2    1    2    0    0 -0.91309314949E+01 -0.11776263551E+02 -0.11341299880E+02  0.72461564777E+02  0.69999992813E+02 0.  0.
        -12    1    1    2    0    0  0.91309314949E+01  0.11776263551E+02  0.11341299880E+02  0.18726435223E+02  0.00000000000E+00 0.  1.
         11    1    3    3    0    0  0.50318372484E+00  0.37467487475E+01 -0.15162286466E+02  0.15626459970E+02  0.51100000000E-03 0. -1.
        -11    1    3    3    0    0  0.78524054394E+01 -0.30466226558E+02 -0.56404297116E+01  0.31963505431E+02  0.51100000000E-03 0.  1.
        -12    1    3    3    0    0 -0.17486520659E+02  0.14943214260E+02  0.94614162976E+01  0.24871599376E+02  0.00000000000E+00 0.  1.
</event>
<event>
 7    1  0.2489154E-013  0.7246159E+02  0.7816164E-02  0.1226708E+00
        -11   -1    0    0    0    0  0.00000000000E+00  0.00000000000E+00  0.45593999997E+02  0.45594000000E+02  0.51100000000E-03 0. -1.
         11   -1    0    0    0    0 -0.00000000000E+00 -0.00000000000E+00 -0.45593999997E+02  0.45594000000E+02  0.51100000000E-03 0.  1.
    9900012    2    1    2    0    0  0.10452719196E+01 -0.10726839670E+02  0.15314067870E+02  0.72461591977E+02  0.70000028246E+02 0.  0.
        -12    1    1    2    0    0 -0.10452719196E+01  0.10726839670E+02 -0.15314067870E+02  0.18726408023E+02  0.00000000000E+00 0.  1.
         11    1    3    3    0    0 -0.85124583854E+00 -0.46802294684E+01  0.11166608822E+02  0.12137640636E+02  0.51100000000E-03 0. -1.
        -11    1    3    3    0    0  0.68308953262E+01 -0.14837098294E+02 -0.24786312144E+02  0.29684371085E+02  0.51100000000E-03 0.  1.
         12    1    3    3    0    0 -0.49343775681E+01  0.87904880930E+01  0.28933771192E+02  0.30639580256E+02  0.00000000000E+00 0. -1.
</event>
<event>
 7    1  0.2489154E-013  0.7246156E+02  0.7816164E-02  0.1226708E+00
        -11   -1    0    0    0    0  0.00000000000E+00  0.00000000000E+00  0.45593999997E+02  0.45594000000E+02  0.51100000000E-03 0.  1.
         11   -1    0    0    0    0 -0.00000000000E+00 -0.00000000000E+00 -0.45593999997E+02  0.45594000000E+02  0.51100000000E-03 0. -1.
    9900012    2    1    2    0    0 -0.11997867776E+02 -0.84481526994E+01  0.11634411952E+02  0.72461557287E+02  0.69999983056E+02 0.  0.
        -12    1    1    2    0    0  0.11997867776E+02  0.84481526994E+01 -0.11634411952E+02  0.18726442713E+02  0.00000000000E+00 0.  1.
         11    1    3    3    0    0  0.13851550205E+02 -0.13441256865E+02 -0.10303674749E+02  0.21879180579E+02  0.51100000000E-03 0. -1.
        -11    1    3    3    0    0 -0.13617010054E+02 -0.99775303984E+01 -0.48340493684E+01  0.17559672811E+02  0.51100000000E-03 0.  1.
        -12    1    3    3    0    0 -0.12232407927E+02  0.14970634564E+02  0.26772136069E+02  0.33022703897E+02  0.00000000000E+00 0.  1.
</event>
<event>
 7    1  0.2489154E-013  0.7246158E+02  0.7816164E-02  0.1226708E+00
        -11   -1    0    0    0    0  0.00000000000E+00  0.00000000000E+00  0.45593999997E+02  0.45594000000E+02  0.51100000000E-03 0.  1.
         11   -1    0    0    0    0 -0.00000000000E+00 -0.00000000000E+00 -0.45593999997E+02  0.45594000000E+02  0.51100000000E-03 0. -1.
    9900012    2    1    2    0    0  0.36125058666E+01  0.13559205629E+02 -0.12400659815E+02  0.72461584973E+02  0.70000019122E+02 0.  0.
        -12    1    1    2    0    0 -0.36125058666E+01 -0.13559205629E+02  0.12400659815E+02  0.18726415027E+02  0.00000000000E+00 0.  1.
         11    1    3    3    0    0 -0.75177216296E+01  0.34212291016E+02  0.42824861202E+01  0.35289328170E+02  0.51100000000E-03 0. -1.
        -11    1    3    3    0    0  0.52884495012E+01 -0.37844773326E+01  0.56267302500E+01  0.85994220954E+01  0.51100000000E-03 0.  1.
        -12    1    3    3    0    0  0.58417779950E+01 -0.16868608054E+02 -0.22309876185E+02  0.28572834707E+02  0.00000000000E+00 0.  1.
</event>
<event>
 7    1  0.2489154E-013  0.7246159E+02  0.7816164E-02  0.1226708E+00
        -11   -1    0    0    0    0  0.00000000000E+00  0.00000000000E+00  0.45593999997E+02  0.45594000000E+02  0.51100000000E-03 0. -1.
         11   -1    0    0    0    0 -0.00000000000E+00 -0.00000000000E+00 -0.45593999997E+02  0.45594000000E+02  0.51100000000E-03 0.  1.
    9900012    2    1    2    0    0  0.96416413067E+01  0.72210253039E+01  0.14337850385E+02  0.72461590648E+02  0.70000026515E+02 0.  0.
        -12    1    1    2    0    0 -0.96416413067E+01 -0.72210253039E+01 -0.14337850385E+02  0.18726409352E+02  0.00000000000E+00 0.  1.
         11    1    3    3    0    0 -0.25843757519E+01 -0.77708639095E+01 -0.81465957802E+01  0.11551292005E+02  0.51100000000E-03 0. -1.
        -11    1    3    3    0    0  0.30590609165E+01 -0.52548864701E+01 -0.15640069170E+02  0.16780448427E+02  0.51100000000E-03 0.  1.
         12    1    3    3    0    0  0.91669561421E+01  0.20246775684E+02  0.38124515336E+02  0.44129850216E+02  0.00000000000E+00 0. -1.
</event>
<event>
 7    1  0.2489154E-013  0.7246156E+02  0.7816164E-02  0.1226708E+00
        -11   -1    0    0    0    0  0.00000000000E+00  0.00000000000E+00  0.45593999997E+02  0.45594000000E+02  0.51100000000E-03 0. -1.
         11   -1    0    0    0    0 -0.00000000000E+00 -0.00000000000E+00 -0.45593999997E+02  0.45594000000E+02  0.51100000000E-03 0.  1.
    9900012    2    1    2    0    0 -0.52221397047E+01 -0.17937115003E+02 -0.12918375947E+01  0.72461556609E+02  0.69999982172E+02 0.  0.
        -12    1    1    2    0    0  0.52221397047E+01  0.17937115003E+02  0.12918375947E+01  0.18726443391E+02  0.00000000000E+00 0.  1.
         11    1    3    3    0    0 -0.69949231766E+01 -0.13418394121E+02  0.11276851229E+02  0.18871926900E+02  0.51100000000E-03 0. -1.
        -11    1    3    3    0    0 -0.21094330676E+01 -0.21394255813E+02  0.11153914997E+02  0.24219283839E+02  0.51100000000E-03 0.  1.
        -12    1    3    3    0    0  0.38822165396E+01  0.16875534931E+02 -0.23722603821E+02  0.29370345869E+02  0.00000000000E+00 0.  1.
</event>
<event>
 7    1  0.2489154E-013  0.7246155E+02  0.7816164E-02  0.1226708E+00
        -11   -1    0    0    0    0  0.00000000000E+00  0.00000000000E+00  0.45593999997E+02  0.45594000000E+02  0.51100000000E-03 0.  1.
         11   -1    0    0    0    0 -0.00000000000E+00 -0.00000000000E+00 -0.45593999997E+02  0.45594000000E+02  0.51100000000E-03 0. -1.
    9900012    2    1    2    0    0  0.14472127496E+02  0.29368723880E+01 -0.11515745248E+02  0.72461545923E+02  0.69999968251E+02 0.  0.
        -12    1    1    2    0    0 -0.14472127496E+02 -0.29368723880E+01  0.11515745248E+02  0.18726454077E+02  0.00000000000E+00 0.  1.
         11    1    3    3    0    0 -0.77625649422E+01 -0.52815012335E+01  0.34130095298E+01  0.99900102139E+01  0.51100000000E-03 0. -1.
        -11    1    3    3    0    0 -0.14668495517E+02 -0.11292824468E+02 -0.12922818364E+01  0.18557010476E+02  0.51100000000E-03 0.  1.
         12    1    3    3    0    0  0.36903187956E+02  0.19511198089E+02 -0.13636472941E+02  0.43914525233E+02  0.00000000000E+00 0. -1.
</event>
<event>
 7    1  0.2489154E-013  0.7246159E+02  0.7816164E-02  0.1226708E+00
        -11   -1    0    0    0    0  0.00000000000E+00  0.00000000000E+00  0.45593999997E+02  0.45594000000E+02  0.51100000000E-03 0.  1.
         11   -1    0    0    0    0 -0.00000000000E+00 -0.00000000000E+00 -0.45593999997E+02  0.45594000000E+02  0.51100000000E-03 0. -1.
    9900012    2    1    2    0    0 -0.18720962347E+02  0.19904715409E+00 -0.40553757347E+00  0.72461587858E+02  0.70000022880E+02 0.  0.
        -12    1    1    2    0    0  0.18720962347E+02 -0.19904715409E+00  0.40553757347E+00  0.18726412142E+02  0.00000000000E+00 0.  1.
         11    1    3    3    0    0  0.11040114328E+02 -0.25022577636E+01 -0.16789418956E+02  0.20249197698E+02  0.51100000000E-03 0. -1.
        -11    1    3    3    0    0 -0.24151864565E+02 -0.34634186739E+01 -0.86036892732E+01  0.25871437924E+02  0.51100000000E-03 0.  1.
        -12    1    3    3    0    0 -0.56092121103E+01  0.61647235916E+01  0.24987570656E+02  0.26340952236E+02  0.00000000000E+00 0.  1.
</event>
<event>
 7    1  0.2489154E-013  0.7246154E+02  0.7816164E-02  0.1226708E+00
        -11   -1    0    0    0    0  0.00000000000E+00  0.00000000000E+00  0.45593999997E+02  0.45594000000E+02  0.51100000000E-03 0.  1.
         11   -1    0    0    0    0 -0.00000000000E+00 -0.00000000000E+00 -0.45593999997E+02  0.45594000000E+02  0.51100000000E-03 0. -1.
    9900012    2    1    2    0    0 -0.40860760563E+01 -0.18087344376E+02 -0.26138680924E+01  0.72461538761E+02  0.69999958923E+02 0.  0.
        -12    1    1    2    0    0  0.40860760563E+01  0.18087344376E+02  0.26138680924E+01  0.18726461239E+02  0.00000000000E+00 0.  1.
         11    1    3    3    0    0 -0.32119668747E+02 -0.29752009891E+01 -0.15140954764E+02  0.35633880686E+02  0.51100000000E-03 0. -1.
        -11    1    3    3    0    0  0.16550375197E+01 -0.46597143913E+01 -0.15114157314E+01  0.51707315899E+01  0.51100000000E-03 0.  1.
        -12    1    3    3    0    0  0.26378555171E+02 -0.10452428996E+02  0.14038502403E+02  0.31656926486E+02  0.00000000000E+00 0.  1.
</event>
<event>
 7    1  0.2489154E-013  0.7246149E+02  0.7816164E-02  0.1226708E+00
        -11   -1    0    0    0    0  0.00000000000E+00  0.00000000000E+00  0.45593999997E+02  0.45594000000E+02  0.51100000000E-03 0.  1.
         11   -1    0    0    0    0 -0.00000000000E+00 -0.00000000000E+00 -0.45593999997E+02  0.45594000000E+02  0.51100000000E-03 0. -1.
    9900012    2    1    2    0    0 -0.18017110659E+02 -0.37391730289E+01 -0.34762662954E+01  0.72461491548E+02  0.69999897418E+02 0.  0.
        -12    1    1    2    0    0  0.18017110659E+02  0.37391730289E+01  0.34762662954E+01  0.18726508452E+02  0.00000000000E+00 0.  1.
         11    1    3    3    0    0 -0.11940498875E+01  0.50749836927E+01 -0.70715510245E+01  0.87856729263E+01  0.51100000000E-03 0. -1.
        -11    1    3    3    0    0  0.14162804333E+02  0.68129448560E+00  0.22174109257E+02  0.26319960303E+02  0.51100000000E-03 0.  1.
         12    1    3    3    0    0 -0.30985865104E+02 -0.94954512072E+01 -0.18578824528E+02  0.37355858319E+02  0.00000000000E+00 0. -1.
</event>
<event>
 7    1  0.2489154E-013  0.7246161E+02  0.7816164E-02  0.1226708E+00
        -11   -1    0    0    0    0  0.00000000000E+00  0.00000000000E+00  0.45593999997E+02  0.45594000000E+02  0.51100000000E-03 0.  1.
         11   -1    0    0    0    0 -0.00000000000E+00 -0.00000000000E+00 -0.45593999997E+02  0.45594000000E+02  0.51100000000E-03 0. -1.
    9900012    2    1    2    0    0  0.15894887554E+02  0.97372806071E+01  0.17931593563E+01  0.72461614752E+02  0.70000057915E+02 0.  0.
        -12    1    1    2    0    0 -0.15894887554E+02 -0.97372806071E+01 -0.17931593563E+01  0.18726385248E+02  0.00000000000E+00 0.  1.
         11    1    3    3    0    0  0.12718586486E+02  0.20248583685E+02  0.80923650109E+00  0.23925351563E+02  0.51100000000E-03 0. -1.
        -11    1    3    3    0    0  0.24979122549E+02 -0.65224914977E+01 -0.30878850149E+01  0.26000663314E+02  0.51100000000E-03 0.  1.
        -12    1    3    3    0    0 -0.21802821482E+02 -0.39888115799E+01  0.40718078701E+01  0.22535599875E+02  0.00000000000E+00 0.  1.
</event>
<event>
 7    1  0.2489154E-013  0.7246154E+02  0.7816164E-02  0.1226708E+00
        -11   -1    0    0    0    0  0.00000000000E+00  0.00000000000E+00  0.45593999997E+02  0.45594000000E+02  0.51100000000E-03 0.  1.
         11   -1    0    0    0    0 -0.00000000000E+00 -0.00000000000E+00 -0.45593999997E+02  0.45594000000E+02  0.51100000000E-03 0. -1.
    9900012    2    1    2    0    0 -0.75256581316E+01  0.93674492060E+01 -0.14363001178E+02  0.72461536431E+02  0.69999955887E+02 0.  0.
        -12    1    1    2    0    0  0.75256581316E+01 -0.93674492060E+01  0.14363001178E+02  0.18726463569E+02  0.00000000000E+00 0.  1.
         11    1    3    3    0    0  0.38704233287E+00  0.30279727146E+01  0.39190259284E+01  0.49676136138E+01  0.51100000000E-03 0. -1.
        -11    1    3    3    0    0  0.12001093221E+02  0.24404412734E+02  0.95237231262E+01  0.28814977041E+02  0.51100000000E-03 0.  1.
         12    1    3    3    0    0 -0.19913793686E+02 -0.18064936243E+02 -0.27805750233E+02  0.38678945777E+02  0.00000000000E+00 0. -1.
</event>
<event>
 7    1  0.2489154E-013  0.7246163E+02  0.7816164E-02  0.1226708E+00
        -11   -1    0    0    0    0  0.00000000000E+00  0.00000000000E+00  0.45593999997E+02  0.45594000000E+02  0.51100000000E-03 0.  1.
         11   -1    0    0    0    0 -0.00000000000E+00 -0.00000000000E+00 -0.45593999997E+02  0.45594000000E+02  0.51100000000E-03 0. -1.
    9900012    2    1    2    0    0  0.35047184338E+01 -0.12318308071E+02 -0.13662108753E+02  0.72461628739E+02  0.70000076135E+02 0.  0.
        -12    1    1    2    0    0 -0.35047184338E+01  0.12318308071E+02  0.13662108753E+02  0.18726371261E+02  0.00000000000E+00 0.  1.
         11    1    3    3    0    0 -0.22772441550E+02  0.70795986846E+01  0.20640979534E+01  0.23936693846E+02  0.51100000000E-03 0. -1.
        -11    1    3    3    0    0  0.21399700904E+01 -0.16500617545E+01  0.91769483036E+01  0.95665331343E+01  0.51100000000E-03 0.  1.
         12    1    3    3    0    0  0.24137189893E+02 -0.17747845002E+02 -0.24903155010E+02  0.38958401758E+02  0.00000000000E+00 0. -1.
</event>
<event>
 7    1  0.2489154E-013  0.7246159E+02  0.7816164E-02  0.1226708E+00
        -11   -1    0    0    0    0  0.00000000000E+00  0.00000000000E+00  0.45593999997E+02  0.45594000000E+02  0.51100000000E-03 0.  1.
         11   -1    0    0    0    0 -0.00000000000E+00 -0.00000000000E+00 -0.45593999997E+02  0.45594000000E+02  0.51100000000E-03 0. -1.
    9900012    2    1    2    0    0  0.48779550777E+01  0.92028947092E+01 -0.15562475600E+02  0.72461591814E+02  0.70000028033E+02 0.  0.
        -12    1    1    2    0    0 -0.48779550777E+01 -0.92028947092E+01  0.15562475600E+02  0.18726408186E+02  0.00000000000E+00 0.  1.
         11    1    3    3    0    0 -0.68458118392E+01 -0.42003613898E+01 -0.12276706752E+02  0.14670572738E+02  0.51100000000E-03 0. -1.
        -11    1    3    3    0    0 -0.35133538750E+01 -0.14751629784E+02 -0.17160081026E+02  0.22900275496E+02  0.51100000000E-03 0.  1.
        -12    1    3    3    0    0  0.15237120792E+02  0.28154885883E+02  0.13874312178E+02  0.34890743579E+02  0.00000000000E+00 0.  1.
</event>
<event>
 7    1  0.2489154E-013  0.7246157E+02  0.7816164E-02  0.1226708E+00
        -11   -1    0    0    0    0  0.00000000000E+00  0.00000000000E+00  0.45593999997E+02  0.45594000000E+02  0.51100000000E-03 0.  1.
         11   -1    0    0    0    0 -0.00000000000E+00 -0.00000000000E+00 -0.45593999997E+02  0.45594000000E+02  0.51100000000E-03 0. -1.
    9900012    2    1    2    0    0  0.16409188174E+01  0.11174159747E+02 -0.14937358834E+02  0.72461570828E+02  0.70000000695E+02 0.  0.
        -12    1    1    2    0    0 -0.16409188174E+01 -0.11174159747E+02  0.14937358834E+02  0.18726429172E+02  0.00000000000E+00 0.  1.
         11    1    3    3    0    0 -0.23296187881E+01 -0.24843478915E+01  0.12145036340E+02  0.12613525126E+02  0.51100000000E-03 0. -1.
        -11    1    3    3    0    0  0.99288277640E+01  0.12644316598E+01  0.13610340459E+02  0.16894430321E+02  0.51100000000E-03 0.  1.
         12    1    3    3    0    0 -0.59582901584E+01  0.12394075978E+02 -0.40692735633E+02  0.42953615381E+02  0.00000000000E+00 0. -1.
</event>
<event>
 7    1  0.2489154E-013  0.7246154E+02  0.7816164E-02  0.1226708E+00
        -11   -1    0    0    0    0  0.00000000000E+00  0.00000000000E+00  0.45593999997E+02  0.45594000000E+02  0.51100000000E-03 0. -1.
         11   -1    0    0    0    0 -0.00000000000E+00 -0.00000000000E+00 -0.45593999997E+02  0.45594000000E+02  0.51100000000E-03 0.  1.
    9900012    2    1    2    0    0 -0.40126102235E+01  0.87531383991E+01  0.16061195326E+02  0.72461535627E+02  0.69999954839E+02 0.  0.
        -12    1    1    2    0    0  0.40126102235E+01 -0.87531383991E+01 -0.16061195326E+02  0.18726464373E+02  0.00000000000E+00 0.  1.
         11    1    3    3    0    0  0.14405510942E+02  0.74275724063E+01 -0.86622507514E+01  0.18377218660E+02  0.51100000000E-03 0. -1.
        -11    1    3    3    0    0 -0.27433824812E+02  0.89818910135E+01  0.25824802446E+01  0.28982034340E+02  0.51100000000E-03 0.  1.
         12    1    3    3    0    0  0.90157036467E+01 -0.76563250208E+01  0.22140965832E+02  0.25102282626E+02  0.00000000000E+00 0. -1.
</event>
<event>
 7    1  0.2489154E-013  0.7246155E+02  0.7816164E-02  0.1226708E+00
        -11   -1    0    0    0    0  0.00000000000E+00  0.00000000000E+00  0.45593999997E+02  0.45594000000E+02  0.51100000000E-03 0. -1.
         11   -1    0    0    0    0 -0.00000000000E+00 -0.00000000000E+00 -0.45593999997E+02  0.45594000000E+02  0.51100000000E-03 0.  1.
    9900012    2    1    2    0    0 -0.13066025348E+02 -0.24014536629E+01  0.13198184041E+02  0.72461546517E+02  0.69999969025E+02 0.  0.
        -12    1    1    2    0    0  0.13066025348E+02  0.24014536629E+01 -0.13198184041E+02  0.18726453483E+02  0.00000000000E+00 0.  1.
         11    1    3    3    0    0 -0.23380718540E+02  0.15037917228E+02  0.50648878218E+01  0.28256858334E+02  0.51100000000E-03 0. -1.
        -11    1    3    3    0    0 -0.39171760251E+01  0.49333445353E+01  0.15461007334E+02  0.16695056285E+02  0.51100000000E-03 0.  1.
        -12    1    3    3    0    0  0.14231869217E+02 -0.22372715426E+02 -0.73277111152E+01  0.27509631897E+02  0.00000000000E+00 0.  1.
</event>
<event>
 7    1  0.2489154E-013  0.7246152E+02  0.7816164E-02  0.1226708E+00
        -11   -1    0    0    0    0  0.00000000000E+00  0.00000000000E+00  0.45593999997E+02  0.45594000000E+02  0.51100000000E-03 0. -1.
         11   -1    0    0    0    0 -0.00000000000E+00 -0.00000000000E+00 -0.45593999997E+02  0.45594000000E+02  0.51100000000E-03 0.  1.
    9900012    2    1    2    0    0 -0.11505401542E+02  0.14771218361E+02 -0.34325404853E+00  0.72461521958E+02  0.69999937033E+02 0.  0.
        -12    1    1    2    0    0  0.11505401542E+02 -0.14771218361E+02  0.34325404853E+00  0.18726478042E+02  0.00000000000E+00 0.  1.
         11    1    3    3    0    0 -0.27222033784E+02 -0.14511978816E+02  0.43814000002E+01  0.31158198259E+02  0.51100000000E-03 0. -1.
        -11    1    3    3    0    0 -0.50391865691E+01 -0.11412476646E+00 -0.80360313734E+00  0.51041359703E+01  0.51100000000E-03 0.  1.
        -12    1    3    3    0    0  0.20755818812E+02  0.29397321943E+02 -0.39210509113E+01  0.36199187729E+02  0.00000000000E+00 0.  1.
</event>
<event>
 7    1  0.2489154E-013  0.7246157E+02  0.7816164E-02  0.1226708E+00
        -11   -1    0    0    0    0  0.00000000000E+00  0.00000000000E+00  0.45593999997E+02  0.45594000000E+02  0.51100000000E-03 0.  1.
         11   -1    0    0    0    0 -0.00000000000E+00 -0.00000000000E+00 -0.45593999997E+02  0.45594000000E+02  0.51100000000E-03 0. -1.
    9900012    2    1    2    0    0 -0.10105715578E+02 -0.12063890261E+02 -0.10149690177E+02  0.72461570915E+02  0.70000000808E+02 0.  0.
        -12    1    1    2    0    0  0.10105715578E+02  0.12063890261E+02  0.10149690177E+02  0.18726429085E+02  0.00000000000E+00 0.  1.
         11    1    3    3    0    0 -0.23357107205E+02 -0.13271792710E+02  0.25222773961E+01  0.26982528092E+02  0.51100000000E-03 0. -1.
        -11    1    3    3    0    0  0.26312962410E+01 -0.36624940931E+01  0.14882017359E+02  0.15550306229E+02  0.51100000000E-03 0.  1.
         12    1    3    3    0    0  0.10620095386E+02  0.48703965416E+01 -0.27553984932E+02  0.29928736594E+02  0.00000000000E+00 0. -1.
</event>
<event>
 7    1  0.2489154E-013  0.7246157E+02  0.7816164E-02  0.1226708E+00
        -11   -1    0    0    0    0  0.00000000000E+00  0.00000000000E+00  0.45593999997E+02  0.45594000000E+02  0.51100000000E-03 0. -1.
         11   -1    0    0    0    0 -0.00000000000E+00 -0.00000000000E+00 -0.45593999997E+02  0.45594000000E+02  0.51100000000E-03 0.  1.
    9900012    2    1    2    0    0  0.51739598458E+01 -0.14825330882E+02  0.10203859435E+02  0.72461573656E+02  0.70000004380E+02 0.  0.
        -12    1    1    2    0    0 -0.51739598458E+01  0.14825330882E+02 -0.10203859435E+02  0.18726426344E+02  0.00000000000E+00 0.  1.
         11    1    3    3    0    0 -0.93565373102E+01 -0.11715845596E+02  0.10358747649E+02  0.18223871202E+02  0.51100000000E-03 0. -1.
        -11    1    3    3    0    0  0.34010058775E+01 -0.24064838204E+02 -0.12673994541E+02  0.27410096984E+02  0.51100000000E-03 0.  1.
         12    1    3    3    0    0  0.11129491279E+02  0.20955352919E+02  0.12519106327E+02  0.26827605471E+02  0.00000000000E+00 0. -1.
</event>
<event>
 7    1  0.2489154E-013  0.7246158E+02  0.7816164E-02  0.1226708E+00
        -11   -1    0    0    0    0  0.00000000000E+00  0.00000000000E+00  0.45593999997E+02  0.45594000000E+02  0.51100000000E-03 0. -1.
         11   -1    0    0    0    0 -0.00000000000E+00 -0.00000000000E+00 -0.45593999997E+02  0.45594000000E+02  0.51100000000E-03 0.  1.
    9900012    2    1    2    0    0  0.18713113762E+00 -0.10650888714E+02  0.15401377339E+02  0.72461578228E+02  0.70000010335E+02 0.  0.
        -12    1    1    2    0    0 -0.18713113762E+00  0.10650888714E+02 -0.15401377339E+02  0.18726421772E+02  0.00000000000E+00 0.  1.
         11    1    3    3    0    0  0.12148571394E+02 -0.15479559479E+00 -0.81963856740E+01  0.14655800455E+02  0.51100000000E-03 0.  1.
        -11    1    3    3    0    0  0.93378700427E+01 -0.10825676670E+02  0.31889095129E+02  0.34947181299E+02  0.51100000000E-03 0. -1.
        -12    1    3    3    0    0 -0.21299310299E+02  0.32958355162E+00 -0.82913321160E+01  0.22858596474E+02  0.00000000000E+00 0.  1.
</event>
<event>
 7    1  0.2489154E-013  0.7246157E+02  0.7816164E-02  0.1226708E+00
        -11   -1    0    0    0    0  0.00000000000E+00  0.00000000000E+00  0.45593999997E+02  0.45594000000E+02  0.51100000000E-03 0.  1.
         11   -1    0    0    0    0 -0.00000000000E+00 -0.00000000000E+00 -0.45593999997E+02  0.45594000000E+02  0.51100000000E-03 0. -1.
    9900012    2    1    2    0    0 -0.14264192001E+02  0.15666237193E+01 -0.12031532086E+02  0.72461568208E+02  0.69999997282E+02 0.  0.
        -12    1    1    2    0    0  0.14264192001E+02 -0.15666237193E+01  0.12031532086E+02  0.18726431792E+02  0.00000000000E+00 0.  1.
         11    1    3    3    0    0  0.23652842454E+02 -0.31123931769E+01 -0.15469983520E+00  0.23857239567E+02  0.51100000000E-03 0. -1.
        -11    1    3    3    0    0 -0.40986945547E+00  0.84702198351E+01  0.14828609638E+01  0.86088032806E+01  0.51100000000E-03 0.  1.
        -12    1    3    3    0    0 -0.37507165000E+02 -0.37912029389E+01 -0.13359693215E+02  0.39995525360E+02  0.00000000000E+00 0.  1.
</event>
<event>
 7    1  0.2489154E-013  0.7246155E+02  0.7816164E-02  0.1226708E+00
        -11   -1    0    0    0    0  0.00000000000E+00  0.00000000000E+00  0.45593999997E+02  0.45594000000E+02  0.51100000000E-03 0.  1.
         11   -1    0    0    0    0 -0.00000000000E+00 -0.00000000000E+00 -0.45593999997E+02  0.45594000000E+02  0.51100000000E-03 0. -1.
    9900012    2    1    2    0    0  0.13103220822E+01  0.72092321132E+01 -0.17233394864E+02  0.72461551587E+02  0.69999975630E+02 0.  0.
        -12    1    1    2    0    0 -0.13103220822E+01 -0.72092321132E+01  0.17233394864E+02  0.18726448413E+02  0.00000000000E+00 0.  1.
         11    1    3    3    0    0  0.61419660534E+01 -0.19091245910E+02 -0.67079603210E+01  0.21147012776E+02  0.51100000000E-03 0. -1.
        -11    1    3    3    0    0  0.18515885967E+01  0.38806268668E+01  0.15637185415E+02  0.16217558792E+02  0.51100000000E-03 0.  1.
        -12    1    3    3    0    0 -0.66832325679E+01  0.22419851157E+02 -0.26162619958E+02  0.35096980020E+02  0.00000000000E+00 0.  1.
</event>
<event>
 7    1  0.2489154E-013  0.7246153E+02  0.7816164E-02  0.1226708E+00
        -11   -1    0    0    0    0  0.00000000000E+00  0.00000000000E+00  0.45593999997E+02  0.45594000000E+02  0.51100000000E-03 0. -1.
         11   -1    0    0    0    0 -0.00000000000E+00 -0.00000000000E+00 -0.45593999997E+02  0.45594000000E+02  0.51100000000E-03 0.  1.
    9900012    2    1    2    0    0  0.97505414187E+01 -0.11717778484E+02  0.10876636692E+02  0.72461531665E+02  0.69999949678E+02 0.  0.
        -12    1    1    2    0    0 -0.97505414187E+01  0.11717778484E+02 -0.10876636692E+02  0.18726468335E+02  0.00000000000E+00 0.  1.
         11    1    3    3    0    0 -0.79146978804E+01  0.44383582779E+01  0.11342584569E+01  0.91448351133E+01  0.51100000000E-03 0. -1.
        -11    1    3    3    0    0  0.92655417465E+01 -0.19382531445E+02 -0.21745768245E+02  0.30568140700E+02  0.51100000000E-03 0.  1.
         12    1    3    3    0    0  0.83996975526E+01  0.32263946825E+01  0.31488146480E+02  0.32748555851E+02  0.00000000000E+00 0. -1.
</event>
<event>
 7    1  0.2489154E-013  0.7246162E+02  0.7816164E-02  0.1226708E+00
        -11   -1    0    0    0    0  0.00000000000E+00  0.00000000000E+00  0.45593999997E+02  0.45594000000E+02  0.51100000000E-03 0. -1.
         11   -1    0    0    0    0 -0.00000000000E+00 -0.00000000000E+00 -0.45593999997E+02  0.45594000000E+02  0.51100000000E-03 0.  1.
    9900012    2    1    2    0    0  0.14723027405E+02  0.87493849625E+01  0.75735154018E+01  0.72461617308E+02  0.70000061244E+02 0.  0.
        -12    1    1    2    0    0 -0.14723027405E+02 -0.87493849625E+01 -0.75735154018E+01  0.18726382692E+02  0.00000000000E+00 0.  1.
         11    1    3    3    0    0  0.13991970522E+02  0.72804969195E+01  0.59253903284E+01  0.16849068974E+02  0.51100000000E-03 0. -1.
        -11    1    3    3    0    0  0.17152467719E+02  0.17185826910E+02 -0.13989248930E+02  0.28022471007E+02  0.51100000000E-03 0.  1.
         12    1    3    3    0    0 -0.16421410836E+02 -0.15716938867E+02  0.15637374004E+02  0.27590077327E+02  0.00000000000E+00 0. -1.
</event>
<event>
 7    1  0.2489154E-013  0.7246160E+02  0.7816164E-02  0.1226708E+00
        -11   -1    0    0    0    0  0.00000000000E+00  0.00000000000E+00  0.45593999997E+02  0.45594000000E+02  0.51100000000E-03 0.  1.
         11   -1    0    0    0    0 -0.00000000000E+00 -0.00000000000E+00 -0.45593999997E+02  0.45594000000E+02  0.51100000000E-03 0. -1.
    9900012    2    1    2    0    0  0.18094455463E+02 -0.28257719876E+01 -0.39094554779E+01  0.72461597570E+02  0.70000035532E+02 0.  0.
        -12    1    1    2    0    0 -0.18094455463E+02  0.28257719876E+01  0.39094554779E+01  0.18726402430E+02  0.00000000000E+00 0.  1.
         11    1    3    3    0    0  0.77992308730E+00  0.16515471638E+02  0.17911395981E+02  0.24375955155E+02  0.51100000000E-03 0. -1.
        -11    1    3    3    0    0  0.17657012760E+02 -0.97190794209E+00 -0.23751859827E+02  0.29611915678E+02  0.51100000000E-03 0.  1.
        -12    1    3    3    0    0 -0.34248038380E+00 -0.18369335683E+02  0.19310083674E+01  0.18473726737E+02  0.00000000000E+00 0.  1.
</event>
<event>
 7    1  0.2489154E-013  0.7246203E+02  0.7816164E-02  0.1226707E+00
        -11   -1    0    0    0    0  0.00000000000E+00  0.00000000000E+00  0.45593999997E+02  0.45594000000E+02  0.51100000000E-03 0.  1.
         11   -1    0    0    0    0 -0.00000000000E+00 -0.00000000000E+00 -0.45593999997E+02  0.45594000000E+02  0.51100000000E-03 0. -1.
    9900012    2    1    2    0    0 -0.25946650136E+01  0.40961358823E+01 -0.18087327647E+02  0.72462027739E+02  0.70000595904E+02 0.  0.
        -12    1    1    2    0    0  0.25946650136E+01 -0.40961358823E+01  0.18087327647E+02  0.18725972261E+02  0.00000000000E+00 0.  1.
         11    1    3    3    0    0  0.51382646132E+01 -0.58233520402E+00  0.21064794790E+00  0.51754468738E+01  0.51100000000E-03 0. -1.
        -11    1    3    3    0    0 -0.27329543903E+02 -0.19296264486E+02 -0.12893382051E+02  0.35853717995E+02  0.51100000000E-03 0.  1.
         12    1    3    3    0    0  0.19596614277E+02  0.23974735572E+02 -0.54045935441E+01  0.31432862871E+02  0.00000000000E+00 0. -1.
</event>
<event>
 7    1  0.2489154E-013  0.7246158E+02  0.7816164E-02  0.1226708E+00
        -11   -1    0    0    0    0  0.00000000000E+00  0.00000000000E+00  0.45593999997E+02  0.45594000000E+02  0.51100000000E-03 0.  1.
         11   -1    0    0    0    0 -0.00000000000E+00 -0.00000000000E+00 -0.45593999997E+02  0.45594000000E+02  0.51100000000E-03 0. -1.
    9900012    2    1    2    0    0 -0.18075235288E+02  0.45876080381E+01 -0.17083631911E+01  0.72461580614E+02  0.70000013443E+02 0.  0.
        -12    1    1    2    0    0  0.18075235288E+02 -0.45876080381E+01  0.17083631911E+01  0.18726419386E+02  0.00000000000E+00 0.  1.
         11    1    3    3    0    0 -0.17098768885E+02  0.18930905160E+02 -0.73225632790E+01  0.26539913353E+02  0.51100000000E-03 0. -1.
        -11    1    3    3    0    0  0.14647541309E+02  0.35923493234E+01  0.14120256349E+02  0.20660035810E+02  0.51100000000E-03 0.  1.
         12    1    3    3    0    0 -0.15624007712E+02 -0.17935646446E+02 -0.85060562614E+01  0.25261631450E+02  0.00000000000E+00 0. -1.
</event>
<event>
 7    1  0.2489154E-013  0.7246153E+02  0.7816164E-02  0.1226708E+00
        -11   -1    0    0    0    0  0.00000000000E+00  0.00000000000E+00  0.45593999997E+02  0.45594000000E+02  0.51100000000E-03 0. -1.
         11   -1    0    0    0    0 -0.00000000000E+00 -0.00000000000E+00 -0.45593999997E+02  0.45594000000E+02  0.51100000000E-03 0.  1.
    9900012    2    1    2    0    0  0.11750516514E+02  0.45956415962E-01  0.14580946670E+02  0.72461527932E+02  0.69999944815E+02 0.  0.
        -12    1    1    2    0    0 -0.11750516514E+02 -0.45956415962E-01 -0.14580946670E+02  0.18726472068E+02  0.00000000000E+00 0.  1.
         11    1    3    3    0    0 -0.10934420535E+01  0.18859523669E+02 -0.12124919101E+02  0.22447514607E+02  0.51100000000E-03 0. -1.
        -11    1    3    3    0    0  0.18302246293E+02 -0.14183242046E+01  0.84998357666E+00  0.18376787947E+02  0.51100000000E-03 0.  1.
         12    1    3    3    0    0 -0.54582877251E+01 -0.17395243048E+02  0.25855882194E+02  0.31637225378E+02  0.00000000000E+00 0. -1.
</event>
<event>
 7    1  0.2882548E-013  0.7246159E+02  0.7816164E-02  0.1226708E+00
        -11   -1    0    0    0    0  0.00000000000E+00  0.00000000000E+00  0.45593999997E+02  0.45594000000E+02  0.51100000000E-03 0. -1.
         11   -1    0    0    0    0 -0.00000000000E+00 -0.00000000000E+00 -0.45593999997E+02  0.45594000000E+02  0.51100000000E-03 0.  1.
    9900012    2    1    2    0    0  0.16339153020E+01  0.64778117799E+01  0.17494195965E+02  0.72461585043E+02  0.70000019213E+02 0.  0.
        -12    1    1    2    0    0 -0.16339153020E+01 -0.64778117799E+01 -0.17494195965E+02  0.18726414957E+02  0.00000000000E+00 0.  1.
         11    1    3    3    0    0 -0.16898890666E+01  0.11764694918E+02  0.55550698664E+01  0.13119549270E+02  0.51100000000E-03 0. -1.
        -11    1    3    3    0    0 -0.23270266697E+02  0.77714923413E+01 -0.52506250070E+01  0.25089250060E+02  0.51100000000E-03 0.  1.
         12    1    3    3    0    0  0.26594071066E+02 -0.13058375479E+02  0.17189751106E+02  0.34252785713E+02  0.00000000000E+00 0. -1.
</event>
<event>
 7    1  0.2489154E-013  0.7246155E+02  0.7816164E-02  0.1226708E+00
        -11   -1    0    0    0    0  0.00000000000E+00  0.00000000000E+00  0.45593999997E+02  0.45594000000E+02  0.51100000000E-03 0. -1.
         11   -1    0    0    0    0 -0.00000000000E+00 -0.00000000000E+00 -0.45593999997E+02  0.45594000000E+02  0.51100000000E-03 0.  1.
    9900012    2    1    2    0    0 -0.14911951092E+02 -0.10540373982E+02 -0.41490126668E+01  0.72461546113E+02  0.69999968500E+02 0.  0.
        -12    1    1    2    0    0  0.14911951092E+02  0.10540373982E+02  0.41490126668E+01  0.18726453887E+02  0.00000000000E+00 0.  1.
         11    1    3    3    0    0 -0.13018552674E+02  0.22204297366E+01  0.18949376422E+02  0.23097443343E+02  0.51100000000E-03 0. -1.
        -11    1    3    3    0    0  0.27331185979E+01  0.14213165766E+02 -0.14951468723E+02  0.20809383355E+02  0.51100000000E-03 0.  1.
         12    1    3    3    0    0 -0.46265170165E+01 -0.26973969484E+02 -0.81469203660E+01  0.28554719416E+02  0.00000000000E+00 0. -1.
</event>
<event>
 7    1  0.2489154E-013  0.7246157E+02  0.7816164E-02  0.1226708E+00
        -11   -1    0    0    0    0  0.00000000000E+00  0.00000000000E+00  0.45593999997E+02  0.45594000000E+02  0.51100000000E-03 0. -1.
         11   -1    0    0    0    0 -0.00000000000E+00 -0.00000000000E+00 -0.45593999997E+02  0.45594000000E+02  0.51100000000E-03 0.  1.
    9900012    2    1    2    0    0  0.11008276767E+01  0.52776026859E+01  0.17933602636E+02  0.72461574415E+02  0.70000005368E+02 0.  0.
        -12    1    1    2    0    0 -0.11008276767E+01 -0.52776026859E+01 -0.17933602636E+02  0.18726425585E+02  0.00000000000E+00 0.  1.
         11    1    3    3    0    0  0.61095066098E+01  0.17887737220E+02  0.93845403121E+01  0.21103715573E+02  0.51100000000E-03 0. -1.
        -11    1    3    3    0    0  0.87577939184E+01  0.15567416672E+02  0.89846590097E+01  0.19994187004E+02  0.51100000000E-03 0.  1.
        -12    1    3    3    0    0 -0.13766472852E+02 -0.28177551206E+02 -0.43559668596E+00  0.31363671838E+02  0.00000000000E+00 0.  1.
</event>
<event>
 7    1  0.2489154E-013  0.7246158E+02  0.7816164E-02  0.1226708E+00
        -11   -1    0    0    0    0  0.00000000000E+00  0.00000000000E+00  0.45593999997E+02  0.45594000000E+02  0.51100000000E-03 0.  1.
         11   -1    0    0    0    0 -0.00000000000E+00 -0.00000000000E+00 -0.45593999997E+02  0.45594000000E+02  0.51100000000E-03 0. -1.
    9900012    2    1    2    0    0  0.14733867505E+02  0.66576745371E+01 -0.94481451978E+01  0.72461576701E+02  0.70000008346E+02 0.  0.
        -12    1    1    2    0    0 -0.14733867505E+02 -0.66576745371E+01  0.94481451978E+01  0.18726423299E+02  0.00000000000E+00 0.  1.
         11    1    3    3    0    0  0.23008456852E+02 -0.21141483205E+02 -0.15739238379E+02  0.34986783560E+02  0.51100000000E-03 0. -1.
        -11    1    3    3    0    0  0.28267312075E+01 -0.57988384084E+00  0.63792915403E+01  0.70015737806E+01  0.51100000000E-03 0.  1.
         12    1    3    3    0    0 -0.11101320555E+02  0.28379041583E+02 -0.88198358720E-01  0.30473219361E+02  0.00000000000E+00 0. -1.
</event>
<event>
 7    1  0.2489154E-013  0.7246157E+02  0.7816164E-02  0.1226708E+00
        -11   -1    0    0    0    0  0.00000000000E+00  0.00000000000E+00  0.45593999997E+02  0.45594000000E+02  0.51100000000E-03 0. -1.
         11   -1    0    0    0    0 -0.00000000000E+00 -0.00000000000E+00 -0.45593999997E+02  0.45594000000E+02  0.51100000000E-03 0.  1.
    9900012    2    1    2    0    0  0.38779969795E+00  0.11713390785E+02  0.14605664030E+02  0.72461565902E+02  0.69999994278E+02 0.  0.
        -12    1    1    2    0    0 -0.38779969795E+00 -0.11713390785E+02 -0.14605664030E+02  0.18726434098E+02  0.00000000000E+00 0.  1.
         11    1    3    3    0    0 -0.27471603998E+00  0.13646804414E+02 -0.15659512288E+02  0.20773325804E+02  0.51100000000E-03 0. -1.
        -11    1    3    3    0    0  0.17149210946E+02 -0.64978847511E+01  0.17329930836E+01  0.18420673375E+02  0.51100000000E-03 0.  1.
         12    1    3    3    0    0 -0.16486695208E+02  0.45644711216E+01  0.28532183235E+02  0.33267566722E+02  0.00000000000E+00 0. -1.
</event>
<event>
 7    1  0.2489154E-013  0.7246156E+02  0.7816164E-02  0.1226708E+00
        -11   -1    0    0    0    0  0.00000000000E+00  0.00000000000E+00  0.45593999997E+02  0.45594000000E+02  0.51100000000E-03 0.  1.
         11   -1    0    0    0    0 -0.00000000000E+00 -0.00000000000E+00 -0.45593999997E+02  0.45594000000E+02  0.51100000000E-03 0. -1.
    9900012    2    1    2    0    0  0.45570464858E+01 -0.15386460882E+02 -0.96524364889E+01  0.72461564639E+02  0.69999992633E+02 0.  0.
        -12    1    1    2    0    0 -0.45570464858E+01  0.15386460882E+02  0.96524364889E+01  0.18726435361E+02  0.00000000000E+00 0.  1.
         11    1    3    3    0    0 -0.73752736346E+00 -0.77148181745E+01  0.47490641950E+01  0.90893331475E+01  0.51100000000E-03 0. -1.
        -11    1    3    3    0    0  0.30583108990E+02 -0.33897836686E+01  0.50500638606E+01  0.31182051473E+02  0.51100000000E-03 0.  1.
         12    1    3    3    0    0 -0.25288535141E+02 -0.42818590390E+01 -0.19451564544E+02  0.32190180019E+02  0.00000000000E+00 0. -1.
</event>
<event>
 7    1  0.2489154E-013  0.7246153E+02  0.7816164E-02  0.1226708E+00
        -11   -1    0    0    0    0  0.00000000000E+00  0.00000000000E+00  0.45593999997E+02  0.45594000000E+02  0.51100000000E-03 0. -1.
         11   -1    0    0    0    0 -0.00000000000E+00 -0.00000000000E+00 -0.45593999997E+02  0.45594000000E+02  0.51100000000E-03 0.  1.
    9900012    2    1    2    0    0 -0.81636457682E+01  0.15063020525E+02  0.75591598150E+01  0.72461532189E+02  0.69999950361E+02 0.  0.
        -12    1    1    2    0    0  0.81636457682E+01 -0.15063020525E+02 -0.75591598150E+01  0.18726467811E+02  0.00000000000E+00 0.  1.
         11    1    3    3    0    0  0.90468939711E+01  0.54713899119E+01 -0.59230292099E+01  0.12118773592E+02  0.51100000000E-03 0. -1.
        -11    1    3    3    0    0  0.84632290238E+01  0.15499327139E+02 -0.13803804399E+02  0.22414290161E+02  0.51100000000E-03 0.  1.
         12    1    3    3    0    0 -0.25673768763E+02 -0.59076965257E+01  0.27285993424E+02  0.37928468436E+02  0.00000000000E+00 0. -1.
</event>
<event>
 7    1  0.2489154E-013  0.7246157E+02  0.7816164E-02  0.1226708E+00
        -11   -1    0    0    0    0  0.00000000000E+00  0.00000000000E+00  0.45593999997E+02  0.45594000000E+02  0.51100000000E-03 0. -1.
         11   -1    0    0    0    0 -0.00000000000E+00 -0.00000000000E+00 -0.45593999997E+02  0.45594000000E+02  0.51100000000E-03 0.  1.
    9900012    2    1    2    0    0 -0.70029858950E+01  0.16048881941E+02 -0.66385708486E+01  0.72461573595E+02  0.70000004299E+02 0.  0.
        -12    1    1    2    0    0  0.70029858950E+01 -0.16048881941E+02  0.66385708486E+01  0.18726426405E+02  0.00000000000E+00 0.  1.
         11    1    3    3    0    0  0.54614405667E+01  0.15960067546E+02 -0.27456852572E+02  0.32224677540E+02  0.51100000000E-03 0. -1.
        -11    1    3    3    0    0 -0.92968914940E+01 -0.48029022640E+01 -0.64901955371E+01  0.12313516962E+02  0.51100000000E-03 0.  1.
        -12    1    3    3    0    0 -0.31675349678E+01  0.48917166595E+01  0.27308477261E+02  0.27923379092E+02  0.00000000000E+00 0.  1.
</event>
<event>
 7    1  0.2489154E-013  0.7246156E+02  0.7816164E-02  0.1226708E+00
        -11   -1    0    0    0    0  0.00000000000E+00  0.00000000000E+00  0.45593999997E+02  0.45594000000E+02  0.51100000000E-03 0. -1.
         11   -1    0    0    0    0 -0.00000000000E+00 -0.00000000000E+00 -0.45593999997E+02  0.45594000000E+02  0.51100000000E-03 0.  1.
    9900012    2    1    2    0    0  0.12587772312E+01 -0.31854985763E+01  0.18410532369E+02  0.72461558176E+02  0.69999984213E+02 0.  0.
        -12    1    1    2    0    0 -0.12587772312E+01  0.31854985763E+01 -0.18410532369E+02  0.18726441824E+02  0.00000000000E+00 0.  1.
         11    1    3    3    0    0  0.43819835631E+01 -0.43685288802E+01  0.49088688814E+01  0.78982794633E+01  0.51100000000E-03 0. -1.
        -11    1    3    3    0    0  0.16024990932E+02 -0.23203121018E+02  0.17671596428E+02  0.33278679059E+02  0.51100000000E-03 0.  1.
         12    1    3    3    0    0 -0.19148197264E+02  0.24386151322E+02 -0.41699329404E+01  0.31284599653E+02  0.00000000000E+00 0. -1.
</event>
<event>
 7    1  0.2489154E-013  0.7246162E+02  0.7816164E-02  0.1226708E+00
        -11   -1    0    0    0    0  0.00000000000E+00  0.00000000000E+00  0.45593999997E+02  0.45594000000E+02  0.51100000000E-03 0.  1.
         11   -1    0    0    0    0 -0.00000000000E+00 -0.00000000000E+00 -0.45593999997E+02  0.45594000000E+02  0.51100000000E-03 0. -1.
    9900012    2    1    2    0    0 -0.87734919082E+01  0.12709976280E+02 -0.10590538356E+02  0.72461623950E+02  0.70000069896E+02 0.  0.
        -12    1    1    2    0    0  0.87734919082E+01 -0.12709976280E+02  0.10590538356E+02  0.18726376050E+02  0.00000000000E+00 0.  1.
         11    1    3    3    0    0  0.48982444919E+01 -0.14152253777E+01  0.72830772526E+01  0.88903811224E+01  0.51100000000E-03 0. -1.
        -11    1    3    3    0    0  0.70566353983E+01 -0.14103311638E+02  0.10118656998E+02  0.18737308291E+02  0.51100000000E-03 0.  1.
         12    1    3    3    0    0 -0.20728371798E+02  0.28228513296E+02 -0.27992272607E+02  0.44833934536E+02  0.00000000000E+00 0. -1.
</event>
<event>
 7    1  0.2489154E-013  0.7246152E+02  0.7816164E-02  0.1226708E+00
        -11   -1    0    0    0    0  0.00000000000E+00  0.00000000000E+00  0.45593999997E+02  0.45594000000E+02  0.51100000000E-03 0. -1.
         11   -1    0    0    0    0 -0.00000000000E+00 -0.00000000000E+00 -0.45593999997E+02  0.45594000000E+02  0.51100000000E-03 0.  1.
    9900012    2    1    2    0    0 -0.76218065536E+01  0.13325366094E+02  0.10724909412E+02  0.72461521458E+02  0.69999936382E+02 0.  0.
        -12    1    1    2    0    0  0.76218065536E+01 -0.13325366094E+02 -0.10724909412E+02  0.18726478542E+02  0.00000000000E+00 0.  1.
         11    1    3    3    0    0  0.19687190104E+01 -0.62409328243E+01  0.95143790656E+00  0.66128913049E+01  0.51100000000E-03 0. -1.
        -11    1    3    3    0    0 -0.16616775368E+01 -0.21865012485E+02  0.88747308033E+01  0.23655882784E+02  0.51100000000E-03 0.  1.
         12    1    3    3    0    0 -0.79288480272E+01  0.41431311404E+02  0.89874070241E+00  0.42192747369E+02  0.00000000000E+00 0. -1.
</event>
<event>
 7    1  0.2489154E-013  0.7246156E+02  0.7816164E-02  0.1226708E+00
        -11   -1    0    0    0    0  0.00000000000E+00  0.00000000000E+00  0.45593999997E+02  0.45594000000E+02  0.51100000000E-03 0.  1.
         11   -1    0    0    0    0 -0.00000000000E+00 -0.00000000000E+00 -0.45593999997E+02  0.45594000000E+02  0.51100000000E-03 0. -1.
    9900012    2    1    2    0    0  0.39751782828E+01 -0.10789018922E+01 -0.18267827343E+02  0.72461559134E+02  0.69999985461E+02 0.  0.
        -12    1    1    2    0    0 -0.39751782828E+01  0.10789018922E+01  0.18267827343E+02  0.18726440866E+02  0.00000000000E+00 0.  1.
         11    1    3    3    0    0  0.31946328300E+00 -0.55570996093E+01 -0.18346316939E+02  0.19172134945E+02  0.51100000000E-03 0. -1.
        -11    1    3    3    0    0  0.20432125752E+00 -0.14157986938E+02 -0.20754851455E+02  0.25124772645E+02  0.51100000000E-03 0.  1.
        -12    1    3    3    0    0  0.34513937422E+01  0.18636184655E+02  0.20833341050E+02  0.28164651544E+02  0.00000000000E+00 0.  1.
</event>
<event>
 7    1  0.2489154E-013  0.7246162E+02  0.7816164E-02  0.1226708E+00
        -11   -1    0    0    0    0  0.00000000000E+00  0.00000000000E+00  0.45593999997E+02  0.45594000000E+02  0.51100000000E-03 0.  1.
         11   -1    0    0    0    0 -0.00000000000E+00 -0.00000000000E+00 -0.45593999997E+02  0.45594000000E+02  0.51100000000E-03 0. -1.
    9900012    2    1    2    0    0 -0.12287597504E+02 -0.33422170184E+01 -0.13730331768E+02  0.72461615472E+02  0.70000058852E+02 0.  0.
        -12    1    1    2    0    0  0.12287597504E+02  0.33422170184E+01  0.13730331768E+02  0.18726384528E+02  0.00000000000E+00 0.  1.
         11    1    3    3    0    0  0.19893691197E+02 -0.60048476983E+01 -0.59745605424E+01  0.21622037815E+02  0.51100000000E-03 0. -1.
        -11    1    3    3    0    0 -0.60341299205E+01 -0.14142485705E+02  0.64389660505E+01  0.16669760342E+02  0.51100000000E-03 0.  1.
         12    1    3    3    0    0 -0.26147158781E+02  0.16805116385E+02 -0.14194737276E+02  0.34169817315E+02  0.00000000000E+00 0. -1.
</event>
<event>
 7    1  0.2489154E-013  0.7246165E+02  0.7816164E-02  0.1226708E+00
        -11   -1    0    0    0    0  0.00000000000E+00  0.00000000000E+00  0.45593999997E+02  0.45594000000E+02  0.51100000000E-03 0. -1.
         11   -1    0    0    0    0 -0.00000000000E+00 -0.00000000000E+00 -0.45593999997E+02  0.45594000000E+02  0.51100000000E-03 0.  1.
    9900012    2    1    2    0    0 -0.17166096137E+02 -0.49204648941E+01  0.56383028414E+01  0.72461647171E+02  0.70000100146E+02 0.  0.
        -12    1    1    2    0    0  0.17166096137E+02  0.49204648941E+01 -0.56383028414E+01  0.18726352829E+02  0.00000000000E+00 0.  1.
         11    1    3    3    0    0  0.17291541446E+02 -0.89545452082E+01  0.41856665383E+01  0.19917356504E+02  0.51100000000E-03 0. -1.
        -11    1    3    3    0    0  0.63593397503E+01  0.49343213611E+01 -0.72126733544E+01  0.10807931649E+02  0.51100000000E-03 0.  1.
         12    1    3    3    0    0 -0.40816977334E+02 -0.90024104701E+00  0.86653096574E+01  0.41736359018E+02  0.00000000000E+00 0. -1.
</event>
<event>
 7    1  0.2489154E-013  0.7246156E+02  0.7816164E-02  0.1226708E+00
        -11   -1    0    0    0    0  0.00000000000E+00  0.00000000000E+00  0.45593999997E+02  0.45594000000E+02  0.51100000000E-03 0.  1.
         11   -1    0    0    0    0 -0.00000000000E+00 -0.00000000000E+00 -0.45593999997E+02  0.45594000000E+02  0.51100000000E-03 0. -1.
    9900012    2    1    2    0    0 -0.90498231192E+01 -0.14248172507E+02 -0.81098550061E+01  0.72461562365E+02  0.69999989671E+02 0.  0.
        -12    1    1    2    0    0  0.90498231192E+01  0.14248172507E+02  0.81098550061E+01  0.18726437635E+02  0.00000000000E+00 0.  1.
         11    1    3    3    0    0  0.43455533437E+01 -0.89048856995E+01 -0.18794655798E+02  0.21246644676E+02  0.51100000000E-03 0. -1.
        -11    1    3    3    0    0 -0.19962519020E+02 -0.22377842606E+02 -0.14437297307E+00  0.29988178489E+02  0.51100000000E-03 0.  1.
        -12    1    3    3    0    0  0.65671425569E+01  0.17034555798E+02  0.10829173765E+02  0.21226739199E+02  0.00000000000E+00 0.  1.
</event>
<event>
 7    1  0.2489154E-013  0.7246156E+02  0.7816164E-02  0.1226708E+00
        -11   -1    0    0    0    0  0.00000000000E+00  0.00000000000E+00  0.45593999997E+02  0.45594000000E+02  0.51100000000E-03 0.  1.
         11   -1    0    0    0    0 -0.00000000000E+00 -0.00000000000E+00 -0.45593999997E+02  0.45594000000E+02  0.51100000000E-03 0. -1.
    9900012    2    1    2    0    0  0.25970782062E+01 -0.11288126372E+02 -0.14714379563E+02  0.72461559385E+02  0.69999985788E+02 0.  0.
        -12    1    1    2    0    0 -0.25970782062E+01  0.11288126372E+02  0.14714379563E+02  0.18726440615E+02  0.00000000000E+00 0.  1.
         11    1    3    3    0    0  0.35126755028E+01  0.15747803372E+02 -0.12015938482E+02  0.20117529125E+02  0.51100000000E-03 0. -1.
        -11    1    3    3    0    0  0.54620490266E+01  0.80915772897E+01 -0.11981404046E+02  0.15455149491E+02  0.51100000000E-03 0.  1.
        -12    1    3    3    0    0 -0.63776463231E+01 -0.35127507033E+02  0.92829629645E+01  0.36888880769E+02  0.00000000000E+00 0.  1.
</event>
<event>
 7    1  0.2489154E-013  0.7246153E+02  0.7816164E-02  0.1226708E+00
        -11   -1    0    0    0    0  0.00000000000E+00  0.00000000000E+00  0.45593999997E+02  0.45594000000E+02  0.51100000000E-03 0.  1.
         11   -1    0    0    0    0 -0.00000000000E+00 -0.00000000000E+00 -0.45593999997E+02  0.45594000000E+02  0.51100000000E-03 0. -1.
    9900012    2    1    2    0    0  0.55732885560E+01  0.14213525470E+02 -0.10844123238E+02  0.72461525147E+02  0.69999941188E+02 0.  0.
        -12    1    1    2    0    0 -0.55732885560E+01 -0.14213525470E+02  0.10844123238E+02  0.18726474853E+02  0.00000000000E+00 0.  1.
         11    1    3    3    0    0 -0.79649399615E+01  0.47981489240E+01 -0.49212573164E+01  0.10520516885E+02  0.51100000000E-03 0. -1.
        -11    1    3    3    0    0 -0.22721026492E+02  0.10356451839E+02 -0.59517815200E+01  0.25669531415E+02  0.51100000000E-03 0.  1.
        -12    1    3    3    0    0  0.36259255010E+02 -0.94107529327E+00  0.28915598372E-01  0.36271476847E+02  0.00000000000E+00 0.  1.
</event>
<event>
 7    1  0.2489154E-013  0.7246162E+02  0.7816164E-02  0.1226708E+00
        -11   -1    0    0    0    0  0.00000000000E+00  0.00000000000E+00  0.45593999997E+02  0.45594000000E+02  0.51100000000E-03 0.  1.
         11   -1    0    0    0    0 -0.00000000000E+00 -0.00000000000E+00 -0.45593999997E+02  0.45594000000E+02  0.51100000000E-03 0. -1.
    9900012    2    1    2    0    0  0.11162643730E+02  0.52645793129E+00 -0.15026496358E+02  0.72461618454E+02  0.70000062737E+02 0.  0.
        -12    1    1    2    0    0 -0.11162643730E+02 -0.52645793129E+00  0.15026496358E+02  0.18726381546E+02  0.00000000000E+00 0.  1.
         11    1    3    3    0    0 -0.15294334199E+01 -0.25608434731E+02 -0.19058276331E+02  0.31958551170E+02  0.51100000000E-03 0. -1.
        -11    1    3    3    0    0 -0.50085171597E+01  0.69295409037E+01  0.10554152085E+02  0.13582853447E+02  0.51100000000E-03 0.  1.
        -12    1    3    3    0    0  0.17700594310E+02  0.19205351758E+02 -0.65223721115E+01  0.26920213837E+02  0.00000000000E+00 0.  1.
</event>
<event>
 7    1  0.2489154E-013  0.7246157E+02  0.7816164E-02  0.1226708E+00
        -11   -1    0    0    0    0  0.00000000000E+00  0.00000000000E+00  0.45593999997E+02  0.45594000000E+02  0.51100000000E-03 0.  1.
         11   -1    0    0    0    0 -0.00000000000E+00 -0.00000000000E+00 -0.45593999997E+02  0.45594000000E+02  0.51100000000E-03 0. -1.
    9900012    2    1    2    0    0  0.25373557585E+01  0.14863213036E+02 -0.11105225351E+02  0.72461566648E+02  0.69999995250E+02 0.  0.
        -12    1    1    2    0    0 -0.25373557585E+01 -0.14863213036E+02  0.11105225351E+02  0.18726433352E+02  0.00000000000E+00 0.  1.
         11    1    3    3    0    0 -0.99422210794E-01 -0.65119350843E+00 -0.82968754553E+00  0.10593957928E+01  0.51100000000E-03 0. -1.
        -11    1    3    3    0    0 -0.30285789952E+02 -0.54046620622E+01  0.10584039918E+01  0.30782457087E+02  0.51100000000E-03 0.  1.
         12    1    3    3    0    0  0.32922567922E+02  0.20919068606E+02 -0.11333941798E+02  0.40619713768E+02  0.00000000000E+00 0. -1.
</event>
<event>
 7    1  0.2489154E-013  0.7246158E+02  0.7816164E-02  0.1226708E+00
        -11   -1    0    0    0    0  0.00000000000E+00  0.00000000000E+00  0.45593999997E+02  0.45594000000E+02  0.51100000000E-03 0. -1.
         11   -1    0    0    0    0 -0.00000000000E+00 -0.00000000000E+00 -0.45593999997E+02  0.45594000000E+02  0.51100000000E-03 0.  1.
    9900012    2    1    2    0    0  0.12694727923E+02 -0.12533848122E+02  0.56943219360E+01  0.72461581012E+02  0.70000013962E+02 0.  0.
        -12    1    1    2    0    0 -0.12694727923E+02  0.12533848122E+02 -0.56943219360E+01  0.18726418988E+02  0.00000000000E+00 0.  1.
         11    1    3    3    0    0  0.13513089652E+02 -0.16829549573E+02  0.26251051476E+02  0.33984629388E+02  0.51100000000E-03 0. -1.
        -11    1    3    3    0    0 -0.84291222466E+01 -0.83954572026E+01  0.14211287697E+01  0.11981377664E+02  0.51100000000E-03 0.  1.
        -12    1    3    3    0    0  0.76107605177E+01  0.12691158654E+02 -0.21977858309E+02  0.26495573961E+02  0.00000000000E+00 0.  1.
</event>
<event>
 7    1  0.2489154E-013  0.7246157E+02  0.7816164E-02  0.1226708E+00
        -11   -1    0    0    0    0  0.00000000000E+00  0.00000000000E+00  0.45593999997E+02  0.45594000000E+02  0.51100000000E-03 0. -1.
         11   -1    0    0    0    0 -0.00000000000E+00 -0.00000000000E+00 -0.45593999997E+02  0.45594000000E+02  0.51100000000E-03 0.  1.
    9900012    2    1    2    0    0  0.75359103936E+01  0.43505942254E+01  0.16581970107E+02  0.72461565524E+02  0.69999993785E+02 0.  0.
        -12    1    1    2    0    0 -0.75359103936E+01 -0.43505942254E+01 -0.16581970107E+02  0.18726434476E+02  0.00000000000E+00 0.  1.
         11    1    3    3    0    0  0.86384903266E+01 -0.66235012450E+00  0.99051794233E+01  0.13159589753E+02  0.51100000000E-03 0. -1.
        -11    1    3    3    0    0 -0.34752581656E+01  0.31158607283E+02 -0.25966643912E+01  0.31459162312E+02  0.51100000000E-03 0.  1.
         12    1    3    3    0    0  0.23726782326E+01 -0.26145662934E+02  0.92734550748E+01  0.27842813458E+02  0.00000000000E+00 0. -1.
</event>
<event>
 7    1  0.2489154E-013  0.7246179E+02  0.7816164E-02  0.1226707E+00
        -11   -1    0    0    0    0  0.00000000000E+00  0.00000000000E+00  0.45593999997E+02  0.45594000000E+02  0.51100000000E-03 0. -1.
         11   -1    0    0    0    0 -0.00000000000E+00 -0.00000000000E+00 -0.45593999997E+02  0.45594000000E+02  0.51100000000E-03 0.  1.
    9900012    2    1    2    0    0  0.17129487830E+02 -0.75099598315E+01  0.92316996969E+00  0.72461785946E+02  0.70000280926E+02 0.  0.
        -12    1    1    2    0    0 -0.17129487830E+02  0.75099598315E+01 -0.92316996969E+00  0.18726214054E+02  0.00000000000E+00 0.  1.
         11    1    3    3    0    0  0.14084368680E+02 -0.16787026092E+01  0.21210166047E+02  0.25515850516E+02  0.51100000000E-03 0. -1.
        -11    1    3    3    0    0  0.18034838322E+02  0.91853238069E+01 -0.51558483596E+01  0.20885601244E+02  0.51100000000E-03 0.  1.
         12    1    3    3    0    0 -0.14989719171E+02 -0.15016581029E+02 -0.15131147718E+02  0.26060334186E+02  0.00000000000E+00 0. -1.
</event>
<event>
 7    1  0.2489154E-013  0.7246162E+02  0.7816164E-02  0.1226708E+00
        -11   -1    0    0    0    0  0.00000000000E+00  0.00000000000E+00  0.45593999997E+02  0.45594000000E+02  0.51100000000E-03 0.  1.
         11   -1    0    0    0    0 -0.00000000000E+00 -0.00000000000E+00 -0.45593999997E+02  0.45594000000E+02  0.51100000000E-03 0. -1.
    9900012    2    1    2    0    0 -0.66629305781E+01  0.17464095817E+02 -0.11348880098E+01  0.72461621349E+02  0.70000066508E+02 0.  0.
        -12    1    1    2    0    0  0.66629305781E+01 -0.17464095817E+02  0.11348880098E+01  0.18726378651E+02  0.00000000000E+00 0.  1.
         11    1    3    3    0    0  0.98404564317E+01  0.48913181924E+01  0.16165050515E+02  0.19546570923E+02  0.51100000000E-03 0. -1.
        -11    1    3    3    0    0 -0.16296036757E+02  0.24915916115E+02  0.21814214600E+01  0.29851671472E+02  0.51100000000E-03 0.  1.
         12    1    3    3    0    0 -0.20735025291E+00 -0.12343138490E+02 -0.19481359984E+02  0.23063378954E+02  0.00000000000E+00 0. -1.
</event>
<event>
 7    1  0.2489154E-013  0.7246155E+02  0.7816164E-02  0.1226708E+00
        -11   -1    0    0    0    0  0.00000000000E+00  0.00000000000E+00  0.45593999997E+02  0.45594000000E+02  0.51100000000E-03 0.  1.
         11   -1    0    0    0    0 -0.00000000000E+00 -0.00000000000E+00 -0.45593999997E+02  0.45594000000E+02  0.51100000000E-03 0. -1.
    9900012    2    1    2    0    0 -0.13431588774E+02 -0.37092889075E+01  0.12510535478E+02  0.72461550813E+02  0.69999974622E+02 0.  0.
        -12    1    1    2    0    0  0.13431588774E+02  0.37092889075E+01 -0.12510535478E+02  0.18726449187E+02  0.00000000000E+00 0.  1.
         11    1    3    3    0    0 -0.60793635824E+01  0.12785491785E+02 -0.72451410657E+00  0.14175767447E+02  0.51100000000E-03 0. -1.
        -11    1    3    3    0    0  0.19773758010E+02  0.61491086704E+01  0.46191717949E+00  0.20712952735E+02  0.51100000000E-03 0.  1.
         12    1    3    3    0    0 -0.27125983202E+02 -0.22643889363E+02  0.12773132405E+02  0.37572830631E+02  0.00000000000E+00 0. -1.
</event>
<event>
 7    1  0.2489154E-013  0.7246140E+02  0.7816164E-02  0.1226708E+00
        -11   -1    0    0    0    0  0.00000000000E+00  0.00000000000E+00  0.45593999997E+02  0.45594000000E+02  0.51100000000E-03 0.  1.
         11   -1    0    0    0    0 -0.00000000000E+00 -0.00000000000E+00 -0.45593999997E+02  0.45594000000E+02  0.51100000000E-03 0. -1.
    9900012    2    1    2    0    0  0.33217403324E+01  0.18361628139E+02  0.15817973011E+01  0.72461403154E+02  0.69999782268E+02 0.  0.
        -12    1    1    2    0    0 -0.33217403324E+01 -0.18361628139E+02 -0.15817973011E+01  0.18726596846E+02  0.00000000000E+00 0.  1.
         11    1    3    3    0    0 -0.67276572939E+01  0.10533565553E+02 -0.65165183097E+01  0.14095473992E+02  0.51100000000E-03 0. -1.
        -11    1    3    3    0    0 -0.87923787071E+01 -0.13471739318E+02  0.21562241865E+02  0.26902118097E+02  0.51100000000E-03 0.  1.
         12    1    3    3    0    0  0.18841776333E+02  0.21299801905E+02 -0.13463926254E+02  0.31463811065E+02  0.00000000000E+00 0. -1.
</event>
<event>
 7    1  0.2489154E-013  0.7246150E+02  0.7816164E-02  0.1226708E+00
        -11   -1    0    0    0    0  0.00000000000E+00  0.00000000000E+00  0.45593999997E+02  0.45594000000E+02  0.51100000000E-03 0.  1.
         11   -1    0    0    0    0 -0.00000000000E+00 -0.00000000000E+00 -0.45593999997E+02  0.45594000000E+02  0.51100000000E-03 0. -1.
    9900012    2    1    2    0    0  0.18313263488E+02  0.26020874913E+01 -0.29215534600E+01  0.72461495961E+02  0.69999903167E+02 0.  0.
        -12    1    1    2    0    0 -0.18313263488E+02 -0.26020874913E+01  0.29215534600E+01  0.18726504039E+02  0.00000000000E+00 0.  1.
         11    1    3    3    0    0  0.74712895226E+01  0.95367847091E+01 -0.26040010309E+02  0.28720246637E+02  0.51100000000E-03 0. -1.
        -11    1    3    3    0    0  0.35400421230E+00  0.31332681298E+01 -0.84320171278E+01  0.90023108845E+01  0.51100000000E-03 0.  1.
        -12    1    3    3    0    0  0.10487969753E+02 -0.10067965348E+02  0.31550473977E+02  0.34738938440E+02  0.00000000000E+00 0.  1.
</event>
<event>
 7    1  0.2489154E-013  0.7246157E+02  0.7816164E-02  0.1226708E+00
        -11   -1    0    0    0    0  0.00000000000E+00  0.00000000000E+00  0.45593999997E+02  0.45594000000E+02  0.51100000000E-03 0. -1.
         11   -1    0    0    0    0 -0.00000000000E+00 -0.00000000000E+00 -0.45593999997E+02  0.45594000000E+02  0.51100000000E-03 0.  1.
    9900012    2    1    2    0    0  0.16504088258E+02 -0.74251259935E+01  0.48126563612E+01  0.72461572511E+02  0.70000002888E+02 0.  0.
        -12    1    1    2    0    0 -0.16504088258E+02  0.74251259935E+01 -0.48126563612E+01  0.18726427489E+02  0.00000000000E+00 0.  1.
         11    1    3    3    0    0  0.17862175267E+02  0.21045163814E+02  0.15778528101E+02  0.31794939448E+02  0.51100000000E-03 0. -1.
        -11    1    3    3    0    0  0.38169197477E+01 -0.29027254043E+01 -0.13626154557E+02  0.14445303023E+02  0.51100000000E-03 0.  1.
        -12    1    3    3    0    0 -0.51750067564E+01 -0.25567564403E+02  0.26602828180E+01  0.26221330041E+02  0.00000000000E+00 0.  1.
</event>
<event>
 7    1  0.2489154E-013  0.7246159E+02  0.7816164E-02  0.1226708E+00
        -11   -1    0    0    0    0  0.00000000000E+00  0.00000000000E+00  0.45593999997E+02  0.45594000000E+02  0.51100000000E-03 0.  1.
         11   -1    0    0    0    0 -0.00000000000E+00 -0.00000000000E+00 -0.45593999997E+02  0.45594000000E+02  0.51100000000E-03 0. -1.
    9900012    2    1    2    0    0 -0.99733172882E+01  0.15748634095E+02  0.17865953928E+01  0.72461589327E+02  0.70000024793E+02 0.  0.
        -12    1    1    2    0    0  0.99733172882E+01 -0.15748634095E+02 -0.17865953928E+01  0.18726410673E+02  0.00000000000E+00 0.  1.
         11    1    3    3    0    0 -0.61736643225E+01  0.24118356255E+02  0.14523883902E+02  0.28822776471E+02  0.51100000000E-03 0. -1.
        -11    1    3    3    0    0 -0.12539118879E+02  0.47134776179E+01  0.94826929268E+01  0.16412429403E+02  0.51100000000E-03 0.  1.
        -12    1    3    3    0    0  0.87394659134E+01 -0.13083199778E+02 -0.22219981437E+02  0.27226383453E+02  0.00000000000E+00 0.  1.
</event>
<event>
 7    1  0.2489154E-013  0.7246166E+02  0.7816164E-02  0.1226708E+00
        -11   -1    0    0    0    0  0.00000000000E+00  0.00000000000E+00  0.45593999997E+02  0.45594000000E+02  0.51100000000E-03 0.  1.
         11   -1    0    0    0    0 -0.00000000000E+00 -0.00000000000E+00 -0.45593999997E+02  0.45594000000E+02  0.51100000000E-03 0. -1.
    9900012    2    1    2    0    0 -0.59034263114E+01 -0.13183320840E+02 -0.11917444888E+02  0.72461658038E+02  0.70000114303E+02 0.  0.
        -12    1    1    2    0    0  0.59034263114E+01  0.13183320840E+02  0.11917444888E+02  0.18726341962E+02  0.00000000000E+00 0.  1.
         11    1    3    3    0    0  0.30708271571E+02 -0.92874236839E+01 -0.11761529430E+02  0.34169983266E+02  0.51100000000E-03 0. -1.
        -11    1    3    3    0    0  0.32909448536E+00  0.39063357907E+00 -0.96761615946E+00  0.10941567834E+01  0.51100000000E-03 0.  1.
        -12    1    3    3    0    0 -0.36940792368E+02 -0.42865307355E+01  0.81170070082E+00  0.37197517989E+02  0.00000000000E+00 0.  1.
</event>
<event>
 7    1  0.2489154E-013  0.7246151E+02  0.7816164E-02  0.1226708E+00
        -11   -1    0    0    0    0  0.00000000000E+00  0.00000000000E+00  0.45593999997E+02  0.45594000000E+02  0.51100000000E-03 0.  1.
         11   -1    0    0    0    0 -0.00000000000E+00 -0.00000000000E+00 -0.45593999997E+02  0.45594000000E+02  0.51100000000E-03 0. -1.
    9900012    2    1    2    0    0 -0.91106079374E+01 -0.10475349151E+02 -0.12567636284E+02  0.72461505438E+02  0.69999915512E+02 0.  0.
        -12    1    1    2    0    0  0.91106079374E+01  0.10475349151E+02  0.12567636284E+02  0.18726494562E+02  0.00000000000E+00 0.  1.
         11    1    3    3    0    0  0.24284771826E+02 -0.15292337491E+02  0.47970749869E+01  0.29096694954E+02  0.51100000000E-03 0. -1.
        -11    1    3    3    0    0 -0.10459586948E+02  0.70172185635E+01  0.26191789649E+01  0.12864851892E+02  0.51100000000E-03 0.  1.
        -12    1    3    3    0    0 -0.22935792815E+02 -0.22002302236E+01 -0.19983890236E+02  0.30499958591E+02  0.00000000000E+00 0.  1.
</event>
<event>
 7    1  0.2489154E-013  0.7246156E+02  0.7816164E-02  0.1226708E+00
        -11   -1    0    0    0    0  0.00000000000E+00  0.00000000000E+00  0.45593999997E+02  0.45594000000E+02  0.51100000000E-03 0.  1.
         11   -1    0    0    0    0 -0.00000000000E+00 -0.00000000000E+00 -0.45593999997E+02  0.45594000000E+02  0.51100000000E-03 0. -1.
    9900012    2    1    2    0    0 -0.80173602514E+01 -0.95337150539E+01 -0.13982485079E+02  0.72461556742E+02  0.69999982345E+02 0.  0.
        -12    1    1    2    0    0  0.80173602514E+01  0.95337150539E+01  0.13982485079E+02  0.18726443258E+02  0.00000000000E+00 0.  1.
         11    1    3    3    0    0 -0.27154855305E+02  0.83154864483E+01 -0.22243951869E+02  0.36073908528E+02  0.51100000000E-03 0. -1.
        -11    1    3    3    0    0  0.55359040761E+01  0.86913059561E+00 -0.67754940589E+01  0.87925503658E+01  0.51100000000E-03 0.  1.
        -12    1    3    3    0    0  0.13601590977E+02 -0.18718332098E+02  0.15036960849E+02  0.27595097848E+02  0.00000000000E+00 0.  1.
</event>
<event>
 7    1  0.2489154E-013  0.7246155E+02  0.7816164E-02  0.1226708E+00
        -11   -1    0    0    0    0  0.00000000000E+00  0.00000000000E+00  0.45593999997E+02  0.45594000000E+02  0.51100000000E-03 0.  1.
         11   -1    0    0    0    0 -0.00000000000E+00 -0.00000000000E+00 -0.45593999997E+02  0.45594000000E+02  0.51100000000E-03 0. -1.
    9900012    2    1    2    0    0 -0.11341585092E+02 -0.14656538313E+02  0.26896767065E+01  0.72461547359E+02  0.69999970123E+02 0.  0.
        -12    1    1    2    0    0  0.11341585092E+02  0.14656538313E+02 -0.26896767065E+01  0.18726452641E+02  0.00000000000E+00 0.  1.
         11    1    3    3    0    0  0.42379850076E+00 -0.10457309439E+02  0.36093534205E+01  0.11070788511E+02  0.51100000000E-03 0. -1.
        -11    1    3    3    0    0 -0.13971400260E+01 -0.28739507117E+02 -0.13670556182E+02  0.31855853091E+02  0.51100000000E-03 0.  1.
        -12    1    3    3    0    0 -0.10368243567E+02  0.24540278243E+02  0.12750879468E+02  0.29534905758E+02  0.00000000000E+00 0.  1.
</event>
<event>
 7    1  0.2489154E-013  0.7246157E+02  0.7816164E-02  0.1226708E+00
        -11   -1    0    0    0    0  0.00000000000E+00  0.00000000000E+00  0.45593999997E+02  0.45594000000E+02  0.51100000000E-03 0. -1.
         11   -1    0    0    0    0 -0.00000000000E+00 -0.00000000000E+00 -0.45593999997E+02  0.45594000000E+02  0.51100000000E-03 0.  1.
    9900012    2    1    2    0    0  0.10344874632E+02  0.13462487619E+02  0.79008855190E+01  0.72461574927E+02  0.70000006035E+02 0.  0.
        -12    1    1    2    0    0 -0.10344874632E+02 -0.13462487619E+02 -0.79008855190E+01  0.18726425073E+02  0.00000000000E+00 0.  1.
         11    1    3    3    0    0 -0.23766158993E+01 -0.42024963450E+01 -0.14475815580E+02  0.15259702344E+02  0.51100000000E-03 0. -1.
        -11    1    3    3    0    0  0.59281179156E+01 -0.40044899865E+01  0.31814885969E+02  0.32609285358E+02  0.51100000000E-03 0.  1.
         12    1    3    3    0    0  0.67933726156E+01  0.21669473950E+02 -0.94381848701E+01  0.24592587225E+02  0.00000000000E+00 0. -1.
</event>
<event>
 7    1  0.2489154E-013  0.7246155E+02  0.7816164E-02  0.1226708E+00
        -11   -1    0    0    0    0  0.00000000000E+00  0.00000000000E+00  0.45593999997E+02  0.45594000000E+02  0.51100000000E-03 0. -1.
         11   -1    0    0    0    0 -0.00000000000E+00 -0.00000000000E+00 -0.45593999997E+02  0.45594000000E+02  0.51100000000E-03 0.  1.
    9900012    2    1    2    0    0 -0.78513508750E+01  0.78664227887E+01  0.15071680960E+02  0.72461551191E+02  0.69999975114E+02 0.  0.
        -12    1    1    2    0    0  0.78513508750E+01 -0.78664227887E+01 -0.15071680960E+02  0.18726448809E+02  0.00000000000E+00 0.  1.
         11    1    3    3    0    0 -0.61830805636E+01  0.55172808404E+01  0.16970130263E+02  0.18885343379E+02  0.51100000000E-03 0. -1.
        -11    1    3    3    0    0 -0.22296348231E+02  0.16587033347E+02  0.32794524514E+01  0.27982344940E+02  0.51100000000E-03 0.  1.
        -12    1    3    3    0    0  0.20628077919E+02 -0.14237891399E+02 -0.51779017546E+01  0.25593862872E+02  0.00000000000E+00 0.  1.
</event>
<event>
 7    1  0.2489154E-013  0.7246154E+02  0.7816164E-02  0.1226708E+00
        -11   -1    0    0    0    0  0.00000000000E+00  0.00000000000E+00  0.45593999997E+02  0.45594000000E+02  0.51100000000E-03 0.  1.
         11   -1    0    0    0    0 -0.00000000000E+00 -0.00000000000E+00 -0.45593999997E+02  0.45594000000E+02  0.51100000000E-03 0. -1.
    9900012    2    1    2    0    0  0.15949690539E+02  0.31187700635E+01  0.93038042677E+01  0.72461544680E+02  0.69999966633E+02 0.  0.
        -12    1    1    2    0    0 -0.15949690539E+02 -0.31187700635E+01 -0.93038042677E+01  0.18726455320E+02  0.00000000000E+00 0.  1.
         11    1    3    3    0    0  0.18469645606E+02 -0.36844338311E+01 -0.19187006103E+02  0.26885759519E+02  0.51100000000E-03 0. -1.
        -11    1    3    3    0    0  0.44023654870E+01 -0.27577912151E+01 -0.66885457524E+01  0.84689361085E+01  0.51100000000E-03 0.  1.
        -12    1    3    3    0    0 -0.69223205538E+01  0.95609951097E+01  0.35179356123E+02  0.37106849052E+02  0.00000000000E+00 0.  1.
</event>
<event>
 7    1  0.2489154E-013  0.7246163E+02  0.7816164E-02  0.1226708E+00
        -11   -1    0    0    0    0  0.00000000000E+00  0.00000000000E+00  0.45593999997E+02  0.45594000000E+02  0.51100000000E-03 0.  1.
         11   -1    0    0    0    0 -0.00000000000E+00 -0.00000000000E+00 -0.45593999997E+02  0.45594000000E+02  0.51100000000E-03 0. -1.
    9900012    2    1    2    0    0  0.11085238703E+02  0.10300840319E+02 -0.11031192969E+02  0.72461626975E+02  0.70000073836E+02 0.  0.
        -12    1    1    2    0    0 -0.11085238703E+02 -0.10300840319E+02  0.11031192969E+02  0.18726373025E+02  0.00000000000E+00 0.  1.
         11    1    3    3    0    0 -0.75044532488E+01  0.60536402109E+01 -0.88241802328E+01  0.13070177329E+02  0.51100000000E-03 0. -1.
        -11    1    3    3    0    0 -0.40227442078E+00 -0.16735199052E+02 -0.19907916604E+02  0.26010648892E+02  0.51100000000E-03 0.  1.
        -12    1    3    3    0    0  0.18991966373E+02  0.20982399159E+02  0.17700903868E+02  0.33380800754E+02  0.00000000000E+00 0.  1.
</event>
<event>
 7    1  0.2489154E-013  0.7246153E+02  0.7816164E-02  0.1226708E+00
        -11   -1    0    0    0    0  0.00000000000E+00  0.00000000000E+00  0.45593999997E+02  0.45594000000E+02  0.51100000000E-03 0.  1.
         11   -1    0    0    0    0 -0.00000000000E+00 -0.00000000000E+00 -0.45593999997E+02  0.45594000000E+02  0.51100000000E-03 0. -1.
    9900012    2    1    2    0    0  0.42589230011E+01  0.32903955889E+01 -0.17936430908E+02  0.72461529912E+02  0.69999947394E+02 0.  0.
        -12    1    1    2    0    0 -0.42589230011E+01 -0.32903955889E+01  0.17936430908E+02  0.18726470088E+02  0.00000000000E+00 0.  1.
         11    1    3    3    0    0  0.14978326212E+02  0.78779821392E+00 -0.36306949756E+02  0.39283145024E+02  0.51100000000E-03 0. -1.
        -11    1    3    3    0    0 -0.28604417356E+01 -0.46458442308E+01 -0.50667954930E+01  0.74456975743E+01  0.51100000000E-03 0.  1.
        -12    1    3    3    0    0 -0.78589614753E+01  0.71484416057E+01  0.23437314341E+02  0.25732687314E+02  0.00000000000E+00 0.  1.
</event>
<event>
 7    1  0.2489154E-013  0.7246157E+02  0.7816164E-02  0.1226708E+00
        -11   -1    0    0    0    0  0.00000000000E+00  0.00000000000E+00  0.45593999997E+02  0.45594000000E+02  0.51100000000E-03 0.  1.
         11   -1    0    0    0    0 -0.00000000000E+00 -0.00000000000E+00 -0.45593999997E+02  0.45594000000E+02  0.51100000000E-03 0. -1.
    9900012    2    1    2    0    0 -0.11378573488E+02 -0.12077248458E+02 -0.86802878118E+01  0.72461567840E+02  0.69999996803E+02 0.  0.
        -12    1    1    2    0    0  0.11378573488E+02  0.12077248458E+02  0.86802878118E+01  0.18726432160E+02  0.00000000000E+00 0.  1.
         11    1    3    3    0    0  0.12224559169E+02  0.55580328692E+01 -0.11030966907E+02  0.17378544456E+02  0.51100000000E-03 0. -1.
        -11    1    3    3    0    0  0.98120044252E+01 -0.18872331102E+02 -0.19940780506E+01  0.21363910213E+02  0.51100000000E-03 0.  1.
         12    1    3    3    0    0 -0.33415137083E+02  0.12370497747E+01  0.43447571453E+01  0.33719113171E+02  0.00000000000E+00 0. -1.
</event>
<event>
 7    1  0.2489154E-013  0.7246140E+02  0.7816164E-02  0.1226708E+00
        -11   -1    0    0    0    0  0.00000000000E+00  0.00000000000E+00  0.45593999997E+02  0.45594000000E+02  0.51100000000E-03 0.  1.
         11   -1    0    0    0    0 -0.00000000000E+00 -0.00000000000E+00 -0.45593999997E+02  0.45594000000E+02  0.51100000000E-03 0. -1.
    9900012    2    1    2    0    0  0.17275213357E+02  0.65870704393E+00 -0.71985240605E+01  0.72461397527E+02  0.69999774939E+02 0.  0.
        -12    1    1    2    0    0 -0.17275213357E+02 -0.65870704393E+00  0.71985240605E+01  0.18726602473E+02  0.00000000000E+00 0.  1.
         11    1    3    3    0    0  0.36304013744E+01 -0.10330955084E+02 -0.16848955040E+02  0.20094669276E+02  0.51100000000E-03 0. -1.
        -11    1    3    3    0    0  0.88635443458E+01 -0.35496846984E+01 -0.18220074286E+02  0.20570216019E+02  0.51100000000E-03 0.  1.
        -12    1    3    3    0    0  0.47812676373E+01  0.14539346827E+02  0.27870505266E+02  0.31796512232E+02  0.00000000000E+00 0.  1.
</event>
<event>
 7    1  0.2489154E-013  0.7246157E+02  0.7816164E-02  0.1226708E+00
        -11   -1    0    0    0    0  0.00000000000E+00  0.00000000000E+00  0.45593999997E+02  0.45594000000E+02  0.51100000000E-03 0.  1.
         11   -1    0    0    0    0 -0.00000000000E+00 -0.00000000000E+00 -0.45593999997E+02  0.45594000000E+02  0.51100000000E-03 0. -1.
    9900012    2    1    2    0    0  0.17893488264E+02 -0.37397872782E+01  0.40640015286E+01  0.72461573764E+02  0.70000004520E+02 0.  0.
        -12    1    1    2    0    0 -0.17893488264E+02  0.37397872782E+01 -0.40640015286E+01  0.18726426236E+02  0.00000000000E+00 0.  1.
         11    1    3    3    0    0  0.21820621097E+02 -0.81626204779E+01  0.25610184313E+01  0.23437719466E+02  0.51100000000E-03 0. -1.
        -11    1    3    3    0    0  0.77139315934E+01  0.18010768646E+02  0.16548243446E+02  0.25646381602E+02  0.51100000000E-03 0.  1.
         12    1    3    3    0    0 -0.11641064426E+02 -0.13587935446E+02 -0.15045260349E+02  0.23377472696E+02  0.00000000000E+00 0. -1.
</event>
<event>
 7    1  0.2489154E-013  0.7246161E+02  0.7816164E-02  0.1226708E+00
        -11   -1    0    0    0    0  0.00000000000E+00  0.00000000000E+00  0.45593999997E+02  0.45594000000E+02  0.51100000000E-03 0.  1.
         11   -1    0    0    0    0 -0.00000000000E+00 -0.00000000000E+00 -0.45593999997E+02  0.45594000000E+02  0.51100000000E-03 0. -1.
    9900012    2    1    2    0    0  0.13279493715E+02 -0.13117298726E+02  0.15063316857E+01  0.72461614488E+02  0.70000057571E+02 0.  0.
        -12    1    1    2    0    0 -0.13279493715E+02  0.13117298726E+02 -0.15063316857E+01  0.18726385512E+02  0.00000000000E+00 0.  1.
         11    1    3    3    0    0 -0.18956026986E+02 -0.42341725870E+01 -0.21966761760E+02  0.29322308897E+02  0.51100000000E-03 0. -1.
        -11    1    3    3    0    0  0.15088216954E+02  0.27937420310E+01  0.83757862661E+01  0.17481792849E+02  0.51100000000E-03 0.  1.
        -12    1    3    3    0    0  0.17147303747E+02 -0.11676868170E+02  0.15097307179E+02  0.25657512742E+02  0.00000000000E+00 0.  1.
</event>
<event>
 7    1  0.2489154E-013  0.7246154E+02  0.7816164E-02  0.1226708E+00
        -11   -1    0    0    0    0  0.00000000000E+00  0.00000000000E+00  0.45593999997E+02  0.45594000000E+02  0.51100000000E-03 0.  1.
         11   -1    0    0    0    0 -0.00000000000E+00 -0.00000000000E+00 -0.45593999997E+02  0.45594000000E+02  0.51100000000E-03 0. -1.
    9900012    2    1    2    0    0 -0.18467444158E+01 -0.16222093786E+02 -0.91713488318E+01  0.72461536609E+02  0.69999956119E+02 0.  0.
        -12    1    1    2    0    0  0.18467444158E+01  0.16222093786E+02  0.91713488318E+01  0.18726463391E+02  0.00000000000E+00 0.  1.
         11    1    3    3    0    0 -0.15133599126E+02 -0.19003307093E-01 -0.53056861803E+01  0.16036723161E+02  0.51100000000E-03 0. -1.
        -11    1    3    3    0    0 -0.11220689520E+02 -0.26927443805E+02  0.12074968848E+01  0.29196731874E+02  0.51100000000E-03 0.  1.
        -12    1    3    3    0    0  0.24507544231E+02  0.10724353326E+02 -0.50731595363E+01  0.27228081573E+02  0.00000000000E+00 0.  1.
</event>
<event>
 7    1  0.2489154E-013  0.7246153E+02  0.7816164E-02  0.1226708E+00
        -11   -1    0    0    0    0  0.00000000000E+00  0.00000000000E+00  0.45593999997E+02  0.45594000000E+02  0.51100000000E-03 0.  1.
         11   -1    0    0    0    0 -0.00000000000E+00 -0.00000000000E+00 -0.45593999997E+02  0.45594000000E+02  0.51100000000E-03 0. -1.
    9900012    2    1    2    0    0  0.18264398062E+02  0.40278273509E+01 -0.93221034105E+00  0.72461530875E+02  0.69999948650E+02 0.  0.
        -12    1    1    2    0    0 -0.18264398062E+02 -0.40278273509E+01  0.93221034105E+00  0.18726469125E+02  0.00000000000E+00 0.  1.
         11    1    3    3    0    0  0.36996718698E+01 -0.27167367178E+01  0.53499030312E+01  0.70490916466E+01  0.51100000000E-03 0. -1.
        -11    1    3    3    0    0  0.28415772969E+02  0.45706231451E+01  0.20395440702E+02  0.35274930915E+02  0.51100000000E-03 0.  1.
         12    1    3    3    0    0 -0.13851046777E+02  0.21739409236E+01 -0.26677554075E+02  0.30137508314E+02  0.00000000000E+00 0. -1.
</event>
<event>
 7    1  0.2489154E-013  0.7246155E+02  0.7816164E-02  0.1226708E+00
        -11   -1    0    0    0    0  0.00000000000E+00  0.00000000000E+00  0.45593999997E+02  0.45594000000E+02  0.51100000000E-03 0. -1.
         11   -1    0    0    0    0 -0.00000000000E+00 -0.00000000000E+00 -0.45593999997E+02  0.45594000000E+02  0.51100000000E-03 0.  1.
    9900012    2    1    2    0    0  0.79074974926E+01 -0.16437173662E+02  0.42391854263E+01  0.72461551119E+02  0.69999975021E+02 0.  0.
        -12    1    1    2    0    0 -0.79074974926E+01  0.16437173662E+02 -0.42391854263E+01  0.18726448881E+02  0.00000000000E+00 0.  1.
         11    1    3    3    0    0 -0.10851740911E+02  0.12120883157E+00 -0.27191423007E+01  0.11187882172E+02  0.51100000000E-03 0. -1.
        -11    1    3    3    0    0  0.92328609839E+01 -0.33479377192E+02  0.17809223949E+02  0.39029256680E+02  0.51100000000E-03 0.  1.
         12    1    3    3    0    0  0.95263774194E+01  0.16920994698E+02 -0.10850896222E+02  0.22244412267E+02  0.00000000000E+00 0. -1.
</event>
<event>
 7    1  0.2489154E-013  0.7246156E+02  0.7816164E-02  0.1226708E+00
        -11   -1    0    0    0    0  0.00000000000E+00  0.00000000000E+00  0.45593999997E+02  0.45594000000E+02  0.51100000000E-03 0.  1.
         11   -1    0    0    0    0 -0.00000000000E+00 -0.00000000000E+00 -0.45593999997E+02  0.45594000000E+02  0.51100000000E-03 0. -1.
    9900012    2    1    2    0    0  0.14722110503E+01  0.17443718056E+02 -0.66504773174E+01  0.72461560041E+02  0.69999986643E+02 0.  0.
        -12    1    1    2    0    0 -0.14722110503E+01 -0.17443718056E+02  0.66504773174E+01  0.18726439959E+02  0.00000000000E+00 0.  1.
         11    1    3    3    0    0  0.25072797303E+01  0.76865861520E+01  0.38402047709E+01  0.89508229377E+01  0.51100000000E-03 0. -1.
        -11    1    3    3    0    0 -0.86734156516E+01  0.22082905623E+02  0.19165554708E+02  0.30499202405E+02  0.51100000000E-03 0.  1.
         12    1    3    3    0    0  0.76383469717E+01 -0.12325773718E+02 -0.29656236796E+02  0.33011534698E+02  0.00000000000E+00 0. -1.
</event>
<event>
 7    1  0.2489154E-013  0.7246156E+02  0.7816164E-02  0.1226708E+00
        -11   -1    0    0    0    0  0.00000000000E+00  0.00000000000E+00  0.45593999997E+02  0.45594000000E+02  0.51100000000E-03 0.  1.
         11   -1    0    0    0    0 -0.00000000000E+00 -0.00000000000E+00 -0.45593999997E+02  0.45594000000E+02  0.51100000000E-03 0. -1.
    9900012    2    1    2    0    0 -0.39967677514E+00 -0.18715338576E+02  0.50586083887E+00  0.72461560543E+02  0.69999987298E+02 0.  0.
        -12    1    1    2    0    0  0.39967677514E+00  0.18715338576E+02 -0.50586083887E+00  0.18726439457E+02  0.00000000000E+00 0.  1.
         11    1    3    3    0    0 -0.48220851438E+01 -0.12465014864E+02  0.32279170424E+01  0.13749492695E+02  0.51100000000E-03 0. -1.
        -11    1    3    3    0    0 -0.33034023008E+01 -0.15197897300E+02  0.24508162577E+02  0.29026515159E+02  0.51100000000E-03 0.  1.
        -12    1    3    3    0    0  0.77258106695E+01  0.89475735882E+01 -0.27230218781E+02  0.29685552689E+02  0.00000000000E+00 0.  1.
</event>
<event>
 7    1  0.2489154E-013  0.7246158E+02  0.7816164E-02  0.1226708E+00
        -11   -1    0    0    0    0  0.00000000000E+00  0.00000000000E+00  0.45593999997E+02  0.45594000000E+02  0.51100000000E-03 0.  1.
         11   -1    0    0    0    0 -0.00000000000E+00 -0.00000000000E+00 -0.45593999997E+02  0.45594000000E+02  0.51100000000E-03 0. -1.
    9900012    2    1    2    0    0  0.73428559727E+01  0.17135961204E+02  0.17663847616E+01  0.72461579751E+02  0.70000012318E+02 0.  0.
        -12    1    1    2    0    0 -0.73428559727E+01 -0.17135961204E+02 -0.17663847616E+01  0.18726420249E+02  0.00000000000E+00 0.  1.
         11    1    3    3    0    0 -0.51400471159E+01 -0.17546484623E+01 -0.10473584182E+02  0.11798086348E+02  0.51100000000E-03 0. -1.
        -11    1    3    3    0    0 -0.17483269612E+02  0.19808701371E+01  0.18675765087E+02  0.25658775588E+02  0.51100000000E-03 0.  1.
         12    1    3    3    0    0  0.29966172701E+02  0.16909739530E+02 -0.64357961429E+01  0.35004717815E+02  0.00000000000E+00 0. -1.
</event>
<event>
 7    1  0.2489154E-013  0.7246184E+02  0.7816164E-02  0.1226707E+00
        -11   -1    0    0    0    0  0.00000000000E+00  0.00000000000E+00  0.45593999997E+02  0.45594000000E+02  0.51100000000E-03 0.  1.
         11   -1    0    0    0    0 -0.00000000000E+00 -0.00000000000E+00 -0.45593999997E+02  0.45594000000E+02  0.51100000000E-03 0. -1.
    9900012    2    1    2    0    0  0.17139249068E+02 -0.59977034991E+01 -0.45763244768E+01  0.72461840448E+02  0.70000351924E+02 0.  0.
        -12    1    1    2    0    0 -0.17139249068E+02  0.59977034991E+01  0.45763244768E+01  0.18726159552E+02  0.00000000000E+00 0.  1.
         11    1    3    3    0    0  0.21729191076E+02 -0.28746824438E+02 -0.63721595904E+01  0.36594290241E+02  0.51100000000E-03 0. -1.
        -11    1    3    3    0    0  0.41241037642E+01 -0.40145999807E-01 -0.84517843400E+01  0.94043873990E+01  0.51100000000E-03 0.  1.
        -12    1    3    3    0    0 -0.87140457729E+01  0.22789266939E+02  0.10247619454E+02  0.26463162808E+02  0.00000000000E+00 0.  1.
</event>
<event>
 7    1  0.2489154E-013  0.7246153E+02  0.7816164E-02  0.1226708E+00
        -11   -1    0    0    0    0  0.00000000000E+00  0.00000000000E+00  0.45593999997E+02  0.45594000000E+02  0.51100000000E-03 0. -1.
         11   -1    0    0    0    0 -0.00000000000E+00 -0.00000000000E+00 -0.45593999997E+02  0.45594000000E+02  0.51100000000E-03 0.  1.
    9900012    2    1    2    0    0  0.59375694097E+01 -0.11167379707E+02  0.13809978374E+02  0.72461532028E+02  0.69999950152E+02 0.  0.
        -12    1    1    2    0    0 -0.59375694097E+01  0.11167379707E+02 -0.13809978374E+02  0.18726467972E+02  0.00000000000E+00 0.  1.
         11    1    3    3    0    0 -0.12721061194E+02 -0.17261310068E+02  0.88064052785E+01  0.23180401148E+02  0.51100000000E-03 0. -1.
        -11    1    3    3    0    0  0.26295370967E+02 -0.83237474727E+01  0.13696050241E+02  0.30794692705E+02  0.51100000000E-03 0.  1.
         12    1    3    3    0    0 -0.76367403636E+01  0.14417677834E+02 -0.86924771462E+01  0.18486438176E+02  0.00000000000E+00 0. -1.
</event>
<event>
 7    1  0.2489154E-013  0.7246153E+02  0.7816164E-02  0.1226708E+00
        -11   -1    0    0    0    0  0.00000000000E+00  0.00000000000E+00  0.45593999997E+02  0.45594000000E+02  0.51100000000E-03 0. -1.
         11   -1    0    0    0    0 -0.00000000000E+00 -0.00000000000E+00 -0.45593999997E+02  0.45594000000E+02  0.51100000000E-03 0.  1.
    9900012    2    1    2    0    0 -0.10652592896E+02  0.13491169667E+02  0.74290814023E+01  0.72461530902E+02  0.69999948685E+02 0.  0.
        -12    1    1    2    0    0  0.10652592896E+02 -0.13491169667E+02 -0.74290814023E+01  0.18726469098E+02  0.00000000000E+00 0.  1.
         11    1    3    3    0    0 -0.28057358564E+02 -0.74361018659E+01  0.20580628578E+02  0.35581923128E+02  0.51100000000E-03 0. -1.
        -11    1    3    3    0    0 -0.32855820788E+01  0.11033919610E+01  0.24582857336E+01  0.42491990334E+01  0.51100000000E-03 0.  1.
        -12    1    3    3    0    0  0.20690347747E+02  0.19823879572E+02 -0.15609832910E+02  0.32630408741E+02  0.00000000000E+00 0.  1.
</event>
<event>
 7    1  0.2489154E-013  0.7246155E+02  0.7816164E-02  0.1226708E+00
        -11   -1    0    0    0    0  0.00000000000E+00  0.00000000000E+00  0.45593999997E+02  0.45594000000E+02  0.51100000000E-03 0.  1.
         11   -1    0    0    0    0 -0.00000000000E+00 -0.00000000000E+00 -0.45593999997E+02  0.45594000000E+02  0.51100000000E-03 0. -1.
    9900012    2    1    2    0    0  0.11808627369E+02 -0.13651301161E+02  0.49878230396E+01  0.72461545920E+02  0.69999968248E+02 0.  0.
        -12    1    1    2    0    0 -0.11808627369E+02  0.13651301161E+02 -0.49878230396E+01  0.18726454080E+02  0.00000000000E+00 0.  1.
         11    1    3    3    0    0  0.63592800841E+01 -0.29180067371E+01  0.68509947264E+01  0.97924121394E+01  0.51100000000E-03 0. -1.
        -11    1    3    3    0    0  0.20753046986E+02  0.10571339170E+02 -0.20064612969E+02  0.30741354311E+02  0.51100000000E-03 0.  1.
         12    1    3    3    0    0 -0.15303699701E+02 -0.21304633594E+02  0.18201441282E+02  0.31927779469E+02  0.00000000000E+00 0. -1.
</event>
<event>
 7    1  0.2489154E-013  0.7246136E+02  0.7816164E-02  0.1226709E+00
        -11   -1    0    0    0    0  0.00000000000E+00  0.00000000000E+00  0.45593999997E+02  0.45594000000E+02  0.51100000000E-03 0.  1.
         11   -1    0    0    0    0 -0.00000000000E+00 -0.00000000000E+00 -0.45593999997E+02  0.45594000000E+02  0.51100000000E-03 0. -1.
    9900012    2    1    2    0    0  0.10460081237E+01 -0.56532769591E+01 -0.17822271579E+02  0.72461360216E+02  0.69999726334E+02 0.  0.
        -12    1    1    2    0    0 -0.10460081237E+01  0.56532769591E+01  0.17822271579E+02  0.18726639784E+02  0.00000000000E+00 0.  1.
         11    1    3    3    0    0  0.23778203452E+01 -0.90994893549E+01 -0.15395475517E+02  0.18040936859E+02  0.51100000000E-03 0. -1.
        -11    1    3    3    0    0 -0.22428501586E+02 -0.10502313517E+02 -0.11819662417E+02  0.27441586917E+02  0.51100000000E-03 0.  1.
        -12    1    3    3    0    0  0.21096689365E+02  0.13948525913E+02  0.93928663548E+01  0.26978836440E+02  0.00000000000E+00 0.  1.
</event>
<event>
 7    1  0.2489154E-013  0.7246158E+02  0.7816164E-02  0.1226708E+00
        -11   -1    0    0    0    0  0.00000000000E+00  0.00000000000E+00  0.45593999997E+02  0.45594000000E+02  0.51100000000E-03 0. -1.
         11   -1    0    0    0    0 -0.00000000000E+00 -0.00000000000E+00 -0.45593999997E+02  0.45594000000E+02  0.51100000000E-03 0.  1.
    9900012    2    1    2    0    0  0.23944270552E+01  0.15451179626E+02 -0.10305648681E+02  0.72461584767E+02  0.70000018853E+02 0.  0.
        -12    1    1    2    0    0 -0.23944270552E+01 -0.15451179626E+02  0.10305648681E+02  0.18726415233E+02  0.00000000000E+00 0.  1.
         11    1    3    3    0    0 -0.23248740352E+02  0.21258673595E+02 -0.62163258697E+00  0.31509071048E+02  0.51100000000E-03 0. -1.
        -11    1    3    3    0    0  0.48586608397E+01  0.11594709330E+02 -0.16508076227E+01  0.12679473004E+02  0.51100000000E-03 0.  1.
        -12    1    3    3    0    0  0.20784506567E+02 -0.17402203299E+02 -0.80332084709E+01  0.28273040714E+02  0.00000000000E+00 0.  1.
</event>
<event>
 7    1  0.2489154E-013  0.7246154E+02  0.7816164E-02  0.1226708E+00
        -11   -1    0    0    0    0  0.00000000000E+00  0.00000000000E+00  0.45593999997E+02  0.45594000000E+02  0.51100000000E-03 0. -1.
         11   -1    0    0    0    0 -0.00000000000E+00 -0.00000000000E+00 -0.45593999997E+02  0.45594000000E+02  0.51100000000E-03 0.  1.
    9900012    2    1    2    0    0 -0.40957116947E+01  0.16525865972E+02  0.77975245401E+01  0.72461535054E+02  0.69999954093E+02 0.  0.
        -12    1    1    2    0    0  0.40957116947E+01 -0.16525865972E+02 -0.77975245401E+01  0.18726464946E+02  0.00000000000E+00 0.  1.
         11    1    3    3    0    0 -0.54812204166E+01  0.20851149806E+02  0.10457579342E+02  0.23961952998E+02  0.51100000000E-03 0. -1.
        -11    1    3    3    0    0  0.11748718682E+02 -0.24607157177E+01  0.20105867910E+02  0.23416520603E+02  0.51100000000E-03 0.  1.
        -12    1    3    3    0    0 -0.10363209960E+02 -0.18645681165E+01 -0.22765922712E+02  0.25083061453E+02  0.00000000000E+00 0.  1.
</event>
<event>
 7    1  0.2489154E-013  0.7246159E+02  0.7816164E-02  0.1226708E+00
        -11   -1    0    0    0    0  0.00000000000E+00  0.00000000000E+00  0.45593999997E+02  0.45594000000E+02  0.51100000000E-03 0. -1.
         11   -1    0    0    0    0 -0.00000000000E+00 -0.00000000000E+00 -0.45593999997E+02  0.45594000000E+02  0.51100000000E-03 0.  1.
    9900012    2    1    2    0    0  0.17656309939E+02  0.59271305624E+01  0.19499815508E+01  0.72461585890E+02  0.70000020316E+02 0.  0.
        -12    1    1    2    0    0 -0.17656309939E+02 -0.59271305624E+01 -0.19499815508E+01  0.18726414110E+02  0.00000000000E+00 0.  1.
         11    1    3    3    0    0 -0.64891821909E+00  0.33229277004E+01  0.54685849082E+01  0.64318243537E+01  0.51100000000E-03 0. -1.
        -11    1    3    3    0    0 -0.17129079034E+02  0.17721923322E+02  0.78431625676E+01  0.25864785213E+02  0.51100000000E-03 0.  1.
         12    1    3    3    0    0  0.35434307192E+02 -0.15117720460E+02 -0.11361765925E+02  0.40164976323E+02  0.00000000000E+00 0. -1.
</event>
<event>
 7    1  0.2489154E-013  0.7246154E+02  0.7816164E-02  0.1226708E+00
        -11   -1    0    0    0    0  0.00000000000E+00  0.00000000000E+00  0.45593999997E+02  0.45594000000E+02  0.51100000000E-03 0. -1.
         11   -1    0    0    0    0 -0.00000000000E+00 -0.00000000000E+00 -0.45593999997E+02  0.45594000000E+02  0.51100000000E-03 0.  1.
    9900012    2    1    2    0    0  0.83716962908E+01 -0.15610586755E+02 -0.60749050517E+01  0.72461543074E+02  0.69999964541E+02 0.  0.
        -12    1    1    2    0    0 -0.83716962908E+01  0.15610586755E+02  0.60749050517E+01  0.18726456926E+02  0.00000000000E+00 0.  1.
         11    1    3    3    0    0 -0.15523208079E+02 -0.10649251073E+02  0.16972122238E+00  0.18825656510E+02  0.51100000000E-03 0. -1.
        -11    1    3    3    0    0  0.82410357201E+01 -0.15418526210E+02 -0.22686482386E+02  0.28641265746E+02  0.51100000000E-03 0.  1.
         12    1    3    3    0    0  0.15653868649E+02  0.10457190529E+02  0.16441856112E+02  0.24994620818E+02  0.00000000000E+00 0. -1.
</event>
<event>
 7    1  0.2489154E-013  0.7246159E+02  0.7816164E-02  0.1226708E+00
        -11   -1    0    0    0    0  0.00000000000E+00  0.00000000000E+00  0.45593999997E+02  0.45594000000E+02  0.51100000000E-03 0. -1.
         11   -1    0    0    0    0 -0.00000000000E+00 -0.00000000000E+00 -0.45593999997E+02  0.45594000000E+02  0.51100000000E-03 0.  1.
    9900012    2    1    2    0    0  0.16456570860E+02 -0.82326154809E+01 -0.34761918145E+01  0.72461585723E+02  0.70000020099E+02 0.  0.
        -12    1    1    2    0    0 -0.16456570860E+02  0.82326154809E+01  0.34761918145E+01  0.18726414277E+02  0.00000000000E+00 0.  1.
         11    1    3    3    0    0  0.61783887353E+01  0.65860387961E+01 -0.87976341353E+01  0.12607408974E+02  0.51100000000E-03 0. -1.
        -11    1    3    3    0    0  0.45872450172E+01  0.84925471309E+01 -0.21679701591E+02  0.23731321813E+02  0.51100000000E-03 0.  1.
         12    1    3    3    0    0  0.56909371076E+01 -0.23311201408E+02  0.27001143912E+02  0.36122854937E+02  0.00000000000E+00 0. -1.
</event>
<event>
 7    1  0.2489154E-013  0.7246100E+02  0.7816164E-02  0.1226710E+00
        -11   -1    0    0    0    0  0.00000000000E+00  0.00000000000E+00  0.45593999997E+02  0.45594000000E+02  0.51100000000E-03 0.  1.
         11   -1    0    0    0    0 -0.00000000000E+00 -0.00000000000E+00 -0.45593999997E+02  0.45594000000E+02  0.51100000000E-03 0. -1.
    9900012    2    1    2    0    0 -0.14433712663E+02  0.41874516209E+01 -0.11172907122E+02  0.72460996346E+02  0.69999252321E+02 0.  0.
        -12    1    1    2    0    0  0.14433712663E+02 -0.41874516209E+01  0.11172907122E+02  0.18727003654E+02  0.00000000000E+00 0.  1.
         11    1    3    3    0    0  0.14799014072E+02  0.19207588807E+02 -0.70441408864E+01  0.25249994185E+02  0.51100000000E-03 0. -1.
        -11    1    3    3    0    0 -0.16623293834E+01  0.92126428622E+01 -0.47539716628E+01  0.10499351138E+02  0.51100000000E-03 0.  1.
         12    1    3    3    0    0 -0.27570397351E+02 -0.24232780048E+02  0.62520542683E+00  0.36711651022E+02  0.00000000000E+00 0. -1.
</event>
<event>
 7    1  0.2489154E-013  0.7246155E+02  0.7816164E-02  0.1226708E+00
        -11   -1    0    0    0    0  0.00000000000E+00  0.00000000000E+00  0.45593999997E+02  0.45594000000E+02  0.51100000000E-03 0. -1.
         11   -1    0    0    0    0 -0.00000000000E+00 -0.00000000000E+00 -0.45593999997E+02  0.45594000000E+02  0.51100000000E-03 0.  1.
    9900012    2    1    2    0    0  0.14599267084E+02  0.65882635816E+01  0.97023687004E+01  0.72461554133E+02  0.69999978946E+02 0.  0.
        -12    1    1    2    0    0 -0.14599267084E+02 -0.65882635816E+01 -0.97023687004E+01  0.18726445867E+02  0.00000000000E+00 0.  1.
         11    1    3    3    0    0  0.14632472930E+02  0.16586009478E+02  0.38467514201E+01  0.22449999359E+02  0.51100000000E-03 0. -1.
        -11    1    3    3    0    0  0.24215078709E+02 -0.28185235038E+01  0.29560897092E+01  0.24557128868E+02  0.51100000000E-03 0.  1.
        -12    1    3    3    0    0 -0.24248284555E+02 -0.71792223927E+01  0.28995275710E+01  0.25454425905E+02  0.00000000000E+00 0.  1.
</event>
<event>
 7    1  0.2489154E-013  0.7246160E+02  0.7816164E-02  0.1226708E+00
        -11   -1    0    0    0    0  0.00000000000E+00  0.00000000000E+00  0.45593999997E+02  0.45594000000E+02  0.51100000000E-03 0.  1.
         11   -1    0    0    0    0 -0.00000000000E+00 -0.00000000000E+00 -0.45593999997E+02  0.45594000000E+02  0.51100000000E-03 0. -1.
    9900012    2    1    2    0    0 -0.29328275830E+01 -0.16822358431E+01 -0.18418650255E+02  0.72461599591E+02  0.70000038164E+02 0.  0.
        -12    1    1    2    0    0  0.29328275830E+01  0.16822358431E+01  0.18418650255E+02  0.18726400409E+02  0.00000000000E+00 0.  1.
         11    1    3    3    0    0  0.16879944843E+02 -0.23330010124E+02 -0.17234722943E+02  0.33559761404E+02  0.51100000000E-03 0. -1.
        -11    1    3    3    0    0  0.31047780104E+00  0.94435475548E+01 -0.10011278750E+02  0.13765997579E+02  0.51100000000E-03 0.  1.
        -12    1    3    3    0    0 -0.20123250227E+02  0.12204226726E+02  0.88273514379E+01  0.25135840608E+02  0.00000000000E+00 0.  1.
</event>
<event>
 7    1  0.2489154E-013  0.7246155E+02  0.7816164E-02  0.1226708E+00
        -11   -1    0    0    0    0  0.00000000000E+00  0.00000000000E+00  0.45593999997E+02  0.45594000000E+02  0.51100000000E-03 0.  1.
         11   -1    0    0    0    0 -0.00000000000E+00 -0.00000000000E+00 -0.45593999997E+02  0.45594000000E+02  0.51100000000E-03 0. -1.
    9900012    2    1    2    0    0 -0.60482788146E+01 -0.17077715072E+02  0.47381344799E+01  0.72461549534E+02  0.69999972956E+02 0.  0.
        -12    1    1    2    0    0  0.60482788146E+01  0.17077715072E+02 -0.47381344799E+01  0.18726450466E+02  0.00000000000E+00 0.  1.
         11    1    3    3    0    0 -0.13789108033E+02 -0.15713972112E+01 -0.18083495104E+02  0.22795209694E+02  0.51100000000E-03 0. -1.
        -11    1    3    3    0    0 -0.38134973020E+01 -0.25805925295E+02  0.59228415855E+01  0.26750113919E+02  0.51100000000E-03 0.  1.
        -12    1    3    3    0    0  0.11554326520E+02  0.10299607434E+02  0.16898787999E+02  0.22916225921E+02  0.00000000000E+00 0.  1.
</event>
<event>
 7    1  0.2489154E-013  0.7246159E+02  0.7816164E-02  0.1226708E+00
        -11   -1    0    0    0    0  0.00000000000E+00  0.00000000000E+00  0.45593999997E+02  0.45594000000E+02  0.51100000000E-03 0.  1.
         11   -1    0    0    0    0 -0.00000000000E+00 -0.00000000000E+00 -0.45593999997E+02  0.45594000000E+02  0.51100000000E-03 0. -1.
    9900012    2    1    2    0    0  0.12775053439E+02  0.12393171932E+02 -0.58211328495E+01  0.72461593816E+02  0.70000030642E+02 0.  0.
        -12    1    1    2    0    0 -0.12775053439E+02 -0.12393171932E+02  0.58211328495E+01  0.18726406184E+02  0.00000000000E+00 0.  1.
         11    1    3    3    0    0  0.12283904385E+01  0.24507917065E+01  0.28719276476E+01  0.39703012143E+01  0.51100000000E-03 0. -1.
        -11    1    3    3    0    0 -0.13958795872E+01  0.16830888716E+02  0.25899790349E+02  0.30919677152E+02  0.51100000000E-03 0.  1.
         12    1    3    3    0    0  0.12942542588E+02 -0.68885084910E+01 -0.34592850846E+02  0.37571615450E+02  0.00000000000E+00 0. -1.
</event>
<event>
 7    1  0.2489154E-013  0.7246158E+02  0.7816164E-02  0.1226708E+00
        -11   -1    0    0    0    0  0.00000000000E+00  0.00000000000E+00  0.45593999997E+02  0.45594000000E+02  0.51100000000E-03 0. -1.
         11   -1    0    0    0    0 -0.00000000000E+00 -0.00000000000E+00 -0.45593999997E+02  0.45594000000E+02  0.51100000000E-03 0.  1.
    9900012    2    1    2    0    0 -0.27794570698E+01  0.15369779271E+02 -0.10330702795E+02  0.72461577045E+02  0.70000008794E+02 0.  0.
        -12    1    1    2    0    0  0.27794570698E+01 -0.15369779271E+02  0.10330702795E+02  0.18726422955E+02  0.00000000000E+00 0.  1.
         11    1    3    3    0    0  0.48046986907E+01  0.19340582351E+02  0.96415201222E+01  0.22138251189E+02  0.51100000000E-03 0. -1.
        -11    1    3    3    0    0 -0.23302569308E+02  0.80045110350E+01 -0.17899450175E+02  0.30454429071E+02  0.51100000000E-03 0.  1.
         12    1    3    3    0    0  0.15718413547E+02 -0.11975314116E+02 -0.20727727429E+01  0.19868896785E+02  0.00000000000E+00 0. -1.
</event>
<event>
 7    1  0.2489154E-013  0.7246155E+02  0.7816164E-02  0.1226708E+00
        -11   -1    0    0    0    0  0.00000000000E+00  0.00000000000E+00  0.45593999997E+02  0.45594000000E+02  0.51100000000E-03 0. -1.
         11   -1    0    0    0    0 -0.00000000000E+00 -0.00000000000E+00 -0.45593999997E+02  0.45594000000E+02  0.51100000000E-03 0.  1.
    9900012    2    1    2    0    0  0.18308298842E+02 -0.39342161323E+01  0.90486445995E-01  0.72461546762E+02  0.69999969345E+02 0.  0.
        -12    1    1    2    0    0 -0.18308298842E+02  0.39342161323E+01 -0.90486445995E-01  0.18726453238E+02  0.00000000000E+00 0.  1.
         11    1    3    3    0    0  0.17370390224E+02 -0.11550590050E+02  0.11735640845E+02  0.23934741555E+02  0.51100000000E-03 0. -1.
        -11    1    3    3    0    0  0.21465404858E+02  0.38322032203E+01 -0.16197677562E+02  0.27162734507E+02  0.51100000000E-03 0.  1.
         12    1    3    3    0    0 -0.20527496240E+02  0.37841706972E+01  0.45525231632E+01  0.21364070700E+02  0.00000000000E+00 0. -1.
</event>
<event>
 7    1  0.2489154E-013  0.7246154E+02  0.7816164E-02  0.1226708E+00
        -11   -1    0    0    0    0  0.00000000000E+00  0.00000000000E+00  0.45593999997E+02  0.45594000000E+02  0.51100000000E-03 0.  1.
         11   -1    0    0    0    0 -0.00000000000E+00 -0.00000000000E+00 -0.45593999997E+02  0.45594000000E+02  0.51100000000E-03 0. -1.
    9900012    2    1    2    0    0  0.18055654034E+02 -0.36261088642E+01  0.33948217362E+01  0.72461544844E+02  0.69999966847E+02 0.  0.
        -12    1    1    2    0    0 -0.18055654034E+02  0.36261088642E+01 -0.33948217362E+01  0.18726455156E+02  0.00000000000E+00 0.  1.
         11    1    3    3    0    0  0.27666218916E+02 -0.23962840439E+02  0.12420664008E+02  0.38651135632E+02  0.51100000000E-03 0. -1.
        -11    1    3    3    0    0 -0.43503076398E+01  0.30505491300E+01  0.75887936588E+01  0.92639525048E+01  0.51100000000E-03 0.  1.
        -12    1    3    3    0    0 -0.52602572427E+01  0.17286182445E+02 -0.16614635930E+02  0.24546456707E+02  0.00000000000E+00 0.  1.
</event>
<event>
 7    1  0.2489154E-013  0.7246175E+02  0.7816164E-02  0.1226708E+00
        -11   -1    0    0    0    0  0.00000000000E+00  0.00000000000E+00  0.45593999997E+02  0.45594000000E+02  0.51100000000E-03 0.  1.
         11   -1    0    0    0    0 -0.00000000000E+00 -0.00000000000E+00 -0.45593999997E+02  0.45594000000E+02  0.51100000000E-03 0. -1.
    9900012    2    1    2    0    0  0.32005607800E+01 -0.49297053833E+01 -0.17779961571E+02  0.72461745224E+02  0.70000227878E+02 0.  0.
        -12    1    1    2    0    0 -0.32005607800E+01  0.49297053833E+01  0.17779961571E+02  0.18726254776E+02  0.00000000000E+00 0.  1.
         11    1    3    3    0    0 -0.85572711960E+01 -0.15231578603E+02 -0.24582389491E+02  0.30158278307E+02  0.51100000000E-03 0. -1.
        -11    1    3    3    0    0  0.12020254532E+02 -0.90665158534E+00 -0.14120469638E+02  0.18565995777E+02  0.51100000000E-03 0.  1.
        -12    1    3    3    0    0 -0.26242255607E+00  0.11208524805E+02  0.20922897559E+02  0.23737471141E+02  0.00000000000E+00 0.  1.
</event>
<event>
 7    1  0.2489154E-013  0.7246157E+02  0.7816164E-02  0.1226708E+00
        -11   -1    0    0    0    0  0.00000000000E+00  0.00000000000E+00  0.45593999997E+02  0.45594000000E+02  0.51100000000E-03 0.  1.
         11   -1    0    0    0    0 -0.00000000000E+00 -0.00000000000E+00 -0.45593999997E+02  0.45594000000E+02  0.51100000000E-03 0. -1.
    9900012    2    1    2    0    0  0.13675175446E+01  0.13242964667E+02 -0.13169392943E+02  0.72461571406E+02  0.70000001448E+02 0.  0.
        -12    1    1    2    0    0 -0.13675175446E+01 -0.13242964667E+02  0.13169392943E+02  0.18726428594E+02  0.00000000000E+00 0.  1.
         11    1    3    3    0    0 -0.15021871187E+02 -0.19480348287E+02 -0.14112560052E+02  0.28360270359E+02  0.51100000000E-03 0. -1.
        -11    1    3    3    0    0  0.83442396421E+01 -0.58912783068E+00 -0.43440075679E+01  0.94256993808E+01  0.51100000000E-03 0.  1.
        -12    1    3    3    0    0  0.80451490896E+01  0.33312440784E+02  0.52871746768E+01  0.34675601666E+02  0.00000000000E+00 0.  1.
</event>
<event>
 7    1  0.2489154E-013  0.7246161E+02  0.7816164E-02  0.1226708E+00
        -11   -1    0    0    0    0  0.00000000000E+00  0.00000000000E+00  0.45593999997E+02  0.45594000000E+02  0.51100000000E-03 0. -1.
         11   -1    0    0    0    0 -0.00000000000E+00 -0.00000000000E+00 -0.45593999997E+02  0.45594000000E+02  0.51100000000E-03 0.  1.
    9900012    2    1    2    0    0  0.95958908161E+01 -0.11689496475E+02  0.11043195410E+02  0.72461611847E+02  0.70000054130E+02 0.  0.
        -12    1    1    2    0    0 -0.95958908161E+01  0.11689496475E+02 -0.11043195410E+02  0.18726388153E+02  0.00000000000E+00 0.  1.
         11    1    3    3    0    0 -0.12741676380E+02  0.52266424826E+01 -0.96186090755E+01  0.16798385322E+02  0.51100000000E-03 0. -1.
        -11    1    3    3    0    0 -0.23707680820E+01  0.12580858133E+02  0.22180173758E+01  0.12993003271E+02  0.51100000000E-03 0.  1.
         12    1    3    3    0    0  0.24708335278E+02 -0.29496997090E+02  0.18443787110E+02  0.42670223254E+02  0.00000000000E+00 0. -1.
</event>
<event>
 7    1  0.2489154E-013  0.7246160E+02  0.7816164E-02  0.1226708E+00
        -11   -1    0    0    0    0  0.00000000000E+00  0.00000000000E+00  0.45593999997E+02  0.45594000000E+02  0.51100000000E-03 0.  1.
         11   -1    0    0    0    0 -0.00000000000E+00 -0.00000000000E+00 -0.45593999997E+02  0.45594000000E+02  0.51100000000E-03 0. -1.
    9900012    2    1    2    0    0  0.16641824599E+02  0.37831350367E+01 -0.77081420816E+01  0.72461604430E+02  0.70000044469E+02 0.  0.
        -12    1    1    2    0    0 -0.16641824599E+02 -0.37831350367E+01  0.77081420816E+01  0.18726395570E+02  0.00000000000E+00 0.  1.
         11    1    3    3    0    0  0.13059121296E+02 -0.31258633111E+00 -0.10944021215E+02  0.17041418951E+02  0.51100000000E-03 0. -1.
        -11    1    3    3    0    0 -0.11093561687E+01 -0.24924213318E+02 -0.36853115055E+01  0.25219607487E+02  0.51100000000E-03 0.  1.
         12    1    3    3    0    0  0.46920594713E+01  0.29019934686E+02  0.69211906392E+01  0.30200577993E+02  0.00000000000E+00 0. -1.
</event>
<event>
 7    1  0.2489154E-013  0.7246159E+02  0.7816164E-02  0.1226708E+00
        -11   -1    0    0    0    0  0.00000000000E+00  0.00000000000E+00  0.45593999997E+02  0.45594000000E+02  0.51100000000E-03 0.  1.
         11   -1    0    0    0    0 -0.00000000000E+00 -0.00000000000E+00 -0.45593999997E+02  0.45594000000E+02  0.51100000000E-03 0. -1.
    9900012    2    1    2    0    0 -0.10532409435E+02  0.32620934098E+01 -0.15136235482E+02  0.72461587463E+02  0.70000022366E+02 0.  0.
        -12    1    1    2    0    0  0.10532409435E+02 -0.32620934098E+01  0.15136235482E+02  0.18726412537E+02  0.00000000000E+00 0.  1.
         11    1    3    3    0    0  0.36471218871E+01  0.62778730050E+01 -0.21253563692E+00  0.72634949703E+01  0.51100000000E-03 0. -1.
        -11    1    3    3    0    0  0.13118393002E+02 -0.12761309595E+02  0.14907203050E+02  0.23604405533E+02  0.51100000000E-03 0.  1.
         12    1    3    3    0    0 -0.27297924325E+02  0.97455299999E+01 -0.29830902895E+02  0.41593686960E+02  0.00000000000E+00 0. -1.
</event>
<event>
 7    1  0.2489154E-013  0.7246160E+02  0.7816164E-02  0.1226708E+00
        -11   -1    0    0    0    0  0.00000000000E+00  0.00000000000E+00  0.45593999997E+02  0.45594000000E+02  0.51100000000E-03 0. -1.
         11   -1    0    0    0    0 -0.00000000000E+00 -0.00000000000E+00 -0.45593999997E+02  0.45594000000E+02  0.51100000000E-03 0.  1.
    9900012    2    1    2    0    0  0.71582465089E+01 -0.17123835544E+02 -0.24923529762E+01  0.72461599914E+02  0.70000038585E+02 0.  0.
        -12    1    1    2    0    0 -0.71582465089E+01  0.17123835544E+02  0.24923529762E+01  0.18726400086E+02  0.00000000000E+00 0.  1.
         11    1    3    3    0    0 -0.79961873102E+01  0.51287187658E+01  0.63278322286E+01  0.11414211696E+02  0.51100000000E-03 0. -1.
        -11    1    3    3    0    0  0.14062804138E+02  0.11147446500E+02  0.12079805811E+02  0.21632145811E+02  0.51100000000E-03 0.  1.
         12    1    3    3    0    0  0.10916296810E+01 -0.33400000810E+02 -0.20899991016E+02  0.39415242406E+02  0.00000000000E+00 0. -1.
</event>
<event>
 7    1  0.2489154E-013  0.7246161E+02  0.7816164E-02  0.1226708E+00
        -11   -1    0    0    0    0  0.00000000000E+00  0.00000000000E+00  0.45593999997E+02  0.45594000000E+02  0.51100000000E-03 0.  1.
         11   -1    0    0    0    0 -0.00000000000E+00 -0.00000000000E+00 -0.45593999997E+02  0.45594000000E+02  0.51100000000E-03 0. -1.
    9900012    2    1    2    0    0  0.33127425911E+01 -0.17377903400E+02 -0.61409861509E+01  0.72461614845E+02  0.70000058036E+02 0.  0.
        -12    1    1    2    0    0 -0.33127425911E+01  0.17377903400E+02  0.61409861509E+01  0.18726385155E+02  0.00000000000E+00 0.  1.
         11    1    3    3    0    0  0.11354008239E+02  0.37881655159E+01  0.99788476425E+01  0.15583359766E+02  0.51100000000E-03 0.  1.
        -11    1    3    3    0    0  0.15917968982E+02  0.54475063451E+01  0.16445884544E+01  0.16904488556E+02  0.51100000000E-03 0. -1.
         12    1    3    3    0    0 -0.23959234630E+02 -0.26613575261E+02 -0.17764422248E+02  0.39973766523E+02  0.00000000000E+00 0. -1.
</event>
<event>
 7    1  0.2489154E-013  0.7246158E+02  0.7816164E-02  0.1226708E+00
        -11   -1    0    0    0    0  0.00000000000E+00  0.00000000000E+00  0.45593999997E+02  0.45594000000E+02  0.51100000000E-03 0.  1.
         11   -1    0    0    0    0 -0.00000000000E+00 -0.00000000000E+00 -0.45593999997E+02  0.45594000000E+02  0.51100000000E-03 0. -1.
    9900012    2    1    2    0    0  0.10141531832E+02 -0.14063773827E+02 -0.70737910173E+01  0.72461576916E+02  0.70000008627E+02 0.  0.
        -12    1    1    2    0    0 -0.10141531832E+02  0.14063773827E+02  0.70737910173E+01  0.18726423084E+02  0.00000000000E+00 0.  1.
         11    1    3    3    0    0  0.62615379451E+01  0.96362338823E+01 -0.11861605432E+01  0.11552957975E+02  0.51100000000E-03 0. -1.
        -11    1    3    3    0    0 -0.17571140751E+02  0.96883280042E+00  0.14136253644E+02  0.22572489709E+02  0.51100000000E-03 0.  1.
         12    1    3    3    0    0  0.21451134638E+02 -0.24668840509E+02 -0.20023884118E+02  0.38336129233E+02  0.00000000000E+00 0. -1.
</event>
<event>
 7    1  0.2489154E-013  0.7246149E+02  0.7816164E-02  0.1226708E+00
        -11   -1    0    0    0    0  0.00000000000E+00  0.00000000000E+00  0.45593999997E+02  0.45594000000E+02  0.51100000000E-03 0.  1.
         11   -1    0    0    0    0 -0.00000000000E+00 -0.00000000000E+00 -0.45593999997E+02  0.45594000000E+02  0.51100000000E-03 0. -1.
    9900012    2    1    2    0    0  0.16661826714E+01  0.16992817550E+02  0.76909108723E+01  0.72461491436E+02  0.69999897272E+02 0.  0.
        -12    1    1    2    0    0 -0.16661826714E+01 -0.16992817550E+02 -0.76909108723E+01  0.18726508564E+02  0.00000000000E+00 0.  1.
         11    1    3    3    0    0 -0.42940732514E+01 -0.12404461683E+02 -0.17790640473E+02  0.22109197711E+02  0.51100000000E-03 0. -1.
        -11    1    3    3    0    0 -0.12566476316E+02  0.70853159927E+01  0.82875069635E+01  0.16637331567E+02  0.51100000000E-03 0.  1.
         12    1    3    3    0    0  0.18526732239E+02  0.22311963240E+02  0.17194044382E+02  0.33714962158E+02  0.00000000000E+00 0. -1.
</event>
<event>
 7    1  0.2489154E-013  0.7246152E+02  0.7816164E-02  0.1226708E+00
        -11   -1    0    0    0    0  0.00000000000E+00  0.00000000000E+00  0.45593999997E+02  0.45594000000E+02  0.51100000000E-03 0.  1.
         11   -1    0    0    0    0 -0.00000000000E+00 -0.00000000000E+00 -0.45593999997E+02  0.45594000000E+02  0.51100000000E-03 0. -1.
    9900012    2    1    2    0    0  0.53011810449E+01 -0.10272474964E+01 -0.17931066227E+02  0.72461524252E+02  0.69999940021E+02 0.  0.
        -12    1    1    2    0    0 -0.53011810449E+01  0.10272474964E+01  0.17931066227E+02  0.18726475748E+02  0.00000000000E+00 0.  1.
         11    1    3    3    0    0  0.96468422508E+01 -0.30142905207E+02 -0.57122705137E+01  0.32160322362E+02  0.51100000000E-03 0. -1.
        -11    1    3    3    0    0  0.72978704654E+01  0.95229071873E+00  0.27352663051E+00  0.73648209769E+01  0.51100000000E-03 0.  1.
        -12    1    3    3    0    0 -0.11643531671E+02  0.28163366992E+02 -0.12492322344E+02  0.32936380913E+02  0.00000000000E+00 0.  1.
</event>
<event>
 7    1  0.2489154E-013  0.7246156E+02  0.7816164E-02  0.1226708E+00
        -11   -1    0    0    0    0  0.00000000000E+00  0.00000000000E+00  0.45593999997E+02  0.45594000000E+02  0.51100000000E-03 0.  1.
         11   -1    0    0    0    0 -0.00000000000E+00 -0.00000000000E+00 -0.45593999997E+02  0.45594000000E+02  0.51100000000E-03 0. -1.
    9900012    2    1    2    0    0  0.12536049059E+02 -0.42019364233E+01 -0.13261630253E+02  0.72461557928E+02  0.69999983891E+02 0.  0.
        -12    1    1    2    0    0 -0.12536049059E+02  0.42019364233E+01  0.13261630253E+02  0.18726442072E+02  0.00000000000E+00 0.  1.
         11    1    3    3    0    0  0.17513146394E+02  0.25084677397E+01  0.16999359177E+02  0.24535299462E+02  0.51100000000E-03 0. -1.
        -11    1    3    3    0    0  0.58968519647E+01 -0.19216310071E+01  0.66836851972E+01  0.91179590314E+01  0.51100000000E-03 0.  1.
         12    1    3    3    0    0 -0.10873949300E+02 -0.47887731559E+01 -0.36944674626E+02  0.38808299434E+02  0.00000000000E+00 0. -1.
</event>
<event>
 7    1  0.2489154E-013  0.7246156E+02  0.7816164E-02  0.1226708E+00
        -11   -1    0    0    0    0  0.00000000000E+00  0.00000000000E+00  0.45593999997E+02  0.45594000000E+02  0.51100000000E-03 0.  1.
         11   -1    0    0    0    0 -0.00000000000E+00 -0.00000000000E+00 -0.45593999997E+02  0.45594000000E+02  0.51100000000E-03 0. -1.
    9900012    2    1    2    0    0 -0.14562113462E+02  0.19902225524E+01 -0.11604453001E+02  0.72461562439E+02  0.69999989767E+02 0.  0.
        -12    1    1    2    0    0  0.14562113462E+02 -0.19902225524E+01  0.11604453001E+02  0.18726437561E+02  0.00000000000E+00 0.  1.
         11    1    3    3    0    0  0.12510005316E+02  0.99991330755E+01  0.60016998580E+01  0.17102727756E+02  0.51100000000E-03 0. -1.
        -11    1    3    3    0    0  0.77567392702E+01  0.29682142663E+01 -0.16904283161E+02  0.18834332733E+02  0.51100000000E-03 0.  1.
        -12    1    3    3    0    0 -0.34828858048E+02 -0.10977124789E+02 -0.70186969749E+00  0.36524501950E+02  0.00000000000E+00 0.  1.
</event>
<event>
 7    1  0.2489154E-013  0.7246157E+02  0.7816164E-02  0.1226708E+00
        -11   -1    0    0    0    0  0.00000000000E+00  0.00000000000E+00  0.45593999997E+02  0.45594000000E+02  0.51100000000E-03 0. -1.
         11   -1    0    0    0    0 -0.00000000000E+00 -0.00000000000E+00 -0.45593999997E+02  0.45594000000E+02  0.51100000000E-03 0.  1.
    9900012    2    1    2    0    0  0.10899381072E+02 -0.43235431923E+01  0.14601020491E+02  0.72461565933E+02  0.69999994318E+02 0.  0.
        -12    1    1    2    0    0 -0.10899381072E+02  0.43235431923E+01 -0.14601020491E+02  0.18726434067E+02  0.00000000000E+00 0.  1.
         11    1    3    3    0    0  0.66363710158E+01  0.16709342647E+01 -0.10415559614E+02  0.12462637117E+02  0.51100000000E-03 0. -1.
        -11    1    3    3    0    0  0.19951937761E+02 -0.23220659821E+02  0.18636688396E+02  0.35841386937E+02  0.51100000000E-03 0.  1.
         12    1    3    3    0    0 -0.15688927705E+02  0.17226182364E+02  0.63798917093E+01  0.24157541878E+02  0.00000000000E+00 0. -1.
</event>
<event>
 7    1  0.2489154E-013  0.7246155E+02  0.7816164E-02  0.1226708E+00
        -11   -1    0    0    0    0  0.00000000000E+00  0.00000000000E+00  0.45593999997E+02  0.45594000000E+02  0.51100000000E-03 0.  1.
         11   -1    0    0    0    0 -0.00000000000E+00 -0.00000000000E+00 -0.45593999997E+02  0.45594000000E+02  0.51100000000E-03 0. -1.
    9900012    2    1    2    0    0  0.11967394317E+02  0.69409696343E+01 -0.12620785967E+02  0.72461552803E+02  0.69999977215E+02 0.  0.
        -12    1    1    2    0    0 -0.11967394317E+02 -0.69409696343E+01  0.12620785967E+02  0.18726447197E+02  0.00000000000E+00 0.  1.
         11    1    3    3    0    0  0.35703854805E+00  0.17681587326E+02 -0.54958332665E+01  0.18519454378E+02  0.51100000000E-03 0. -1.
        -11    1    3    3    0    0 -0.11906131225E+02  0.99387160019E+01 -0.15080067948E+02  0.21631978321E+02  0.51100000000E-03 0.  1.
         12    1    3    3    0    0  0.23516486993E+02 -0.20679333694E+02  0.79551152476E+01  0.32310120104E+02  0.00000000000E+00 0. -1.
</event>
<event>
 7    1  0.2489154E-013  0.7246158E+02  0.7816164E-02  0.1226708E+00
        -11   -1    0    0    0    0  0.00000000000E+00  0.00000000000E+00  0.45593999997E+02  0.45594000000E+02  0.51100000000E-03 0. -1.
         11   -1    0    0    0    0 -0.00000000000E+00 -0.00000000000E+00 -0.45593999997E+02  0.45594000000E+02  0.51100000000E-03 0.  1.
    9900012    2    1    2    0    0 -0.50629992677E+00 -0.56533887627E+01  0.17845490071E+02  0.72461583899E+02  0.70000017723E+02 0.  0.
        -12    1    1    2    0    0  0.50629992677E+00  0.56533887627E+01 -0.17845490071E+02  0.18726416101E+02  0.00000000000E+00 0.  1.
         11    1    3    3    0    0  0.15464289983E+02 -0.10187065106E+02  0.18697236722E+02  0.26315531943E+02  0.51100000000E-03 0. -1.
        -11    1    3    3    0    0  0.47766666064E+01 -0.10827194161E+02  0.12389698975E+02  0.17133281011E+02  0.51100000000E-03 0.  1.
        -12    1    3    3    0    0 -0.20747256517E+02  0.15360870505E+02 -0.13241445626E+02  0.29012770945E+02  0.00000000000E+00 0.  1.
</event>
<event>
 7    1  0.2489154E-013  0.7246144E+02  0.7816164E-02  0.1226708E+00
        -11   -1    0    0    0    0  0.00000000000E+00  0.00000000000E+00  0.45593999997E+02  0.45594000000E+02  0.51100000000E-03 0.  1.
         11   -1    0    0    0    0 -0.00000000000E+00 -0.00000000000E+00 -0.45593999997E+02  0.45594000000E+02  0.51100000000E-03 0. -1.
    9900012    2    1    2    0    0 -0.82912124449E+00 -0.16726511387E+02 -0.83797595679E+01  0.72461441437E+02  0.69999832139E+02 0.  0.
        -12    1    1    2    0    0  0.82912124449E+00  0.16726511387E+02  0.83797595679E+01  0.18726558563E+02  0.00000000000E+00 0.  1.
         11    1    3    3    0    0 -0.47702463525E+01 -0.42146077791E+01 -0.11814733148E+02  0.13420360971E+02  0.51100000000E-03 0. -1.
        -11    1    3    3    0    0 -0.29558394512E+01  0.20222543674E+02 -0.10290224708E+02  0.22881804656E+02  0.51100000000E-03 0.  1.
         12    1    3    3    0    0  0.68969645592E+01 -0.32734447282E+02  0.13725198288E+02  0.36159275809E+02  0.00000000000E+00 0. -1.
</event>
<event>
 7    1  0.2489154E-013  0.7246168E+02  0.7816164E-02  0.1226708E+00
        -11   -1    0    0    0    0  0.00000000000E+00  0.00000000000E+00  0.45593999997E+02  0.45594000000E+02  0.51100000000E-03 0.  1.
         11   -1    0    0    0    0 -0.00000000000E+00 -0.00000000000E+00 -0.45593999997E+02  0.45594000000E+02  0.51100000000E-03 0. -1.
    9900012    2    1    2    0    0 -0.38573147573E+01  0.27928476052E+01 -0.18110666447E+02  0.72461678577E+02  0.70000141058E+02 0.  0.
        -12    1    1    2    0    0  0.38573147573E+01 -0.27928476052E+01  0.18110666447E+02  0.18726321423E+02  0.00000000000E+00 0.  1.
         11    1    3    3    0    0  0.16584503209E+02 -0.58231733124E+01 -0.13587051615E+02  0.22216279301E+02  0.51100000000E-03 0. -1.
        -11    1    3    3    0    0 -0.59879111818E+01 -0.49910804707E+00  0.19702889140E+02  0.20598738551E+02  0.51100000000E-03 0.  1.
         12    1    3    3    0    0 -0.14453906785E+02  0.91151289646E+01 -0.24226503973E+02  0.29646660725E+02  0.00000000000E+00 0. -1.
</event>
<event>
 7    1  0.2489154E-013  0.7246135E+02  0.7816164E-02  0.1226709E+00
        -11   -1    0    0    0    0  0.00000000000E+00  0.00000000000E+00  0.45593999997E+02  0.45594000000E+02  0.51100000000E-03 0.  1.
         11   -1    0    0    0    0 -0.00000000000E+00 -0.00000000000E+00 -0.45593999997E+02  0.45594000000E+02  0.51100000000E-03 0. -1.
    9900012    2    1    2    0    0  0.83650039763E+01  0.12798105926E+01 -0.16705571974E+02  0.72461352098E+02  0.69999715758E+02 0.  0.
        -12    1    1    2    0    0 -0.83650039763E+01 -0.12798105926E+01  0.16705571974E+02  0.18726647902E+02  0.00000000000E+00 0.  1.
         11    1    3    3    0    0  0.28766673184E+02  0.18202042976E+02 -0.19304028125E+02  0.39134145662E+02  0.51100000000E-03 0. -1.
        -11    1    3    3    0    0 -0.46613992300E+01  0.36313996822E+01  0.44135128049E+01  0.73752831792E+01  0.51100000000E-03 0.  1.
        -12    1    3    3    0    0 -0.15740269978E+02 -0.20553632065E+02 -0.18150566540E+01  0.25951923257E+02  0.00000000000E+00 0.  1.
</event>
<event>
 7    1  0.2489154E-013  0.7246170E+02  0.7816164E-02  0.1226708E+00
        -11   -1    0    0    0    0  0.00000000000E+00  0.00000000000E+00  0.45593999997E+02  0.45594000000E+02  0.51100000000E-03 0. -1.
         11   -1    0    0    0    0 -0.00000000000E+00 -0.00000000000E+00 -0.45593999997E+02  0.45594000000E+02  0.51100000000E-03 0.  1.
    9900012    2    1    2    0    0 -0.13582841054E+02 -0.91233826856E+01  0.91073923134E+01  0.72461700913E+02  0.70000170155E+02 0.  0.
        -12    1    1    2    0    0  0.13582841054E+02  0.91233826856E+01 -0.91073923134E+01  0.18726299087E+02  0.00000000000E+00 0.  1.
         11    1    3    3    0    0  0.13311876089E+02  0.20769597209E+02 -0.58015831332E+01  0.25342465949E+02  0.51100000000E-03 0.  1.
        -11    1    3    3    0    0 -0.65085386011E+01 -0.16874377675E+02  0.14073171321E+02  0.22916366377E+02  0.51100000000E-03 0. -1.
        -12    1    3    3    0    0 -0.20386178542E+02 -0.13018602220E+02  0.83580412578E+00  0.24202868587E+02  0.00000000000E+00 0.  1.
</event>
<event>
 7    1  0.2489154E-013  0.7246219E+02  0.7816164E-02  0.1226706E+00
        -11   -1    0    0    0    0  0.00000000000E+00  0.00000000000E+00  0.45593999997E+02  0.45594000000E+02  0.51100000000E-03 0.  1.
         11   -1    0    0    0    0 -0.00000000000E+00 -0.00000000000E+00 -0.45593999997E+02  0.45594000000E+02  0.51100000000E-03 0. -1.
    9900012    2    1    2    0    0  0.12047807440E+02  0.81255956671E+01 -0.11810205028E+02  0.72462191290E+02  0.70000808957E+02 0.  0.
        -12    1    1    2    0    0 -0.12047807440E+02 -0.81255956671E+01  0.11810205028E+02  0.18725808710E+02  0.00000000000E+00 0.  1.
         11    1    3    3    0    0  0.98349546131E+01 -0.14517131086E+02 -0.14867089373E+02  0.22989209945E+02  0.51100000000E-03 0. -1.
        -11    1    3    3    0    0  0.13801185004E+02 -0.79950440361E+01  0.48413761406E+01  0.16668304048E+02  0.51100000000E-03 0.  1.
        -12    1    3    3    0    0 -0.11588332177E+02  0.30637770789E+02 -0.17844917961E+01  0.32804677297E+02  0.00000000000E+00 0.  1.
</event>
<event>
 7    1  0.2489154E-013  0.7246155E+02  0.7816164E-02  0.1226708E+00
        -11   -1    0    0    0    0  0.00000000000E+00  0.00000000000E+00  0.45593999997E+02  0.45594000000E+02  0.51100000000E-03 0. -1.
         11   -1    0    0    0    0 -0.00000000000E+00 -0.00000000000E+00 -0.45593999997E+02  0.45594000000E+02  0.51100000000E-03 0.  1.
    9900012    2    1    2    0    0  0.13773053710E+02 -0.12424859924E+02 -0.25701801476E+01  0.72461548691E+02  0.69999971857E+02 0.  0.
        -12    1    1    2    0    0 -0.13773053710E+02  0.12424859924E+02  0.25701801476E+01  0.18726451309E+02  0.00000000000E+00 0.  1.
         11    1    3    3    0    0  0.21999358885E+01 -0.16708176562E+01 -0.70257567161E+01  0.75493448225E+01  0.51100000000E-03 0. -1.
        -11    1    3    3    0    0  0.13995089770E+02  0.53217248452E+01 -0.26220602378E+02  0.30194424689E+02  0.51100000000E-03 0.  1.
         12    1    3    3    0    0 -0.24219719478E+01 -0.16075767113E+02  0.30676178946E+02  0.34717779179E+02  0.00000000000E+00 0. -1.
</event>
<event>
 7    1  0.2489154E-013  0.7246158E+02  0.7816164E-02  0.1226708E+00
        -11   -1    0    0    0    0  0.00000000000E+00  0.00000000000E+00  0.45593999997E+02  0.45594000000E+02  0.51100000000E-03 0.  1.
         11   -1    0    0    0    0 -0.00000000000E+00 -0.00000000000E+00 -0.45593999997E+02  0.45594000000E+02  0.51100000000E-03 0. -1.
    9900012    2    1    2    0    0  0.14910619058E+02  0.97036281889E+01 -0.58473724816E+01  0.72461582145E+02  0.70000015438E+02 0.  0.
        -12    1    1    2    0    0 -0.14910619058E+02 -0.97036281889E+01  0.58473724816E+01  0.18726417855E+02  0.00000000000E+00 0.  1.
         11    1    3    3    0    0 -0.11625541226E+01  0.62155172607E+00 -0.37520310075E+00  0.13706335266E+01  0.51100000000E-03 0. -1.
        -11    1    3    3    0    0 -0.18606994570E+02 -0.10299339065E+02 -0.19603610968E+02  0.28924007249E+02  0.51100000000E-03 0.  1.
         12    1    3    3    0    0  0.34680167751E+02  0.19381415528E+02  0.14131441587E+02  0.42166941369E+02  0.00000000000E+00 0. -1.
</event>
<event>
 7    1  0.2489154E-013  0.7246158E+02  0.7816164E-02  0.1226708E+00
        -11   -1    0    0    0    0  0.00000000000E+00  0.00000000000E+00  0.45593999997E+02  0.45594000000E+02  0.51100000000E-03 0. -1.
         11   -1    0    0    0    0 -0.00000000000E+00 -0.00000000000E+00 -0.45593999997E+02  0.45594000000E+02  0.51100000000E-03 0.  1.
    9900012    2    1    2    0    0 -0.87781138530E+00 -0.15835343907E+02  0.99574165323E+01  0.72461579801E+02  0.70000012384E+02 0.  0.
        -12    1    1    2    0    0  0.87781138530E+00  0.15835343907E+02 -0.99574165323E+01  0.18726420199E+02  0.00000000000E+00 0.  1.
         11    1    3    3    0    0 -0.11045506609E+01 -0.29314312940E+01  0.88230206827E+00  0.32545013128E+01  0.51100000000E-03 0. -1.
        -11    1    3    3    0    0 -0.11200178486E+02 -0.24029060085E+02 -0.21887327161E+02  0.34378697142E+02  0.51100000000E-03 0.  1.
         12    1    3    3    0    0  0.11426917761E+02  0.11125147472E+02  0.30962441625E+02  0.34828381346E+02  0.00000000000E+00 0. -1.
</event>
<event>
 7    1  0.2489154E-013  0.7246153E+02  0.7816164E-02  0.1226708E+00
        -11   -1    0    0    0    0  0.00000000000E+00  0.00000000000E+00  0.45593999997E+02  0.45594000000E+02  0.51100000000E-03 0. -1.
         11   -1    0    0    0    0 -0.00000000000E+00 -0.00000000000E+00 -0.45593999997E+02  0.45594000000E+02  0.51100000000E-03 0.  1.
    9900012    2    1    2    0    0 -0.15112890640E+02 -0.36875072745E+01  0.10425142231E+02  0.72461527723E+02  0.69999944543E+02 0.  0.
        -12    1    1    2    0    0  0.15112890640E+02  0.36875072745E+01 -0.10425142231E+02  0.18726472277E+02  0.00000000000E+00 0.  1.
         11    1    3    3    0    0 -0.12560506958E+02 -0.13879255236E+02  0.17559921002E+02  0.25666142811E+02  0.51100000000E-03 0. -1.
        -11    1    3    3    0    0  0.21969748794E+01  0.26636950707E+01  0.18935366841E+02  0.19247599532E+02  0.51100000000E-03 0.  1.
        -12    1    3    3    0    0 -0.47493585617E+01  0.75280528912E+01 -0.26070145612E+02  0.27547785380E+02  0.00000000000E+00 0.  1.
</event>
<event>
 7    1  0.2489154E-013  0.7246169E+02  0.7816164E-02  0.1226708E+00
        -11   -1    0    0    0    0  0.00000000000E+00  0.00000000000E+00  0.45593999997E+02  0.45594000000E+02  0.51100000000E-03 0.  1.
         11   -1    0    0    0    0 -0.00000000000E+00 -0.00000000000E+00 -0.45593999997E+02  0.45594000000E+02  0.51100000000E-03 0. -1.
    9900012    2    1    2    0    0 -0.46329051393E+01 -0.17895196275E+02 -0.29954438078E+01  0.72461693814E+02  0.70000160907E+02 0.  0.
        -12    1    1    2    0    0  0.46329051393E+01  0.17895196275E+02  0.29954438078E+01  0.18726306186E+02  0.00000000000E+00 0.  1.
         11    1    3    3    0    0 -0.53829331638E+01 -0.10208701047E+02 -0.21761502457E+02  0.24632428544E+02  0.51100000000E-03 0. -1.
        -11    1    3    3    0    0 -0.13825261253E+02  0.92829435618E+01 -0.26483140517E+01  0.16861923303E+02  0.51100000000E-03 0.  1.
        -12    1    3    3    0    0  0.14575289278E+02 -0.16969438790E+02  0.21414372701E+02  0.30967341968E+02  0.00000000000E+00 0.  1.
</event>
<event>
 7    1  0.2489154E-013  0.7246152E+02  0.7816164E-02  0.1226708E+00
        -11   -1    0    0    0    0  0.00000000000E+00  0.00000000000E+00  0.45593999997E+02  0.45594000000E+02  0.51100000000E-03 0.  1.
         11   -1    0    0    0    0 -0.00000000000E+00 -0.00000000000E+00 -0.45593999997E+02  0.45594000000E+02  0.51100000000E-03 0. -1.
    9900012    2    1    2    0    0 -0.62437801790E+01  0.16791576735E+02  0.54533581727E+01  0.72461522608E+02  0.69999937879E+02 0.  0.
        -12    1    1    2    0    0  0.62437801790E+01 -0.16791576735E+02 -0.54533581727E+01  0.18726477392E+02  0.00000000000E+00 0.  1.
         11    1    3    3    0    0  0.20433509663E+02  0.11252828557E+02 -0.25204175719E+00  0.23328480297E+02  0.51100000000E-03 0. -1.
        -11    1    3    3    0    0 -0.51812867939E+01 -0.16002960789E+02  0.79762684747E+01  0.18616158194E+02  0.51100000000E-03 0.  1.
        -12    1    3    3    0    0 -0.21496003048E+02  0.21541708967E+02 -0.22708685449E+01  0.30516884117E+02  0.00000000000E+00 0.  1.
</event>
<event>
 7    1  0.2489154E-013  0.7246155E+02  0.7816164E-02  0.1226708E+00
        -11   -1    0    0    0    0  0.00000000000E+00  0.00000000000E+00  0.45593999997E+02  0.45594000000E+02  0.51100000000E-03 0.  1.
         11   -1    0    0    0    0 -0.00000000000E+00 -0.00000000000E+00 -0.45593999997E+02  0.45594000000E+02  0.51100000000E-03 0. -1.
    9900012    2    1    2    0    0  0.12445024651E+02  0.74971257206E+01 -0.11815009226E+02  0.72461548770E+02  0.69999971961E+02 0.  0.
        -12    1    1    2    0    0 -0.12445024651E+02 -0.74971257206E+01  0.11815009226E+02  0.18726451230E+02  0.00000000000E+00 0.  1.
         11    1    3    3    0    0 -0.10361654849E+01 -0.39462681686E+01  0.23116815364E+01  0.46894075486E+01  0.51100000000E-03 0. -1.
        -11    1    3    3    0    0 -0.24037403824E+02  0.13093497342E+02  0.73881977904E+00  0.27382153132E+02  0.51100000000E-03 0.  1.
         12    1    3    3    0    0  0.37518593960E+02 -0.16501034523E+01 -0.14865510542E+02  0.40389988089E+02  0.00000000000E+00 0. -1.
</event>
<event>
 7    1  0.2489154E-013  0.7246154E+02  0.7816164E-02  0.1226708E+00
        -11   -1    0    0    0    0  0.00000000000E+00  0.00000000000E+00  0.45593999997E+02  0.45594000000E+02  0.51100000000E-03 0.  1.
         11   -1    0    0    0    0 -0.00000000000E+00 -0.00000000000E+00 -0.45593999997E+02  0.45594000000E+02  0.51100000000E-03 0. -1.
    9900012    2    1    2    0    0  0.15575811782E+02  0.20737799027E+01 -0.10186935113E+02  0.72461544843E+02  0.69999966845E+02 0.  0.
        -12    1    1    2    0    0 -0.15575811782E+02 -0.20737799027E+01  0.10186935113E+02  0.18726455157E+02  0.00000000000E+00 0.  1.
         11    1    3    3    0    0  0.42036141182E+01 -0.57426480265E+01 -0.12116090927E+01  0.72191671864E+01  0.51100000000E-03 0. -1.
        -11    1    3    3    0    0  0.33052283405E+02 -0.12021278219E+01  0.10537158643E+02  0.34712105412E+02  0.51100000000E-03 0.  1.
         12    1    3    3    0    0 -0.21680085742E+02  0.90185557510E+01 -0.19512484663E+02  0.30530272245E+02  0.00000000000E+00 0. -1.
</event>
<event>
 7    1  0.2489154E-013  0.7246157E+02  0.7816164E-02  0.1226708E+00
        -11   -1    0    0    0    0  0.00000000000E+00  0.00000000000E+00  0.45593999997E+02  0.45594000000E+02  0.51100000000E-03 0.  1.
         11   -1    0    0    0    0 -0.00000000000E+00 -0.00000000000E+00 -0.45593999997E+02  0.45594000000E+02  0.51100000000E-03 0. -1.
    9900012    2    1    2    0    0  0.65872889186E+01 -0.56952095823E+01 -0.16578640073E+02  0.72461572307E+02  0.70000002622E+02 0.  0.
        -12    1    1    2    0    0 -0.65872889186E+01  0.56952095823E+01  0.16578640073E+02  0.18726427693E+02  0.00000000000E+00 0.  1.
         11    1    3    3    0    0  0.17811335721E+02  0.14854101160E+02  0.32971779063E+01  0.23425613842E+02  0.51100000000E-03 0. -1.
        -11    1    3    3    0    0  0.63447947897E+01  0.48784540620E+01  0.49348517043E+01  0.94025792505E+01  0.51100000000E-03 0.  1.
         12    1    3    3    0    0 -0.17568841593E+02 -0.25427764804E+02 -0.24810669683E+02  0.39633379215E+02  0.00000000000E+00 0. -1.
</event>
<event>
 7    1  0.2489154E-013  0.7246152E+02  0.7816164E-02  0.1226708E+00
        -11   -1    0    0    0    0  0.00000000000E+00  0.00000000000E+00  0.45593999997E+02  0.45594000000E+02  0.51100000000E-03 0. -1.
         11   -1    0    0    0    0 -0.00000000000E+00 -0.00000000000E+00 -0.45593999997E+02  0.45594000000E+02  0.51100000000E-03 0.  1.
    9900012    2    1    2    0    0  0.67964976425E+00  0.61867650618E+01  0.17661906024E+02  0.72461523819E+02  0.69999939458E+02 0.  0.
        -12    1    1    2    0    0 -0.67964976425E+00 -0.61867650618E+01 -0.17661906024E+02  0.18726476181E+02  0.00000000000E+00 0.  1.
         11    1    3    3    0    0 -0.41845412176E+01 -0.10031160474E+02 -0.48493404064E+01  0.11901708630E+02  0.51100000000E-03 0. -1.
        -11    1    3    3    0    0  0.23357537435E+02  0.37616629392E+01 -0.59590160150E+01  0.24397428865E+02  0.51100000000E-03 0.  1.
         12    1    3    3    0    0 -0.18493346454E+02  0.12456262597E+02  0.28470262446E+02  0.36162386324E+02  0.00000000000E+00 0. -1.
</event>
<event>
 7    1  0.2489154E-013  0.7246156E+02  0.7816164E-02  0.1226708E+00
        -11   -1    0    0    0    0  0.00000000000E+00  0.00000000000E+00  0.45593999997E+02  0.45594000000E+02  0.51100000000E-03 0.  1.
         11   -1    0    0    0    0 -0.00000000000E+00 -0.00000000000E+00 -0.45593999997E+02  0.45594000000E+02  0.51100000000E-03 0. -1.
    9900012    2    1    2    0    0  0.89496587690E+01  0.15866653876E+02 -0.43396346499E+01  0.72461560771E+02  0.69999987594E+02 0.  0.
        -12    1    1    2    0    0 -0.89496587690E+01 -0.15866653876E+02  0.43396346499E+01  0.18726439229E+02  0.00000000000E+00 0.  1.
         11    1    3    3    0    0  0.35385196776E+02  0.57166203191E+01  0.12952467902E+02  0.38112443162E+02  0.51100000000E-03 0.  1.
        -11    1    3    3    0    0 -0.78740016460E+01  0.75209289785E+01 -0.54638132508E+01  0.12182673357E+02  0.51100000000E-03 0. -1.
        -12    1    3    3    0    0 -0.18561536361E+02  0.26291045784E+01 -0.11828289301E+02  0.22166444252E+02  0.00000000000E+00 0.  1.
</event>
<event>
 7    1  0.2489154E-013  0.7246159E+02  0.7816164E-02  0.1226708E+00
        -11   -1    0    0    0    0  0.00000000000E+00  0.00000000000E+00  0.45593999997E+02  0.45594000000E+02  0.51100000000E-03 0. -1.
         11   -1    0    0    0    0 -0.00000000000E+00 -0.00000000000E+00 -0.45593999997E+02  0.45594000000E+02  0.51100000000E-03 0.  1.
    9900012    2    1    2    0    0 -0.95796921554E+01  0.14989776733E+02  0.58493048968E+01  0.72461594150E+02  0.70000031076E+02 0.  0.
        -12    1    1    2    0    0  0.95796921554E+01 -0.14989776733E+02 -0.58493048968E+01  0.18726405850E+02  0.00000000000E+00 0.  1.
         11    1    3    3    0    0 -0.83310119665E+01  0.14904956341E+02  0.28217817251E+02  0.32981944979E+02  0.51100000000E-03 0. -1.
        -11    1    3    3    0    0  0.69102255687E+01 -0.13378311715E+02 -0.46086911543E+01  0.15747078338E+02  0.51100000000E-03 0.  1.
        -12    1    3    3    0    0 -0.81589057576E+01  0.13463132107E+02 -0.17759821200E+02  0.23732570833E+02  0.00000000000E+00 0.  1.
</event>
<event>
 7    1  0.2489154E-013  0.7246157E+02  0.7816164E-02  0.1226708E+00
        -11   -1    0    0    0    0  0.00000000000E+00  0.00000000000E+00  0.45593999997E+02  0.45594000000E+02  0.51100000000E-03 0.  1.
         11   -1    0    0    0    0 -0.00000000000E+00 -0.00000000000E+00 -0.45593999997E+02  0.45594000000E+02  0.51100000000E-03 0. -1.
    9900012    2    1    2    0    0 -0.10955737958E+02  0.14980918544E+02 -0.24945756090E+01  0.72461574231E+02  0.70000005128E+02 0.  0.
        -12    1    1    2    0    0  0.10955737958E+02 -0.14980918544E+02  0.24945756090E+01  0.18726425769E+02  0.00000000000E+00 0.  1.
         11    1    3    3    0    0  0.15977860825E+01  0.15139438897E+02 -0.21773938970E+02  0.26568024936E+02  0.51100000000E-03 0. -1.
        -11    1    3    3    0    0  0.16103588590E+01  0.18367100902E+01 -0.11604145558E+02  0.11858454958E+02  0.51100000000E-03 0.  1.
        -12    1    3    3    0    0 -0.14163882899E+02 -0.19952304433E+01  0.30883508919E+02  0.34035094336E+02  0.00000000000E+00 0.  1.
</event>
<event>
 7    1  0.2489154E-013  0.7246156E+02  0.7816164E-02  0.1226708E+00
        -11   -1    0    0    0    0  0.00000000000E+00  0.00000000000E+00  0.45593999997E+02  0.45594000000E+02  0.51100000000E-03 0. -1.
         11   -1    0    0    0    0 -0.00000000000E+00 -0.00000000000E+00 -0.45593999997E+02  0.45594000000E+02  0.51100000000E-03 0.  1.
    9900012    2    1    2    0    0 -0.76849313269E+01  0.64371429386E+01  0.15817227357E+02  0.72461557199E+02  0.69999982941E+02 0.  0.
        -12    1    1    2    0    0  0.76849313269E+01 -0.64371429386E+01 -0.15817227357E+02  0.18726442801E+02  0.00000000000E+00 0.  1.
         11    1    3    3    0    0  0.12635729500E+02  0.16956913683E+02 -0.43163868137E+01  0.21583090072E+02  0.51100000000E-03 0. -1.
        -11    1    3    3    0    0 -0.57488140051E+01  0.59660811718E+01 -0.10366307652E+02  0.13270392670E+02  0.51100000000E-03 0.  1.
         12    1    3    3    0    0 -0.14571846822E+02 -0.16485851916E+02  0.30499921823E+02  0.37608074458E+02  0.00000000000E+00 0. -1.
</event>
<event>
 7    1  0.2489154E-013  0.7246189E+02  0.7816164E-02  0.1226707E+00
        -11   -1    0    0    0    0  0.00000000000E+00  0.00000000000E+00  0.45593999997E+02  0.45594000000E+02  0.51100000000E-03 0.  1.
         11   -1    0    0    0    0 -0.00000000000E+00 -0.00000000000E+00 -0.45593999997E+02  0.45594000000E+02  0.51100000000E-03 0. -1.
    9900012    2    1    2    0    0  0.18604386230E+02  0.17606629779E+01 -0.12016261861E+01  0.72461894516E+02  0.70000422357E+02 0.  0.
        -12    1    1    2    0    0 -0.18604386230E+02 -0.17606629779E+01  0.12016261861E+01  0.18726105484E+02  0.00000000000E+00 0.  1.
         11    1    3    3    0    0  0.45908358497E+01 -0.36468244717E+01 -0.79145880852E-01  0.58635626421E+01  0.51100000000E-03 0. -1.
        -11    1    3    3    0    0  0.25511349280E+02 -0.19026378751E+02  0.14962453882E+02  0.35166845990E+02  0.51100000000E-03 0.  1.
         12    1    3    3    0    0 -0.11497798900E+02  0.24433866200E+02 -0.16084934187E+02  0.31431485884E+02  0.00000000000E+00 0. -1.
</event>
<event>
 7    1  0.2489154E-013  0.7246154E+02  0.7816164E-02  0.1226708E+00
        -11   -1    0    0    0    0  0.00000000000E+00  0.00000000000E+00  0.45593999997E+02  0.45594000000E+02  0.51100000000E-03 0.  1.
         11   -1    0    0    0    0 -0.00000000000E+00 -0.00000000000E+00 -0.45593999997E+02  0.45594000000E+02  0.51100000000E-03 0. -1.
    9900012    2    1    2    0    0  0.15100131999E+02  0.35762200470E+00 -0.11069703245E+02  0.72461542519E+02  0.69999963817E+02 0.  0.
        -12    1    1    2    0    0 -0.15100131999E+02 -0.35762200470E+00  0.11069703245E+02  0.18726457481E+02  0.00000000000E+00 0.  1.
         11    1    3    3    0    0  0.14526937809E+02 -0.52823026869E+01 -0.54771953580E+01  0.16399216842E+02  0.51100000000E-03 0. -1.
        -11    1    3    3    0    0 -0.26170877194E+02 -0.51633545708E+01  0.32097470643E-01  0.26675383297E+02  0.51100000000E-03 0.  1.
         12    1    3    3    0    0  0.26744071384E+02  0.10803279262E+02 -0.56246053573E+01  0.29386942380E+02  0.00000000000E+00 0. -1.
</event>
<event>
 7    1  0.2489154E-013  0.7246162E+02  0.7816164E-02  0.1226708E+00
        -11   -1    0    0    0    0  0.00000000000E+00  0.00000000000E+00  0.45593999997E+02  0.45594000000E+02  0.51100000000E-03 0. -1.
         11   -1    0    0    0    0 -0.00000000000E+00 -0.00000000000E+00 -0.45593999997E+02  0.45594000000E+02  0.51100000000E-03 0.  1.
    9900012    2    1    2    0    0  0.92071603373E+01 -0.15101336206E+02  0.61526663126E+01  0.72461615954E+02  0.70000059480E+02 0.  0.
        -12    1    1    2    0    0 -0.92071603373E+01  0.15101336206E+02 -0.61526663126E+01  0.18726384046E+02  0.00000000000E+00 0.  1.
         11    1    3    3    0    0  0.25824112505E+02 -0.70266272957E+01 -0.16194437993E+02  0.31281273951E+02  0.51100000000E-03 0. -1.
        -11    1    3    3    0    0 -0.59378508585E+01  0.24439587805E+01 -0.62071503089E+01  0.89308298918E+01  0.51100000000E-03 0.  1.
         12    1    3    3    0    0 -0.10679101309E+02 -0.10518667691E+02  0.28554254615E+02  0.32249512111E+02  0.00000000000E+00 0. -1.
</event>
<event>
 7    1  0.2489154E-013  0.7246158E+02  0.7816164E-02  0.1226708E+00
        -11   -1    0    0    0    0  0.00000000000E+00  0.00000000000E+00  0.45593999997E+02  0.45594000000E+02  0.51100000000E-03 0.  1.
         11   -1    0    0    0    0 -0.00000000000E+00 -0.00000000000E+00 -0.45593999997E+02  0.45594000000E+02  0.51100000000E-03 0. -1.
    9900012    2    1    2    0    0  0.72761031508E+00  0.37320374479E+01 -0.18336337766E+02  0.72461580082E+02  0.70000012750E+02 0.  0.
        -12    1    1    2    0    0 -0.72761031508E+00 -0.37320374479E+01  0.18336337766E+02  0.18726419918E+02  0.00000000000E+00 0.  1.
         11    1    3    3    0    0 -0.10726558684E+02 -0.20858097916E+02 -0.14604101291E+02  0.27629677607E+02  0.51100000000E-03 0. -1.
        -11    1    3    3    0    0 -0.40883388478E+01 -0.76711349384E+01 -0.23070354415E+01  0.89935109144E+01  0.51100000000E-03 0.  1.
        -12    1    3    3    0    0  0.15542507847E+02  0.32261270302E+02 -0.14252010333E+01  0.35838391561E+02  0.00000000000E+00 0.  1.
</event>
<event>
 7    1  0.2489154E-013  0.7246156E+02  0.7816164E-02  0.1226708E+00
        -11   -1    0    0    0    0  0.00000000000E+00  0.00000000000E+00  0.45593999997E+02  0.45594000000E+02  0.51100000000E-03 0.  1.
         11   -1    0    0    0    0 -0.00000000000E+00 -0.00000000000E+00 -0.45593999997E+02  0.45594000000E+02  0.51100000000E-03 0. -1.
    9900012    2    1    2    0    0  0.26563134222E+00  0.48656989125E+01 -0.18081320539E+02  0.72461555106E+02  0.69999980214E+02 0.  0.
        -12    1    1    2    0    0 -0.26563134222E+00 -0.48656989125E+01  0.18081320539E+02  0.18726444894E+02  0.00000000000E+00 0.  1.
         11    1    3    3    0    0  0.22093010108E+02 -0.12408840750E+02 -0.20666604027E+02  0.32698454806E+02  0.51100000000E-03 0. -1.
        -11    1    3    3    0    0  0.68528200367E+01  0.25692753777E+01  0.17350759861E+01  0.75214897036E+01  0.51100000000E-03 0.  1.
         12    1    3    3    0    0 -0.28680198803E+02  0.14705264285E+02  0.85020750150E+00  0.32241610597E+02  0.00000000000E+00 0. -1.
</event>
<event>
 7    1  0.2489154E-013  0.7246160E+02  0.7816164E-02  0.1226708E+00
        -11   -1    0    0    0    0  0.00000000000E+00  0.00000000000E+00  0.45593999997E+02  0.45594000000E+02  0.51100000000E-03 0.  1.
         11   -1    0    0    0    0 -0.00000000000E+00 -0.00000000000E+00 -0.45593999997E+02  0.45594000000E+02  0.51100000000E-03 0. -1.
    9900012    2    1    2    0    0  0.19208643203E+01  0.17631328440E+02 -0.60103616381E+01  0.72461603942E+02  0.70000043832E+02 0.  0.
        -12    1    1    2    0    0 -0.19208643203E+01 -0.17631328440E+02  0.60103616381E+01  0.18726396058E+02  0.00000000000E+00 0.  1.
         11    1    3    3    0    0  0.12788413239E+02 -0.68380615811E+01 -0.18773304713E+01  0.14622823576E+02  0.51100000000E-03 0. -1.
        -11    1    3    3    0    0  0.16128570064E+02  0.23238106599E+02  0.61089102220E+01  0.28938886553E+02  0.51100000000E-03 0.  1.
         12    1    3    3    0    0 -0.26996118982E+02  0.12312834227E+01 -0.10241941389E+02  0.28899893813E+02  0.00000000000E+00 0. -1.
</event>
<event>
 7    1  0.2489154E-013  0.7246157E+02  0.7816164E-02  0.1226708E+00
        -11   -1    0    0    0    0  0.00000000000E+00  0.00000000000E+00  0.45593999997E+02  0.45594000000E+02  0.51100000000E-03 0. -1.
         11   -1    0    0    0    0 -0.00000000000E+00 -0.00000000000E+00 -0.45593999997E+02  0.45594000000E+02  0.51100000000E-03 0.  1.
    9900012    2    1    2    0    0  0.10993944505E+02  0.23044489425E+01  0.14983384633E+02  0.72461571730E+02  0.70000001870E+02 0.  0.
        -12    1    1    2    0    0 -0.10993944505E+02 -0.23044489425E+01 -0.14983384633E+02  0.18726428270E+02  0.00000000000E+00 0.  1.
         11    1    3    3    0    0  0.17803959140E+02 -0.20922047442E+01  0.50976364125E+00  0.17933715203E+02  0.51100000000E-03 0. -1.
        -11    1    3    3    0    0  0.19503292908E+02  0.40004168247E+01 -0.64276071888E+01  0.20921183127E+02  0.51100000000E-03 0.  1.
         12    1    3    3    0    0 -0.26313307543E+02  0.39623686199E+00  0.20901228181E+02  0.33606673399E+02  0.00000000000E+00 0. -1.
</event>
<event>
 7    1  0.2489154E-013  0.7246155E+02  0.7816164E-02  0.1226708E+00
        -11   -1    0    0    0    0  0.00000000000E+00  0.00000000000E+00  0.45593999997E+02  0.45594000000E+02  0.51100000000E-03 0. -1.
         11   -1    0    0    0    0 -0.00000000000E+00 -0.00000000000E+00 -0.45593999997E+02  0.45594000000E+02  0.51100000000E-03 0.  1.
    9900012    2    1    2    0    0  0.97483926754E+01  0.15980811449E+02 -0.51215388042E+00  0.72461553570E+02  0.69999978213E+02 0.  0.
        -12    1    1    2    0    0 -0.97483926754E+01 -0.15980811449E+02  0.51215388042E+00  0.18726446430E+02  0.00000000000E+00 0.  1.
         11    1    3    3    0    0 -0.10933484024E+02 -0.72928725217E+01  0.36299772507E+01  0.13634654291E+02  0.51100000000E-03 0. -1.
        -11    1    3    3    0    0  0.42796762984E+01 -0.15587144898E+02 -0.39769954826E+01  0.16646056849E+02  0.51100000000E-03 0.  1.
        -12    1    3    3    0    0  0.16402200401E+02  0.38860828868E+02 -0.16513564851E+00  0.42180842430E+02  0.00000000000E+00 0.  1.
</event>
<event>
 7    1  0.2489154E-013  0.7246156E+02  0.7816164E-02  0.1226708E+00
        -11   -1    0    0    0    0  0.00000000000E+00  0.00000000000E+00  0.45593999997E+02  0.45594000000E+02  0.51100000000E-03 0.  1.
         11   -1    0    0    0    0 -0.00000000000E+00 -0.00000000000E+00 -0.45593999997E+02  0.45594000000E+02  0.51100000000E-03 0. -1.
    9900012    2    1    2    0    0 -0.59627802697E+01 -0.87952822619E+01 -0.15419720311E+02  0.72461561121E+02  0.69999988050E+02 0.  0.
        -12    1    1    2    0    0  0.59627802697E+01  0.87952822619E+01  0.15419720311E+02  0.18726438879E+02  0.00000000000E+00 0.  1.
         11    1    3    3    0    0 -0.21432342034E+02 -0.99185021369E+00 -0.10408420422E+02  0.23846682534E+02  0.51100000000E-03 0. -1.
        -11    1    3    3    0    0 -0.55497208088E+01 -0.16779519554E+02 -0.15462774214E+02  0.23482952629E+02  0.51100000000E-03 0.  1.
        -12    1    3    3    0    0  0.21019282573E+02  0.89760875062E+01  0.10451474325E+02  0.25131925958E+02  0.00000000000E+00 0.  1.
</event>
<event>
 7    1  0.2489154E-013  0.7246153E+02  0.7816164E-02  0.1226708E+00
        -11   -1    0    0    0    0  0.00000000000E+00  0.00000000000E+00  0.45593999997E+02  0.45594000000E+02  0.51100000000E-03 0.  1.
         11   -1    0    0    0    0 -0.00000000000E+00 -0.00000000000E+00 -0.45593999997E+02  0.45594000000E+02  0.51100000000E-03 0. -1.
    9900012    2    1    2    0    0 -0.21357950384E+00 -0.18705327544E+02 -0.86349752889E+00  0.72461534163E+02  0.69999952933E+02 0.  0.
        -12    1    1    2    0    0  0.21357950384E+00  0.18705327544E+02  0.86349752889E+00  0.18726465837E+02  0.00000000000E+00 0.  1.
         11    1    3    3    0    0 -0.22535308255E+02 -0.17688806305E+01 -0.50289900629E+00  0.22610218143E+02  0.51100000000E-03 0. -1.
        -11    1    3    3    0    0 -0.33285425881E+01 -0.98965409165E+00 -0.15627604547E+02  0.16008767445E+02  0.51100000000E-03 0.  1.
        -12    1    3    3    0    0  0.25650271339E+02 -0.15946792822E+02  0.15267006024E+02  0.33842548575E+02  0.00000000000E+00 0.  1.
</event>
<event>
 7    1  0.2489154E-013  0.7246157E+02  0.7816164E-02  0.1226708E+00
        -11   -1    0    0    0    0  0.00000000000E+00  0.00000000000E+00  0.45593999997E+02  0.45594000000E+02  0.51100000000E-03 0.  1.
         11   -1    0    0    0    0 -0.00000000000E+00 -0.00000000000E+00 -0.45593999997E+02  0.45594000000E+02  0.51100000000E-03 0. -1.
    9900012    2    1    2    0    0  0.33475240858E+01  0.16500376446E+02 -0.81982237104E+01  0.72461569151E+02  0.69999998510E+02 0.  0.
        -12    1    1    2    0    0 -0.33475240858E+01 -0.16500376446E+02  0.81982237104E+01  0.18726430849E+02  0.00000000000E+00 0.  1.
         11    1    3    3    0    0  0.90644892018E+01 -0.19551217100E+01 -0.52583375292E+01  0.10660092834E+02  0.51100000000E-03 0. -1.
        -11    1    3    3    0    0  0.15729151514E+02  0.14669182890E+01  0.20426047772E+02  0.25822112316E+02  0.51100000000E-03 0.  1.
         12    1    3    3    0    0 -0.21446116630E+02  0.16988579867E+02 -0.23365933953E+02  0.35979364001E+02  0.00000000000E+00 0. -1.
</event>
<event>
 7    1  0.2489154E-013  0.7246153E+02  0.7816164E-02  0.1226708E+00
        -11   -1    0    0    0    0  0.00000000000E+00  0.00000000000E+00  0.45593999997E+02  0.45594000000E+02  0.51100000000E-03 0. -1.
         11   -1    0    0    0    0 -0.00000000000E+00 -0.00000000000E+00 -0.45593999997E+02  0.45594000000E+02  0.51100000000E-03 0.  1.
    9900012    2    1    2    0    0 -0.58940927164E+01 -0.17238109820E+02 -0.43345126302E+01  0.72461527859E+02  0.69999944720E+02 0.  0.
        -12    1    1    2    0    0  0.58940927164E+01  0.17238109820E+02  0.43345126302E+01  0.18726472141E+02  0.00000000000E+00 0.  1.
         11    1    3    3    0    0 -0.14857391132E+02 -0.20734842741E+02 -0.37548042780E+01  0.25783217995E+02  0.51100000000E-03 0. -1.
        -11    1    3    3    0    0 -0.12469732084E+02 -0.13805440139E+02  0.31947734481E+01  0.18875671467E+02  0.51100000000E-03 0.  1.
         12    1    3    3    0    0  0.21433030500E+02  0.17302173059E+02 -0.37744818003E+01  0.27802638397E+02  0.00000000000E+00 0. -1.
</event>
<event>
 7    1  0.2489154E-013  0.7246155E+02  0.7816164E-02  0.1226708E+00
        -11   -1    0    0    0    0  0.00000000000E+00  0.00000000000E+00  0.45593999997E+02  0.45594000000E+02  0.51100000000E-03 0.  1.
         11   -1    0    0    0    0 -0.00000000000E+00 -0.00000000000E+00 -0.45593999997E+02  0.45594000000E+02  0.51100000000E-03 0. -1.
    9900012    2    1    2    0    0  0.17090878497E+02 -0.69765646501E+01 -0.31479225983E+01  0.72461548152E+02  0.69999971156E+02 0.  0.
        -12    1    1    2    0    0 -0.17090878497E+02  0.69765646501E+01  0.31479225983E+01  0.18726451848E+02  0.00000000000E+00 0.  1.
         11    1    3    3    0    0  0.10705983928E+02 -0.30140165185E+02  0.65129806047E+01  0.32641485350E+02  0.51100000000E-03 0. -1.
        -11    1    3    3    0    0  0.33881103870E+01 -0.71060874991E+01  0.10482348082E+00  0.78731670732E+01  0.51100000000E-03 0.  1.
        -12    1    3    3    0    0  0.29967841820E+01  0.30269688034E+02 -0.97657266838E+01  0.31946895729E+02  0.00000000000E+00 0.  1.
</event>
<event>
 7    1  0.2489154E-013  0.7246158E+02  0.7816164E-02  0.1226708E+00
        -11   -1    0    0    0    0  0.00000000000E+00  0.00000000000E+00  0.45593999997E+02  0.45594000000E+02  0.51100000000E-03 0.  1.
         11   -1    0    0    0    0 -0.00000000000E+00 -0.00000000000E+00 -0.45593999997E+02  0.45594000000E+02  0.51100000000E-03 0. -1.
    9900012    2    1    2    0    0  0.78591714658E+00 -0.12655206327E+02 -0.13780671611E+02  0.72461579547E+02  0.70000012053E+02 0.  0.
        -12    1    1    2    0    0 -0.78591714658E+00  0.12655206327E+02  0.13780671611E+02  0.18726420453E+02  0.00000000000E+00 0.  1.
         11    1    3    3    0    0  0.20042252893E+01  0.17891984145E+01 -0.93394416137E+01  0.97181953002E+01  0.51100000000E-03 0. -1.
        -11    1    3    3    0    0  0.19193872842E+02  0.64637597276E+01 -0.20985632700E+02  0.29164734262E+02  0.51100000000E-03 0.  1.
         12    1    3    3    0    0 -0.20412180984E+02 -0.20908164469E+02  0.16544402703E+02  0.33578649985E+02  0.00000000000E+00 0. -1.
</event>
<event>
 7    1  0.2489154E-013  0.7246160E+02  0.7816164E-02  0.1226708E+00
        -11   -1    0    0    0    0  0.00000000000E+00  0.00000000000E+00  0.45593999997E+02  0.45594000000E+02  0.51100000000E-03 0.  1.
         11   -1    0    0    0    0 -0.00000000000E+00 -0.00000000000E+00 -0.45593999997E+02  0.45594000000E+02  0.51100000000E-03 0. -1.
    9900012    2    1    2    0    0 -0.82565543135E+01  0.51357643444E+01 -0.16004106427E+02  0.72461596527E+02  0.70000034173E+02 0.  0.
        -12    1    1    2    0    0  0.82565543135E+01 -0.51357643444E+01  0.16004106427E+02  0.18726403473E+02  0.00000000000E+00 0.  1.
         11    1    3    3    0    0  0.48141952233E+01  0.15616718098E+02  0.12472520743E+02  0.20557775506E+02  0.51100000000E-03 0.  1.
        -11    1    3    3    0    0  0.79680046487E+01  0.19504907601E+01 -0.26091446357E+02  0.27350632269E+02  0.51100000000E-03 0. -1.
        -12    1    3    3    0    0 -0.21038754185E+02 -0.12431444514E+02 -0.23851808125E+01  0.24553188752E+02  0.00000000000E+00 0.  1.
</event>
<event>
 7    1  0.2489154E-013  0.7246110E+02  0.7816164E-02  0.1226709E+00
        -11   -1    0    0    0    0  0.00000000000E+00  0.00000000000E+00  0.45593999997E+02  0.45594000000E+02  0.51100000000E-03 0. -1.
         11   -1    0    0    0    0 -0.00000000000E+00 -0.00000000000E+00 -0.45593999997E+02  0.45594000000E+02  0.51100000000E-03 0.  1.
    9900012    2    1    2    0    0 -0.57905883447E+00 -0.17865061631E+02 -0.55858008116E+01  0.72461096707E+02  0.69999383062E+02 0.  0.
        -12    1    1    2    0    0  0.57905883447E+00  0.17865061631E+02  0.55858008116E+01  0.18726903293E+02  0.00000000000E+00 0.  1.
         11    1    3    3    0    0 -0.96651665299E+00 -0.17035335409E+01 -0.51184015287E+01  0.54803481126E+01  0.51100000000E-03 0. -1.
        -11    1    3    3    0    0 -0.82049196865E+01 -0.14714653421E+02 -0.30971124172E+02  0.35256946338E+02  0.51100000000E-03 0.  1.
         12    1    3    3    0    0  0.85923775051E+01 -0.14468746689E+01  0.30503724889E+02  0.31723802256E+02  0.00000000000E+00 0. -1.
</event>
<event>
 7    1  0.2489154E-013  0.7246161E+02  0.7816164E-02  0.1226708E+00
        -11   -1    0    0    0    0  0.00000000000E+00  0.00000000000E+00  0.45593999997E+02  0.45594000000E+02  0.51100000000E-03 0.  1.
         11   -1    0    0    0    0 -0.00000000000E+00 -0.00000000000E+00 -0.45593999997E+02  0.45594000000E+02  0.51100000000E-03 0. -1.
    9900012    2    1    2    0    0 -0.11788097924E+02  0.98598467646E+01 -0.10700546509E+02  0.72461614164E+02  0.70000057149E+02 0.  0.
        -12    1    1    2    0    0  0.11788097924E+02 -0.98598467646E+01  0.10700546509E+02  0.18726385836E+02  0.00000000000E+00 0.  1.
         11    1    3    3    0    0  0.22762619709E+02 -0.11051760365E+02 -0.31368365040E+01  0.25497411765E+02  0.51100000000E-03 0. -1.
        -11    1    3    3    0    0 -0.39751075791E+01  0.62216239460E+01 -0.10588270206E+02  0.12908197047E+02  0.51100000000E-03 0.  1.
        -12    1    3    3    0    0 -0.30575610054E+02  0.14689983184E+02  0.30245602017E+01  0.34056005352E+02  0.00000000000E+00 0.  1.
</event>
<event>
 7    1  0.2489154E-013  0.7246151E+02  0.7816164E-02  0.1226708E+00
        -11   -1    0    0    0    0  0.00000000000E+00  0.00000000000E+00  0.45593999997E+02  0.45594000000E+02  0.51100000000E-03 0. -1.
         11   -1    0    0    0    0 -0.00000000000E+00 -0.00000000000E+00 -0.45593999997E+02  0.45594000000E+02  0.51100000000E-03 0.  1.
    9900012    2    1    2    0    0 -0.21809246180E+01  0.94682491113E+00  0.18574945001E+02  0.72461508300E+02  0.69999919240E+02 0.  0.
        -12    1    1    2    0    0  0.21809246180E+01 -0.94682491113E+00 -0.18574945001E+02  0.18726491700E+02  0.00000000000E+00 0.  1.
         11    1    3    3    0    0  0.41848053441E+01  0.91628044846E+01  0.23752565140E+02  0.25800270014E+02  0.51100000000E-03 0. -1.
        -11    1    3    3    0    0 -0.13309989836E+02  0.15737210749E+02  0.20041972453E+01  0.20708269809E+02  0.51100000000E-03 0.  1.
         12    1    3    3    0    0  0.69442598741E+01 -0.23953190323E+02 -0.71818173840E+01  0.25952968477E+02  0.00000000000E+00 0. -1.
</event>
<event>
 7    1  0.2489154E-013  0.7246156E+02  0.7816164E-02  0.1226708E+00
        -11   -1    0    0    0    0  0.00000000000E+00  0.00000000000E+00  0.45593999997E+02  0.45594000000E+02  0.51100000000E-03 0.  1.
         11   -1    0    0    0    0 -0.00000000000E+00 -0.00000000000E+00 -0.45593999997E+02  0.45594000000E+02  0.51100000000E-03 0. -1.
    9900012    2    1    2    0    0  0.39570454843E+01  0.90012520595E+01 -0.15937345608E+02  0.72461555259E+02  0.69999980414E+02 0.  0.
        -12    1    1    2    0    0 -0.39570454843E+01 -0.90012520595E+01  0.15937345608E+02  0.18726444741E+02  0.00000000000E+00 0.  1.
         11    1    3    3    0    0 -0.14242566987E+02 -0.14123335711E+02  0.12943116667E+02  0.23871397012E+02  0.51100000000E-03 0.  1.
        -11    1    3    3    0    0  0.17056741067E+02  0.11958182698E+01 -0.13391134913E+02  0.21718307754E+02  0.51100000000E-03 0. -1.
        -12    1    3    3    0    0  0.11428714046E+01  0.21928769501E+02 -0.15489327361E+02  0.26871850494E+02  0.00000000000E+00 0.  1.
</event>
<event>
 7    1  0.2489154E-013  0.7246157E+02  0.7816164E-02  0.1226708E+00
        -11   -1    0    0    0    0  0.00000000000E+00  0.00000000000E+00  0.45593999997E+02  0.45594000000E+02  0.51100000000E-03 0. -1.
         11   -1    0    0    0    0 -0.00000000000E+00 -0.00000000000E+00 -0.45593999997E+02  0.45594000000E+02  0.51100000000E-03 0.  1.
    9900012    2    1    2    0    0  0.85104888220E+01 -0.17399201940E+01  0.16589863706E+02  0.72461566275E+02  0.69999994764E+02 0.  0.
        -12    1    1    2    0    0 -0.85104888220E+01  0.17399201940E+01 -0.16589863706E+02  0.18726433725E+02  0.00000000000E+00 0.  1.
         11    1    3    3    0    0  0.52673042465E+01 -0.15383016710E+02 -0.59850409910E+01  0.17326350252E+02  0.51100000000E-03 0. -1.
        -11    1    3    3    0    0  0.23426484688E+02 -0.33753774564E+01  0.13321872562E+02  0.27160000858E+02  0.51100000000E-03 0.  1.
        -12    1    3    3    0    0 -0.20183300112E+02  0.17018473973E+02  0.92530321353E+01  0.27975215164E+02  0.00000000000E+00 0.  1.
</event>
<event>
 7    1  0.2489154E-013  0.7246164E+02  0.7816164E-02  0.1226708E+00
        -11   -1    0    0    0    0  0.00000000000E+00  0.00000000000E+00  0.45593999997E+02  0.45594000000E+02  0.51100000000E-03 0. -1.
         11   -1    0    0    0    0 -0.00000000000E+00 -0.00000000000E+00 -0.45593999997E+02  0.45594000000E+02  0.51100000000E-03 0.  1.
    9900012    2    1    2    0    0  0.16037603568E+01  0.17244881492E+02  0.71216920603E+01  0.72461642031E+02  0.70000093451E+02 0.  0.
        -12    1    1    2    0    0 -0.16037603568E+01 -0.17244881492E+02 -0.71216920603E+01  0.18726357969E+02  0.00000000000E+00 0.  1.
         11    1    3    3    0    0 -0.47411340921E+01 -0.12400972016E+02  0.26584153601E+02  0.29714974043E+02  0.51100000000E-03 0. -1.
        -11    1    3    3    0    0 -0.29879617733E+01  0.97559582383E+00  0.36055536307E+01  0.47832750303E+01  0.51100000000E-03 0.  1.
        -12    1    3    3    0    0  0.93328562223E+01  0.28670257685E+02 -0.23068015171E+02  0.37963392958E+02  0.00000000000E+00 0.  1.
</event>
<event>
 7    1  0.2489154E-013  0.7246162E+02  0.7816164E-02  0.1226708E+00
        -11   -1    0    0    0    0  0.00000000000E+00  0.00000000000E+00  0.45593999997E+02  0.45594000000E+02  0.51100000000E-03 0. -1.
         11   -1    0    0    0    0 -0.00000000000E+00 -0.00000000000E+00 -0.45593999997E+02  0.45594000000E+02  0.51100000000E-03 0.  1.
    9900012    2    1    2    0    0  0.30574644002E+01  0.12685410178E+02  0.13431658301E+02  0.72461623825E+02  0.70000069733E+02 0.  0.
        -12    1    1    2    0    0 -0.30574644002E+01 -0.12685410178E+02 -0.13431658301E+02  0.18726376175E+02  0.00000000000E+00 0.  1.
         11    1    3    3    0    0 -0.93594591475E+00 -0.55887860979E+01 -0.62916053996E+01  0.84672795849E+01  0.51100000000E-03 0. -1.
        -11    1    3    3    0    0 -0.33566299262E+01 -0.18476899998E+02 -0.45744271702E+01  0.19328429377E+02  0.51100000000E-03 0.  1.
         12    1    3    3    0    0  0.73500402412E+01  0.36751096273E+02  0.24297690871E+02  0.44665914863E+02  0.00000000000E+00 0. -1.
</event>
<event>
 7    1  0.2489154E-013  0.7246163E+02  0.7816164E-02  0.1226708E+00
        -11   -1    0    0    0    0  0.00000000000E+00  0.00000000000E+00  0.45593999997E+02  0.45594000000E+02  0.51100000000E-03 0.  1.
         11   -1    0    0    0    0 -0.00000000000E+00 -0.00000000000E+00 -0.45593999997E+02  0.45594000000E+02  0.51100000000E-03 0. -1.
    9900012    2    1    2    0    0 -0.10788876552E+02  0.10020990345E+02 -0.11569643967E+02  0.72461634462E+02  0.70000083590E+02 0.  0.
        -12    1    1    2    0    0  0.10788876552E+02 -0.10020990345E+02  0.11569643967E+02  0.18726365538E+02  0.00000000000E+00 0.  1.
         11    1    3    3    0    0 -0.18077335438E+02  0.13221553953E+02  0.10028220554E+02  0.24539045482E+02  0.51100000000E-03 0. -1.
        -11    1    3    3    0    0 -0.96507089415E+01 -0.97079950132E+01  0.59575109766E+01  0.14928941274E+02  0.51100000000E-03 0.  1.
         12    1    3    3    0    0  0.16939167827E+02  0.65074314058E+01 -0.27555375497E+02  0.32993647706E+02  0.00000000000E+00 0. -1.
</event>
<event>
 7    1  0.2489154E-013  0.7246155E+02  0.7816164E-02  0.1226708E+00
        -11   -1    0    0    0    0  0.00000000000E+00  0.00000000000E+00  0.45593999997E+02  0.45594000000E+02  0.51100000000E-03 0. -1.
         11   -1    0    0    0    0 -0.00000000000E+00 -0.00000000000E+00 -0.45593999997E+02  0.45594000000E+02  0.51100000000E-03 0.  1.
    9900012    2    1    2    0    0 -0.17935814988E+01 -0.12004397430E+02  0.14260342458E+02  0.72461551878E+02  0.69999976010E+02 0.  0.
        -12    1    1    2    0    0  0.17935814988E+01  0.12004397430E+02 -0.14260342458E+02  0.18726448122E+02  0.00000000000E+00 0.  1.
         11    1    3    3    0    0 -0.22977046699E+02  0.35712091327E+01  0.87453778173E+01  0.24843104539E+02  0.51100000000E-03 0. -1.
        -11    1    3    3    0    0  0.10717577145E+02  0.95906594589E+01 -0.87709564322E+01  0.16845678547E+02  0.51100000000E-03 0.  1.
        -12    1    3    3    0    0  0.10465888056E+02 -0.25166266022E+02  0.14285921073E+02  0.30772768792E+02  0.00000000000E+00 0.  1.
</event>
<event>
 7    1  0.2489154E-013  0.7246154E+02  0.7816164E-02  0.1226708E+00
        -11   -1    0    0    0    0  0.00000000000E+00  0.00000000000E+00  0.45593999997E+02  0.45594000000E+02  0.51100000000E-03 0.  1.
         11   -1    0    0    0    0 -0.00000000000E+00 -0.00000000000E+00 -0.45593999997E+02  0.45594000000E+02  0.51100000000E-03 0. -1.
    9900012    2    1    2    0    0 -0.38057541748E+01 -0.12833559466E+02 -0.13095665458E+02  0.72461535646E+02  0.69999954864E+02 0.  0.
        -12    1    1    2    0    0  0.38057541748E+01  0.12833559466E+02  0.13095665458E+02  0.18726464354E+02  0.00000000000E+00 0.  1.
         11    1    3    3    0    0  0.10494985336E+02 -0.21430059227E+02 -0.20267593397E+02  0.31307626835E+02  0.51100000000E-03 0. -1.
        -11    1    3    3    0    0  0.75034783719E+01 -0.87282658137E+01 -0.23007044578E+01  0.11737889634E+02  0.51100000000E-03 0.  1.
        -12    1    3    3    0    0 -0.21804217883E+02  0.17324765575E+02  0.94726323976E+01  0.29416019177E+02  0.00000000000E+00 0.  1.
</event>
<event>
 7    1  0.2489154E-013  0.7246161E+02  0.7816164E-02  0.1226708E+00
        -11   -1    0    0    0    0  0.00000000000E+00  0.00000000000E+00  0.45593999997E+02  0.45594000000E+02  0.51100000000E-03 0.  1.
         11   -1    0    0    0    0 -0.00000000000E+00 -0.00000000000E+00 -0.45593999997E+02  0.45594000000E+02  0.51100000000E-03 0. -1.
    9900012    2    1    2    0    0  0.18135950227E+02 -0.24076973109E+01 -0.39960121041E+01  0.72461606602E+02  0.70000047297E+02 0.  0.
        -12    1    1    2    0    0 -0.18135950227E+02  0.24076973109E+01  0.39960121041E+01  0.18726393398E+02  0.00000000000E+00 0.  1.
         11    1    3    3    0    0  0.73227166733E+01 -0.26394500288E+02  0.44474775067E+01  0.27750169033E+02  0.51100000000E-03 0. -1.
        -11    1    3    3    0    0 -0.67940023091E+01 -0.59162097462E+01 -0.49586766808E-01  0.90090212701E+01  0.51100000000E-03 0.  1.
        -12    1    3    3    0    0  0.17607235863E+02  0.29903012723E+02 -0.83939028440E+01  0.35702416299E+02  0.00000000000E+00 0.  1.
</event>
<event>
 7    1  0.2489154E-013  0.7246149E+02  0.7816164E-02  0.1226708E+00
        -11   -1    0    0    0    0  0.00000000000E+00  0.00000000000E+00  0.45593999997E+02  0.45594000000E+02  0.51100000000E-03 0.  1.
         11   -1    0    0    0    0 -0.00000000000E+00 -0.00000000000E+00 -0.45593999997E+02  0.45594000000E+02  0.51100000000E-03 0. -1.
    9900012    2    1    2    0    0  0.15695682177E+02 -0.34699377058E+01 -0.96066272139E+01  0.72461489564E+02  0.69999894833E+02 0.  0.
        -12    1    1    2    0    0 -0.15695682177E+02  0.34699377058E+01  0.96066272139E+01  0.18726510436E+02  0.00000000000E+00 0.  1.
         11    1    3    3    0    0  0.15048686635E+02  0.86078417546E+00 -0.33990164799E+02  0.37182458528E+02  0.51100000000E-03 0. -1.
        -11    1    3    3    0    0  0.86027520260E+01 -0.52626737445E+01  0.51017792557E+00  0.10097690783E+02  0.51100000000E-03 0.  1.
        -12    1    3    3    0    0 -0.79557564839E+01  0.93195186325E+00  0.23873359660E+02  0.25181340253E+02  0.00000000000E+00 0.  1.
</event>
<event>
 7    1  0.2489154E-013  0.7246155E+02  0.7816164E-02  0.1226708E+00
        -11   -1    0    0    0    0  0.00000000000E+00  0.00000000000E+00  0.45593999997E+02  0.45594000000E+02  0.51100000000E-03 0. -1.
         11   -1    0    0    0    0 -0.00000000000E+00 -0.00000000000E+00 -0.45593999997E+02  0.45594000000E+02  0.51100000000E-03 0.  1.
    9900012    2    1    2    0    0 -0.14961572755E+02  0.11251765185E+02 -0.47839721295E+00  0.72461554983E+02  0.69999980054E+02 0.  0.
        -12    1    1    2    0    0  0.14961572755E+02 -0.11251765185E+02  0.47839721295E+00  0.18726445017E+02  0.00000000000E+00 0.  1.
         11    1    3    3    0    0 -0.55642276684E+01  0.11730480364E+01  0.92092352401E+01  0.10823432229E+02  0.51100000000E-03 0. -1.
        -11    1    3    3    0    0  0.95452688006E+01  0.19175302929E+02  0.17229929438E+02  0.27489541058E+02  0.51100000000E-03 0.  1.
         12    1    3    3    0    0 -0.18942613887E+02 -0.90965857796E+01 -0.26917561891E+02  0.34148581696E+02  0.00000000000E+00 0. -1.
</event>
<event>
 7    1  0.2489154E-013  0.7246154E+02  0.7816164E-02  0.1226708E+00
        -11   -1    0    0    0    0  0.00000000000E+00  0.00000000000E+00  0.45593999997E+02  0.45594000000E+02  0.51100000000E-03 0.  1.
         11   -1    0    0    0    0 -0.00000000000E+00 -0.00000000000E+00 -0.45593999997E+02  0.45594000000E+02  0.51100000000E-03 0. -1.
    9900012    2    1    2    0    0 -0.74248537096E+00 -0.90498895413E+01 -0.16377681247E+02  0.72461542025E+02  0.69999963174E+02 0.  0.
        -12    1    1    2    0    0  0.74248537096E+00  0.90498895413E+01  0.16377681247E+02  0.18726457975E+02  0.00000000000E+00 0.  1.
         11    1    3    3    0    0  0.13443633680E+02  0.14305132408E+02  0.60574448019E+01  0.20544116859E+02  0.51100000000E-03 0. -1.
        -11    1    3    3    0    0  0.47795540088E+01 -0.20211790837E+02  0.19558178917E+01  0.20861108534E+02  0.51100000000E-03 0.  1.
         12    1    3    3    0    0 -0.18965673060E+02 -0.31432311124E+01 -0.24390943941E+02  0.31056316632E+02  0.00000000000E+00 0. -1.
</event>
<event>
 7    1  0.2489154E-013  0.7246176E+02  0.7816164E-02  0.1226708E+00
        -11   -1    0    0    0    0  0.00000000000E+00  0.00000000000E+00  0.45593999997E+02  0.45594000000E+02  0.51100000000E-03 0.  1.
         11   -1    0    0    0    0 -0.00000000000E+00 -0.00000000000E+00 -0.45593999997E+02  0.45594000000E+02  0.51100000000E-03 0. -1.
    9900012    2    1    2    0    0 -0.13218879667E+02  0.94846167716E+01 -0.92722822906E+01  0.72461762956E+02  0.70000250977E+02 0.  0.
        -12    1    1    2    0    0  0.13218879667E+02 -0.94846167716E+01  0.92722822906E+01  0.18726237044E+02  0.00000000000E+00 0.  1.
         11    1    3    3    0    0 -0.12903753180E+02  0.18183401191E+02 -0.46296373062E+01  0.22772274082E+02  0.51100000000E-03 0. -1.
        -11    1    3    3    0    0 -0.21982528403E+02  0.56609709576E+01 -0.65498107571E+01  0.23625794555E+02  0.51100000000E-03 0.  1.
        -12    1    3    3    0    0  0.21667401916E+02 -0.14359755377E+02  0.19071657727E+01  0.26063694319E+02  0.00000000000E+00 0.  1.
</event>
<event>
 7    1  0.2489154E-013  0.7246154E+02  0.7816164E-02  0.1226708E+00
        -11   -1    0    0    0    0  0.00000000000E+00  0.00000000000E+00  0.45593999997E+02  0.45594000000E+02  0.51100000000E-03 0. -1.
         11   -1    0    0    0    0 -0.00000000000E+00 -0.00000000000E+00 -0.45593999997E+02  0.45594000000E+02  0.51100000000E-03 0.  1.
    9900012    2    1    2    0    0 -0.12184809026E+02 -0.59910681198E+01  0.12896430386E+02  0.72461537843E+02  0.69999957726E+02 0.  0.
        -12    1    1    2    0    0  0.12184809026E+02  0.59910681198E+01 -0.12896430386E+02  0.18726462157E+02  0.00000000000E+00 0.  1.
         11    1    3    3    0    0 -0.43537947420E+01 -0.13250425328E+02 -0.51725142473E+01  0.14875624488E+02  0.51100000000E-03 0. -1.
        -11    1    3    3    0    0  0.13938978849E+02  0.21386416563E+02 -0.73355462808E+00  0.25538442541E+02  0.51100000000E-03 0.  1.
         12    1    3    3    0    0 -0.21769993134E+02 -0.14127059355E+02  0.18802499261E+02  0.32047470814E+02  0.00000000000E+00 0. -1.
</event>
<event>
 7    1  0.2489154E-013  0.7246152E+02  0.7816164E-02  0.1226708E+00
        -11   -1    0    0    0    0  0.00000000000E+00  0.00000000000E+00  0.45593999997E+02  0.45594000000E+02  0.51100000000E-03 0.  1.
         11   -1    0    0    0    0 -0.00000000000E+00 -0.00000000000E+00 -0.45593999997E+02  0.45594000000E+02  0.51100000000E-03 0. -1.
    9900012    2    1    2    0    0  0.59254995166E+01 -0.45171214617E+00 -0.17758532002E+02  0.72461520158E+02  0.69999934688E+02 0.  0.
        -12    1    1    2    0    0 -0.59254995166E+01  0.45171214617E+00  0.17758532002E+02  0.18726479842E+02  0.00000000000E+00 0.  1.
         11    1    3    3    0    0 -0.68331569067E+01  0.44069658224E+01 -0.71143854599E+01  0.10804066910E+02  0.51100000000E-03 0. -1.
        -11    1    3    3    0    0 -0.14955735939E+02 -0.18100028226E+02 -0.18570846154E+02  0.29935954743E+02  0.51100000000E-03 0.  1.
         12    1    3    3    0    0  0.27714392362E+02  0.13241350258E+02  0.79266996114E+01  0.31721498505E+02  0.00000000000E+00 0. -1.
</event>
<event>
 7    1  0.2489154E-013  0.7246157E+02  0.7816164E-02  0.1226708E+00
        -11   -1    0    0    0    0  0.00000000000E+00  0.00000000000E+00  0.45593999997E+02  0.45594000000E+02  0.51100000000E-03 0. -1.
         11   -1    0    0    0    0 -0.00000000000E+00 -0.00000000000E+00 -0.45593999997E+02  0.45594000000E+02  0.51100000000E-03 0.  1.
    9900012    2    1    2    0    0 -0.62781020379E+01 -0.13724762673E+02  0.11085820126E+02  0.72461572591E+02  0.70000002991E+02 0.  0.
        -12    1    1    2    0    0  0.62781020379E+01  0.13724762673E+02 -0.11085820126E+02  0.18726427409E+02  0.00000000000E+00 0.  1.
         11    1    3    3    0    0  0.39639629986E+01  0.84075213920E+01  0.24061572858E+02  0.25794548015E+02  0.51100000000E-03 0. -1.
        -11    1    3    3    0    0 -0.63788596565E+00  0.76173101584E+01  0.63301100540E+01  0.99247471561E+01  0.51100000000E-03 0.  1.
        -12    1    3    3    0    0 -0.96041790709E+01 -0.29749594224E+02 -0.19305862786E+02  0.36742277420E+02  0.00000000000E+00 0.  1.
</event>
<event>
 7    1  0.2489154E-013  0.7246160E+02  0.7816164E-02  0.1226708E+00
        -11   -1    0    0    0    0  0.00000000000E+00  0.00000000000E+00  0.45593999997E+02  0.45594000000E+02  0.51100000000E-03 0.  1.
         11   -1    0    0    0    0 -0.00000000000E+00 -0.00000000000E+00 -0.45593999997E+02  0.45594000000E+02  0.51100000000E-03 0. -1.
    9900012    2    1    2    0    0  0.70606244912E+01 -0.43138710787E+01 -0.16799288901E+02  0.72461601268E+02  0.70000040349E+02 0.  0.
        -12    1    1    2    0    0 -0.70606244912E+01  0.43138710787E+01  0.16799288901E+02  0.18726398732E+02  0.00000000000E+00 0.  1.
         11    1    3    3    0    0  0.10169860828E+02 -0.13443646886E+02 -0.26977541402E+01  0.17071484660E+02  0.51100000000E-03 0. -1.
        -11    1    3    3    0    0 -0.70735843649E+01 -0.45734195256E+01  0.18213263049E+02  0.20066756417E+02  0.51100000000E-03 0.  1.
         12    1    3    3    0    0  0.39643480285E+01  0.13703195333E+02 -0.32314797811E+02  0.35323360191E+02  0.00000000000E+00 0. -1.
</event>
<event>
 7    1  0.2489154E-013  0.7246154E+02  0.7816164E-02  0.1226708E+00
        -11   -1    0    0    0    0  0.00000000000E+00  0.00000000000E+00  0.45593999997E+02  0.45594000000E+02  0.51100000000E-03 0.  1.
         11   -1    0    0    0    0 -0.00000000000E+00 -0.00000000000E+00 -0.45593999997E+02  0.45594000000E+02  0.51100000000E-03 0. -1.
    9900012    2    1    2    0    0  0.17820687263E+02 -0.43776089038E+01 -0.37336216538E+01  0.72461540514E+02  0.69999961205E+02 0.  0.
        -12    1    1    2    0    0 -0.17820687263E+02  0.43776089038E+01  0.37336216538E+01  0.18726459486E+02  0.00000000000E+00 0.  1.
         11    1    3    3    0    0  0.25333127585E+02  0.30188384096E+01  0.15907858124E+02  0.30065606412E+02  0.51100000000E-03 0. -1.
        -11    1    3    3    0    0  0.51446289257E+01 -0.19028816799E+02 -0.64942519449E+01  0.20754237739E+02  0.51100000000E-03 0.  1.
        -12    1    3    3    0    0 -0.12657069248E+02  0.11632369485E+02 -0.13147227833E+02  0.21641696363E+02  0.00000000000E+00 0.  1.
</event>
<event>
 7    1  0.2489154E-013  0.7246163E+02  0.7816164E-02  0.1226708E+00
        -11   -1    0    0    0    0  0.00000000000E+00  0.00000000000E+00  0.45593999997E+02  0.45594000000E+02  0.51100000000E-03 0. -1.
         11   -1    0    0    0    0 -0.00000000000E+00 -0.00000000000E+00 -0.45593999997E+02  0.45594000000E+02  0.51100000000E-03 0.  1.
    9900012    2    1    2    0    0 -0.75265045498E+01 -0.17144814034E+02 -0.28953213061E+00  0.72461634954E+02  0.70000084231E+02 0.  0.
        -12    1    1    2    0    0  0.75265045498E+01  0.17144814034E+02  0.28953213061E+00  0.18726365046E+02  0.00000000000E+00 0.  1.
         11    1    3    3    0    0  0.22332397421E+02 -0.54380134713E+01 -0.35420898105E+01  0.23256275832E+02  0.51100000000E-03 0. -1.
        -11    1    3    3    0    0 -0.63989205460E+01 -0.12221128202E+02 -0.14324202104E+02  0.19886802781E+02  0.51100000000E-03 0.  1.
        -12    1    3    3    0    0 -0.23459981425E+02  0.51432763931E+00  0.17576759784E+02  0.29318556340E+02  0.00000000000E+00 0.  1.
</event>
<event>
 7    1  0.2489154E-013  0.7246156E+02  0.7816164E-02  0.1226708E+00
        -11   -1    0    0    0    0  0.00000000000E+00  0.00000000000E+00  0.45593999997E+02  0.45594000000E+02  0.51100000000E-03 0. -1.
         11   -1    0    0    0    0 -0.00000000000E+00 -0.00000000000E+00 -0.45593999997E+02  0.45594000000E+02  0.51100000000E-03 0.  1.
    9900012    2    1    2    0    0 -0.48944168212E+01  0.17261460081E+02  0.53634020180E+01  0.72461564104E+02  0.69999991936E+02 0.  0.
        -12    1    1    2    0    0  0.48944168212E+01 -0.17261460081E+02 -0.53634020180E+01  0.18726435896E+02  0.00000000000E+00 0.  1.
         11    1    3    3    0    0 -0.10399286586E+02  0.38724008028E+02  0.19015481451E+02  0.44376598499E+02  0.51100000000E-03 0.  1.
        -11    1    3    3    0    0  0.73064872278E+01 -0.75530312094E+01 -0.62273620563E+01  0.12215280369E+02  0.51100000000E-03 0. -1.
        -12    1    3    3    0    0 -0.18016174629E+01 -0.13909516738E+02 -0.74247173768E+01  0.15869685236E+02  0.00000000000E+00 0.  1.
</event>
<event>
 7    1  0.2489154E-013  0.7246184E+02  0.7816164E-02  0.1226707E+00
        -11   -1    0    0    0    0  0.00000000000E+00  0.00000000000E+00  0.45593999997E+02  0.45594000000E+02  0.51100000000E-03 0.  1.
         11   -1    0    0    0    0 -0.00000000000E+00 -0.00000000000E+00 -0.45593999997E+02  0.45594000000E+02  0.51100000000E-03 0. -1.
    9900012    2    1    2    0    0  0.73718664137E+01 -0.69017865760E+01 -0.15769904346E+02  0.72461843015E+02  0.70000355268E+02 0.  0.
        -12    1    1    2    0    0 -0.73718664137E+01  0.69017865760E+01  0.15769904346E+02  0.18726156985E+02  0.00000000000E+00 0.  1.
         11    1    3    3    0    0  0.83219012904E+01  0.26578638829E+02 -0.94093249340E+01  0.29397508042E+02  0.51100000000E-03 0. -1.
        -11    1    3    3    0    0 -0.76893408292E-01 -0.63508274816E+01  0.96485406935E+01  0.11551331528E+02  0.51100000000E-03 0.  1.
        -12    1    3    3    0    0 -0.87314146841E+00 -0.27129597924E+02 -0.16009120105E+02  0.31513003444E+02  0.00000000000E+00 0.  1.
</event>
<event>
 7    1  0.2489154E-013  0.7246154E+02  0.7816164E-02  0.1226708E+00
        -11   -1    0    0    0    0  0.00000000000E+00  0.00000000000E+00  0.45593999997E+02  0.45594000000E+02  0.51100000000E-03 0.  1.
         11   -1    0    0    0    0 -0.00000000000E+00 -0.00000000000E+00 -0.45593999997E+02  0.45594000000E+02  0.51100000000E-03 0. -1.
    9900012    2    1    2    0    0  0.17821839458E+02  0.11416736578E+01  0.56354965396E+01  0.72461542736E+02  0.69999964101E+02 0.  0.
        -12    1    1    2    0    0 -0.17821839458E+02 -0.11416736578E+01 -0.56354965396E+01  0.18726457264E+02  0.00000000000E+00 0.  1.
         11    1    3    3    0    0  0.13654202575E+02 -0.27750529833E+01 -0.16380442598E+02  0.21504814972E+02  0.51100000000E-03 0. -1.
        -11    1    3    3    0    0 -0.77154584866E+00 -0.12489435610E+02 -0.90748556731E+01  0.15457499494E+02  0.51100000000E-03 0.  1.
        -12    1    3    3    0    0  0.49391827310E+01  0.16406162251E+02  0.31090794811E+02  0.35499228271E+02  0.00000000000E+00 0.  1.
</event>
<event>
 7    1  0.2489154E-013  0.7246147E+02  0.7816164E-02  0.1226708E+00
        -11   -1    0    0    0    0  0.00000000000E+00  0.00000000000E+00  0.45593999997E+02  0.45594000000E+02  0.51100000000E-03 0. -1.
         11   -1    0    0    0    0 -0.00000000000E+00 -0.00000000000E+00 -0.45593999997E+02  0.45594000000E+02  0.51100000000E-03 0.  1.
    9900012    2    1    2    0    0 -0.75501141239E+01 -0.14334959156E+02  0.93908347539E+01  0.72461466560E+02  0.69999864867E+02 0.  0.
        -12    1    1    2    0    0  0.75501141239E+01  0.14334959156E+02 -0.93908347539E+01  0.18726533440E+02  0.00000000000E+00 0.  1.
         11    1    3    3    0    0 -0.10348832032E+02 -0.18325949721E+02  0.30584217552E+02  0.37125909028E+02  0.51100000000E-03 0. -1.
        -11    1    3    3    0    0 -0.14492038872E+00 -0.50816079371E+01  0.51996639458E+01  0.72718805378E+01  0.51100000000E-03 0.  1.
        -12    1    3    3    0    0  0.29436382973E+01  0.90725985014E+01 -0.26393046744E+02  0.28063676994E+02  0.00000000000E+00 0.  1.
</event>
<event>
 7    1  0.2489154E-013  0.7246157E+02  0.7816164E-02  0.1226708E+00
        -11   -1    0    0    0    0  0.00000000000E+00  0.00000000000E+00  0.45593999997E+02  0.45594000000E+02  0.51100000000E-03 0. -1.
         11   -1    0    0    0    0 -0.00000000000E+00 -0.00000000000E+00 -0.45593999997E+02  0.45594000000E+02  0.51100000000E-03 0.  1.
    9900012    2    1    2    0    0 -0.10008726873E+02 -0.78244195772E+00  0.15807982457E+02  0.72461571126E+02  0.70000001083E+02 0.  0.
        -12    1    1    2    0    0  0.10008726873E+02  0.78244195772E+00 -0.15807982457E+02  0.18726428874E+02  0.00000000000E+00 0.  1.
         11    1    3    3    0    0 -0.14649622920E+02  0.29019804409E+01  0.14400985745E+02  0.20746598104E+02  0.51100000000E-03 0. -1.
        -11    1    3    3    0    0 -0.17249106220E+02  0.11677919813E+02  0.10681847072E+02  0.23409556461E+02  0.51100000000E-03 0.  1.
        -12    1    3    3    0    0  0.21890002268E+02 -0.15362342212E+02 -0.92748503606E+01  0.28305416561E+02  0.00000000000E+00 0.  1.
</event>
<event>
 7    1  0.2489154E-013  0.7246129E+02  0.7816164E-02  0.1226709E+00
        -11   -1    0    0    0    0  0.00000000000E+00  0.00000000000E+00  0.45593999997E+02  0.45594000000E+02  0.51100000000E-03 0. -1.
         11   -1    0    0    0    0 -0.00000000000E+00 -0.00000000000E+00 -0.45593999997E+02  0.45594000000E+02  0.51100000000E-03 0.  1.
    9900012    2    1    2    0    0 -0.17033975050E+02  0.32905961379E+01  0.70501987792E+01  0.72461290952E+02  0.69999636103E+02 0.  0.
        -12    1    1    2    0    0  0.17033975050E+02 -0.32905961379E+01 -0.70501987792E+01  0.18726709048E+02  0.00000000000E+00 0.  1.
         11    1    3    3    0    0  0.16030255556E+01  0.26632695236E+02  0.85612945984E+01  0.28020812121E+02  0.51100000000E-03 0. -1.
        -11    1    3    3    0    0  0.51962828018E+01  0.20444229499E+00  0.80644335547E+01  0.95957407441E+01  0.51100000000E-03 0.  1.
        -12    1    3    3    0    0 -0.23833283408E+02 -0.23546541393E+02 -0.95755293739E+01  0.34844738087E+02  0.00000000000E+00 0.  1.
</event>
<event>
 7    1  0.2489154E-013  0.7246156E+02  0.7816164E-02  0.1226708E+00
        -11   -1    0    0    0    0  0.00000000000E+00  0.00000000000E+00  0.45593999997E+02  0.45594000000E+02  0.51100000000E-03 0.  1.
         11   -1    0    0    0    0 -0.00000000000E+00 -0.00000000000E+00 -0.45593999997E+02  0.45594000000E+02  0.51100000000E-03 0. -1.
    9900012    2    1    2    0    0  0.12099586676E+02  0.67166156713E+01 -0.12616121485E+02  0.72461562935E+02  0.69999990413E+02 0.  0.
        -12    1    1    2    0    0 -0.12099586676E+02 -0.67166156713E+01  0.12616121485E+02  0.18726437065E+02  0.00000000000E+00 0.  1.
         11    1    3    3    0    0  0.40165283645E+01  0.92679075612E+01 -0.30908445422E+02  0.32517051056E+02  0.51100000000E-03 0. -1.
        -11    1    3    3    0    0 -0.23927566811E+01 -0.27231208801E+01 -0.95399840456E+01  0.10205487138E+02  0.51100000000E-03 0.  1.
        -12    1    3    3    0    0  0.10475814993E+02  0.17182899023E+00  0.27832307982E+02  0.29739024742E+02  0.00000000000E+00 0.  1.
</event>
<event>
 7    1  0.2489154E-013  0.7246163E+02  0.7816164E-02  0.1226708E+00
        -11   -1    0    0    0    0  0.00000000000E+00  0.00000000000E+00  0.45593999997E+02  0.45594000000E+02  0.51100000000E-03 0.  1.
         11   -1    0    0    0    0 -0.00000000000E+00 -0.00000000000E+00 -0.45593999997E+02  0.45594000000E+02  0.51100000000E-03 0. -1.
    9900012    2    1    2    0    0 -0.51551148285E+01 -0.56202415461E+01 -0.17103058898E+02  0.72461629620E+02  0.70000077283E+02 0.  0.
        -12    1    1    2    0    0  0.51551148285E+01  0.56202415461E+01  0.17103058898E+02  0.18726370380E+02  0.00000000000E+00 0.  1.
         11    1    3    3    0    0  0.11894800193E+02  0.17205138326E+00 -0.69311902020E+01  0.13767979924E+02  0.51100000000E-03 0. -1.
        -11    1    3    3    0    0  0.10454765092E+01 -0.27154713293E+01 -0.30882816702E+02  0.31019593378E+02  0.51100000000E-03 0.  1.
        -12    1    3    3    0    0 -0.18095391531E+02 -0.30768216001E+01  0.20710948006E+02  0.27674056318E+02  0.00000000000E+00 0.  1.
</event>
<event>
 7    1  0.2489154E-013  0.7246152E+02  0.7816164E-02  0.1226708E+00
        -11   -1    0    0    0    0  0.00000000000E+00  0.00000000000E+00  0.45593999997E+02  0.45594000000E+02  0.51100000000E-03 0. -1.
         11   -1    0    0    0    0 -0.00000000000E+00 -0.00000000000E+00 -0.45593999997E+02  0.45594000000E+02  0.51100000000E-03 0.  1.
    9900012    2    1    2    0    0 -0.12290724044E+02 -0.11237129676E+02  0.85642296189E+01  0.72461521158E+02  0.69999935990E+02 0.  0.
        -12    1    1    2    0    0  0.12290724044E+02  0.11237129676E+02 -0.85642296189E+01  0.18726478842E+02  0.00000000000E+00 0.  1.
         11    1    3    3    0    0 -0.27303064767E+02  0.41505321565E+01  0.19608505783E+02  0.33870012727E+02  0.51100000000E-03 0. -1.
        -11    1    3    3    0    0  0.16664379667E+00  0.46611047865E+01 -0.12759979031E+02  0.13585681180E+02  0.51100000000E-03 0.  1.
        -12    1    3    3    0    0  0.14845696926E+02 -0.20048766619E+02  0.17157028667E+01  0.25005827250E+02  0.00000000000E+00 0.  1.
</event>
<event>
 7    1  0.2489154E-013  0.7246160E+02  0.7816164E-02  0.1226708E+00
        -11   -1    0    0    0    0  0.00000000000E+00  0.00000000000E+00  0.45593999997E+02  0.45594000000E+02  0.51100000000E-03 0. -1.
         11   -1    0    0    0    0 -0.00000000000E+00 -0.00000000000E+00 -0.45593999997E+02  0.45594000000E+02  0.51100000000E-03 0.  1.
    9900012    2    1    2    0    0 -0.12787579450E+02  0.13668493636E+02  0.57292472499E+00  0.72461597537E+02  0.70000035488E+02 0.  0.
        -12    1    1    2    0    0  0.12787579450E+02 -0.13668493636E+02 -0.57292472499E+00  0.18726402463E+02  0.00000000000E+00 0.  1.
         11    1    3    3    0    0  0.29624157479E+01 -0.17853827493E+02  0.95114226625E+01  0.20445102703E+02  0.51100000000E-03 0.  1.
        -11    1    3    3    0    0  0.11736773817E+02  0.11312597938E+02  0.14173207035E+01  0.16362626011E+02  0.51100000000E-03 0. -1.
         12    1    3    3    0    0 -0.27486769015E+02  0.20209723190E+02 -0.10355818641E+02  0.35653868823E+02  0.00000000000E+00 0. -1.
</event>
<event>
 7    1  0.2489154E-013  0.7246170E+02  0.7816164E-02  0.1226708E+00
        -11   -1    0    0    0    0  0.00000000000E+00  0.00000000000E+00  0.45593999997E+02  0.45594000000E+02  0.51100000000E-03 0.  1.
         11   -1    0    0    0    0 -0.00000000000E+00 -0.00000000000E+00 -0.45593999997E+02  0.45594000000E+02  0.51100000000E-03 0. -1.
    9900012    2    1    2    0    0 -0.12768618300E+02  0.10053519900E+02  0.93039438052E+01  0.72461701754E+02  0.70000171250E+02 0.  0.
        -12    1    1    2    0    0  0.12768618300E+02 -0.10053519900E+02 -0.93039438052E+01  0.18726298246E+02  0.00000000000E+00 0.  1.
         11    1    3    3    0    0 -0.55950091879E+01  0.45114100413E+00  0.16994538066E+02  0.17897541182E+02  0.51100000000E-03 0. -1.
        -11    1    3    3    0    0  0.86994212377E+01 -0.16597987743E+02  0.77263594434E+01  0.20269922484E+02  0.51100000000E-03 0.  1.
         12    1    3    3    0    0 -0.15873030350E+02  0.26200366639E+02 -0.15416953705E+02  0.34294238088E+02  0.00000000000E+00 0. -1.
</event>
<event>
 7    1  0.2489154E-013  0.7246167E+02  0.7816164E-02  0.1226708E+00
        -11   -1    0    0    0    0  0.00000000000E+00  0.00000000000E+00  0.45593999997E+02  0.45594000000E+02  0.51100000000E-03 0.  1.
         11   -1    0    0    0    0 -0.00000000000E+00 -0.00000000000E+00 -0.45593999997E+02  0.45594000000E+02  0.51100000000E-03 0. -1.
    9900012    2    1    2    0    0 -0.17523181919E+02 -0.57225485925E+00 -0.65792144041E+01  0.72461669811E+02  0.70000129638E+02 0.  0.
        -12    1    1    2    0    0  0.17523181919E+02  0.57225485925E+00  0.65792144041E+01  0.18726330189E+02  0.00000000000E+00 0.  1.
         11    1    3    3    0    0 -0.22224508890E+02  0.10340362106E+02 -0.23098478481E+02  0.33680730281E+02  0.51100000000E-03 0. -1.
        -11    1    3    3    0    0 -0.79317807441E+01 -0.10320475297E+02 -0.48987911561E+01  0.13907678138E+02  0.51100000000E-03 0.  1.
        -12    1    3    3    0    0  0.12633107715E+02 -0.59214166797E+00  0.21418055233E+02  0.24873261392E+02  0.00000000000E+00 0.  1.
</event>
<event>
 7    1  0.2489154E-013  0.7246165E+02  0.7816164E-02  0.1226708E+00
        -11   -1    0    0    0    0  0.00000000000E+00  0.00000000000E+00  0.45593999997E+02  0.45594000000E+02  0.51100000000E-03 0.  1.
         11   -1    0    0    0    0 -0.00000000000E+00 -0.00000000000E+00 -0.45593999997E+02  0.45594000000E+02  0.51100000000E-03 0. -1.
    9900012    2    1    2    0    0  0.51747048373E+01 -0.12265173023E+02 -0.13170572554E+02  0.72461654365E+02  0.70000109518E+02 0.  0.
        -12    1    1    2    0    0 -0.51747048373E+01  0.12265173023E+02  0.13170572554E+02  0.18726345635E+02  0.00000000000E+00 0.  1.
         11    1    3    3    0    0 -0.52271210383E+01 -0.21543947341E+02  0.76831456065E+01  0.23462633869E+02  0.51100000000E-03 0. -1.
        -11    1    3    3    0    0 -0.14053887022E+02  0.74142341839E+01  0.13074139004E+01  0.15943398017E+02  0.51100000000E-03 0.  1.
         12    1    3    3    0    0  0.24455712898E+02  0.18645401347E+01 -0.22161132061E+02  0.33055622479E+02  0.00000000000E+00 0. -1.
</event>
<event>
 7    1  0.2489154E-013  0.7246157E+02  0.7816164E-02  0.1226708E+00
        -11   -1    0    0    0    0  0.00000000000E+00  0.00000000000E+00  0.45593999997E+02  0.45594000000E+02  0.51100000000E-03 0.  1.
         11   -1    0    0    0    0 -0.00000000000E+00 -0.00000000000E+00 -0.45593999997E+02  0.45594000000E+02  0.51100000000E-03 0. -1.
    9900012    2    1    2    0    0  0.85165118431E+01  0.84090635896E+01 -0.14402632850E+02  0.72461570617E+02  0.70000000420E+02 0.  0.
        -12    1    1    2    0    0 -0.85165118431E+01 -0.84090635896E+01  0.14402632850E+02  0.18726429383E+02  0.00000000000E+00 0.  1.
         11    1    3    3    0    0  0.16877809557E+02 -0.13029612170E+01 -0.46388059152E+01  0.17552113376E+02  0.51100000000E-03 0. -1.
        -11    1    3    3    0    0 -0.14158516764E+02 -0.51063322968E+01  0.17659945571E+02  0.23203704539E+02  0.51100000000E-03 0.  1.
         12    1    3    3    0    0  0.57972190500E+01  0.14818357103E+02 -0.27423772506E+02  0.31705752702E+02  0.00000000000E+00 0. -1.
</event>
<event>
 7    1  0.2489154E-013  0.7246158E+02  0.7816164E-02  0.1226708E+00
        -11   -1    0    0    0    0  0.00000000000E+00  0.00000000000E+00  0.45593999997E+02  0.45594000000E+02  0.51100000000E-03 0.  1.
         11   -1    0    0    0    0 -0.00000000000E+00 -0.00000000000E+00 -0.45593999997E+02  0.45594000000E+02  0.51100000000E-03 0. -1.
    9900012    2    1    2    0    0 -0.24425093516E+01  0.17232472449E+02  0.69104938062E+01  0.72461577937E+02  0.70000009956E+02 0.  0.
        -12    1    1    2    0    0  0.24425093516E+01 -0.17232472449E+02 -0.69104938062E+01  0.18726422063E+02  0.00000000000E+00 0.  1.
         11    1    3    3    0    0  0.41782825727E+01 -0.17660984149E+02 -0.61480572123E+01  0.19161602598E+02  0.51100000000E-03 0. -1.
        -11    1    3    3    0    0  0.10368545379E+01  0.18072383800E+01  0.18750117035E+02  0.18865525887E+02  0.51100000000E-03 0.  1.
         12    1    3    3    0    0 -0.76576464621E+01  0.33086218218E+02 -0.56915660168E+01  0.34434449452E+02  0.00000000000E+00 0. -1.
</event>
<event>
 7    1  0.2489154E-013  0.7246158E+02  0.7816164E-02  0.1226708E+00
        -11   -1    0    0    0    0  0.00000000000E+00  0.00000000000E+00  0.45593999997E+02  0.45594000000E+02  0.51100000000E-03 0.  1.
         11   -1    0    0    0    0 -0.00000000000E+00 -0.00000000000E+00 -0.45593999997E+02  0.45594000000E+02  0.51100000000E-03 0. -1.
    9900012    2    1    2    0    0 -0.52308922724E+01 -0.16562181574E+02  0.70007599566E+01  0.72461581965E+02  0.70000015203E+02 0.  0.
        -12    1    1    2    0    0  0.52308922724E+01  0.16562181574E+02 -0.70007599566E+01  0.18726418035E+02  0.00000000000E+00 0.  1.
         11    1    3    3    0    0 -0.17914697791E+02 -0.70329149453E+01  0.18716432981E+02  0.26845915022E+02  0.51100000000E-03 0. -1.
        -11    1    3    3    0    0  0.12726608172E+02  0.12205814631E+02  0.48486214258E+01  0.18288181877E+02  0.51100000000E-03 0.  1.
         12    1    3    3    0    0 -0.42802653558E-01 -0.21735081259E+02 -0.16564294451E+02  0.27327485066E+02  0.00000000000E+00 0. -1.
</event>
<event>
 7    1  0.2489154E-013  0.7246157E+02  0.7816164E-02  0.1226708E+00
        -11   -1    0    0    0    0  0.00000000000E+00  0.00000000000E+00  0.45593999997E+02  0.45594000000E+02  0.51100000000E-03 0.  1.
         11   -1    0    0    0    0 -0.00000000000E+00 -0.00000000000E+00 -0.45593999997E+02  0.45594000000E+02  0.51100000000E-03 0. -1.
    9900012    2    1    2    0    0  0.12314052199E+02  0.72002971153E+01 -0.12132553082E+02  0.72461574703E+02  0.70000005743E+02 0.  0.
        -12    1    1    2    0    0 -0.12314052199E+02 -0.72002971153E+01  0.12132553082E+02  0.18726425297E+02  0.00000000000E+00 0.  1.
         11    1    3    3    0    0 -0.39083024631E+01  0.23326297382E+02 -0.39548999919E+01  0.23979829272E+02  0.51100000000E-03 0. -1.
        -11    1    3    3    0    0 -0.73966544483E+01  0.96774165416E+01  0.12724161114E+01  0.12246711027E+02  0.51100000000E-03 0.  1.
        -12    1    3    3    0    0  0.23619009110E+02 -0.25803416809E+02 -0.94500692019E+01  0.36235034404E+02  0.00000000000E+00 0.  1.
</event>
<event>
 7    1  0.2489154E-013  0.7246157E+02  0.7816164E-02  0.1226708E+00
        -11   -1    0    0    0    0  0.00000000000E+00  0.00000000000E+00  0.45593999997E+02  0.45594000000E+02  0.51100000000E-03 0.  1.
         11   -1    0    0    0    0 -0.00000000000E+00 -0.00000000000E+00 -0.45593999997E+02  0.45594000000E+02  0.51100000000E-03 0. -1.
    9900012    2    1    2    0    0  0.62571813368E+01 -0.17079518508E+02 -0.44516280837E+01  0.72461567789E+02  0.69999996736E+02 0.  0.
        -12    1    1    2    0    0 -0.62571813368E+01  0.17079518508E+02  0.44516280837E+01  0.18726432211E+02  0.00000000000E+00 0.  1.
         11    1    3    3    0    0 -0.24867244456E+01  0.53059575637E+01  0.12414612211E+02  0.13728058157E+02  0.51100000000E-03 0. -1.
        -11    1    3    3    0    0  0.23644925520E+02 -0.24517341257E+02  0.25603585116E+01  0.34157546181E+02  0.51100000000E-03 0.  1.
         12    1    3    3    0    0 -0.14901019738E+02  0.21318651845E+01 -0.19426598806E+02  0.24575963452E+02  0.00000000000E+00 0. -1.
</event>
<event>
 7    1  0.2489154E-013  0.7246159E+02  0.7816164E-02  0.1226708E+00
        -11   -1    0    0    0    0  0.00000000000E+00  0.00000000000E+00  0.45593999997E+02  0.45594000000E+02  0.51100000000E-03 0. -1.
         11   -1    0    0    0    0 -0.00000000000E+00 -0.00000000000E+00 -0.45593999997E+02  0.45594000000E+02  0.51100000000E-03 0.  1.
    9900012    2    1    2    0    0 -0.29350245781E+01  0.18456045869E+02  0.11993970595E+01  0.72461586790E+02  0.70000021489E+02 0.  0.
        -12    1    1    2    0    0  0.29350245781E+01 -0.18456045869E+02 -0.11993970595E+01  0.18726413210E+02  0.00000000000E+00 0.  1.
         11    1    3    3    0    0  0.17514965453E+02  0.19210580961E+02 -0.61481326435E+01  0.26713666370E+02  0.51100000000E-03 0.  1.
        -11    1    3    3    0    0  0.30047725038E+01  0.15206941281E+02  0.78446147274E+01  0.17372901353E+02  0.51100000000E-03 0. -1.
        -12    1    3    3    0    0 -0.23454762535E+02 -0.15961476373E+02 -0.49708502439E+00  0.28375019067E+02  0.00000000000E+00 0.  1.
</event>
<event>
 7    1  0.2489154E-013  0.7246158E+02  0.7816164E-02  0.1226708E+00
        -11   -1    0    0    0    0  0.00000000000E+00  0.00000000000E+00  0.45593999997E+02  0.45594000000E+02  0.51100000000E-03 0.  1.
         11   -1    0    0    0    0 -0.00000000000E+00 -0.00000000000E+00 -0.45593999997E+02  0.45594000000E+02  0.51100000000E-03 0. -1.
    9900012    2    1    2    0    0  0.49460686203E+01  0.85838570414E+01 -0.15891270958E+02  0.72461583120E+02  0.70000016708E+02 0.  0.
        -12    1    1    2    0    0 -0.49460686203E+01 -0.85838570414E+01  0.15891270958E+02  0.18726416880E+02  0.00000000000E+00 0.  1.
         11    1    3    3    0    0  0.75949098259E+01  0.33950705784E+01  0.95030314768E+01  0.12629994735E+02  0.51100000000E-03 0. -1.
        -11    1    3    3    0    0 -0.15729722635E+02  0.34286307996E+01  0.12062898333E+02  0.20116987841E+02  0.51100000000E-03 0.  1.
         12    1    3    3    0    0  0.13080881430E+02  0.17601556634E+01 -0.37457200768E+02  0.39714600544E+02  0.00000000000E+00 0. -1.
</event>
<event>
 7    1  0.2489154E-013  0.7246158E+02  0.7816164E-02  0.1226708E+00
        -11   -1    0    0    0    0  0.00000000000E+00  0.00000000000E+00  0.45593999997E+02  0.45594000000E+02  0.51100000000E-03 0.  1.
         11   -1    0    0    0    0 -0.00000000000E+00 -0.00000000000E+00 -0.45593999997E+02  0.45594000000E+02  0.51100000000E-03 0. -1.
    9900012    2    1    2    0    0  0.15872105425E+02 -0.98264247450E+01 -0.14820945286E+01  0.72461575940E+02  0.70000007354E+02 0.  0.
        -12    1    1    2    0    0 -0.15872105425E+02  0.98264247450E+01  0.14820945286E+01  0.18726424060E+02  0.00000000000E+00 0.  1.
         11    1    3    3    0    0 -0.17038111883E+02  0.41059026910E+01  0.78046641568E+01  0.19185110797E+02  0.51100000000E-03 0.  1.
        -11    1    3    3    0    0  0.61241580683E+01 -0.66295696811E+00  0.14057949698E+02  0.15348315021E+02  0.51100000000E-03 0. -1.
         12    1    3    3    0    0  0.26786059239E+02 -0.13269370468E+02 -0.23344708384E+02  0.37928150122E+02  0.00000000000E+00 0. -1.
</event>
<event>
 7    1  0.2489154E-013  0.7246155E+02  0.7816164E-02  0.1226708E+00
        -11   -1    0    0    0    0  0.00000000000E+00  0.00000000000E+00  0.45593999997E+02  0.45594000000E+02  0.51100000000E-03 0.  1.
         11   -1    0    0    0    0 -0.00000000000E+00 -0.00000000000E+00 -0.45593999997E+02  0.45594000000E+02  0.51100000000E-03 0. -1.
    9900012    2    1    2    0    0  0.28740444625E+01  0.13299337610E+02 -0.12866528747E+02  0.72461546134E+02  0.69999968526E+02 0.  0.
        -12    1    1    2    0    0 -0.28740444625E+01 -0.13299337610E+02  0.12866528747E+02  0.18726453866E+02  0.00000000000E+00 0.  1.
         11    1    3    3    0    0  0.26655816588E+02 -0.10300733820E+02 -0.60258046474E+01  0.29205273447E+02  0.51100000000E-03 0. -1.
        -11    1    3    3    0    0 -0.94171828356E+01 -0.39688113045E+00  0.72953471733E+01  0.11919015808E+02  0.51100000000E-03 0.  1.
        -12    1    3    3    0    0 -0.14364589290E+02  0.23996952561E+02 -0.14136071272E+02  0.31337256879E+02  0.00000000000E+00 0.  1.
</event>
<event>
 7    1  0.2489154E-013  0.7246159E+02  0.7816164E-02  0.1226708E+00
        -11   -1    0    0    0    0  0.00000000000E+00  0.00000000000E+00  0.45593999997E+02  0.45594000000E+02  0.51100000000E-03 0.  1.
         11   -1    0    0    0    0 -0.00000000000E+00 -0.00000000000E+00 -0.45593999997E+02  0.45594000000E+02  0.51100000000E-03 0. -1.
    9900012    2    1    2    0    0  0.40421455767E+01 -0.20123926313E+01 -0.18173877756E+02  0.72461588233E+02  0.70000023368E+02 0.  0.
        -12    1    1    2    0    0 -0.40421455767E+01  0.20123926313E+01  0.18173877756E+02  0.18726411767E+02  0.00000000000E+00 0.  1.
         11    1    3    3    0    0  0.97456898750E+01  0.24415958523E+02 -0.16093325797E+02  0.30823897177E+02  0.51100000000E-03 0. -1.
        -11    1    3    3    0    0  0.77649894001E+01 -0.11660856616E+02 -0.12783439664E+02  0.18965415031E+02  0.51100000000E-03 0.  1.
        -12    1    3    3    0    0 -0.13468533698E+02 -0.14767494538E+02  0.10702887705E+02  0.22672276024E+02  0.00000000000E+00 0.  1.
</event>
<event>
 7    1  0.2489154E-013  0.7246150E+02  0.7816164E-02  0.1226708E+00
        -11   -1    0    0    0    0  0.00000000000E+00  0.00000000000E+00  0.45593999997E+02  0.45594000000E+02  0.51100000000E-03 0. -1.
         11   -1    0    0    0    0 -0.00000000000E+00 -0.00000000000E+00 -0.45593999997E+02  0.45594000000E+02  0.51100000000E-03 0.  1.
    9900012    2    1    2    0    0  0.17244862208E+02  0.11148429907E+00  0.72995997108E+01  0.72461498532E+02  0.69999906516E+02 0.  0.
        -12    1    1    2    0    0 -0.17244862208E+02 -0.11148429907E+00 -0.72995997108E+01  0.18726501468E+02  0.00000000000E+00 0.  1.
         11    1    3    3    0    0 -0.77422284171E+01  0.11076997137E+02  0.80342012293E+01  0.15722288513E+02  0.51100000000E-03 0. -1.
        -11    1    3    3    0    0 -0.11520415136E+02  0.46813522437E+01  0.95857792786E+01  0.15701025074E+02  0.51100000000E-03 0.  1.
         12    1    3    3    0    0  0.36507505761E+02 -0.15646865082E+02 -0.10320380797E+02  0.41038184945E+02  0.00000000000E+00 0. -1.
</event>
<event>
 7    1  0.2489154E-013  0.7246158E+02  0.7816164E-02  0.1226708E+00
        -11   -1    0    0    0    0  0.00000000000E+00  0.00000000000E+00  0.45593999997E+02  0.45594000000E+02  0.51100000000E-03 0.  1.
         11   -1    0    0    0    0 -0.00000000000E+00 -0.00000000000E+00 -0.45593999997E+02  0.45594000000E+02  0.51100000000E-03 0. -1.
    9900012    2    1    2    0    0  0.11360086016E+02  0.67884126638E+00 -0.14871663492E+02  0.72461581368E+02  0.70000014425E+02 0.  0.
        -12    1    1    2    0    0 -0.11360086016E+02 -0.67884126638E+00  0.14871663492E+02  0.18726418632E+02  0.00000000000E+00 0.  1.
         11    1    3    3    0    0 -0.22087135098E+00  0.15569671797E+02 -0.91945388866E+01  0.18083224536E+02  0.51100000000E-03 0. -1.
        -11    1    3    3    0    0  0.15336613258E+02  0.86130761323E+01  0.14794085959E+02  0.22983945839E+02  0.51100000000E-03 0.  1.
         12    1    3    3    0    0 -0.37556558910E+01 -0.23503906663E+02 -0.20471210565E+02  0.31394410993E+02  0.00000000000E+00 0. -1.
</event>
<event>
 7    1  0.2489154E-013  0.7246152E+02  0.7816164E-02  0.1226708E+00
        -11   -1    0    0    0    0  0.00000000000E+00  0.00000000000E+00  0.45593999997E+02  0.45594000000E+02  0.51100000000E-03 0.  1.
         11   -1    0    0    0    0 -0.00000000000E+00 -0.00000000000E+00 -0.45593999997E+02  0.45594000000E+02  0.51100000000E-03 0. -1.
    9900012    2    1    2    0    0  0.30495708682E+01 -0.16212521491E+02 -0.88620065125E+01  0.72461524224E+02  0.69999939985E+02 0.  0.
        -12    1    1    2    0    0 -0.30495708682E+01  0.16212521491E+02  0.88620065125E+01  0.18726475776E+02  0.00000000000E+00 0.  1.
         11    1    3    3    0    0  0.74034763075E+01  0.50463289686E+01 -0.16226722952E+01  0.91054908233E+01  0.51100000000E-03 0. -1.
        -11    1    3    3    0    0 -0.12555545542E+02  0.12532335071E+01 -0.28598345840E+02  0.31258242162E+02  0.51100000000E-03 0.  1.
         12    1    3    3    0    0  0.82016401023E+01 -0.22512083966E+02  0.21359011622E+02  0.32097791238E+02  0.00000000000E+00 0. -1.
</event>
<event>
 7    1  0.2489154E-013  0.7246156E+02  0.7816164E-02  0.1226708E+00
        -11   -1    0    0    0    0  0.00000000000E+00  0.00000000000E+00  0.45593999997E+02  0.45594000000E+02  0.51100000000E-03 0. -1.
         11   -1    0    0    0    0 -0.00000000000E+00 -0.00000000000E+00 -0.45593999997E+02  0.45594000000E+02  0.51100000000E-03 0.  1.
    9900012    2    1    2    0    0 -0.17618452170E+02  0.11856043262E+01  0.62340885391E+01  0.72461564824E+02  0.69999992874E+02 0.  0.
        -12    1    1    2    0    0  0.17618452170E+02 -0.11856043262E+01 -0.62340885391E+01  0.18726435176E+02  0.00000000000E+00 0.  1.
         11    1    3    3    0    0  0.18356056818E+02  0.10822640456E+02  0.86860382753E+01  0.23011336978E+02  0.51100000000E-03 0. -1.
        -11    1    3    3    0    0  0.45334381519E+01 -0.40632421780E+00  0.55110414019E+01  0.71476386619E+01  0.51100000000E-03 0.  1.
        -12    1    3    3    0    0 -0.40507947139E+02 -0.92307119116E+01 -0.79629911380E+01  0.42302589184E+02  0.00000000000E+00 0.  1.
</event>
<event>
 7    1  0.2489154E-013  0.7246153E+02  0.7816164E-02  0.1226708E+00
        -11   -1    0    0    0    0  0.00000000000E+00  0.00000000000E+00  0.45593999997E+02  0.45594000000E+02  0.51100000000E-03 0.  1.
         11   -1    0    0    0    0 -0.00000000000E+00 -0.00000000000E+00 -0.45593999997E+02  0.45594000000E+02  0.51100000000E-03 0. -1.
    9900012    2    1    2    0    0 -0.11440936046E+02  0.12012337901E+02 -0.86884641263E+01  0.72461529742E+02  0.69999947173E+02 0.  0.
        -12    1    1    2    0    0  0.11440936046E+02 -0.12012337901E+02  0.86884641263E+01  0.18726470258E+02  0.00000000000E+00 0.  1.
         11    1    3    3    0    0 -0.47971967733E+01 -0.61585987553E+01 -0.83547432002E+01  0.11434297955E+02  0.51100000000E-03 0. -1.
        -11    1    3    3    0    0 -0.36898152502E+01 -0.20331067714E+02  0.68108098851E+01  0.21756704312E+02  0.51100000000E-03 0.  1.
         12    1    3    3    0    0 -0.29539240223E+01  0.38502004370E+02 -0.71445308112E+01  0.39270527475E+02  0.00000000000E+00 0. -1.
</event>
<event>
 7    1  0.2489154E-013  0.7246218E+02  0.7816164E-02  0.1226706E+00
        -11   -1    0    0    0    0  0.00000000000E+00  0.00000000000E+00  0.45593999997E+02  0.45594000000E+02  0.51100000000E-03 0.  1.
         11   -1    0    0    0    0 -0.00000000000E+00 -0.00000000000E+00 -0.45593999997E+02  0.45594000000E+02  0.51100000000E-03 0. -1.
    9900012    2    1    2    0    0 -0.23100309045E+01  0.11407793314E+02 -0.14669092861E+02  0.72462181555E+02  0.70000796276E+02 0.  0.
        -12    1    1    2    0    0  0.23100309045E+01 -0.11407793314E+02  0.14669092861E+02  0.18725818445E+02  0.00000000000E+00 0.  1.
         11    1    3    3    0    0 -0.13982574953E+02  0.13049387857E+02 -0.11929023547E+02  0.22541085351E+02  0.51100000000E-03 0. -1.
        -11    1    3    3    0    0 -0.18158377713E+02 -0.63317206492E+01 -0.42172224520E+01  0.19687618775E+02  0.51100000000E-03 0.  1.
         12    1    3    3    0    0  0.29830921762E+02  0.46901261069E+01  0.14771531377E+01  0.30233477429E+02  0.00000000000E+00 0. -1.
</event>
<event>
 7    1  0.2489154E-013  0.7246121E+02  0.7816164E-02  0.1226709E+00
        -11   -1    0    0    0    0  0.00000000000E+00  0.00000000000E+00  0.45593999997E+02  0.45594000000E+02  0.51100000000E-03 0. -1.
         11   -1    0    0    0    0 -0.00000000000E+00 -0.00000000000E+00 -0.45593999997E+02  0.45594000000E+02  0.51100000000E-03 0.  1.
    9900012    2    1    2    0    0  0.39850587703E+00  0.33560735616E+01  0.18419296907E+02  0.72461213430E+02  0.69999535116E+02 0.  0.
        -12    1    1    2    0    0 -0.39850587703E+00 -0.33560735616E+01 -0.18419296907E+02  0.18726786570E+02  0.00000000000E+00 0.  1.
         11    1    3    3    0    0 -0.35265821377E+01 -0.27401637278E+01  0.51605865905E+01  0.68247295220E+01  0.51100000000E-03 0. -1.
        -11    1    3    3    0    0 -0.25445701898E+02 -0.10186033678E+02 -0.42952419643E+01  0.27743253792E+02  0.51100000000E-03 0.  1.
         12    1    3    3    0    0  0.29370789912E+02  0.16282270968E+02  0.17553952281E+02  0.37893230116E+02  0.00000000000E+00 0. -1.
</event>
<event>
 7    1  0.2489154E-013  0.7246147E+02  0.7816164E-02  0.1226708E+00
        -11   -1    0    0    0    0  0.00000000000E+00  0.00000000000E+00  0.45593999997E+02  0.45594000000E+02  0.51100000000E-03 0.  1.
         11   -1    0    0    0    0 -0.00000000000E+00 -0.00000000000E+00 -0.45593999997E+02  0.45594000000E+02  0.51100000000E-03 0. -1.
    9900012    2    1    2    0    0  0.11094197311E+02  0.54549238252E+01 -0.14065757005E+02  0.72461469941E+02  0.69999869271E+02 0.  0.
        -12    1    1    2    0    0 -0.11094197311E+02 -0.54549238252E+01  0.14065757005E+02  0.18726530059E+02  0.00000000000E+00 0.  1.
         11    1    3    3    0    0 -0.16451222682E+00 -0.72097910728E+01 -0.11921952818E+01  0.73095472799E+01  0.51100000000E-03 0. -1.
        -11    1    3    3    0    0  0.16649319768E+02  0.24357202719E+02  0.15981855287E+02  0.33554327168E+02  0.51100000000E-03 0.  1.
         12    1    3    3    0    0 -0.53906102296E+01 -0.11692487821E+02 -0.28855417010E+02  0.31597595493E+02  0.00000000000E+00 0. -1.
</event>
<event>
 7    1  0.2489154E-013  0.7246157E+02  0.7816164E-02  0.1226708E+00
        -11   -1    0    0    0    0  0.00000000000E+00  0.00000000000E+00  0.45593999997E+02  0.45594000000E+02  0.51100000000E-03 0. -1.
         11   -1    0    0    0    0 -0.00000000000E+00 -0.00000000000E+00 -0.45593999997E+02  0.45594000000E+02  0.51100000000E-03 0.  1.
    9900012    2    1    2    0    0  0.55538709760E+01 -0.13182967840E+01  0.17835239083E+02  0.72461571019E+02  0.70000000944E+02 0.  0.
        -12    1    1    2    0    0 -0.55538709760E+01  0.13182967840E+01 -0.17835239083E+02  0.18726428981E+02  0.00000000000E+00 0.  1.
         11    1    3    3    0    0  0.30174722585E+01  0.18510589382E+01  0.17564602519E+02  0.17917779436E+02  0.51100000000E-03 0. -1.
        -11    1    3    3    0    0  0.25096219567E+02  0.42938993588E+01 -0.11602987386E+02  0.27980120171E+02  0.51100000000E-03 0.  1.
        -12    1    3    3    0    0 -0.22559820849E+02 -0.74632550810E+01  0.11873623950E+02  0.26563671412E+02  0.00000000000E+00 0.  1.
</event>
<event>
 7    1  0.2489154E-013  0.7246143E+02  0.7816164E-02  0.1226708E+00
        -11   -1    0    0    0    0  0.00000000000E+00  0.00000000000E+00  0.45593999997E+02  0.45594000000E+02  0.51100000000E-03 0.  1.
         11   -1    0    0    0    0 -0.00000000000E+00 -0.00000000000E+00 -0.45593999997E+02  0.45594000000E+02  0.51100000000E-03 0. -1.
    9900012    2    1    2    0    0 -0.71405493371E+01 -0.17206213953E+02  0.19087113974E+01  0.72461430035E+02  0.69999817286E+02 0.  0.
        -12    1    1    2    0    0  0.71405493371E+01  0.17206213953E+02 -0.19087113974E+01  0.18726569965E+02  0.00000000000E+00 0.  1.
         11    1    3    3    0    0 -0.85469418832E+01 -0.10826514904E+02  0.10875952842E+01  0.13836419489E+02  0.51100000000E-03 0. -1.
        -11    1    3    3    0    0 -0.13310549905E+02  0.66306579151E+00  0.25655681343E+02  0.28910627465E+02  0.51100000000E-03 0.  1.
        -12    1    3    3    0    0  0.14716942452E+02 -0.70427648406E+01 -0.24834565229E+02  0.29714383081E+02  0.00000000000E+00 0.  1.
</event>
<event>
 7    1  0.2489154E-013  0.7246165E+02  0.7816164E-02  0.1226708E+00
        -11   -1    0    0    0    0  0.00000000000E+00  0.00000000000E+00  0.45593999997E+02  0.45594000000E+02  0.51100000000E-03 0.  1.
         11   -1    0    0    0    0 -0.00000000000E+00 -0.00000000000E+00 -0.45593999997E+02  0.45594000000E+02  0.51100000000E-03 0. -1.
    9900012    2    1    2    0    0  0.16868502581E+02  0.60841924212E+01  0.53955794093E+01  0.72461653482E+02  0.70000108367E+02 0.  0.
        -12    1    1    2    0    0 -0.16868502581E+02 -0.60841924212E+01 -0.53955794093E+01  0.18726346518E+02  0.00000000000E+00 0.  1.
         11    1    3    3    0    0 -0.17950263755E+01  0.15092208596E+02 -0.21082306612E+01  0.15344103649E+02  0.51100000000E-03 0. -1.
        -11    1    3    3    0    0  0.29251106319E+02  0.14714716165E+01  0.21768855155E+02  0.36492129352E+02  0.51100000000E-03 0.  1.
         12    1    3    3    0    0 -0.10587577362E+02 -0.10479487792E+02 -0.14265045084E+02  0.20625420481E+02  0.00000000000E+00 0. -1.
</event>
<event>
 7    1  0.2489154E-013  0.7246153E+02  0.7816164E-02  0.1226708E+00
        -11   -1    0    0    0    0  0.00000000000E+00  0.00000000000E+00  0.45593999997E+02  0.45594000000E+02  0.51100000000E-03 0.  1.
         11   -1    0    0    0    0 -0.00000000000E+00 -0.00000000000E+00 -0.45593999997E+02  0.45594000000E+02  0.51100000000E-03 0. -1.
    9900012    2    1    2    0    0 -0.12143183289E+02 -0.11817648650E+02 -0.79728783282E+01  0.72461534534E+02  0.69999953416E+02 0.  0.
        -12    1    1    2    0    0  0.12143183289E+02  0.11817648650E+02  0.79728783282E+01  0.18726465466E+02  0.00000000000E+00 0.  1.
         11    1    3    3    0    0 -0.61724458410E+01 -0.75574779979E+01 -0.22472299509E+01  0.10013221463E+02  0.51100000000E-03 0. -1.
        -11    1    3    3    0    0 -0.27785477329E+02 -0.33207556922E+01  0.15506430443E+02  0.31992335865E+02  0.51100000000E-03 0.  1.
        -12    1    3    3    0    0  0.21814739881E+02 -0.93941496022E+00 -0.21232078820E+02  0.30455977206E+02  0.00000000000E+00 0.  1.
</event>
<event>
 7    1  0.2489154E-013  0.7246116E+02  0.7816164E-02  0.1226709E+00
        -11   -1    0    0    0    0  0.00000000000E+00  0.00000000000E+00  0.45593999997E+02  0.45594000000E+02  0.51100000000E-03 0.  1.
         11   -1    0    0    0    0 -0.00000000000E+00 -0.00000000000E+00 -0.45593999997E+02  0.45594000000E+02  0.51100000000E-03 0. -1.
    9900012    2    1    2    0    0  0.26423380597E+01 -0.52104074853E+01 -0.17792250754E+02  0.72461161413E+02  0.69999467354E+02 0.  0.
        -12    1    1    2    0    0 -0.26423380597E+01  0.52104074853E+01  0.17792250754E+02  0.18726838587E+02  0.00000000000E+00 0.  1.
         11    1    3    3    0    0 -0.18527582915E+02 -0.88339254394E+01 -0.78123145324E+01  0.21962281893E+02  0.51100000000E-03 0. -1.
        -11    1    3    3    0    0  0.12623522465E+01  0.43731883679E+01  0.16639200579E+02  0.17250545089E+02  0.51100000000E-03 0.  1.
        -12    1    3    3    0    0  0.19907568728E+02 -0.74967041385E+00 -0.26619136801E+02  0.33248334431E+02  0.00000000000E+00 0.  1.
</event>
<event>
 7    1  0.2489154E-013  0.7246159E+02  0.7816164E-02  0.1226708E+00
        -11   -1    0    0    0    0  0.00000000000E+00  0.00000000000E+00  0.45593999997E+02  0.45594000000E+02  0.51100000000E-03 0. -1.
         11   -1    0    0    0    0 -0.00000000000E+00 -0.00000000000E+00 -0.45593999997E+02  0.45594000000E+02  0.51100000000E-03 0.  1.
    9900012    2    1    2    0    0 -0.12209992506E+02 -0.12577143431E+02 -0.65886130072E+01  0.72461594172E+02  0.70000031105E+02 0.  0.
        -12    1    1    2    0    0  0.12209992506E+02  0.12577143431E+02  0.65886130072E+01  0.18726405828E+02  0.00000000000E+00 0.  1.
         11    1    3    3    0    0 -0.28028046361E+02 -0.23504912565E+01 -0.10323356442E+02  0.29961106129E+02  0.51100000000E-03 0. -1.
        -11    1    3    3    0    0  0.14529206537E+00  0.11361518774E+02  0.99560869344E+01  0.15107246141E+02  0.51100000000E-03 0.  1.
         12    1    3    3    0    0  0.15672761790E+02 -0.21588170949E+02 -0.62213434996E+01  0.27393241903E+02  0.00000000000E+00 0. -1.
</event>
<event>
 7    1  0.2489154E-013  0.7246158E+02  0.7816164E-02  0.1226708E+00
        -11   -1    0    0    0    0  0.00000000000E+00  0.00000000000E+00  0.45593999997E+02  0.45594000000E+02  0.51100000000E-03 0.  1.
         11   -1    0    0    0    0 -0.00000000000E+00 -0.00000000000E+00 -0.45593999997E+02  0.45594000000E+02  0.51100000000E-03 0. -1.
    9900012    2    1    2    0    0 -0.14637723617E+02 -0.54437162833E+01 -0.10333525924E+02  0.72461581291E+02  0.70000014325E+02 0.  0.
        -12    1    1    2    0    0  0.14637723617E+02  0.54437162833E+01  0.10333525924E+02  0.18726418709E+02  0.00000000000E+00 0.  1.
         11    1    3    3    0    0  0.15804607637E+02 -0.18208966794E+01 -0.43838985819E+01  0.16502116661E+02  0.51100000000E-03 0. -1.
        -11    1    3    3    0    0 -0.11873622722E+02  0.19683712978E+02  0.61522089180E+01  0.23796662538E+02  0.51100000000E-03 0.  1.
        -12    1    3    3    0    0 -0.18568708531E+02 -0.23306532582E+02 -0.12101836260E+02  0.32162802091E+02  0.00000000000E+00 0.  1.
</event>
<event>
 7    1  0.2489154E-013  0.7246149E+02  0.7816164E-02  0.1226708E+00
        -11   -1    0    0    0    0  0.00000000000E+00  0.00000000000E+00  0.45593999997E+02  0.45594000000E+02  0.51100000000E-03 0.  1.
         11   -1    0    0    0    0 -0.00000000000E+00 -0.00000000000E+00 -0.45593999997E+02  0.45594000000E+02  0.51100000000E-03 0. -1.
    9900012    2    1    2    0    0  0.28121760976E+01 -0.65606692617E+00 -0.18502521783E+02  0.72461492837E+02  0.69999899097E+02 0.  0.
        -12    1    1    2    0    0 -0.28121760976E+01  0.65606692617E+00  0.18502521783E+02  0.18726507163E+02  0.00000000000E+00 0.  1.
         11    1    3    3    0    0  0.27501048447E+01  0.12586069509E+02  0.64537401740E+01  0.14409128524E+02  0.51100000000E-03 0. -1.
        -11    1    3    3    0    0 -0.54978492830E+01 -0.12636972602E+01  0.14970621413E+02  0.15998211877E+02  0.51100000000E-03 0.  1.
         12    1    3    3    0    0  0.55599205359E+01 -0.11978439175E+02 -0.39926883370E+02  0.42054152435E+02  0.00000000000E+00 0. -1.
</event>
<event>
 7    1  0.2489154E-013  0.7246150E+02  0.7816164E-02  0.1226708E+00
        -11   -1    0    0    0    0  0.00000000000E+00  0.00000000000E+00  0.45593999997E+02  0.45594000000E+02  0.51100000000E-03 0. -1.
         11   -1    0    0    0    0 -0.00000000000E+00 -0.00000000000E+00 -0.45593999997E+02  0.45594000000E+02  0.51100000000E-03 0.  1.
    9900012    2    1    2    0    0 -0.12820186128E+02  0.66384073392E+01  0.11927117748E+02  0.72461501071E+02  0.69999909824E+02 0.  0.
        -12    1    1    2    0    0  0.12820186128E+02 -0.66384073392E+01 -0.11927117748E+02  0.18726498929E+02  0.00000000000E+00 0.  1.
         11    1    3    3    0    0  0.16033934327E+02  0.53454756086E+01  0.65744814279E+01  0.18135185849E+02  0.51100000000E-03 0. -1.
        -11    1    3    3    0    0  0.11356518378E+02  0.69499792820E+01  0.30210007055E+01  0.13652808034E+02  0.51100000000E-03 0.  1.
        -12    1    3    3    0    0 -0.40210638833E+02 -0.56570475514E+01  0.23316356146E+01  0.40673507188E+02  0.00000000000E+00 0.  1.
</event>
<event>
 7    1  0.2489154E-013  0.7246166E+02  0.7816164E-02  0.1226708E+00
        -11   -1    0    0    0    0  0.00000000000E+00  0.00000000000E+00  0.45593999997E+02  0.45594000000E+02  0.51100000000E-03 0.  1.
         11   -1    0    0    0    0 -0.00000000000E+00 -0.00000000000E+00 -0.45593999997E+02  0.45594000000E+02  0.51100000000E-03 0. -1.
    9900012    2    1    2    0    0 -0.48906351331E+01  0.16760300201E+02  0.67712492657E+01  0.72461660490E+02  0.70000117496E+02 0.  0.
        -12    1    1    2    0    0  0.48906351331E+01 -0.16760300201E+02 -0.67712492657E+01  0.18726339510E+02  0.00000000000E+00 0.  1.
         11    1    3    3    0    0 -0.19611972659E+02  0.17767434034E+02  0.23180193919E+02  0.35180002474E+02  0.51100000000E-03 0. -1.
        -11    1    3    3    0    0 -0.16747620109E+01 -0.12252505359E+02 -0.15552089178E+01  0.12463843324E+02  0.51100000000E-03 0.  1.
        -12    1    3    3    0    0  0.16396099536E+02  0.11245371526E+02 -0.14853735735E+02  0.24817814692E+02  0.00000000000E+00 0.  1.
</event>
<event>
 7    1  0.2489154E-013  0.7246159E+02  0.7816164E-02  0.1226708E+00
        -11   -1    0    0    0    0  0.00000000000E+00  0.00000000000E+00  0.45593999997E+02  0.45594000000E+02  0.51100000000E-03 0. -1.
         11   -1    0    0    0    0 -0.00000000000E+00 -0.00000000000E+00 -0.45593999997E+02  0.45594000000E+02  0.51100000000E-03 0.  1.
    9900012    2    1    2    0    0 -0.15295881361E+02 -0.17172522076E+01 -0.10666087595E+02  0.72461591739E+02  0.70000027936E+02 0.  0.
        -12    1    1    2    0    0  0.15295881361E+02  0.17172522076E+01  0.10666087595E+02  0.18726408261E+02  0.00000000000E+00 0.  1.
         11    1    3    3    0    0 -0.81375027581E+01  0.24970045713E+02 -0.12972395610E+02  0.29291725490E+02  0.51100000000E-03 0. -1.
        -11    1    3    3    0    0  0.69222314664E+01  0.18772695556E+01 -0.69687338980E+01  0.10000234090E+02  0.51100000000E-03 0.  1.
        -12    1    3    3    0    0 -0.14080610069E+02 -0.28564567476E+02  0.92750419130E+01  0.33169632159E+02  0.00000000000E+00 0.  1.
</event>
<event>
 7    1  0.2489154E-013  0.7246185E+02  0.7816164E-02  0.1226707E+00
        -11   -1    0    0    0    0  0.00000000000E+00  0.00000000000E+00  0.45593999997E+02  0.45594000000E+02  0.51100000000E-03 0.  1.
         11   -1    0    0    0    0 -0.00000000000E+00 -0.00000000000E+00 -0.45593999997E+02  0.45594000000E+02  0.51100000000E-03 0. -1.
    9900012    2    1    2    0    0 -0.11572670508E+02  0.78519120871E+01 -0.12453494098E+02  0.72461848731E+02  0.70000362714E+02 0.  0.
        -12    1    1    2    0    0  0.11572670508E+02 -0.78519120871E+01  0.12453494098E+02  0.18726151269E+02  0.00000000000E+00 0.  1.
         11    1    3    3    0    0  0.88818069631E+01  0.21386934063E+02  0.20117314548E+01  0.23245096413E+02  0.51100000000E-03 0. -1.
        -11    1    3    3    0    0  0.10778635973E+02 -0.10667664800E+02 -0.81736207809E+01  0.17227482192E+02  0.51100000000E-03 0.  1.
        -12    1    3    3    0    0 -0.31233113444E+02 -0.28673571757E+01 -0.62916047723E+01  0.31989270126E+02  0.00000000000E+00 0.  1.
</event>
<event>
 7    1  0.2489154E-013  0.7246158E+02  0.7816164E-02  0.1226708E+00
        -11   -1    0    0    0    0  0.00000000000E+00  0.00000000000E+00  0.45593999997E+02  0.45594000000E+02  0.51100000000E-03 0. -1.
         11   -1    0    0    0    0 -0.00000000000E+00 -0.00000000000E+00 -0.45593999997E+02  0.45594000000E+02  0.51100000000E-03 0.  1.
    9900012    2    1    2    0    0  0.50684915523E+00  0.10578443789E+02 -0.15444045632E+02  0.72461577102E+02  0.70000008869E+02 0.  0.
        -12    1    1    2    0    0 -0.50684915523E+00 -0.10578443789E+02  0.15444045632E+02  0.18726422898E+02  0.00000000000E+00 0.  1.
         11    1    3    3    0    0  0.13101782047E+02  0.83895524190E+01 -0.39236033272E+00  0.15562622834E+02  0.51100000000E-03 0. -1.
        -11    1    3    3    0    0  0.75352599258E+01 -0.10845571945E+02 -0.27036338670E+02  0.30089369915E+02  0.51100000000E-03 0.  1.
         12    1    3    3    0    0 -0.20130192817E+02  0.13034463315E+02  0.11984653371E+02  0.26809584353E+02  0.00000000000E+00 0. -1.
</event>
<event>
 7    1  0.2489154E-013  0.7246160E+02  0.7816164E-02  0.1226708E+00
        -11   -1    0    0    0    0  0.00000000000E+00  0.00000000000E+00  0.45593999997E+02  0.45594000000E+02  0.51100000000E-03 0.  1.
         11   -1    0    0    0    0 -0.00000000000E+00 -0.00000000000E+00 -0.45593999997E+02  0.45594000000E+02  0.51100000000E-03 0. -1.
    9900012    2    1    2    0    0  0.68592979597E+01  0.58841294648E+01 -0.16401379088E+02  0.72461596607E+02  0.70000034277E+02 0.  0.
        -12    1    1    2    0    0 -0.68592979597E+01 -0.58841294648E+01  0.16401379088E+02  0.18726403393E+02  0.00000000000E+00 0.  1.
         11    1    3    3    0    0  0.17365526237E+01 -0.22105295881E+01  0.12625540479E+02  0.12934694768E+02  0.51100000000E-03 0.  1.
        -11    1    3    3    0    0 -0.10714349724E+02 -0.14964995829E+02 -0.25328116784E+02  0.31309134294E+02  0.51100000000E-03 0. -1.
         12    1    3    3    0    0  0.15837095059E+02  0.23059654882E+02 -0.36988027834E+01  0.28217767545E+02  0.00000000000E+00 0. -1.
</event>
<event>
 7    1  0.2489154E-013  0.7246159E+02  0.7816164E-02  0.1226708E+00
        -11   -1    0    0    0    0  0.00000000000E+00  0.00000000000E+00  0.45593999997E+02  0.45594000000E+02  0.51100000000E-03 0.  1.
         11   -1    0    0    0    0 -0.00000000000E+00 -0.00000000000E+00 -0.45593999997E+02  0.45594000000E+02  0.51100000000E-03 0. -1.
    9900012    2    1    2    0    0 -0.47668051865E+01  0.14776545511E+02 -0.10469458867E+02  0.72461593567E+02  0.70000030318E+02 0.  0.
        -12    1    1    2    0    0  0.47668051865E+01 -0.14776545511E+02  0.10469458867E+02  0.18726406433E+02  0.00000000000E+00 0.  1.
         11    1    3    3    0    0 -0.29382659426E+02  0.21769925662E+02  0.21399631099E+01  0.36631267800E+02  0.51100000000E-03 0.  1.
        -11    1    3    3    0    0  0.25779700712E+01 -0.17355407336E+01 -0.12801267557E+02  0.13173096928E+02  0.51100000000E-03 0. -1.
        -12    1    3    3    0    0  0.22037884168E+02 -0.52578394181E+01  0.19184558080E+00  0.22657228840E+02  0.00000000000E+00 0.  1.
</event>
<event>
 7    1  0.2489154E-013  0.7246155E+02  0.7816164E-02  0.1226708E+00
        -11   -1    0    0    0    0  0.00000000000E+00  0.00000000000E+00  0.45593999997E+02  0.45594000000E+02  0.51100000000E-03 0. -1.
         11   -1    0    0    0    0 -0.00000000000E+00 -0.00000000000E+00 -0.45593999997E+02  0.45594000000E+02  0.51100000000E-03 0.  1.
    9900012    2    1    2    0    0  0.96194296568E+01  0.18017505291E+01  0.15965598276E+02  0.72461546513E+02  0.69999969020E+02 0.  0.
        -12    1    1    2    0    0 -0.96194296568E+01 -0.18017505291E+01 -0.15965598276E+02  0.18726453487E+02  0.00000000000E+00 0.  1.
         11    1    3    3    0    0 -0.10420741221E+02  0.35601587031E+01 -0.57980257074E+01  0.12445227195E+02  0.51100000000E-03 0. -1.
        -11    1    3    3    0    0  0.98297683834E+01  0.18902153800E+02 -0.76610996585E+01  0.22640852744E+02  0.51100000000E-03 0.  1.
         12    1    3    3    0    0  0.10210402494E+02 -0.20660561974E+02  0.29424723642E+02  0.37375466573E+02  0.00000000000E+00 0. -1.
</event>
<event>
 7    1  0.2489154E-013  0.7246145E+02  0.7816164E-02  0.1226708E+00
        -11   -1    0    0    0    0  0.00000000000E+00  0.00000000000E+00  0.45593999997E+02  0.45594000000E+02  0.51100000000E-03 0.  1.
         11   -1    0    0    0    0 -0.00000000000E+00 -0.00000000000E+00 -0.45593999997E+02  0.45594000000E+02  0.51100000000E-03 0. -1.
    9900012    2    1    2    0    0 -0.14454123929E+02  0.97516749139E+01  0.68312987666E+01  0.72461454536E+02  0.69999849203E+02 0.  0.
        -12    1    1    2    0    0  0.14454123929E+02 -0.97516749139E+01 -0.68312987666E+01  0.18726545464E+02  0.00000000000E+00 0.  1.
         11    1    3    3    0    0  0.14477484414E+02 -0.56346375842E+01 -0.72490308931E+01  0.17143370288E+02  0.51100000000E-03 0. -1.
        -11    1    3    3    0    0 -0.15345368618E+02 -0.12964678859E+02  0.12867229835E+02  0.23856421355E+02  0.51100000000E-03 0.  1.
         12    1    3    3    0    0 -0.13586239725E+02  0.28350991358E+02  0.12130998245E+01  0.31461662893E+02  0.00000000000E+00 0. -1.
</event>
<event>
 7    1  0.2489154E-013  0.7246159E+02  0.7816164E-02  0.1226708E+00
        -11   -1    0    0    0    0  0.00000000000E+00  0.00000000000E+00  0.45593999997E+02  0.45594000000E+02  0.51100000000E-03 0. -1.
         11   -1    0    0    0    0 -0.00000000000E+00 -0.00000000000E+00 -0.45593999997E+02  0.45594000000E+02  0.51100000000E-03 0.  1.
    9900012    2    1    2    0    0 -0.18506111401E+02  0.28490662879E+01 -0.29175099510E+00  0.72461589331E+02  0.70000024798E+02 0.  0.
        -12    1    1    2    0    0  0.18506111401E+02 -0.28490662879E+01  0.29175099510E+00  0.18726410669E+02  0.00000000000E+00 0.  1.
         11    1    3    3    0    0 -0.63373711050E+01 -0.12043664348E+02 -0.35014371648E+01  0.14052479708E+02  0.51100000000E-03 0. -1.
        -11    1    3    3    0    0 -0.13041139898E+02 -0.16714643964E+01 -0.23523267516E+02  0.26948269665E+02  0.51100000000E-03 0.  1.
         12    1    3    3    0    0  0.87239960184E+00  0.16564195032E+02  0.26732953685E+02  0.31460839958E+02  0.00000000000E+00 0. -1.
</event>
<event>
 7    1  0.2489154E-013  0.7246158E+02  0.7816164E-02  0.1226708E+00
        -11   -1    0    0    0    0  0.00000000000E+00  0.00000000000E+00  0.45593999997E+02  0.45594000000E+02  0.51100000000E-03 0.  1.
         11   -1    0    0    0    0 -0.00000000000E+00 -0.00000000000E+00 -0.45593999997E+02  0.45594000000E+02  0.51100000000E-03 0. -1.
    9900012    2    1    2    0    0  0.17741010307E+02 -0.12332675638E+01  0.58663759667E+01  0.72461581160E+02  0.70000014154E+02 0.  0.
        -12    1    1    2    0    0 -0.17741010307E+02  0.12332675638E+01 -0.58663759667E+01  0.18726418840E+02  0.00000000000E+00 0.  1.
         11    1    3    3    0    0  0.26082958108E+02  0.83487232722E+01 -0.92010865366E+01  0.28890861490E+02  0.51100000000E-03 0. -1.
        -11    1    3    3    0    0 -0.12631035367E+01  0.82946955725E+01  0.21673052704E+02  0.23240452210E+02  0.51100000000E-03 0.  1.
        -12    1    3    3    0    0 -0.70788442638E+01 -0.17876686409E+02 -0.66055902005E+01  0.20330267459E+02  0.00000000000E+00 0.  1.
</event>
<event>
 7    1  0.2489154E-013  0.7246154E+02  0.7816164E-02  0.1226708E+00
        -11   -1    0    0    0    0  0.00000000000E+00  0.00000000000E+00  0.45593999997E+02  0.45594000000E+02  0.51100000000E-03 0. -1.
         11   -1    0    0    0    0 -0.00000000000E+00 -0.00000000000E+00 -0.45593999997E+02  0.45594000000E+02  0.51100000000E-03 0.  1.
    9900012    2    1    2    0    0 -0.54175359924E+01 -0.74383150046E+01  0.16309566601E+02  0.72461543073E+02  0.69999964539E+02 0.  0.
        -12    1    1    2    0    0  0.54175359924E+01  0.74383150046E+01 -0.16309566601E+02  0.18726456927E+02  0.00000000000E+00 0.  1.
         11    1    3    3    0    0 -0.11487242077E+02 -0.27675784044E+02  0.13030554268E+02  0.32675695827E+02  0.51100000000E-03 0. -1.
        -11    1    3    3    0    0  0.18777632563E+02  0.43581514850E+01  0.75429656280E+00  0.19291498973E+02  0.51100000000E-03 0.  1.
         12    1    3    3    0    0 -0.12707926479E+02  0.15879317555E+02  0.25247157702E+01  0.20494348273E+02  0.00000000000E+00 0. -1.
</event>
<event>
 7    1  0.2489154E-013  0.7246153E+02  0.7816164E-02  0.1226708E+00
        -11   -1    0    0    0    0  0.00000000000E+00  0.00000000000E+00  0.45593999997E+02  0.45594000000E+02  0.51100000000E-03 0.  1.
         11   -1    0    0    0    0 -0.00000000000E+00 -0.00000000000E+00 -0.45593999997E+02  0.45594000000E+02  0.51100000000E-03 0. -1.
    9900012    2    1    2    0    0 -0.17386970260E+02 -0.69550449479E+01 -0.34040685200E-01  0.72461533600E+02  0.69999952199E+02 0.  0.
        -12    1    1    2    0    0  0.17386970260E+02  0.69550449479E+01  0.34040685200E-01  0.18726466400E+02  0.00000000000E+00 0.  1.
         11    1    3    3    0    0 -0.26339108815E+02  0.53481097331E+01 -0.17011221385E+02  0.31807744091E+02  0.51100000000E-03 0. -1.
        -11    1    3    3    0    0  0.58903487894E+01  0.10495553516E+02 -0.47695285942E-01  0.12035577575E+02  0.51100000000E-03 0.  1.
        -12    1    3    3    0    0  0.30617897653E+01 -0.22798708197E+02  0.17024875986E+02  0.28618211935E+02  0.00000000000E+00 0.  1.
</event>
<event>
 7    1  0.2489154E-013  0.7246134E+02  0.7816164E-02  0.1226709E+00
        -11   -1    0    0    0    0  0.00000000000E+00  0.00000000000E+00  0.45593999997E+02  0.45594000000E+02  0.51100000000E-03 0.  1.
         11   -1    0    0    0    0 -0.00000000000E+00 -0.00000000000E+00 -0.45593999997E+02  0.45594000000E+02  0.51100000000E-03 0. -1.
    9900012    2    1    2    0    0 -0.34593036302E+01  0.61059371289E+01 -0.17361990069E+02  0.72461335882E+02  0.69999694634E+02 0.  0.
        -12    1    1    2    0    0  0.34593036302E+01 -0.61059371289E+01  0.17361990069E+02  0.18726664118E+02  0.00000000000E+00 0.  1.
         11    1    3    3    0    0 -0.41200228992E+01 -0.88161721489E+01  0.92091987864E+00  0.97748439237E+01  0.51100000000E-03 0. -1.
        -11    1    3    3    0    0 -0.25780896858E+02 -0.56218971052E+01 -0.63584275499E+01  0.27142033288E+02  0.51100000000E-03 0.  1.
         12    1    3    3    0    0  0.26441616127E+02  0.20544006383E+02 -0.11924482398E+02  0.35544458670E+02  0.00000000000E+00 0. -1.
</event>
<event>
 7    1  0.2489154E-013  0.7246155E+02  0.7816164E-02  0.1226708E+00
        -11   -1    0    0    0    0  0.00000000000E+00  0.00000000000E+00  0.45593999997E+02  0.45594000000E+02  0.51100000000E-03 0. -1.
         11   -1    0    0    0    0 -0.00000000000E+00 -0.00000000000E+00 -0.45593999997E+02  0.45594000000E+02  0.51100000000E-03 0.  1.
    9900012    2    1    2    0    0  0.11462646020E+01 -0.16038223378E+02 -0.95990266388E+01  0.72461552284E+02  0.69999976538E+02 0.  0.
        -12    1    1    2    0    0 -0.11462646020E+01  0.16038223378E+02  0.95990266388E+01  0.18726447716E+02  0.00000000000E+00 0.  1.
         11    1    3    3    0    0 -0.12567583871E+02 -0.49088810905E+01 -0.13077929301E+02  0.18790250477E+02  0.51100000000E-03 0. -1.
        -11    1    3    3    0    0 -0.14263934224E+02  0.10744483677E+02 -0.94665253652E+00  0.17882949989E+02  0.51100000000E-03 0.  1.
         12    1    3    3    0    0  0.27977782697E+02 -0.21873825965E+02  0.44255551989E+01  0.35788351817E+02  0.00000000000E+00 0. -1.
</event>
<event>
 7    1  0.2489154E-013  0.7246157E+02  0.7816164E-02  0.1226708E+00
        -11   -1    0    0    0    0  0.00000000000E+00  0.00000000000E+00  0.45593999997E+02  0.45594000000E+02  0.51100000000E-03 0. -1.
         11   -1    0    0    0    0 -0.00000000000E+00 -0.00000000000E+00 -0.45593999997E+02  0.45594000000E+02  0.51100000000E-03 0.  1.
    9900012    2    1    2    0    0  0.20908435323E+01 -0.55611284072E+00  0.18601030410E+02  0.72461568934E+02  0.69999998228E+02 0.  0.
        -12    1    1    2    0    0 -0.20908435323E+01  0.55611284072E+00 -0.18601030410E+02  0.18726431066E+02  0.00000000000E+00 0.  1.
         11    1    3    3    0    0  0.29850210920E+00 -0.53329398310E+01 -0.52129402078E+01  0.74635177110E+01  0.51100000000E-03 0. -1.
        -11    1    3    3    0    0  0.21861551328E+02  0.23928661100E+02  0.94626063438E+01  0.33764614133E+02  0.51100000000E-03 0.  1.
         12    1    3    3    0    0 -0.20069209904E+02 -0.19151834109E+02  0.14351364274E+02  0.31233437090E+02  0.00000000000E+00 0. -1.
</event>
<event>
 7    1  0.2489154E-013  0.7246161E+02  0.7816164E-02  0.1226708E+00
        -11   -1    0    0    0    0  0.00000000000E+00  0.00000000000E+00  0.45593999997E+02  0.45594000000E+02  0.51100000000E-03 0.  1.
         11   -1    0    0    0    0 -0.00000000000E+00 -0.00000000000E+00 -0.45593999997E+02  0.45594000000E+02  0.51100000000E-03 0. -1.
    9900012    2    1    2    0    0  0.16711627565E+02 -0.83861977166E+01  0.10347811820E+01  0.72461612732E+02  0.70000055283E+02 0.  0.
        -12    1    1    2    0    0 -0.16711627565E+02  0.83861977166E+01 -0.10347811820E+01  0.18726387268E+02  0.00000000000E+00 0.  1.
         11    1    3    3    0    0  0.18732448796E+02 -0.10634551159E+02  0.10020241505E+01  0.21563913581E+02  0.51100000000E-03 0. -1.
        -11    1    3    3    0    0 -0.11256177932E+02  0.35101821845E+01  0.23145754113E+02  0.25975928363E+02  0.51100000000E-03 0.  1.
         12    1    3    3    0    0  0.92353567011E+01 -0.12618287418E+01 -0.23112997081E+02  0.24921770789E+02  0.00000000000E+00 0. -1.
</event>
<event>
 7    1  0.2489154E-013  0.7246157E+02  0.7816164E-02  0.1226708E+00
        -11   -1    0    0    0    0  0.00000000000E+00  0.00000000000E+00  0.45593999997E+02  0.45594000000E+02  0.51100000000E-03 0.  1.
         11   -1    0    0    0    0 -0.00000000000E+00 -0.00000000000E+00 -0.45593999997E+02  0.45594000000E+02  0.51100000000E-03 0. -1.
    9900012    2    1    2    0    0 -0.10331969837E+02  0.56269397844E+01 -0.14569388059E+02  0.72461571604E+02  0.70000001706E+02 0.  0.
        -12    1    1    2    0    0  0.10331969837E+02 -0.56269397844E+01  0.14569388059E+02  0.18726428396E+02  0.00000000000E+00 0.  1.
         11    1    3    3    0    0  0.90955115303E+01  0.95622415173E+01 -0.17251554753E+02  0.21720518743E+02  0.51100000000E-03 0. -1.
        -11    1    3    3    0    0  0.84016146450E-01 -0.12966139354E+02 -0.17143851445E+02  0.21495103421E+02  0.51100000000E-03 0.  1.
        -12    1    3    3    0    0 -0.19511497514E+02  0.90308376215E+01  0.19826018138E+02  0.29245949439E+02  0.00000000000E+00 0.  1.
</event>
<event>
 7    1  0.2489154E-013  0.7246163E+02  0.7816164E-02  0.1226708E+00
        -11   -1    0    0    0    0  0.00000000000E+00  0.00000000000E+00  0.45593999997E+02  0.45594000000E+02  0.51100000000E-03 0. -1.
         11   -1    0    0    0    0 -0.00000000000E+00 -0.00000000000E+00 -0.45593999997E+02  0.45594000000E+02  0.51100000000E-03 0.  1.
    9900012    2    1    2    0    0  0.18577803810E+00 -0.26447442630E+01  0.18537740478E+02  0.72461628015E+02  0.70000075192E+02 0.  0.
        -12    1    1    2    0    0 -0.18577803810E+00  0.26447442630E+01 -0.18537740478E+02  0.18726371985E+02  0.00000000000E+00 0.  1.
         11    1    3    3    0    0  0.33662640029E+01 -0.21723382948E+02  0.11288077707E+02  0.24711491226E+02  0.51100000000E-03 0. -1.
        -11    1    3    3    0    0 -0.12065260392E+02 -0.10582842261E+02  0.48492542511E+00  0.16056220339E+02  0.51100000000E-03 0.  1.
         12    1    3    3    0    0  0.88847744275E+01  0.29661480946E+02  0.67647373461E+01  0.31693916450E+02  0.00000000000E+00 0. -1.
</event>
<event>
 7    1  0.2489154E-013  0.7246157E+02  0.7816164E-02  0.1226708E+00
        -11   -1    0    0    0    0  0.00000000000E+00  0.00000000000E+00  0.45593999997E+02  0.45594000000E+02  0.51100000000E-03 0.  1.
         11   -1    0    0    0    0 -0.00000000000E+00 -0.00000000000E+00 -0.45593999997E+02  0.45594000000E+02  0.51100000000E-03 0. -1.
    9900012    2    1    2    0    0  0.48896742633E+01  0.18002489815E+02  0.16372527000E+01  0.72461570806E+02  0.70000000667E+02 0.  0.
        -12    1    1    2    0    0 -0.48896742633E+01 -0.18002489815E+02 -0.16372527000E+01  0.18726429194E+02  0.00000000000E+00 0.  1.
         11    1    3    3    0    0  0.23652588805E+02  0.27266122637E+02 -0.67514128130E+01  0.36721492018E+02  0.51100000000E-03 0. -1.
        -11    1    3    3    0    0 -0.80680053204E+01  0.42108987979E+01  0.14805770482E+02  0.17379160462E+02  0.51100000000E-03 0.  1.
        -12    1    3    3    0    0 -0.10694909221E+02 -0.13474531619E+02 -0.64171049685E+01  0.18360918326E+02  0.00000000000E+00 0.  1.
</event>
<event>
 7    1  0.2489154E-013  0.7246155E+02  0.7816164E-02  0.1226708E+00
        -11   -1    0    0    0    0  0.00000000000E+00  0.00000000000E+00  0.45593999997E+02  0.45594000000E+02  0.51100000000E-03 0. -1.
         11   -1    0    0    0    0 -0.00000000000E+00 -0.00000000000E+00 -0.45593999997E+02  0.45594000000E+02  0.51100000000E-03 0.  1.
    9900012    2    1    2    0    0 -0.68675001604E+01 -0.12844212913E+02 -0.11770460278E+02  0.72461545478E+02  0.69999967672E+02 0.  0.
        -12    1    1    2    0    0  0.68675001604E+01  0.12844212913E+02  0.11770460278E+02  0.18726454522E+02  0.00000000000E+00 0.  1.
         11    1    3    3    0    0 -0.16010831099E+02 -0.51925494072E+01 -0.13166705901E+02  0.21369871931E+02  0.51100000000E-03 0. -1.
        -11    1    3    3    0    0  0.26874759174E+01  0.21175608535E+02 -0.15623597369E+01  0.21402567412E+02  0.51100000000E-03 0.  1.
         12    1    3    3    0    0  0.64558550214E+01 -0.28827272041E+02  0.29586053592E+01  0.29689106134E+02  0.00000000000E+00 0. -1.
</event>
<event>
 7    1  0.2489154E-013  0.7246179E+02  0.7816164E-02  0.1226707E+00
        -11   -1    0    0    0    0  0.00000000000E+00  0.00000000000E+00  0.45593999997E+02  0.45594000000E+02  0.51100000000E-03 0. -1.
         11   -1    0    0    0    0 -0.00000000000E+00 -0.00000000000E+00 -0.45593999997E+02  0.45594000000E+02  0.51100000000E-03 0.  1.
    9900012    2    1    2    0    0  0.63568172090E+01  0.16757508505E+02 -0.54265790330E+01  0.72461789056E+02  0.70000284977E+02 0.  0.
        -12    1    1    2    0    0 -0.63568172090E+01 -0.16757508505E+02  0.54265790330E+01  0.18726210944E+02  0.00000000000E+00 0.  1.
         11    1    3    3    0    0 -0.91049112867E+01 -0.99369916288E+01  0.15604968477E+02  0.20619365984E+02  0.51100000000E-03 0. -1.
        -11    1    3    3    0    0  0.10439748114E+02  0.42248247525E+01  0.87050392718E+01  0.14234296395E+02  0.51100000000E-03 0.  1.
        -12    1    3    3    0    0  0.50219803812E+01  0.22469675381E+02 -0.29736586782E+02  0.37608126676E+02  0.00000000000E+00 0.  1.
</event>
<event>
 7    1  0.2489154E-013  0.7246101E+02  0.7816164E-02  0.1226710E+00
        -11   -1    0    0    0    0  0.00000000000E+00  0.00000000000E+00  0.45593999997E+02  0.45594000000E+02  0.51100000000E-03 0.  1.
         11   -1    0    0    0    0 -0.00000000000E+00 -0.00000000000E+00 -0.45593999997E+02  0.45594000000E+02  0.51100000000E-03 0. -1.
    9900012    2    1    2    0    0  0.52794984383E+01 -0.17697953920E+02 -0.30999414442E+01  0.72461005749E+02  0.69999264571E+02 0.  0.
        -12    1    1    2    0    0 -0.52794984383E+01  0.17697953920E+02  0.30999414442E+01  0.18726994251E+02  0.00000000000E+00 0.  1.
         11    1    3    3    0    0  0.73765238794E+01 -0.40289732564E+01 -0.17261238439E+02  0.19198856287E+02  0.51100000000E-03 0. -1.
        -11    1    3    3    0    0  0.21538680048E+02  0.82752993310E+00  0.13683038236E+02  0.25530865235E+02  0.51100000000E-03 0.  1.
         12    1    3    3    0    0 -0.23635705489E+02 -0.14496510596E+02  0.47825875788E+00  0.27731284227E+02  0.00000000000E+00 0. -1.
</event>
<event>
 7    1  0.2489154E-013  0.7246188E+02  0.7816164E-02  0.1226707E+00
        -11   -1    0    0    0    0  0.00000000000E+00  0.00000000000E+00  0.45593999997E+02  0.45594000000E+02  0.51100000000E-03 0. -1.
         11   -1    0    0    0    0 -0.00000000000E+00 -0.00000000000E+00 -0.45593999997E+02  0.45594000000E+02  0.51100000000E-03 0.  1.
    9900012    2    1    2    0    0  0.11080146252E+02 -0.17647212361E+01  0.14992791385E+02  0.72461877189E+02  0.70000399786E+02 0.  0.
        -12    1    1    2    0    0 -0.11080146252E+02  0.17647212361E+01 -0.14992791385E+02  0.18726122811E+02  0.00000000000E+00 0.  1.
         11    1    3    3    0    0  0.13738982213E+02 -0.10345984102E+02 -0.57835405622E+01  0.18145202148E+02  0.51100000000E-03 0. -1.
        -11    1    3    3    0    0 -0.12373459602E+02 -0.18000131529E+02  0.79461698803E+01  0.23243253938E+02  0.51100000000E-03 0.  1.
         12    1    3    3    0    0  0.97146236412E+01  0.26581394394E+02  0.12830162067E+02  0.31073421104E+02  0.00000000000E+00 0. -1.
</event>
<event>
 7    1  0.2489154E-013  0.7246194E+02  0.7816164E-02  0.1226707E+00
        -11   -1    0    0    0    0  0.00000000000E+00  0.00000000000E+00  0.45593999997E+02  0.45594000000E+02  0.51100000000E-03 0.  1.
         11   -1    0    0    0    0 -0.00000000000E+00 -0.00000000000E+00 -0.45593999997E+02  0.45594000000E+02  0.51100000000E-03 0. -1.
    9900012    2    1    2    0    0 -0.15921622340E+02 -0.77089663780E+01  0.61432059785E+01  0.72461943281E+02  0.70000485882E+02 0.  0.
        -12    1    1    2    0    0  0.15921622340E+02  0.77089663780E+01 -0.61432059785E+01  0.18726056719E+02  0.00000000000E+00 0.  1.
         11    1    3    3    0    0  0.13323270463E+01  0.82152093868E+01 -0.19120187806E+02  0.20852969635E+02  0.51100000000E-03 0. -1.
        -11    1    3    3    0    0  0.13112337013E+00  0.49680121418E+01 -0.75263881481E+01  0.90191383622E+01  0.51100000000E-03 0.  1.
        -12    1    3    3    0    0 -0.17385072756E+02 -0.20892187907E+02  0.32789781932E+02  0.42589835283E+02  0.00000000000E+00 0.  1.
</event>
<event>
 7    1  0.2489154E-013  0.7246159E+02  0.7816164E-02  0.1226708E+00
        -11   -1    0    0    0    0  0.00000000000E+00  0.00000000000E+00  0.45593999997E+02  0.45594000000E+02  0.51100000000E-03 0. -1.
         11   -1    0    0    0    0 -0.00000000000E+00 -0.00000000000E+00 -0.45593999997E+02  0.45594000000E+02  0.51100000000E-03 0.  1.
    9900012    2    1    2    0    0  0.31314459486E+01  0.47119495601E+01  0.17851328920E+02  0.72461591732E+02  0.70000027927E+02 0.  0.
        -12    1    1    2    0    0 -0.31314459486E+01 -0.47119495601E+01 -0.17851328920E+02  0.18726408268E+02  0.00000000000E+00 0.  1.
         11    1    3    3    0    0  0.53563522543E+01 -0.11007751186E+02 -0.85240254986E+01  0.14917107850E+02  0.51100000000E-03 0. -1.
        -11    1    3    3    0    0  0.57803128994E+01 -0.14433290256E+02 -0.16144082490E+01  0.15631321092E+02  0.51100000000E-03 0.  1.
         12    1    3    3    0    0 -0.80052192051E+01  0.30152991002E+02  0.27989762668E+02  0.41913162790E+02  0.00000000000E+00 0. -1.
</event>
<event>
 7    1  0.2489154E-013  0.7246201E+02  0.7816164E-02  0.1226707E+00
        -11   -1    0    0    0    0  0.00000000000E+00  0.00000000000E+00  0.45593999997E+02  0.45594000000E+02  0.51100000000E-03 0.  1.
         11   -1    0    0    0    0 -0.00000000000E+00 -0.00000000000E+00 -0.45593999997E+02  0.45594000000E+02  0.51100000000E-03 0. -1.
    9900012    2    1    2    0    0  0.98715593335E+01 -0.12441277584E+02 -0.99211769005E+01  0.72462006763E+02  0.70000568580E+02 0.  0.
        -12    1    1    2    0    0 -0.98715593335E+01  0.12441277584E+02  0.99211769005E+01  0.18725993237E+02  0.00000000000E+00 0.  1.
         11    1    3    3    0    0  0.21826352616E+02 -0.34708835202E+01 -0.45065631016E+01  0.22555394304E+02  0.51100000000E-03 0. -1.
        -11    1    3    3    0    0  0.43438733394E+01  0.16128548046E+02 -0.10241736828E+02  0.19593174096E+02  0.51100000000E-03 0.  1.
         12    1    3    3    0    0 -0.16298666622E+02 -0.25098942110E+02  0.48271230293E+01  0.30313438364E+02  0.00000000000E+00 0. -1.
</event>
<event>
 7    1  0.2489154E-013  0.7246157E+02  0.7816164E-02  0.1226708E+00
        -11   -1    0    0    0    0  0.00000000000E+00  0.00000000000E+00  0.45593999997E+02  0.45594000000E+02  0.51100000000E-03 0. -1.
         11   -1    0    0    0    0 -0.00000000000E+00 -0.00000000000E+00 -0.45593999997E+02  0.45594000000E+02  0.51100000000E-03 0.  1.
    9900012    2    1    2    0    0 -0.16076015627E+02  0.26220909758E+01  0.92393512900E+01  0.72461568098E+02  0.69999997139E+02 0.  0.
        -12    1    1    2    0    0  0.16076015627E+02 -0.26220909758E+01 -0.92393512900E+01  0.18726431902E+02  0.00000000000E+00 0.  1.
         11    1    3    3    0    0  0.84900204061E+01 -0.84320682583E+01  0.98973101871E+01  0.15528585602E+02  0.51100000000E-03 0. -1.
        -11    1    3    3    0    0  0.14818583690E+02  0.92412418211E+01  0.76814616176E+00  0.17480875887E+02  0.51100000000E-03 0.  1.
         12    1    3    3    0    0 -0.39384619723E+02  0.18129174130E+01 -0.14261050589E+01  0.39452106609E+02  0.00000000000E+00 0. -1.
</event>
<event>
 7    1  0.2489154E-013  0.7246147E+02  0.7816164E-02  0.1226708E+00
        -11   -1    0    0    0    0  0.00000000000E+00  0.00000000000E+00  0.45593999997E+02  0.45594000000E+02  0.51100000000E-03 0.  1.
         11   -1    0    0    0    0 -0.00000000000E+00 -0.00000000000E+00 -0.45593999997E+02  0.45594000000E+02  0.51100000000E-03 0. -1.
    9900012    2    1    2    0    0  0.12251963120E+02  0.84354307668E+01 -0.11376112926E+02  0.72461467010E+02  0.69999865453E+02 0.  0.
        -12    1    1    2    0    0 -0.12251963120E+02 -0.84354307668E+01  0.11376112926E+02  0.18726532990E+02  0.00000000000E+00 0.  1.
         11    1    3    3    0    0 -0.33485578145E+01 -0.14907542057E+02 -0.20461527101E+02  0.25536674435E+02  0.51100000000E-03 0. -1.
        -11    1    3    3    0    0 -0.26195717026E+00 -0.82212149826E+01  0.81607457240E+01  0.11586835995E+02  0.51100000000E-03 0.  1.
        -12    1    3    3    0    0  0.15862478105E+02  0.31564187806E+02  0.92466845171E+00  0.35337956580E+02  0.00000000000E+00 0.  1.
</event>
<event>
 7    1  0.2489154E-013  0.7246156E+02  0.7816164E-02  0.1226708E+00
        -11   -1    0    0    0    0  0.00000000000E+00  0.00000000000E+00  0.45593999997E+02  0.45594000000E+02  0.51100000000E-03 0.  1.
         11   -1    0    0    0    0 -0.00000000000E+00 -0.00000000000E+00 -0.45593999997E+02  0.45594000000E+02  0.51100000000E-03 0. -1.
    9900012    2    1    2    0    0 -0.13517464614E+02 -0.76723300757E+01 -0.10444754312E+02  0.72461564381E+02  0.69999992296E+02 0.  0.
        -12    1    1    2    0    0  0.13517464614E+02  0.76723300757E+01  0.10444754312E+02  0.18726435619E+02  0.00000000000E+00 0.  1.
         11    1    3    3    0    0  0.13464789557E+02 -0.15698286908E+02 -0.21011966820E+02  0.29482868239E+02  0.51100000000E-03 0. -1.
        -11    1    3    3    0    0 -0.49140450426E+01 -0.10138964917E+02 -0.25151136956E+01  0.11544359897E+02  0.51100000000E-03 0.  1.
        -12    1    3    3    0    0 -0.22068209128E+02  0.18164921749E+02  0.13082326204E+02  0.31434336245E+02  0.00000000000E+00 0.  1.
</event>
<event>
 7    1  0.2489154E-013  0.7246162E+02  0.7816164E-02  0.1226708E+00
        -11   -1    0    0    0    0  0.00000000000E+00  0.00000000000E+00  0.45593999997E+02  0.45594000000E+02  0.51100000000E-03 0. -1.
         11   -1    0    0    0    0 -0.00000000000E+00 -0.00000000000E+00 -0.45593999997E+02  0.45594000000E+02  0.51100000000E-03 0.  1.
    9900012    2    1    2    0    0 -0.16884401331E+02  0.27470618519E+01  0.76189165822E+01  0.72461621626E+02  0.70000066869E+02 0.  0.
        -12    1    1    2    0    0  0.16884401331E+02 -0.27470618519E+01 -0.76189165822E+01  0.18726378374E+02  0.00000000000E+00 0.  1.
         11    1    3    3    0    0  0.70806904919E+01 -0.11038266741E+01 -0.82395637104E+01  0.10919936885E+02  0.51100000000E-03 0. -1.
        -11    1    3    3    0    0 -0.24777845814E+02 -0.59480741360E+01 -0.14715425407E+02  0.29425583669E+02  0.51100000000E-03 0.  1.
         12    1    3    3    0    0  0.81275399103E+00  0.97989626620E+01  0.30573905700E+02  0.32116101072E+02  0.00000000000E+00 0. -1.
</event>
<event>
 7    1  0.2489154E-013  0.7246167E+02  0.7816164E-02  0.1226708E+00
        -11   -1    0    0    0    0  0.00000000000E+00  0.00000000000E+00  0.45593999997E+02  0.45594000000E+02  0.51100000000E-03 0. -1.
         11   -1    0    0    0    0 -0.00000000000E+00 -0.00000000000E+00 -0.45593999997E+02  0.45594000000E+02  0.51100000000E-03 0.  1.
    9900012    2    1    2    0    0  0.70240104391E+01  0.86465771091E+01  0.15052425588E+02  0.72461667352E+02  0.70000126435E+02 0.  0.
        -12    1    1    2    0    0 -0.70240104391E+01 -0.86465771091E+01 -0.15052425588E+02  0.18726332648E+02  0.00000000000E+00 0.  1.
         11    1    3    3    0    0  0.10462338749E+02  0.41824016995E+01  0.51024974122E+01  0.12368851854E+02  0.51100000000E-03 0. -1.
        -11    1    3    3    0    0 -0.27094501374E+02  0.13955024979E+02 -0.44769049814E+01  0.30804178375E+02  0.51100000000E-03 0.  1.
         12    1    3    3    0    0  0.23656173064E+02 -0.94908495699E+01  0.14426833157E+02  0.29288637123E+02  0.00000000000E+00 0. -1.
</event>
<event>
 7    1  0.2489154E-013  0.7246160E+02  0.7816164E-02  0.1226708E+00
        -11   -1    0    0    0    0  0.00000000000E+00  0.00000000000E+00  0.45593999997E+02  0.45594000000E+02  0.51100000000E-03 0. -1.
         11   -1    0    0    0    0 -0.00000000000E+00 -0.00000000000E+00 -0.45593999997E+02  0.45594000000E+02  0.51100000000E-03 0.  1.
    9900012    2    1    2    0    0 -0.69026544915E+01 -0.16684841907E+02  0.49646305280E+01  0.72461597656E+02  0.70000035643E+02 0.  0.
        -12    1    1    2    0    0  0.69026544915E+01  0.16684841907E+02 -0.49646305280E+01  0.18726402344E+02  0.00000000000E+00 0.  1.
         11    1    3    3    0    0 -0.13088470006E+02  0.22031782478E+02  0.13531407187E+02  0.28979414538E+02  0.51100000000E-03 0. -1.
        -11    1    3    3    0    0 -0.53349011553E+01 -0.13470626494E+02 -0.57547860321E+01  0.15589628316E+02  0.51100000000E-03 0.  1.
        -12    1    3    3    0    0  0.11520716670E+02 -0.25245997891E+02 -0.28119906269E+01  0.27892554802E+02  0.00000000000E+00 0.  1.
</event>
<event>
 7    1  0.2489154E-013  0.7246160E+02  0.7816164E-02  0.1226708E+00
        -11   -1    0    0    0    0  0.00000000000E+00  0.00000000000E+00  0.45593999997E+02  0.45594000000E+02  0.51100000000E-03 0. -1.
         11   -1    0    0    0    0 -0.00000000000E+00 -0.00000000000E+00 -0.45593999997E+02  0.45594000000E+02  0.51100000000E-03 0.  1.
    9900012    2    1    2    0    0 -0.13874990222E+02  0.42148274122E+01  0.11848956771E+02  0.72461604182E+02  0.70000044145E+02 0.  0.
        -12    1    1    2    0    0  0.13874990222E+02 -0.42148274122E+01 -0.11848956771E+02  0.18726395818E+02  0.00000000000E+00 0.  1.
         11    1    3    3    0    0 -0.26912821024E+01  0.96247623755E+01  0.37742903819E+01  0.10682898403E+02  0.51100000000E-03 0. -1.
        -11    1    3    3    0    0  0.78952806322E+00 -0.22356660139E+02  0.26041898862E+02  0.34331095289E+02  0.51100000000E-03 0.  1.
         12    1    3    3    0    0 -0.11973236182E+02  0.16946725176E+02 -0.17967232473E+02  0.27447610490E+02  0.00000000000E+00 0. -1.
</event>
<event>
 7    1  0.2489154E-013  0.7246158E+02  0.7816164E-02  0.1226708E+00
        -11   -1    0    0    0    0  0.00000000000E+00  0.00000000000E+00  0.45593999997E+02  0.45594000000E+02  0.51100000000E-03 0. -1.
         11   -1    0    0    0    0 -0.00000000000E+00 -0.00000000000E+00 -0.45593999997E+02  0.45594000000E+02  0.51100000000E-03 0.  1.
    9900012    2    1    2    0    0  0.11960651585E+02 -0.30829346518E+01  0.14075410740E+02  0.72461578561E+02  0.70000010769E+02 0.  0.
        -12    1    1    2    0    0 -0.11960651585E+02  0.30829346518E+01 -0.14075410740E+02  0.18726421439E+02  0.00000000000E+00 0.  1.
         11    1    3    3    0    0  0.50393976595E+01  0.85091224321E+01  0.70305957029E+01  0.12133835730E+02  0.51100000000E-03 0. -1.
        -11    1    3    3    0    0 -0.23149188816E+02 -0.13044722942E+02 -0.64388607957E+01  0.27340604750E+02  0.51100000000E-03 0.  1.
         12    1    3    3    0    0  0.30070442742E+02  0.14526658578E+01  0.13483675833E+02  0.32987138081E+02  0.00000000000E+00 0. -1.
</event>
<event>
 7    1  0.2489154E-013  0.7246146E+02  0.7816164E-02  0.1226708E+00
        -11   -1    0    0    0    0  0.00000000000E+00  0.00000000000E+00  0.45593999997E+02  0.45594000000E+02  0.51100000000E-03 0.  1.
         11   -1    0    0    0    0 -0.00000000000E+00 -0.00000000000E+00 -0.45593999997E+02  0.45594000000E+02  0.51100000000E-03 0. -1.
    9900012    2    1    2    0    0 -0.31142906975E+01 -0.35110224539E+01 -0.18128906288E+02  0.72461459251E+02  0.69999855346E+02 0.  0.
        -12    1    1    2    0    0  0.31142906975E+01  0.35110224539E+01  0.18128906288E+02  0.18726540749E+02  0.00000000000E+00 0.  1.
         11    1    3    3    0    0 -0.31365677568E+02  0.53189868306E+01 -0.21643719020E+02  0.38477888761E+02  0.51100000000E-03 0. -1.
        -11    1    3    3    0    0  0.14009205758E+02  0.21747734140E+01  0.67413272789E+01  0.15698183943E+02  0.51100000000E-03 0.  1.
        -12    1    3    3    0    0  0.14242181113E+02 -0.11004782699E+02 -0.32265145462E+01  0.18285386548E+02  0.00000000000E+00 0.  1.
</event>
<event>
 7    1  0.2489154E-013  0.7246157E+02  0.7816164E-02  0.1226708E+00
        -11   -1    0    0    0    0  0.00000000000E+00  0.00000000000E+00  0.45593999997E+02  0.45594000000E+02  0.51100000000E-03 0. -1.
         11   -1    0    0    0    0 -0.00000000000E+00 -0.00000000000E+00 -0.45593999997E+02  0.45594000000E+02  0.51100000000E-03 0.  1.
    9900012    2    1    2    0    0 -0.65585267407E+00 -0.13326597282E+02  0.13139671325E+02  0.72461566800E+02  0.69999995449E+02 0.  0.
        -12    1    1    2    0    0  0.65585267407E+00  0.13326597282E+02 -0.13139671325E+02  0.18726433200E+02  0.00000000000E+00 0.  1.
         11    1    3    3    0    0  0.18984495442E+02 -0.57642387644E+01 -0.20158974498E+02  0.28284656066E+02  0.51100000000E-03 0. -1.
        -11    1    3    3    0    0  0.17429358807E+01 -0.21892870207E+01 -0.13509152841E+01  0.31073743754E+01  0.51100000000E-03 0.  1.
        -12    1    3    3    0    0 -0.21383283996E+02 -0.53730714967E+01  0.34649561108E+02  0.41069536359E+02  0.00000000000E+00 0.  1.
</event>
<event>
 7    1  0.2489154E-013  0.7246164E+02  0.7816164E-02  0.1226708E+00
        -11   -1    0    0    0    0  0.00000000000E+00  0.00000000000E+00  0.45593999997E+02  0.45594000000E+02  0.51100000000E-03 0.  1.
         11   -1    0    0    0    0 -0.00000000000E+00 -0.00000000000E+00 -0.45593999997E+02  0.45594000000E+02  0.51100000000E-03 0. -1.
    9900012    2    1    2    0    0 -0.12266439956E+02  0.88643442512E+01 -0.11028792570E+02  0.72461643875E+02  0.70000095852E+02 0.  0.
        -12    1    1    2    0    0  0.12266439956E+02 -0.88643442512E+01  0.11028792570E+02  0.18726356125E+02  0.00000000000E+00 0.  1.
         11    1    3    3    0    0 -0.30734054042E+02  0.98432984118E+00 -0.27889559608E+02  0.41513594382E+02  0.51100000000E-03 0. -1.
        -11    1    3    3    0    0  0.18981293944E+01  0.24451259482E+01  0.12630431372E+02  0.13004204436E+02  0.51100000000E-03 0.  1.
        -12    1    3    3    0    0  0.16569484692E+02  0.54348884618E+01  0.42303356667E+01  0.17943845056E+02  0.00000000000E+00 0.  1.
</event>
<event>
 7    1  0.2489154E-013  0.7246153E+02  0.7816164E-02  0.1226708E+00
        -11   -1    0    0    0    0  0.00000000000E+00  0.00000000000E+00  0.45593999997E+02  0.45594000000E+02  0.51100000000E-03 0. -1.
         11   -1    0    0    0    0 -0.00000000000E+00 -0.00000000000E+00 -0.45593999997E+02  0.45594000000E+02  0.51100000000E-03 0.  1.
    9900012    2    1    2    0    0  0.14067673980E+02 -0.57162114079E+01  0.10959287953E+02  0.72461534329E+02  0.69999953149E+02 0.  0.
        -12    1    1    2    0    0 -0.14067673980E+02  0.57162114079E+01 -0.10959287953E+02  0.18726465671E+02  0.00000000000E+00 0.  1.
         11    1    3    3    0    0  0.25633781414E+02 -0.47340043321E+01 -0.69192727333E+01  0.26969944050E+02  0.51100000000E-03 0. -1.
        -11    1    3    3    0    0 -0.11944113586E+01 -0.19951695400E+02  0.10941007996E+02  0.22786013782E+02  0.51100000000E-03 0.  1.
        -12    1    3    3    0    0 -0.10371696075E+02  0.18969488324E+02  0.69375526907E+01  0.22705576498E+02  0.00000000000E+00 0.  1.
</event>
<event>
 7    1  0.2489154E-013  0.7246155E+02  0.7816164E-02  0.1226708E+00
        -11   -1    0    0    0    0  0.00000000000E+00  0.00000000000E+00  0.45593999997E+02  0.45594000000E+02  0.51100000000E-03 0.  1.
         11   -1    0    0    0    0 -0.00000000000E+00 -0.00000000000E+00 -0.45593999997E+02  0.45594000000E+02  0.51100000000E-03 0. -1.
    9900012    2    1    2    0    0  0.35362745948E+01 -0.15490817921E+02  0.99100674524E+01  0.72461545056E+02  0.69999967122E+02 0.  0.
        -12    1    1    2    0    0 -0.35362745948E+01  0.15490817921E+02 -0.99100674524E+01  0.18726454944E+02  0.00000000000E+00 0.  1.
         11    1    3    3    0    0 -0.11194285284E+02  0.14017194286E+02  0.48071755904E+01  0.18571556103E+02  0.51100000000E-03 0. -1.
        -11    1    3    3    0    0  0.47613695296E+01 -0.24991617892E+02  0.22082937648E+02  0.33688391771E+02  0.51100000000E-03 0.  1.
        -12    1    3    3    0    0  0.99691903488E+01 -0.45163943148E+01 -0.16980045786E+02  0.20201597182E+02  0.00000000000E+00 0.  1.
</event>
<event>
 7    1  0.2489154E-013  0.7246143E+02  0.7816164E-02  0.1226708E+00
        -11   -1    0    0    0    0  0.00000000000E+00  0.00000000000E+00  0.45593999997E+02  0.45594000000E+02  0.51100000000E-03 0. -1.
         11   -1    0    0    0    0 -0.00000000000E+00 -0.00000000000E+00 -0.45593999997E+02  0.45594000000E+02  0.51100000000E-03 0.  1.
    9900012    2    1    2    0    0  0.17529740595E+02  0.44888155749E+01  0.48211064590E+01  0.72461432293E+02  0.69999820227E+02 0.  0.
        -12    1    1    2    0    0 -0.17529740595E+02 -0.44888155749E+01 -0.48211064590E+01  0.18726567707E+02  0.00000000000E+00 0.  1.
         11    1    3    3    0    0 -0.79165562679E+01 -0.67919836164E+00  0.13294869508E+02  0.15488277150E+02  0.51100000000E-03 0. -1.
        -11    1    3    3    0    0  0.30610782850E+02 -0.29417893888E+01  0.13044897590E+02  0.33404243816E+02  0.51100000000E-03 0.  1.
        -12    1    3    3    0    0 -0.51644859872E+01  0.81098033253E+01 -0.21518660639E+02  0.23568911328E+02  0.00000000000E+00 0.  1.
</event>
<event>
 7    1  0.2489154E-013  0.7246161E+02  0.7816164E-02  0.1226708E+00
        -11   -1    0    0    0    0  0.00000000000E+00  0.00000000000E+00  0.45593999997E+02  0.45594000000E+02  0.51100000000E-03 0.  1.
         11   -1    0    0    0    0 -0.00000000000E+00 -0.00000000000E+00 -0.45593999997E+02  0.45594000000E+02  0.51100000000E-03 0. -1.
    9900012    2    1    2    0    0 -0.73043056211E+01  0.84147147187E+01  0.15050497427E+02  0.72461607470E+02  0.70000048428E+02 0.  0.
        -12    1    1    2    0    0  0.73043056211E+01 -0.84147147187E+01 -0.15050497427E+02  0.18726392530E+02  0.00000000000E+00 0.  1.
         11    1    3    3    0    0 -0.11052906492E+02 -0.60330844226E+01 -0.38507302221E+01  0.13167876559E+02  0.51100000000E-03 0. -1.
        -11    1    3    3    0    0  0.24770499975E+02 -0.26813670776E+01  0.20303859341E+02  0.32140536754E+02  0.51100000000E-03 0.  1.
         12    1    3    3    0    0 -0.21021899104E+02  0.17129166219E+02 -0.14026316925E+01  0.27153194158E+02  0.00000000000E+00 0. -1.
</event>
<event>
 7    1  0.2489154E-013  0.7246155E+02  0.7816164E-02  0.1226708E+00
        -11   -1    0    0    0    0  0.00000000000E+00  0.00000000000E+00  0.45593999997E+02  0.45594000000E+02  0.51100000000E-03 0. -1.
         11   -1    0    0    0    0 -0.00000000000E+00 -0.00000000000E+00 -0.45593999997E+02  0.45594000000E+02  0.51100000000E-03 0.  1.
    9900012    2    1    2    0    0  0.33128031515E+01  0.65661989306E+01  0.17221796354E+02  0.72461550716E+02  0.69999974496E+02 0.  0.
        -12    1    1    2    0    0 -0.33128031515E+01 -0.65661989306E+01 -0.17221796354E+02  0.18726449284E+02  0.00000000000E+00 0.  1.
         11    1    3    3    0    0 -0.25390388316E+02  0.37739622403E+01  0.17142127862E+01  0.25726506478E+02  0.51100000000E-03 0. -1.
        -11    1    3    3    0    0  0.51167096670E-01  0.24392691944E+01  0.17821348119E+02  0.17987581864E+02  0.51100000000E-03 0.  1.
        -12    1    3    3    0    0  0.28652024370E+02  0.35296749602E+00 -0.23137645516E+01  0.28747462375E+02  0.00000000000E+00 0.  1.
</event>
<event>
 7    1  0.2489154E-013  0.7246145E+02  0.7816164E-02  0.1226708E+00
        -11   -1    0    0    0    0  0.00000000000E+00  0.00000000000E+00  0.45593999997E+02  0.45594000000E+02  0.51100000000E-03 0.  1.
         11   -1    0    0    0    0 -0.00000000000E+00 -0.00000000000E+00 -0.45593999997E+02  0.45594000000E+02  0.51100000000E-03 0. -1.
    9900012    2    1    2    0    0 -0.18386695028E+02  0.35334423442E+01 -0.35763108431E+00  0.72461450162E+02  0.69999843505E+02 0.  0.
        -12    1    1    2    0    0  0.18386695028E+02 -0.35334423442E+01  0.35763108431E+00  0.18726549838E+02  0.00000000000E+00 0.  1.
         11    1    3    3    0    0  0.41037586660E+01 -0.35352626180E+00  0.52157515619E+00  0.41518498180E+01  0.51100000000E-03 0. -1.
        -11    1    3    3    0    0 -0.26067095998E+01  0.94263661439E+01  0.29782717649E+02  0.31347433459E+02  0.51100000000E-03 0.  1.
         12    1    3    3    0    0 -0.19883744094E+02 -0.55393975378E+01 -0.30661923890E+02  0.36962166886E+02  0.00000000000E+00 0. -1.
</event>
<event>
 7    1  0.2489154E-013  0.7246160E+02  0.7816164E-02  0.1226708E+00
        -11   -1    0    0    0    0  0.00000000000E+00  0.00000000000E+00  0.45593999997E+02  0.45594000000E+02  0.51100000000E-03 0. -1.
         11   -1    0    0    0    0 -0.00000000000E+00 -0.00000000000E+00 -0.45593999997E+02  0.45594000000E+02  0.51100000000E-03 0.  1.
    9900012    2    1    2    0    0 -0.24589869243E+01 -0.15457320389E+02  0.10281187973E+02  0.72461596276E+02  0.70000033846E+02 0.  0.
        -12    1    1    2    0    0  0.24589869243E+01  0.15457320389E+02 -0.10281187973E+02  0.18726403724E+02  0.00000000000E+00 0.  1.
         11    1    3    3    0    0  0.12440420251E+02  0.30784606653E+01  0.31396676955E+02  0.33911536388E+02  0.51100000000E-03 0. -1.
        -11    1    3    3    0    0 -0.66446856024E+01  0.42994582430E+01 -0.42226386775E+01  0.89703882636E+01  0.51100000000E-03 0.  1.
        -12    1    3    3    0    0 -0.82547215732E+01 -0.22835239297E+02 -0.16892850305E+02  0.29579671625E+02  0.00000000000E+00 0.  1.
</event>
<event>
 7    1  0.2489154E-013  0.7246156E+02  0.7816164E-02  0.1226708E+00
        -11   -1    0    0    0    0  0.00000000000E+00  0.00000000000E+00  0.45593999997E+02  0.45594000000E+02  0.51100000000E-03 0.  1.
         11   -1    0    0    0    0 -0.00000000000E+00 -0.00000000000E+00 -0.45593999997E+02  0.45594000000E+02  0.51100000000E-03 0. -1.
    9900012    2    1    2    0    0  0.87445557145E+01  0.41963070697E+01 -0.16018840633E+02  0.72461561394E+02  0.69999988405E+02 0.  0.
        -12    1    1    2    0    0 -0.87445557145E+01 -0.41963070697E+01  0.16018840633E+02  0.18726438606E+02  0.00000000000E+00 0.  1.
         11    1    3    3    0    0  0.88250324921E+01 -0.20848124908E+01 -0.25534853687E+02  0.27097165805E+02  0.51100000000E-03 0. -1.
        -11    1    3    3    0    0 -0.15333232046E+02  0.37777327036E+01 -0.11313659801E+02  0.19426223712E+02  0.51100000000E-03 0.  1.
         12    1    3    3    0    0  0.15252755269E+02  0.25033868569E+01  0.20829672855E+02  0.25938171876E+02  0.00000000000E+00 0. -1.
</event>
<event>
 7    1  0.2489154E-013  0.7246125E+02  0.7816164E-02  0.1226709E+00
        -11   -1    0    0    0    0  0.00000000000E+00  0.00000000000E+00  0.45593999997E+02  0.45594000000E+02  0.51100000000E-03 0.  1.
         11   -1    0    0    0    0 -0.00000000000E+00 -0.00000000000E+00 -0.45593999997E+02  0.45594000000E+02  0.51100000000E-03 0. -1.
    9900012    2    1    2    0    0  0.38437148403E+01 -0.71923150877E+01 -0.16857867458E+02  0.72461248138E+02  0.69999580330E+02 0.  0.
        -12    1    1    2    0    0 -0.38437148403E+01  0.71923150877E+01  0.16857867458E+02  0.18726751862E+02  0.00000000000E+00 0.  1.
         11    1    3    3    0    0 -0.88853049699E+01 -0.11185361925E+02 -0.22892850667E+02  0.26984135667E+02  0.51100000000E-03 0. -1.
        -11    1    3    3    0    0 -0.74835117537E+01 -0.14387112176E+02  0.80072343670E+01  0.18086120297E+02  0.51100000000E-03 0.  1.
         12    1    3    3    0    0  0.20212531564E+02  0.18380159013E+02 -0.19722511576E+01  0.27390992173E+02  0.00000000000E+00 0. -1.
</event>
<event>
 7    1  0.2489154E-013  0.7246153E+02  0.7816164E-02  0.1226708E+00
        -11   -1    0    0    0    0  0.00000000000E+00  0.00000000000E+00  0.45593999997E+02  0.45594000000E+02  0.51100000000E-03 0. -1.
         11   -1    0    0    0    0 -0.00000000000E+00 -0.00000000000E+00 -0.45593999997E+02  0.45594000000E+02  0.51100000000E-03 0.  1.
    9900012    2    1    2    0    0 -0.18566643573E+02  0.19395083763E+01  0.14827576608E+01  0.72461534327E+02  0.69999953146E+02 0.  0.
        -12    1    1    2    0    0  0.18566643573E+02 -0.19395083763E+01 -0.14827576608E+01  0.18726465673E+02  0.00000000000E+00 0.  1.
         11    1    3    3    0    0 -0.32188829820E+00  0.71243280346E+01  0.50150047769E+01  0.87183676910E+01  0.51100000000E-03 0. -1.
        -11    1    3    3    0    0 -0.10694906945E+02  0.25564796054E+02 -0.13119792547E+02  0.30660541231E+02  0.51100000000E-03 0.  1.
         12    1    3    3    0    0 -0.75498483303E+01 -0.30749615713E+02  0.95875454313E+01  0.33082625405E+02  0.00000000000E+00 0. -1.
</event>
<event>
 7    1  0.2489154E-013  0.7246168E+02  0.7816164E-02  0.1226708E+00
        -11   -1    0    0    0    0  0.00000000000E+00  0.00000000000E+00  0.45593999997E+02  0.45594000000E+02  0.51100000000E-03 0.  1.
         11   -1    0    0    0    0 -0.00000000000E+00 -0.00000000000E+00 -0.45593999997E+02  0.45594000000E+02  0.51100000000E-03 0. -1.
    9900012    2    1    2    0    0 -0.67913434073E+01 -0.16804737156E+02 -0.47067597003E+01  0.72461678337E+02  0.70000140746E+02 0.  0.
        -12    1    1    2    0    0  0.67913434073E+01  0.16804737156E+02  0.47067597003E+01  0.18726321663E+02  0.00000000000E+00 0.  1.
         11    1    3    3    0    0 -0.98487760794E+01 -0.65054824771E+01 -0.24564453605E+02  0.27253111267E+02  0.51100000000E-03 0. -1.
        -11    1    3    3    0    0 -0.23516565454E+01  0.14734281905E+02  0.59368338558E+01  0.16058497696E+02  0.51100000000E-03 0.  1.
        -12    1    3    3    0    0  0.54090892175E+01 -0.25033536583E+02  0.13920860049E+02  0.29150069375E+02  0.00000000000E+00 0.  1.
</event>
<event>
 7    1  0.2489154E-013  0.7246162E+02  0.7816164E-02  0.1226708E+00
        -11   -1    0    0    0    0  0.00000000000E+00  0.00000000000E+00  0.45593999997E+02  0.45594000000E+02  0.51100000000E-03 0.  1.
         11   -1    0    0    0    0 -0.00000000000E+00 -0.00000000000E+00 -0.45593999997E+02  0.45594000000E+02  0.51100000000E-03 0. -1.
    9900012    2    1    2    0    0 -0.15277922413E+02 -0.49555591308E+01 -0.96283413596E+01  0.72461616556E+02  0.70000060264E+02 0.  0.
        -12    1    1    2    0    0  0.15277922413E+02  0.49555591308E+01  0.96283413596E+01  0.18726383444E+02  0.00000000000E+00 0.  1.
         11    1    3    3    0    0  0.10889230074E+02  0.28137700452E+00 -0.13026109327E+02  0.16980401323E+02  0.51100000000E-03 0. -1.
        -11    1    3    3    0    0  0.23272892303E+01  0.17550126609E+01 -0.18589764002E+02  0.18816898536E+02  0.51100000000E-03 0.  1.
        -12    1    3    3    0    0 -0.28494441718E+02 -0.69919487962E+01  0.21987531969E+02  0.36664316697E+02  0.00000000000E+00 0.  1.
</event>
<event>
 7    1  0.2489154E-013  0.7246155E+02  0.7816164E-02  0.1226708E+00
        -11   -1    0    0    0    0  0.00000000000E+00  0.00000000000E+00  0.45593999997E+02  0.45594000000E+02  0.51100000000E-03 0. -1.
         11   -1    0    0    0    0 -0.00000000000E+00 -0.00000000000E+00 -0.45593999997E+02  0.45594000000E+02  0.51100000000E-03 0.  1.
    9900012    2    1    2    0    0  0.14167603066E+02  0.68554847552E+01  0.10146975210E+02  0.72461554694E+02  0.69999979678E+02 0.  0.
        -12    1    1    2    0    0 -0.14167603066E+02 -0.68554847552E+01 -0.10146975210E+02  0.18726445306E+02  0.00000000000E+00 0.  1.
         11    1    3    3    0    0  0.79273907521E+01 -0.12337664298E+02  0.23510996432E+02  0.27709717392E+02  0.51100000000E-03 0. -1.
        -11    1    3    3    0    0 -0.10001063347E+02 -0.62219826985E+01 -0.76755070080E+01  0.14058724866E+02  0.51100000000E-03 0.  1.
        -12    1    3    3    0    0  0.16241275661E+02  0.25415131752E+02 -0.56885142140E+01  0.30693112436E+02  0.00000000000E+00 0.  1.
</event>
<event>
 7    1  0.2489154E-013  0.7246152E+02  0.7816164E-02  0.1226708E+00
        -11   -1    0    0    0    0  0.00000000000E+00  0.00000000000E+00  0.45593999997E+02  0.45594000000E+02  0.51100000000E-03 0. -1.
         11   -1    0    0    0    0 -0.00000000000E+00 -0.00000000000E+00 -0.45593999997E+02  0.45594000000E+02  0.51100000000E-03 0.  1.
    9900012    2    1    2    0    0  0.77974298036E+01  0.96656409231E+01  0.14016293112E+02  0.72461521458E+02  0.69999936381E+02 0.  0.
        -12    1    1    2    0    0 -0.77974298036E+01 -0.96656409231E+01 -0.14016293112E+02  0.18726478542E+02  0.00000000000E+00 0.  1.
         11    1    3    3    0    0  0.35051850677E+01  0.13955378057E+02 -0.13207723584E+02  0.19531586254E+02  0.51100000000E-03 0. -1.
        -11    1    3    3    0    0  0.83765672905E+01  0.17951195144E+02  0.34290208832E+01  0.20103991423E+02  0.51100000000E-03 0.  1.
         12    1    3    3    0    0 -0.40843225546E+01 -0.22240932278E+02  0.23794995813E+02  0.32825943780E+02  0.00000000000E+00 0. -1.
</event>
<event>
 7    1  0.2489154E-013  0.7246158E+02  0.7816164E-02  0.1226708E+00
        -11   -1    0    0    0    0  0.00000000000E+00  0.00000000000E+00  0.45593999997E+02  0.45594000000E+02  0.51100000000E-03 0. -1.
         11   -1    0    0    0    0 -0.00000000000E+00 -0.00000000000E+00 -0.45593999997E+02  0.45594000000E+02  0.51100000000E-03 0.  1.
    9900012    2    1    2    0    0  0.82435120207E+01 -0.16287475910E+02  0.41762783017E+01  0.72461583835E+02  0.70000017639E+02 0.  0.
        -12    1    1    2    0    0 -0.82435120207E+01  0.16287475910E+02 -0.41762783017E+01  0.18726416165E+02  0.00000000000E+00 0.  1.
         11    1    3    3    0    0 -0.68352559002E+01  0.79652677819E+01  0.33299426603E+01  0.11011572660E+02  0.51100000000E-03 0. -1.
        -11    1    3    3    0    0  0.87236956579E+01 -0.15162590226E+02 -0.26606101598E+02  0.31841665327E+02  0.51100000000E-03 0.  1.
         12    1    3    3    0    0  0.63550722630E+01 -0.90901534657E+01  0.27452437239E+02  0.29608345848E+02  0.00000000000E+00 0. -1.
</event>
<event>
 7    1  0.2489154E-013  0.7246166E+02  0.7816164E-02  0.1226708E+00
        -11   -1    0    0    0    0  0.00000000000E+00  0.00000000000E+00  0.45593999997E+02  0.45594000000E+02  0.51100000000E-03 0. -1.
         11   -1    0    0    0    0 -0.00000000000E+00 -0.00000000000E+00 -0.45593999997E+02  0.45594000000E+02  0.51100000000E-03 0.  1.
    9900012    2    1    2    0    0 -0.73680942469E+00  0.92882525467E+01  0.16243808723E+02  0.72461659051E+02  0.70000115623E+02 0.  0.
        -12    1    1    2    0    0  0.73680942469E+00 -0.92882525467E+01 -0.16243808723E+02  0.18726340949E+02  0.00000000000E+00 0.  1.
         11    1    3    3    0    0  0.71508920397E+01  0.74525608537E+01  0.34483906338E+02  0.35997440421E+02  0.51100000000E-03 0. -1.
        -11    1    3    3    0    0  0.57705434866E+01  0.76684521703E+01  0.34314299348E+01  0.10192106871E+02  0.51100000000E-03 0.  1.
        -12    1    3    3    0    0 -0.13658244951E+02 -0.58327604773E+01 -0.21671527550E+02  0.26272111759E+02  0.00000000000E+00 0.  1.
</event>
<event>
 7    1  0.2489154E-013  0.7246157E+02  0.7816164E-02  0.1226708E+00
        -11   -1    0    0    0    0  0.00000000000E+00  0.00000000000E+00  0.45593999997E+02  0.45594000000E+02  0.51100000000E-03 0.  1.
         11   -1    0    0    0    0 -0.00000000000E+00 -0.00000000000E+00 -0.45593999997E+02  0.45594000000E+02  0.51100000000E-03 0. -1.
    9900012    2    1    2    0    0  0.76040849721E+01  0.16926668081E+02  0.25189270334E+01  0.72461569641E+02  0.69999999149E+02 0.  0.
        -12    1    1    2    0    0 -0.76040849721E+01 -0.16926668081E+02 -0.25189270334E+01  0.18726430359E+02  0.00000000000E+00 0.  1.
         11    1    3    3    0    0  0.57758964751E+01  0.16788698222E+02  0.14799847177E+02  0.23113996730E+02  0.51100000000E-03 0. -1.
        -11    1    3    3    0    0  0.83840472873E+01  0.81023122262E+01  0.15682725291E+02  0.19541944252E+02  0.51100000000E-03 0.  1.
        -12    1    3    3    0    0 -0.65558587903E+01 -0.79643423677E+01 -0.27963645435E+02  0.29805628660E+02  0.00000000000E+00 0.  1.
</event>
<event>
 7    1  0.2489154E-013  0.7246160E+02  0.7816164E-02  0.1226708E+00
        -11   -1    0    0    0    0  0.00000000000E+00  0.00000000000E+00  0.45593999997E+02  0.45594000000E+02  0.51100000000E-03 0.  1.
         11   -1    0    0    0    0 -0.00000000000E+00 -0.00000000000E+00 -0.45593999997E+02  0.45594000000E+02  0.51100000000E-03 0. -1.
    9900012    2    1    2    0    0  0.10869756396E+02  0.15991485200E+01 -0.15164734896E+02  0.72461599797E+02  0.70000038433E+02 0.  0.
        -12    1    1    2    0    0 -0.10869756396E+02 -0.15991485200E+01  0.15164734896E+02  0.18726400203E+02  0.00000000000E+00 0.  1.
         11    1    3    3    0    0 -0.83739866983E+01 -0.15468923517E+02 -0.92540751482E+01  0.19875843506E+02  0.51100000000E-03 0.  1.
        -11    1    3    3    0    0  0.22037988271E+02  0.40117888331E+01  0.15579656220E+02  0.27285400214E+02  0.51100000000E-03 0. -1.
         12    1    3    3    0    0 -0.27942451770E+01  0.13056283203E+02 -0.21490315968E+02  0.25300356076E+02  0.00000000000E+00 0. -1.
</event>
<event>
 7    1  0.2489154E-013  0.7246158E+02  0.7816164E-02  0.1226708E+00
        -11   -1    0    0    0    0  0.00000000000E+00  0.00000000000E+00  0.45593999997E+02  0.45594000000E+02  0.51100000000E-03 0.  1.
         11   -1    0    0    0    0 -0.00000000000E+00 -0.00000000000E+00 -0.45593999997E+02  0.45594000000E+02  0.51100000000E-03 0. -1.
    9900012    2    1    2    0    0  0.13065788692E+02  0.11955754727E+02  0.60847310517E+01  0.72461578634E+02  0.70000010864E+02 0.  0.
        -12    1    1    2    0    0 -0.13065788692E+02 -0.11955754727E+02 -0.60847310517E+01  0.18726421366E+02  0.00000000000E+00 0.  1.
         11    1    3    3    0    0  0.11869785140E+02 -0.12233872699E+02 -0.25245188576E+02  0.30461106135E+02  0.51100000000E-03 0. -1.
        -11    1    3    3    0    0 -0.74457709412E+00 -0.53676284353E+00 -0.93099783850E+00  0.13073892441E+01  0.51100000000E-03 0.  1.
        -12    1    3    3    0    0  0.19405806459E+01  0.24726390269E+02  0.32260917466E+02  0.40693083254E+02  0.00000000000E+00 0.  1.
</event>
<event>
 7    1  0.2489154E-013  0.7246155E+02  0.7816164E-02  0.1226708E+00
        -11   -1    0    0    0    0  0.00000000000E+00  0.00000000000E+00  0.45593999997E+02  0.45594000000E+02  0.51100000000E-03 0.  1.
         11   -1    0    0    0    0 -0.00000000000E+00 -0.00000000000E+00 -0.45593999997E+02  0.45594000000E+02  0.51100000000E-03 0. -1.
    9900012    2    1    2    0    0 -0.19039645310E+01  0.18595843469E+02  0.11178284199E+01  0.72461547703E+02  0.69999970571E+02 0.  0.
        -12    1    1    2    0    0  0.19039645310E+01 -0.18595843469E+02 -0.11178284199E+01  0.18726452297E+02  0.00000000000E+00 0.  1.
         11    1    3    3    0    0  0.24490582079E+01 -0.31972123475E+01  0.76554725128E+01  0.86502203762E+01  0.51100000000E-03 0. -1.
        -11    1    3    3    0    0 -0.82071010725E+01 -0.19361799587E+02 -0.78729897772E+01  0.22454838221E+02  0.51100000000E-03 0.  1.
         12    1    3    3    0    0  0.38540783335E+01  0.41154855403E+02  0.13353456843E+01  0.41356489106E+02  0.00000000000E+00 0. -1.
</event>
<event>
 7    1  0.2489154E-013  0.7246157E+02  0.7816164E-02  0.1226708E+00
        -11   -1    0    0    0    0  0.00000000000E+00  0.00000000000E+00  0.45593999997E+02  0.45594000000E+02  0.51100000000E-03 0. -1.
         11   -1    0    0    0    0 -0.00000000000E+00 -0.00000000000E+00 -0.45593999997E+02  0.45594000000E+02  0.51100000000E-03 0.  1.
    9900012    2    1    2    0    0  0.15542577054E+02 -0.30568084403E+01  0.99881649149E+01  0.72461569008E+02  0.69999998324E+02 0.  0.
        -12    1    1    2    0    0 -0.15542577054E+02  0.30568084403E+01 -0.99881649149E+01  0.18726430992E+02  0.00000000000E+00 0.  1.
         11    1    3    3    0    0  0.73631658217E+01 -0.64514210955E+01  0.12581548468E+02  0.15941530892E+02  0.51100000000E-03 0. -1.
        -11    1    3    3    0    0  0.12951704433E+02 -0.19371408565E+02  0.14685421881E+02  0.27543778492E+02  0.51100000000E-03 0.  1.
        -12    1    3    3    0    0 -0.47722932006E+01  0.22766021220E+02 -0.17278805435E+02  0.28976259624E+02  0.00000000000E+00 0.  1.
</event>
<event>
 7    1  0.2489154E-013  0.7246162E+02  0.7816164E-02  0.1226708E+00
        -11   -1    0    0    0    0  0.00000000000E+00  0.00000000000E+00  0.45593999997E+02  0.45594000000E+02  0.51100000000E-03 0.  1.
         11   -1    0    0    0    0 -0.00000000000E+00 -0.00000000000E+00 -0.45593999997E+02  0.45594000000E+02  0.51100000000E-03 0. -1.
    9900012    2    1    2    0    0  0.18274369024E+02 -0.36309320500E+01  0.18817601077E+01  0.72461621496E+02  0.70000066700E+02 0.  0.
        -12    1    1    2    0    0 -0.18274369024E+02  0.36309320500E+01 -0.18817601077E+01  0.18726378504E+02  0.00000000000E+00 0.  1.
         11    1    3    3    0    0  0.94457340644E+01 -0.14996598852E+02 -0.45434438556E+01  0.18296522934E+02  0.51100000000E-03 0.  1.
        -11    1    3    3    0    0 -0.18661187926E+02  0.52345824547E+01  0.15236850349E+02  0.24653648758E+02  0.51100000000E-03 0. -1.
         12    1    3    3    0    0  0.27489822885E+02  0.61310843468E+01 -0.88116463860E+01  0.29511449804E+02  0.00000000000E+00 0. -1.
</event>
<event>
 7    1  0.2489154E-013  0.7246137E+02  0.7816164E-02  0.1226709E+00
        -11   -1    0    0    0    0  0.00000000000E+00  0.00000000000E+00  0.45593999997E+02  0.45594000000E+02  0.51100000000E-03 0. -1.
         11   -1    0    0    0    0 -0.00000000000E+00 -0.00000000000E+00 -0.45593999997E+02  0.45594000000E+02  0.51100000000E-03 0.  1.
    9900012    2    1    2    0    0 -0.14675458756E+02 -0.11130934294E+02  0.33793486054E+01  0.72461366962E+02  0.69999735121E+02 0.  0.
        -12    1    1    2    0    0  0.14675458756E+02  0.11130934294E+02 -0.33793486054E+01  0.18726633038E+02  0.00000000000E+00 0.  1.
         11    1    3    3    0    0 -0.32735997357E+01 -0.25542816608E+01  0.73017835223E+01  0.83998126705E+01  0.51100000000E-03 0. -1.
        -11    1    3    3    0    0 -0.10577972900E+02 -0.33026163000E+02 -0.14269608609E+02  0.37499902443E+02  0.51100000000E-03 0.  1.
         12    1    3    3    0    0 -0.82388612027E+00  0.24449510366E+02  0.10347173692E+02  0.26561651848E+02  0.00000000000E+00 0. -1.
</event>
<event>
 7    1  0.2489154E-013  0.7246157E+02  0.7816164E-02  0.1226708E+00
        -11   -1    0    0    0    0  0.00000000000E+00  0.00000000000E+00  0.45593999997E+02  0.45594000000E+02  0.51100000000E-03 0.  1.
         11   -1    0    0    0    0 -0.00000000000E+00 -0.00000000000E+00 -0.45593999997E+02  0.45594000000E+02  0.51100000000E-03 0. -1.
    9900012    2    1    2    0    0  0.34182574612E+01 -0.18361196081E+02  0.13641861866E+01  0.72461574565E+02  0.70000005564E+02 0.  0.
        -12    1    1    2    0    0 -0.34182574612E+01  0.18361196081E+02 -0.13641861866E+01  0.18726425435E+02  0.00000000000E+00 0.  1.
         11    1    3    3    0    0 -0.21992842372E+01 -0.15373953865E+02 -0.73199344983E+01  0.17169063746E+02  0.51100000000E-03 0. -1.
        -11    1    3    3    0    0  0.20575296532E+02 -0.18037573768E+02 -0.77668334066E+01  0.28443287367E+02  0.51100000000E-03 0.  1.
         12    1    3    3    0    0 -0.14957754833E+02  0.15050331552E+02  0.16450954091E+02  0.26849223452E+02  0.00000000000E+00 0. -1.
</event>
<event>
 7    1  0.2489154E-013  0.7246156E+02  0.7816164E-02  0.1226708E+00
        -11   -1    0    0    0    0  0.00000000000E+00  0.00000000000E+00  0.45593999997E+02  0.45594000000E+02  0.51100000000E-03 0.  1.
         11   -1    0    0    0    0 -0.00000000000E+00 -0.00000000000E+00 -0.45593999997E+02  0.45594000000E+02  0.51100000000E-03 0. -1.
    9900012    2    1    2    0    0  0.15623095176E+02  0.58752862793E+01 -0.84899685516E+01  0.72461557258E+02  0.69999983018E+02 0.  0.
        -12    1    1    2    0    0 -0.15623095176E+02 -0.58752862793E+01  0.84899685516E+01  0.18726442742E+02  0.00000000000E+00 0.  1.
         11    1    3    3    0    0  0.10285485120E+01 -0.30036938320E+00  0.79142349388E+00  0.13320980504E+01  0.51100000000E-03 0. -1.
        -11    1    3    3    0    0  0.21215127695E+01 -0.46585458786E+01  0.28993046947E+02  0.29441461201E+02  0.51100000000E-03 0.  1.
         12    1    3    3    0    0  0.12473033895E+02  0.10834201541E+02 -0.38274438993E+02  0.41687998006E+02  0.00000000000E+00 0. -1.
</event>
<event>
 7    1  0.2489154E-013  0.7246161E+02  0.7816164E-02  0.1226708E+00
        -11   -1    0    0    0    0  0.00000000000E+00  0.00000000000E+00  0.45593999997E+02  0.45594000000E+02  0.51100000000E-03 0. -1.
         11   -1    0    0    0    0 -0.00000000000E+00 -0.00000000000E+00 -0.45593999997E+02  0.45594000000E+02  0.51100000000E-03 0.  1.
    9900012    2    1    2    0    0 -0.14982273279E+02  0.93418829965E+01  0.62400530869E+01  0.72461613455E+02  0.70000056224E+02 0.  0.
        -12    1    1    2    0    0  0.14982273279E+02 -0.93418829965E+01 -0.62400530869E+01  0.18726386545E+02  0.00000000000E+00 0.  1.
         11    1    3    3    0    0 -0.26197073204E+00  0.11381034736E+02 -0.80869334326E+01  0.13964063625E+02  0.51100000000E-03 0.  1.
        -11    1    3    3    0    0 -0.25937412687E+02 -0.21799502123E+02  0.10372879829E+02  0.35433942850E+02  0.51100000000E-03 0. -1.
         12    1    3    3    0    0  0.11217110140E+02  0.19760350383E+02  0.39541066905E+01  0.23063606979E+02  0.00000000000E+00 0. -1.
</event>
<event>
 7    1  0.2489154E-013  0.7246166E+02  0.7816164E-02  0.1226708E+00
        -11   -1    0    0    0    0  0.00000000000E+00  0.00000000000E+00  0.45593999997E+02  0.45594000000E+02  0.51100000000E-03 0.  1.
         11   -1    0    0    0    0 -0.00000000000E+00 -0.00000000000E+00 -0.45593999997E+02  0.45594000000E+02  0.51100000000E-03 0. -1.
    9900012    2    1    2    0    0  0.12304413911E+02 -0.13740078470E+02 -0.32384611057E+01  0.72461655231E+02  0.70000110646E+02 0.  0.
        -12    1    1    2    0    0 -0.12304413911E+02  0.13740078470E+02  0.32384611057E+01  0.18726344769E+02  0.00000000000E+00 0.  1.
         11    1    3    3    0    0 -0.39681215146E+01 -0.42438328114E+00  0.18411670399E+02  0.18839206371E+02  0.51100000000E-03 0. -1.
        -11    1    3    3    0    0  0.13308916886E+01 -0.52408878702E+00  0.13375574599E+02  0.13451837713E+02  0.51100000000E-03 0.  1.
         12    1    3    3    0    0  0.14941643737E+02 -0.12791606402E+02 -0.35025706104E+02  0.40170611148E+02  0.00000000000E+00 0. -1.
</event>
<event>
 7    1  0.2489154E-013  0.7246157E+02  0.7816164E-02  0.1226708E+00
        -11   -1    0    0    0    0  0.00000000000E+00  0.00000000000E+00  0.45593999997E+02  0.45594000000E+02  0.51100000000E-03 0. -1.
         11   -1    0    0    0    0 -0.00000000000E+00 -0.00000000000E+00 -0.45593999997E+02  0.45594000000E+02  0.51100000000E-03 0.  1.
    9900012    2    1    2    0    0 -0.76379421161E+01  0.16016466369E+02  0.59844499730E+01  0.72461574922E+02  0.70000006029E+02 0.  0.
        -12    1    1    2    0    0  0.76379421161E+01 -0.16016466369E+02 -0.59844499730E+01  0.18726425078E+02  0.00000000000E+00 0.  1.
         11    1    3    3    0    0 -0.10574220498E+01  0.20766997105E+02  0.19542095730E+02  0.28535588585E+02  0.51100000000E-03 0. -1.
        -11    1    3    3    0    0 -0.12772767535E+02  0.13074109827E+02 -0.16745666005E+02  0.24788974736E+02  0.51100000000E-03 0.  1.
        -12    1    3    3    0    0  0.61922474686E+01 -0.17824640563E+02  0.31880202482E+01  0.19137011601E+02  0.00000000000E+00 0.  1.
</event>
<event>
 7    1  0.2489154E-013  0.7246157E+02  0.7816164E-02  0.1226708E+00
        -11   -1    0    0    0    0  0.00000000000E+00  0.00000000000E+00  0.45593999997E+02  0.45594000000E+02  0.51100000000E-03 0.  1.
         11   -1    0    0    0    0 -0.00000000000E+00 -0.00000000000E+00 -0.45593999997E+02  0.45594000000E+02  0.51100000000E-03 0. -1.
    9900012    2    1    2    0    0  0.23462532850E+01 -0.18574625278E+02  0.39704005253E+00  0.72461568159E+02  0.69999997218E+02 0.  0.
        -12    1    1    2    0    0 -0.23462532850E+01  0.18574625278E+02 -0.39704005253E+00  0.18726431841E+02  0.00000000000E+00 0.  1.
         11    1    3    3    0    0 -0.18473001896E+01  0.50489798490E+01  0.14943196179E+02  0.15880926541E+02  0.51100000000E-03 0. -1.
        -11    1    3    3    0    0  0.11815107704E+02  0.77304825481E+00  0.13952484604E+02  0.18299349730E+02  0.51100000000E-03 0.  1.
         12    1    3    3    0    0 -0.76215542298E+01 -0.24396653382E+02 -0.28498640730E+02  0.38281291887E+02  0.00000000000E+00 0. -1.
</event>
<event>
 7    1  0.2489154E-013  0.7246156E+02  0.7816164E-02  0.1226708E+00
        -11   -1    0    0    0    0  0.00000000000E+00  0.00000000000E+00  0.45593999997E+02  0.45594000000E+02  0.51100000000E-03 0.  1.
         11   -1    0    0    0    0 -0.00000000000E+00 -0.00000000000E+00 -0.45593999997E+02  0.45594000000E+02  0.51100000000E-03 0. -1.
    9900012    2    1    2    0    0  0.98376410478E+01  0.15830015804E+02 -0.18196025237E+01  0.72461560534E+02  0.69999987285E+02 0.  0.
        -12    1    1    2    0    0 -0.98376410478E+01 -0.15830015804E+02  0.18196025237E+01  0.18726439466E+02  0.00000000000E+00 0.  1.
         11    1    3    3    0    0 -0.89232625873E+01 -0.11812462304E+02 -0.14766046974E+02  0.20909209081E+02  0.51100000000E-03 0. -1.
        -11    1    3    3    0    0 -0.26449727381E+01 -0.63497930520E+01 -0.39958330502E+01  0.79550257457E+01  0.51100000000E-03 0.  1.
        -12    1    3    3    0    0  0.21405876373E+02  0.33992271160E+02  0.16942277501E+02  0.43597325707E+02  0.00000000000E+00 0.  1.
</event>
<event>
 7    1  0.2489154E-013  0.7246159E+02  0.7816164E-02  0.1226708E+00
        -11   -1    0    0    0    0  0.00000000000E+00  0.00000000000E+00  0.45593999997E+02  0.45594000000E+02  0.51100000000E-03 0.  1.
         11   -1    0    0    0    0 -0.00000000000E+00 -0.00000000000E+00 -0.45593999997E+02  0.45594000000E+02  0.51100000000E-03 0. -1.
    9900012    2    1    2    0    0 -0.41597190445E+01  0.12547042719E+02 -0.13264498882E+02  0.72461588862E+02  0.70000024188E+02 0.  0.
        -12    1    1    2    0    0  0.41597190445E+01 -0.12547042719E+02  0.13264498882E+02  0.18726411138E+02  0.00000000000E+00 0.  1.
         11    1    3    3    0    0  0.27073684050E+02  0.12836263212E+02 -0.22202355444E+01  0.30044691169E+02  0.51100000000E-03 0.  1.
        -11    1    3    3    0    0 -0.17141816842E+02  0.12517340634E+02 -0.96736946760E+01  0.23326081328E+02  0.51100000000E-03 0. -1.
        -12    1    3    3    0    0 -0.14091586253E+02 -0.12806561127E+02 -0.13705686616E+01  0.19090816365E+02  0.00000000000E+00 0.  1.
</event>
<event>
 7    1  0.2489154E-013  0.7246117E+02  0.7816164E-02  0.1226709E+00
        -11   -1    0    0    0    0  0.00000000000E+00  0.00000000000E+00  0.45593999997E+02  0.45594000000E+02  0.51100000000E-03 0. -1.
         11   -1    0    0    0    0 -0.00000000000E+00 -0.00000000000E+00 -0.45593999997E+02  0.45594000000E+02  0.51100000000E-03 0.  1.
    9900012    2    1    2    0    0  0.19925460782E+01  0.13039386080E+02  0.13292797858E+02  0.72461166201E+02  0.69999473592E+02 0.  0.
        -12    1    1    2    0    0 -0.19925460782E+01 -0.13039386080E+02 -0.13292797858E+02  0.18726833799E+02  0.00000000000E+00 0.  1.
         11    1    3    3    0    0 -0.22453543420E+02  0.23481367442E+02  0.37844245015E+01  0.32708685362E+02  0.51100000000E-03 0. -1.
        -11    1    3    3    0    0 -0.60072307157E+01  0.94746529977E+00  0.12997698425E+01  0.62188353629E+01  0.51100000000E-03 0.  1.
        -12    1    3    3    0    0  0.30453320214E+02 -0.11389446662E+02  0.82086035142E+01  0.33533645477E+02  0.00000000000E+00 0.  1.
</event>
<event>
 7    1  0.2489154E-013  0.7246158E+02  0.7816164E-02  0.1226708E+00
        -11   -1    0    0    0    0  0.00000000000E+00  0.00000000000E+00  0.45593999997E+02  0.45594000000E+02  0.51100000000E-03 0. -1.
         11   -1    0    0    0    0 -0.00000000000E+00 -0.00000000000E+00 -0.45593999997E+02  0.45594000000E+02  0.51100000000E-03 0.  1.
    9900012    2    1    2    0    0  0.17199649872E+02 -0.21287626262E+01  0.70935993955E+01  0.72461581805E+02  0.70000014994E+02 0.  0.
        -12    1    1    2    0    0 -0.17199649872E+02  0.21287626262E+01 -0.70935993955E+01  0.18726418195E+02  0.00000000000E+00 0.  1.
         11    1    3    3    0    0  0.11584345481E+02 -0.15127285322E+02 -0.84289250112E+01  0.20834552996E+02  0.51100000000E-03 0. -1.
        -11    1    3    3    0    0  0.58322032876E+01 -0.15048038837E+02 -0.49747790760E+01  0.16888057767E+02  0.51100000000E-03 0.  1.
        -12    1    3    3    0    0 -0.21689889633E+00  0.28046561533E+02  0.20497303483E+02  0.34738971041E+02  0.00000000000E+00 0.  1.
</event>
<event>
 7    1  0.2489154E-013  0.7246155E+02  0.7816164E-02  0.1226708E+00
        -11   -1    0    0    0    0  0.00000000000E+00  0.00000000000E+00  0.45593999997E+02  0.45594000000E+02  0.51100000000E-03 0.  1.
         11   -1    0    0    0    0 -0.00000000000E+00 -0.00000000000E+00 -0.45593999997E+02  0.45594000000E+02  0.51100000000E-03 0. -1.
    9900012    2    1    2    0    0 -0.40507158921E+01  0.66823511534E+01 -0.17018161463E+02  0.72461549836E+02  0.69999973349E+02 0.  0.
        -12    1    1    2    0    0  0.40507158921E+01 -0.66823511534E+01  0.17018161463E+02  0.18726450164E+02  0.00000000000E+00 0.  1.
         11    1    3    3    0    0 -0.71633219664E+01 -0.14719080676E+01 -0.63979299169E+00  0.73409148127E+01  0.51100000000E-03 0. -1.
        -11    1    3    3    0    0 -0.16162622076E+02 -0.14781932899E+02  0.11022488914E+02  0.24520015389E+02  0.51100000000E-03 0.  1.
         12    1    3    3    0    0  0.19275228150E+02  0.22936192120E+02 -0.27400857385E+02  0.40600619634E+02  0.00000000000E+00 0. -1.
</event>
<event>
 7    1  0.2489154E-013  0.7246150E+02  0.7816164E-02  0.1226708E+00
        -11   -1    0    0    0    0  0.00000000000E+00  0.00000000000E+00  0.45593999997E+02  0.45594000000E+02  0.51100000000E-03 0.  1.
         11   -1    0    0    0    0 -0.00000000000E+00 -0.00000000000E+00 -0.45593999997E+02  0.45594000000E+02  0.51100000000E-03 0. -1.
    9900012    2    1    2    0    0 -0.10155143646E+02  0.13927061338E+02 -0.73206468778E+01  0.72461498706E+02  0.69999906743E+02 0.  0.
        -12    1    1    2    0    0  0.10155143646E+02 -0.13927061338E+02  0.73206468778E+01  0.18726501294E+02  0.00000000000E+00 0.  1.
         11    1    3    3    0    0 -0.10767732064E+01 -0.43110114541E+01  0.39909413450E+00  0.44613379926E+01  0.51100000000E-03 0. -1.
        -11    1    3    3    0    0 -0.21429370618E+02 -0.10563566759E+02  0.15950939689E+02  0.28726979392E+02  0.51100000000E-03 0.  1.
         12    1    3    3    0    0  0.12351000178E+02  0.28801639551E+02 -0.23670680702E+02  0.39273181322E+02  0.00000000000E+00 0. -1.
</event>
<event>
 7    1  0.2489154E-013  0.7246142E+02  0.7816164E-02  0.1226708E+00
        -11   -1    0    0    0    0  0.00000000000E+00  0.00000000000E+00  0.45593999997E+02  0.45594000000E+02  0.51100000000E-03 0. -1.
         11   -1    0    0    0    0 -0.00000000000E+00 -0.00000000000E+00 -0.45593999997E+02  0.45594000000E+02  0.51100000000E-03 0.  1.
    9900012    2    1    2    0    0  0.61464894364E+01 -0.11241989586E+02  0.13657341738E+02  0.72461424083E+02  0.69999809532E+02 0.  0.
        -12    1    1    2    0    0 -0.61464894364E+01  0.11241989586E+02 -0.13657341738E+02  0.18726575917E+02  0.00000000000E+00 0.  1.
         11    1    3    3    0    0  0.14476466034E+02  0.55368123686E+01 -0.54130794166E+01  0.16417240605E+02  0.51100000000E-03 0. -1.
        -11    1    3    3    0    0  0.92606594281E+01 -0.96405890689E+01 -0.13083088032E+02  0.18704757773E+02  0.51100000000E-03 0.  1.
         12    1    3    3    0    0 -0.17590636026E+02 -0.71382128860E+01  0.32153509186E+02  0.37339425705E+02  0.00000000000E+00 0. -1.
</event>
<event>
 7    1  0.2489154E-013  0.7246157E+02  0.7816164E-02  0.1226708E+00
        -11   -1    0    0    0    0  0.00000000000E+00  0.00000000000E+00  0.45593999997E+02  0.45594000000E+02  0.51100000000E-03 0.  1.
         11   -1    0    0    0    0 -0.00000000000E+00 -0.00000000000E+00 -0.45593999997E+02  0.45594000000E+02  0.51100000000E-03 0. -1.
    9900012    2    1    2    0    0 -0.53761469442E+01 -0.16710707111E+02  0.65213864107E+01  0.72461570313E+02  0.70000000024E+02 0.  0.
        -12    1    1    2    0    0  0.53761469442E+01  0.16710707111E+02 -0.65213864107E+01  0.18726429687E+02  0.00000000000E+00 0.  1.
         11    1    3    3    0    0 -0.21367196587E+02 -0.12403712014E+01  0.34587725231E+01  0.21680837584E+02  0.51100000000E-03 0. -1.
        -11    1    3    3    0    0 -0.12280769837E+02  0.71767282798E+01  0.30939419000E+01  0.14556620945E+02  0.51100000000E-03 0.  1.
        -12    1    3    3    0    0  0.28271819480E+02 -0.22647064189E+02 -0.31328012437E-01  0.36224111784E+02  0.00000000000E+00 0.  1.
</event>
<event>
 7    1  0.2489154E-013  0.7246153E+02  0.7816164E-02  0.1226708E+00
        -11   -1    0    0    0    0  0.00000000000E+00  0.00000000000E+00  0.45593999997E+02  0.45594000000E+02  0.51100000000E-03 0. -1.
         11   -1    0    0    0    0 -0.00000000000E+00 -0.00000000000E+00 -0.45593999997E+02  0.45594000000E+02  0.51100000000E-03 0.  1.
    9900012    2    1    2    0    0  0.15530715678E+02 -0.76016418837E+01 -0.71897485779E+01  0.72461532810E+02  0.69999951170E+02 0.  0.
        -12    1    1    2    0    0 -0.15530715678E+02  0.76016418837E+01  0.71897485779E+01  0.18726467190E+02  0.00000000000E+00 0.  1.
         11    1    3    3    0    0  0.53378279439E+01 -0.10277256755E+02 -0.12528457049E+02  0.17060968609E+02  0.51100000000E-03 0. -1.
        -11    1    3    3    0    0 -0.28540283162E+01 -0.17002882788E+02  0.20922392068E+02  0.27110698826E+02  0.51100000000E-03 0.  1.
         12    1    3    3    0    0  0.13046916050E+02  0.19678497659E+02 -0.15583683597E+02  0.28289865376E+02  0.00000000000E+00 0. -1.
</event>
<event>
 7    1  0.2489154E-013  0.7246162E+02  0.7816164E-02  0.1226708E+00
        -11   -1    0    0    0    0  0.00000000000E+00  0.00000000000E+00  0.45593999997E+02  0.45594000000E+02  0.51100000000E-03 0.  1.
         11   -1    0    0    0    0 -0.00000000000E+00 -0.00000000000E+00 -0.45593999997E+02  0.45594000000E+02  0.51100000000E-03 0. -1.
    9900012    2    1    2    0    0 -0.14183770974E+02  0.63540845081E+01 -0.10446227972E+02  0.72461616798E+02  0.70000060580E+02 0.  0.
        -12    1    1    2    0    0  0.14183770974E+02 -0.63540845081E+01  0.10446227972E+02  0.18726383202E+02  0.00000000000E+00 0.  1.
         11    1    3    3    0    0  0.54282650809E+01  0.12441520338E+01 -0.14535308373E+02  0.15565640553E+02  0.51100000000E-03 0. -1.
        -11    1    3    3    0    0  0.41155980781E+01  0.82140023584E+01 -0.20573729158E+02  0.22531895482E+02  0.51100000000E-03 0.  1.
        -12    1    3    3    0    0 -0.23727634133E+02 -0.31040698841E+01  0.24662809559E+02  0.34364080764E+02  0.00000000000E+00 0.  1.
</event>
<event>
 7    1  0.2489154E-013  0.7246156E+02  0.7816164E-02  0.1226708E+00
        -11   -1    0    0    0    0  0.00000000000E+00  0.00000000000E+00  0.45593999997E+02  0.45594000000E+02  0.51100000000E-03 0.  1.
         11   -1    0    0    0    0 -0.00000000000E+00 -0.00000000000E+00 -0.45593999997E+02  0.45594000000E+02  0.51100000000E-03 0. -1.
    9900012    2    1    2    0    0 -0.18685533332E+02 -0.14146408337E+00  0.12290465520E+01  0.72461555505E+02  0.69999980734E+02 0.  0.
        -12    1    1    2    0    0  0.18685533332E+02  0.14146408337E+00 -0.12290465520E+01  0.18726444495E+02  0.00000000000E+00 0.  1.
         11    1    3    3    0    0  0.50038335965E+01 -0.94482892525E+01 -0.25794579937E+02  0.27922551367E+02  0.51100000000E-03 0. -1.
        -11    1    3    3    0    0 -0.69699785330E+01  0.12863262874E+02  0.28066861257E+01  0.14897033926E+02  0.51100000000E-03 0.  1.
        -12    1    3    3    0    0 -0.16719388396E+02 -0.35564377053E+01  0.24216940363E+02  0.29641970212E+02  0.00000000000E+00 0.  1.
</event>
<event>
 7    1  0.2489154E-013  0.7246163E+02  0.7816164E-02  0.1226708E+00
        -11   -1    0    0    0    0  0.00000000000E+00  0.00000000000E+00  0.45593999997E+02  0.45594000000E+02  0.51100000000E-03 0.  1.
         11   -1    0    0    0    0 -0.00000000000E+00 -0.00000000000E+00 -0.45593999997E+02  0.45594000000E+02  0.51100000000E-03 0. -1.
    9900012    2    1    2    0    0 -0.10075137528E+02  0.12775819682E+02  0.92707613022E+01  0.72461628758E+02  0.70000076160E+02 0.  0.
        -12    1    1    2    0    0  0.10075137528E+02 -0.12775819682E+02 -0.92707613022E+01  0.18726371242E+02  0.00000000000E+00 0.  1.
         11    1    3    3    0    0  0.91935869875E+01  0.15498274851E+02 -0.19574132882E+02  0.26605737039E+02  0.51100000000E-03 0. -1.
        -11    1    3    3    0    0  0.36564985479E+01  0.26939573365E+01  0.20293269178E+02  0.20795291822E+02  0.51100000000E-03 0.  1.
         12    1    3    3    0    0 -0.22925223063E+02 -0.54164125049E+01  0.85516250062E+01  0.25060599897E+02  0.00000000000E+00 0. -1.
</event>
<event>
 7    1  0.2489154E-013  0.7246138E+02  0.7816164E-02  0.1226709E+00
        -11   -1    0    0    0    0  0.00000000000E+00  0.00000000000E+00  0.45593999997E+02  0.45594000000E+02  0.51100000000E-03 0.  1.
         11   -1    0    0    0    0 -0.00000000000E+00 -0.00000000000E+00 -0.45593999997E+02  0.45594000000E+02  0.51100000000E-03 0. -1.
    9900012    2    1    2    0    0 -0.31678234759E+01  0.15504265605E+00 -0.18456089154E+02  0.72461378023E+02  0.69999749531E+02 0.  0.
        -12    1    1    2    0    0  0.31678234759E+01 -0.15504265605E+00  0.18456089154E+02  0.18726621977E+02  0.00000000000E+00 0.  1.
         11    1    3    3    0    0 -0.13950799520E+01 -0.18853850636E+02 -0.15060874769E+02  0.24171137353E+02  0.51100000000E-03 0. -1.
        -11    1    3    3    0    0  0.11933790862E+02 -0.10011669128E+02 -0.43776477739E+01  0.16180626792E+02  0.51100000000E-03 0.  1.
        -12    1    3    3    0    0 -0.13706534386E+02  0.29020562420E+02  0.98243338881E+00  0.32109613878E+02  0.00000000000E+00 0.  1.
</event>
<event>
 7    1  0.2489154E-013  0.7246151E+02  0.7816164E-02  0.1226708E+00
        -11   -1    0    0    0    0  0.00000000000E+00  0.00000000000E+00  0.45593999997E+02  0.45594000000E+02  0.51100000000E-03 0.  1.
         11   -1    0    0    0    0 -0.00000000000E+00 -0.00000000000E+00 -0.45593999997E+02  0.45594000000E+02  0.51100000000E-03 0. -1.
    9900012    2    1    2    0    0 -0.34580254271E+01 -0.47563270583E+00 -0.18398295873E+02  0.72461509209E+02  0.69999920425E+02 0.  0.
        -12    1    1    2    0    0  0.34580254271E+01  0.47563270583E+00  0.18398295873E+02  0.18726490791E+02  0.00000000000E+00 0.  1.
         11    1    3    3    0    0 -0.16328324589E+01  0.89495448920E+01  0.73620930924E+01  0.11703029974E+02  0.51100000000E-03 0. -1.
        -11    1    3    3    0    0  0.51203088776E+01 -0.17066644158E+02  0.12084821442E+02  0.21529765799E+02  0.51100000000E-03 0.  1.
        -12    1    3    3    0    0 -0.69455018459E+01  0.76414665598E+01 -0.37845210407E+02  0.39228713436E+02  0.00000000000E+00 0.  1.
</event>
<event>
 7    1  0.2489154E-013  0.7246159E+02  0.7816164E-02  0.1226708E+00
        -11   -1    0    0    0    0  0.00000000000E+00  0.00000000000E+00  0.45593999997E+02  0.45594000000E+02  0.51100000000E-03 0.  1.
         11   -1    0    0    0    0 -0.00000000000E+00 -0.00000000000E+00 -0.45593999997E+02  0.45594000000E+02  0.51100000000E-03 0. -1.
    9900012    2    1    2    0    0 -0.21879390461E+01  0.51326141500E+01 -0.17875900060E+02  0.72461585280E+02  0.70000019522E+02 0.  0.
        -12    1    1    2    0    0  0.21879390461E+01 -0.51326141500E+01  0.17875900060E+02  0.18726414720E+02  0.00000000000E+00 0.  1.
         11    1    3    3    0    0  0.12452599568E+01  0.99955603337E+01 -0.15811245040E+02  0.18747196290E+02  0.51100000000E-03 0. -1.
        -11    1    3    3    0    0 -0.14515715263E+02 -0.25550713595E+02 -0.57905585952E+01  0.29951219072E+02  0.51100000000E-03 0.  1.
         12    1    3    3    0    0  0.11082516260E+02  0.20687767411E+02  0.37259035752E+01  0.23763169918E+02  0.00000000000E+00 0. -1.
</event>
<event>
 7    1  0.2489154E-013  0.7246159E+02  0.7816164E-02  0.1226708E+00
        -11   -1    0    0    0    0  0.00000000000E+00  0.00000000000E+00  0.45593999997E+02  0.45594000000E+02  0.51100000000E-03 0.  1.
         11   -1    0    0    0    0 -0.00000000000E+00 -0.00000000000E+00 -0.45593999997E+02  0.45594000000E+02  0.51100000000E-03 0. -1.
    9900012    2    1    2    0    0 -0.15090080569E+02  0.10931014676E+02  0.18656736783E+01  0.72461592130E+02  0.70000028445E+02 0.  0.
        -12    1    1    2    0    0  0.15090080569E+02 -0.10931014676E+02 -0.18656736783E+01  0.18726407870E+02  0.00000000000E+00 0.  1.
         11    1    3    3    0    0  0.93896296052E+01  0.15582838106E+02  0.10161736277E+02  0.20838686906E+02  0.51100000000E-03 0. -1.
        -11    1    3    3    0    0  0.99976797197E+01  0.82135128489E+01  0.26958981784E+01  0.13216779500E+02  0.51100000000E-03 0.  1.
         12    1    3    3    0    0 -0.34477389894E+02 -0.12865336278E+02 -0.10991960777E+02  0.38406125724E+02  0.00000000000E+00 0. -1.
</event>
<event>
 7    1  0.2489154E-013  0.7246156E+02  0.7816164E-02  0.1226708E+00
        -11   -1    0    0    0    0  0.00000000000E+00  0.00000000000E+00  0.45593999997E+02  0.45594000000E+02  0.51100000000E-03 0.  1.
         11   -1    0    0    0    0 -0.00000000000E+00 -0.00000000000E+00 -0.45593999997E+02  0.45594000000E+02  0.51100000000E-03 0. -1.
    9900012    2    1    2    0    0 -0.47131435498E+01  0.15403968339E+02 -0.95490090464E+01  0.72461560496E+02  0.69999987236E+02 0.  0.
        -12    1    1    2    0    0  0.47131435498E+01 -0.15403968339E+02  0.95490090464E+01  0.18726439504E+02  0.00000000000E+00 0.  1.
         11    1    3    3    0    0  0.47505046010E+00  0.99164646502E+01  0.97788920850E+00  0.99758814981E+01  0.51100000000E-03 0. -1.
        -11    1    3    3    0    0 -0.10979824488E+02  0.85831692879E+01  0.23776183789E+02  0.27559649066E+02  0.51100000000E-03 0.  1.
         12    1    3    3    0    0  0.57916304779E+01 -0.30956655990E+01 -0.34303082044E+02  0.34926029932E+02  0.00000000000E+00 0. -1.
</event>
<event>
 7    1  0.2489154E-013  0.7246163E+02  0.7816164E-02  0.1226708E+00
        -11   -1    0    0    0    0  0.00000000000E+00  0.00000000000E+00  0.45593999997E+02  0.45594000000E+02  0.51100000000E-03 0.  1.
         11   -1    0    0    0    0 -0.00000000000E+00 -0.00000000000E+00 -0.45593999997E+02  0.45594000000E+02  0.51100000000E-03 0. -1.
    9900012    2    1    2    0    0 -0.12268781709E+02 -0.11458279780E+02  0.82982925749E+01  0.72461632499E+02  0.70000081033E+02 0.  0.
        -12    1    1    2    0    0  0.12268781709E+02  0.11458279780E+02 -0.82982925749E+01  0.18726367501E+02  0.00000000000E+00 0.  1.
         11    1    3    3    0    0 -0.10738184970E+02  0.62024610348E+01 -0.12587469051E+02  0.17669847671E+02  0.51100000000E-03 0. -1.
        -11    1    3    3    0    0  0.22806403957E+01 -0.27880823510E+02 -0.33895115242E+01  0.28178545542E+02  0.51100000000E-03 0.  1.
         12    1    3    3    0    0 -0.38112371345E+01  0.10220082696E+02  0.24275273150E+02  0.26613239286E+02  0.00000000000E+00 0. -1.
</event>
<event>
 7    1  0.2489154E-013  0.7246149E+02  0.7816164E-02  0.1226708E+00
        -11   -1    0    0    0    0  0.00000000000E+00  0.00000000000E+00  0.45593999997E+02  0.45594000000E+02  0.51100000000E-03 0.  1.
         11   -1    0    0    0    0 -0.00000000000E+00 -0.00000000000E+00 -0.45593999997E+02  0.45594000000E+02  0.51100000000E-03 0. -1.
    9900012    2    1    2    0    0  0.16516832954E+02  0.70921580228E+01 -0.52514563874E+01  0.72461487499E+02  0.69999892144E+02 0.  0.
        -12    1    1    2    0    0 -0.16516832954E+02 -0.70921580228E+01  0.52514563874E+01  0.18726512501E+02  0.00000000000E+00 0.  1.
         11    1    3    3    0    0 -0.42714028654E+01 -0.58649817092E+01 -0.31810874873E+02  0.32627820236E+02  0.51100000000E-03 0. -1.
        -11    1    3    3    0    0  0.15513214195E+01 -0.21464937041E+01 -0.11387055418E+01  0.28828256868E+01  0.51100000000E-03 0.  1.
         12    1    3    3    0    0  0.19236914400E+02  0.15103633436E+02  0.27698124027E+02  0.36950841577E+02  0.00000000000E+00 0. -1.
</event>
<event>
 7    1  0.2489154E-013  0.7246156E+02  0.7816164E-02  0.1226708E+00
        -11   -1    0    0    0    0  0.00000000000E+00  0.00000000000E+00  0.45593999997E+02  0.45594000000E+02  0.51100000000E-03 0.  1.
         11   -1    0    0    0    0 -0.00000000000E+00 -0.00000000000E+00 -0.45593999997E+02  0.45594000000E+02  0.51100000000E-03 0. -1.
    9900012    2    1    2    0    0 -0.96825376491E+01 -0.15906081907E+02 -0.19810732463E+01  0.72461558049E+02  0.69999984048E+02 0.  0.
        -12    1    1    2    0    0  0.96825376491E+01  0.15906081907E+02  0.19810732463E+01  0.18726441951E+02  0.00000000000E+00 0.  1.
         11    1    3    3    0    0  0.52793143749E+01 -0.70074955937E+01 -0.30610869742E+01  0.92922768195E+01  0.51100000000E-03 0. -1.
        -11    1    3    3    0    0  0.18326172569E+02 -0.19741501759E+02  0.65848486590E+01  0.27729690313E+02  0.51100000000E-03 0.  1.
         12    1    3    3    0    0 -0.33288024593E+02  0.10842915446E+02 -0.55048349311E+01  0.35439590916E+02  0.00000000000E+00 0. -1.
</event>
<event>
 7    1  0.2489154E-013  0.7246155E+02  0.7816164E-02  0.1226708E+00
        -11   -1    0    0    0    0  0.00000000000E+00  0.00000000000E+00  0.45593999997E+02  0.45594000000E+02  0.51100000000E-03 0. -1.
         11   -1    0    0    0    0 -0.00000000000E+00 -0.00000000000E+00 -0.45593999997E+02  0.45594000000E+02  0.51100000000E-03 0.  1.
    9900012    2    1    2    0    0 -0.14989234277E+02  0.11221859098E+02 -0.26960271350E+00  0.72461549417E+02  0.69999972803E+02 0.  0.
        -12    1    1    2    0    0  0.14989234277E+02 -0.11221859098E+02  0.26960271350E+00  0.18726450583E+02  0.00000000000E+00 0.  1.
         11    1    3    3    0    0 -0.27546374406E+02  0.41611989822E+01  0.60890079684E+01  0.28516562524E+02  0.51100000000E-03 0. -1.
        -11    1    3    3    0    0  0.44029126656E+01 -0.17266145168E+02 -0.29879270840E+01  0.18067460181E+02  0.51100000000E-03 0.  1.
         12    1    3    3    0    0  0.81542274634E+01  0.24326805283E+02 -0.33706835978E+01  0.25877526712E+02  0.00000000000E+00 0. -1.
</event>
<event>
 7    1  0.2489154E-013  0.7246154E+02  0.7816164E-02  0.1226708E+00
        -11   -1    0    0    0    0  0.00000000000E+00  0.00000000000E+00  0.45593999997E+02  0.45594000000E+02  0.51100000000E-03 0.  1.
         11   -1    0    0    0    0 -0.00000000000E+00 -0.00000000000E+00 -0.45593999997E+02  0.45594000000E+02  0.51100000000E-03 0. -1.
    9900012    2    1    2    0    0 -0.12648668465E+02  0.13634597884E+02 -0.21884520185E+01  0.72461537557E+02  0.69999957354E+02 0.  0.
        -12    1    1    2    0    0  0.12648668465E+02 -0.13634597884E+02  0.21884520185E+01  0.18726462443E+02  0.00000000000E+00 0.  1.
         11    1    3    3    0    0  0.79534889225E+01 -0.14665284070E+01  0.10735522810E+02  0.13440987385E+02  0.51100000000E-03 0. -1.
        -11    1    3    3    0    0 -0.12273727608E+02 -0.17993122106E+02 -0.12031414617E+02  0.24882760507E+02  0.51100000000E-03 0.  1.
         12    1    3    3    0    0 -0.83284297791E+01  0.33094248397E+02 -0.89256021184E+00  0.34137789666E+02  0.00000000000E+00 0. -1.
</event>
<event>
 7    1  0.2489154E-013  0.7246168E+02  0.7816164E-02  0.1226708E+00
        -11   -1    0    0    0    0  0.00000000000E+00  0.00000000000E+00  0.45593999997E+02  0.45594000000E+02  0.51100000000E-03 0.  1.
         11   -1    0    0    0    0 -0.00000000000E+00 -0.00000000000E+00 -0.45593999997E+02  0.45594000000E+02  0.51100000000E-03 0. -1.
    9900012    2    1    2    0    0  0.14286795194E+02  0.56058830666E+01 -0.10730165705E+02  0.72461684347E+02  0.70000148575E+02 0.  0.
        -12    1    1    2    0    0 -0.14286795194E+02 -0.56058830666E+01  0.10730165705E+02  0.18726315653E+02  0.00000000000E+00 0.  1.
         11    1    3    3    0    0  0.25193693720E+02  0.14707524812E+02 -0.14984586759E+02  0.32795904164E+02  0.51100000000E-03 0. -1.
        -11    1    3    3    0    0  0.12470085367E+02 -0.74941696985E+01 -0.35364178120E+01  0.14972369877E+02  0.51100000000E-03 0.  1.
        -12    1    3    3    0    0 -0.23376983893E+02 -0.16074720465E+01  0.77908388658E+01  0.24693410306E+02  0.00000000000E+00 0.  1.
</event>
<event>
 7    1  0.2489154E-013  0.7246155E+02  0.7816164E-02  0.1226708E+00
        -11   -1    0    0    0    0  0.00000000000E+00  0.00000000000E+00  0.45593999997E+02  0.45594000000E+02  0.51100000000E-03 0.  1.
         11   -1    0    0    0    0 -0.00000000000E+00 -0.00000000000E+00 -0.45593999997E+02  0.45594000000E+02  0.51100000000E-03 0. -1.
    9900012    2    1    2    0    0  0.60153413404E+01 -0.97072651626E+01 -0.14841311279E+02  0.72461552156E+02  0.69999976372E+02 0.  0.
        -12    1    1    2    0    0 -0.60153413404E+01  0.97072651626E+01  0.14841311279E+02  0.18726447844E+02  0.00000000000E+00 0.  1.
         11    1    3    3    0    0  0.16678263366E+02 -0.50374390597E+01 -0.69901825430E+01  0.18772397647E+02  0.51100000000E-03 0. -1.
        -11    1    3    3    0    0  0.11147545773E+02  0.11103471429E+02  0.12377420934E+02  0.20018876187E+02  0.51100000000E-03 0.  1.
        -12    1    3    3    0    0 -0.21810467798E+02 -0.15773297532E+02 -0.20228549670E+02  0.33670278323E+02  0.00000000000E+00 0.  1.
</event>
<event>
 7    1  0.2489154E-013  0.7246183E+02  0.7816164E-02  0.1226707E+00
        -11   -1    0    0    0    0  0.00000000000E+00  0.00000000000E+00  0.45593999997E+02  0.45594000000E+02  0.51100000000E-03 0.  1.
         11   -1    0    0    0    0 -0.00000000000E+00 -0.00000000000E+00 -0.45593999997E+02  0.45594000000E+02  0.51100000000E-03 0. -1.
    9900012    2    1    2    0    0 -0.12779136815E+02 -0.90320118518E+01 -0.10285217892E+02  0.72461834271E+02  0.70000343877E+02 0.  0.
        -12    1    1    2    0    0  0.12779136815E+02  0.90320118518E+01  0.10285217892E+02  0.18726165729E+02  0.00000000000E+00 0.  1.
         11    1    3    3    0    0 -0.21389391600E+02  0.56231502195E+01 -0.24679309677E+02  0.33139013531E+02  0.51100000000E-03 0. -1.
        -11    1    3    3    0    0  0.58236442952E+01  0.99688083377E+01  0.24014806956E+01  0.11792331506E+02  0.51100000000E-03 0.  1.
         12    1    3    3    0    0  0.27866104900E+01 -0.24623970409E+02  0.11992611089E+02  0.27530489234E+02  0.00000000000E+00 0. -1.
</event>
<event>
 7    1  0.2489154E-013  0.7246156E+02  0.7816164E-02  0.1226708E+00
        -11   -1    0    0    0    0  0.00000000000E+00  0.00000000000E+00  0.45593999997E+02  0.45594000000E+02  0.51100000000E-03 0.  1.
         11   -1    0    0    0    0 -0.00000000000E+00 -0.00000000000E+00 -0.45593999997E+02  0.45594000000E+02  0.51100000000E-03 0. -1.
    9900012    2    1    2    0    0 -0.16414756117E+02  0.33669702071E+01  0.83605447261E+01  0.72461563743E+02  0.69999991466E+02 0.  0.
        -12    1    1    2    0    0  0.16414756117E+02 -0.33669702071E+01 -0.83605447261E+01  0.18726436257E+02  0.00000000000E+00 0.  1.
         11    1    3    3    0    0  0.65779272248E+01  0.19820268859E+02 -0.13589669353E+02  0.24915683768E+02  0.51100000000E-03 0. -1.
        -11    1    3    3    0    0  0.67265932263E+01  0.19734377512E+01  0.54540352531E+01  0.88818924669E+01  0.51100000000E-03 0.  1.
        -12    1    3    3    0    0 -0.29719276568E+02 -0.18426736403E+02  0.16496178826E+02  0.38663987509E+02  0.00000000000E+00 0.  1.
</event>
<event>
 7    1  0.2489154E-013  0.7246161E+02  0.7816164E-02  0.1226708E+00
        -11   -1    0    0    0    0  0.00000000000E+00  0.00000000000E+00  0.45593999997E+02  0.45594000000E+02  0.51100000000E-03 0.  1.
         11   -1    0    0    0    0 -0.00000000000E+00 -0.00000000000E+00 -0.45593999997E+02  0.45594000000E+02  0.51100000000E-03 0. -1.
    9900012    2    1    2    0    0 -0.92827642577E+01 -0.11997705519E+02 -0.10980127179E+02  0.72461605717E+02  0.70000046144E+02 0.  0.
        -12    1    1    2    0    0  0.92827642577E+01  0.11997705519E+02  0.10980127179E+02  0.18726394283E+02  0.00000000000E+00 0.  1.
         11    1    3    3    0    0 -0.39193592758E+01 -0.17359864279E+02 -0.34615932397E+01  0.18130330746E+02  0.51100000000E-03 0. -1.
        -11    1    3    3    0    0  0.63696598917E+01  0.13375897331E+01  0.21664721744E+02  0.22621270564E+02  0.51100000000E-03 0.  1.
         12    1    3    3    0    0 -0.11733064874E+02  0.40245690269E+01 -0.29183255683E+02  0.31710004407E+02  0.00000000000E+00 0. -1.
</event>
<event>
 7    1  0.2489154E-013  0.7246159E+02  0.7816164E-02  0.1226708E+00
        -11   -1    0    0    0    0  0.00000000000E+00  0.00000000000E+00  0.45593999997E+02  0.45594000000E+02  0.51100000000E-03 0.  1.
         11   -1    0    0    0    0 -0.00000000000E+00 -0.00000000000E+00 -0.45593999997E+02  0.45594000000E+02  0.51100000000E-03 0. -1.
    9900012    2    1    2    0    0  0.39599363778E+01 -0.17279725207E+01 -0.18221176937E+02  0.72461594201E+02  0.70000031143E+02 0.  0.
        -12    1    1    2    0    0 -0.39599363778E+01  0.17279725207E+01  0.18221176937E+02  0.18726405799E+02  0.00000000000E+00 0.  1.
         11    1    3    3    0    0 -0.23009601528E+02  0.12609774612E+02 -0.22954691373E+02  0.34862100260E+02  0.51100000000E-03 0. -1.
        -11    1    3    3    0    0 -0.19105927265E+01 -0.24102294447E+01  0.55470537496E+01  0.63426631713E+01  0.51100000000E-03 0.  1.
        -12    1    3    3    0    0  0.28880130633E+02 -0.11927517688E+02 -0.81353931441E+00  0.31256830770E+02  0.00000000000E+00 0.  1.
</event>
<event>
 7    1  0.2489154E-013  0.7246159E+02  0.7816164E-02  0.1226708E+00
        -11   -1    0    0    0    0  0.00000000000E+00  0.00000000000E+00  0.45593999997E+02  0.45594000000E+02  0.51100000000E-03 0. -1.
         11   -1    0    0    0    0 -0.00000000000E+00 -0.00000000000E+00 -0.45593999997E+02  0.45594000000E+02  0.51100000000E-03 0.  1.
    9900012    2    1    2    0    0  0.18629805479E+02 -0.81477996947E+00  0.17160663031E+01  0.72461590784E+02  0.70000026691E+02 0.  0.
        -12    1    1    2    0    0 -0.18629805479E+02  0.81477996947E+00 -0.17160663031E+01  0.18726409216E+02  0.00000000000E+00 0.  1.
         11    1    3    3    0    0  0.21312223649E+02  0.34938578510E+01  0.13149316717E+02  0.25284826476E+02  0.51100000000E-03 0. -1.
        -11    1    3    3    0    0  0.11699035857E+02 -0.17896884648E+02  0.44077958597E+01  0.21831046349E+02  0.51100000000E-03 0.  1.
         12    1    3    3    0    0 -0.14381454027E+02  0.13588246827E+02 -0.15841046274E+02  0.25345717959E+02  0.00000000000E+00 0. -1.
</event>
<event>
 7    1  0.2489154E-013  0.7246154E+02  0.7816164E-02  0.1226708E+00
        -11   -1    0    0    0    0  0.00000000000E+00  0.00000000000E+00  0.45593999997E+02  0.45594000000E+02  0.51100000000E-03 0.  1.
         11   -1    0    0    0    0 -0.00000000000E+00 -0.00000000000E+00 -0.45593999997E+02  0.45594000000E+02  0.51100000000E-03 0. -1.
    9900012    2    1    2    0    0 -0.51847499282E+01 -0.51216354018E+01 -0.17250147026E+02  0.72461538684E+02  0.69999958821E+02 0.  0.
        -12    1    1    2    0    0  0.51847499282E+01  0.51216354018E+01  0.17250147026E+02  0.18726461316E+02  0.00000000000E+00 0.  1.
         11    1    3    3    0    0 -0.24412374580E+02  0.27011338887E+01  0.73579271208E+01  0.25639798141E+02  0.51100000000E-03 0. -1.
        -11    1    3    3    0    0 -0.31457215809E+01 -0.62540068056E+01  0.57625369835E+01  0.90672486530E+01  0.51100000000E-03 0.  1.
        -12    1    3    3    0    0  0.22373346233E+02 -0.15687624849E+01 -0.30370611130E+02  0.37754491890E+02  0.00000000000E+00 0.  1.
</event>
<event>
 7    1  0.2489154E-013  0.7246161E+02  0.7816164E-02  0.1226708E+00
        -11   -1    0    0    0    0  0.00000000000E+00  0.00000000000E+00  0.45593999997E+02  0.45594000000E+02  0.51100000000E-03 0. -1.
         11   -1    0    0    0    0 -0.00000000000E+00 -0.00000000000E+00 -0.45593999997E+02  0.45594000000E+02  0.51100000000E-03 0.  1.
    9900012    2    1    2    0    0 -0.14398513337E+02 -0.28181621759E+01  0.11636947701E+02  0.72461607497E+02  0.70000048464E+02 0.  0.
        -12    1    1    2    0    0  0.14398513337E+02  0.28181621759E+01 -0.11636947701E+02  0.18726392503E+02  0.00000000000E+00 0.  1.
         11    1    3    3    0    0 -0.14686646561E+02  0.22504879619E+02  0.14695467472E+02  0.30628809288E+02  0.51100000000E-03 0. -1.
        -11    1    3    3    0    0  0.17908427673E+01 -0.14863204385E+02  0.14819596559E+02  0.21065194156E+02  0.51100000000E-03 0.  1.
        -12    1    3    3    0    0 -0.15027095425E+01 -0.10459837410E+02 -0.17878116330E+02  0.20767604053E+02  0.00000000000E+00 0.  1.
</event>
<event>
 7    1  0.2741179E-013  0.7246155E+02  0.7816164E-02  0.1226708E+00
        -11   -1    0    0    0    0  0.00000000000E+00  0.00000000000E+00  0.45593999997E+02  0.45594000000E+02  0.51100000000E-03 0. -1.
         11   -1    0    0    0    0 -0.00000000000E+00 -0.00000000000E+00 -0.45593999997E+02  0.45594000000E+02  0.51100000000E-03 0.  1.
    9900012    2    1    2    0    0  0.60407949292E+01  0.15616792162E+01  0.17656438589E+02  0.72461551618E+02  0.69999975671E+02 0.  0.
        -12    1    1    2    0    0 -0.60407949292E+01 -0.15616792162E+01 -0.17656438589E+02  0.18726448382E+02  0.00000000000E+00 0.  1.
         11    1    3    3    0    0  0.11858819394E+02  0.28901358982E+01  0.39431404649E+02  0.41277356453E+02  0.51100000000E-03 0. -1.
        -11    1    3    3    0    0  0.39071724797E+01 -0.68580071876E+00  0.27277347664E+01  0.48142347916E+01  0.51100000000E-03 0.  1.
        -12    1    3    3    0    0 -0.97251969442E+01 -0.64265596317E+00 -0.24502700826E+02  0.26369960373E+02  0.00000000000E+00 0.  1.
</event>
<event>
 7    1  0.2489154E-013  0.7246165E+02  0.7816164E-02  0.1226708E+00
        -11   -1    0    0    0    0  0.00000000000E+00  0.00000000000E+00  0.45593999997E+02  0.45594000000E+02  0.51100000000E-03 0. -1.
         11   -1    0    0    0    0 -0.00000000000E+00 -0.00000000000E+00 -0.45593999997E+02  0.45594000000E+02  0.51100000000E-03 0.  1.
    9900012    2    1    2    0    0  0.14322660136E+02  0.62355374261E+01  0.10327426018E+02  0.72461648286E+02  0.70000101598E+02 0.  0.
        -12    1    1    2    0    0 -0.14322660136E+02 -0.62355374261E+01 -0.10327426018E+02  0.18726351714E+02  0.00000000000E+00 0.  1.
         11    1    3    3    0    0 -0.16331128584E+02  0.12526206994E+02  0.13548995551E+02  0.24641162781E+02  0.51100000000E-03 0. -1.
        -11    1    3    3    0    0 -0.53878863211E+01  0.68301170337E+01  0.24737183767E+01  0.90442855203E+01  0.51100000000E-03 0.  1.
        -12    1    3    3    0    0  0.36041675042E+02 -0.13120786602E+02 -0.56952879097E+01  0.38776199985E+02  0.00000000000E+00 0.  1.
</event>
<event>
 7    1  0.2489154E-013  0.7246164E+02  0.7816164E-02  0.1226708E+00
        -11   -1    0    0    0    0  0.00000000000E+00  0.00000000000E+00  0.45593999997E+02  0.45594000000E+02  0.51100000000E-03 0. -1.
         11   -1    0    0    0    0 -0.00000000000E+00 -0.00000000000E+00 -0.45593999997E+02  0.45594000000E+02  0.51100000000E-03 0.  1.
    9900012    2    1    2    0    0  0.51074054222E+01  0.17632429238E+02  0.36997604982E+01  0.72461644809E+02  0.70000097069E+02 0.  0.
        -12    1    1    2    0    0 -0.51074054222E+01 -0.17632429238E+02 -0.36997604982E+01  0.18726355191E+02  0.00000000000E+00 0.  1.
         11    1    3    3    0    0 -0.17037630069E+01 -0.67607943053E-01  0.73714094604E+01  0.75660463197E+01  0.51100000000E-03 0. -1.
        -11    1    3    3    0    0 -0.11292469396E+02 -0.19977074833E+02 -0.24329781470E+01  0.23076454816E+02  0.51100000000E-03 0.  1.
         12    1    3    3    0    0  0.18103637825E+02  0.37677112014E+02 -0.12386708152E+01  0.41819143674E+02  0.00000000000E+00 0. -1.
</event>
<event>
 7    1  0.2489154E-013  0.7246156E+02  0.7816164E-02  0.1226708E+00
        -11   -1    0    0    0    0  0.00000000000E+00  0.00000000000E+00  0.45593999997E+02  0.45594000000E+02  0.51100000000E-03 0.  1.
         11   -1    0    0    0    0 -0.00000000000E+00 -0.00000000000E+00 -0.45593999997E+02  0.45594000000E+02  0.51100000000E-03 0. -1.
    9900012    2    1    2    0    0 -0.61101420320E+01  0.17510576453E+02 -0.25933656114E+01  0.72461556970E+02  0.69999982643E+02 0.  0.
        -12    1    1    2    0    0  0.61101420320E+01 -0.17510576453E+02  0.25933656114E+01  0.18726443030E+02  0.00000000000E+00 0.  1.
         11    1    3    3    0    0  0.12527398587E+02  0.14856766394E+02 -0.55822963906E+01  0.20219328780E+02  0.51100000000E-03 0. -1.
        -11    1    3    3    0    0  0.11850167075E+02 -0.10184165117E+02 -0.77776648757E+01  0.17453817634E+02  0.51100000000E-03 0.  1.
        -12    1    3    3    0    0 -0.30487707694E+02  0.12837975175E+02  0.10766595655E+02  0.34788410556E+02  0.00000000000E+00 0.  1.
</event>
<event>
 7    1  0.2489154E-013  0.7246155E+02  0.7816164E-02  0.1226708E+00
        -11   -1    0    0    0    0  0.00000000000E+00  0.00000000000E+00  0.45593999997E+02  0.45594000000E+02  0.51100000000E-03 0.  1.
         11   -1    0    0    0    0 -0.00000000000E+00 -0.00000000000E+00 -0.45593999997E+02  0.45594000000E+02  0.51100000000E-03 0. -1.
    9900012    2    1    2    0    0  0.58181808957E+01 -0.17379754295E+02  0.38435634009E+01  0.72461546307E+02  0.69999968752E+02 0.  0.
        -12    1    1    2    0    0 -0.58181808957E+01  0.17379754295E+02 -0.38435634009E+01  0.18726453693E+02  0.00000000000E+00 0.  1.
         11    1    3    3    0    0  0.27042855009E+02 -0.22140609712E+02  0.57555396743E+01  0.35421022609E+02  0.51100000000E-03 0. -1.
        -11    1    3    3    0    0  0.32438267755E+01  0.13013259428E+01  0.92770452760E+01  0.99135982707E+01  0.51100000000E-03 0.  1.
        -12    1    3    3    0    0 -0.24468500889E+02  0.34595294742E+01 -0.11189021549E+02  0.27126925428E+02  0.00000000000E+00 0.  1.
</event>
<event>
 7    1  0.2489154E-013  0.7246153E+02  0.7816164E-02  0.1226708E+00
        -11   -1    0    0    0    0  0.00000000000E+00  0.00000000000E+00  0.45593999997E+02  0.45594000000E+02  0.51100000000E-03 0.  1.
         11   -1    0    0    0    0 -0.00000000000E+00 -0.00000000000E+00 -0.45593999997E+02  0.45594000000E+02  0.51100000000E-03 0. -1.
    9900012    2    1    2    0    0 -0.69148890017E+01 -0.11973625990E+02 -0.12629222446E+02  0.72461530263E+02  0.69999947851E+02 0.  0.
        -12    1    1    2    0    0  0.69148890017E+01  0.11973625990E+02  0.12629222446E+02  0.18726469737E+02  0.00000000000E+00 0.  1.
         11    1    3    3    0    0  0.32670015424E+01  0.20427127389E+01 -0.13662991476E+02  0.14195890629E+02  0.51100000000E-03 0. -1.
        -11    1    3    3    0    0 -0.20849437264E+02  0.15802061955E+02 -0.30334783744E+01  0.26336404226E+02  0.51100000000E-03 0.  1.
        -12    1    3    3    0    0  0.10667546720E+02 -0.29818400683E+02  0.40672474045E+01  0.31929235408E+02  0.00000000000E+00 0.  1.
</event>
<event>
 7    1  0.2489154E-013  0.7246157E+02  0.7816164E-02  0.1226708E+00
        -11   -1    0    0    0    0  0.00000000000E+00  0.00000000000E+00  0.45593999997E+02  0.45594000000E+02  0.51100000000E-03 0. -1.
         11   -1    0    0    0    0 -0.00000000000E+00 -0.00000000000E+00 -0.45593999997E+02  0.45594000000E+02  0.51100000000E-03 0.  1.
    9900012    2    1    2    0    0  0.11368279100E+02  0.13519998829E+02  0.62169883301E+01  0.72461572633E+02  0.70000003046E+02 0.  0.
        -12    1    1    2    0    0 -0.11368279100E+02 -0.13519998829E+02 -0.62169883301E+01  0.18726427367E+02  0.00000000000E+00 0.  1.
         11    1    3    3    0    0  0.13157348517E+02  0.14981507890E+02  0.16599675144E+02  0.25944375379E+02  0.51100000000E-03 0. -1.
        -11    1    3    3    0    0  0.14846790155E+02  0.60447331702E+01  0.10206292294E+02  0.19003535978E+02  0.51100000000E-03 0.  1.
        -12    1    3    3    0    0 -0.16635859571E+02 -0.75062422309E+01 -0.20588979108E+02  0.27513661276E+02  0.00000000000E+00 0.  1.
</event>
<event>
 7    1  0.2489154E-013  0.7246185E+02  0.7816164E-02  0.1226707E+00
        -11   -1    0    0    0    0  0.00000000000E+00  0.00000000000E+00  0.45593999997E+02  0.45594000000E+02  0.51100000000E-03 0.  1.
         11   -1    0    0    0    0 -0.00000000000E+00 -0.00000000000E+00 -0.45593999997E+02  0.45594000000E+02  0.51100000000E-03 0. -1.
    9900012    2    1    2    0    0  0.30424474390E+00 -0.78837748258E+01 -0.16982992634E+02  0.72461854931E+02  0.70000370791E+02 0.  0.
        -12    1    1    2    0    0 -0.30424474390E+00  0.78837748258E+01  0.16982992634E+02  0.18726145069E+02  0.00000000000E+00 0.  1.
         11    1    3    3    0    0  0.75981708458E+01 -0.57994389833E+01 -0.60741956868E+00  0.95778208125E+01  0.51100000000E-03 0. -1.
        -11    1    3    3    0    0 -0.17324120479E+01 -0.30260384956E+02 -0.10431575574E+01  0.30327880360E+02  0.51100000000E-03 0.  1.
         12    1    3    3    0    0 -0.55615140540E+01  0.28176049113E+02 -0.15332415508E+02  0.32556153758E+02  0.00000000000E+00 0. -1.
</event>
<event>
 7    1  0.2489154E-013  0.7246158E+02  0.7816164E-02  0.1226708E+00
        -11   -1    0    0    0    0  0.00000000000E+00  0.00000000000E+00  0.45593999997E+02  0.45594000000E+02  0.51100000000E-03 0.  1.
         11   -1    0    0    0    0 -0.00000000000E+00 -0.00000000000E+00 -0.45593999997E+02  0.45594000000E+02  0.51100000000E-03 0. -1.
    9900012    2    1    2    0    0  0.15815379728E+02  0.78916517160E+01  0.61866215757E+01  0.72461583117E+02  0.70000016704E+02 0.  0.
        -12    1    1    2    0    0 -0.15815379728E+02 -0.78916517160E+01 -0.61866215757E+01  0.18726416883E+02  0.00000000000E+00 0.  1.
         11    1    3    3    0    0 -0.72583850935E+01 -0.50524624460E+01  0.18763616891E+02  0.20743308560E+02  0.51100000000E-03 0. -1.
        -11    1    3    3    0    0  0.23927849369E+02  0.11390153950E+02  0.10550055333E+02  0.28523345706E+02  0.51100000000E-03 0.  1.
         12    1    3    3    0    0 -0.85408454799E+00  0.15539602120E+01 -0.23127050648E+02  0.23194928852E+02  0.00000000000E+00 0. -1.
</event>
<event>
 7    1  0.2489154E-013  0.7246151E+02  0.7816164E-02  0.1226708E+00
        -11   -1    0    0    0    0  0.00000000000E+00  0.00000000000E+00  0.45593999997E+02  0.45594000000E+02  0.51100000000E-03 0.  1.
         11   -1    0    0    0    0 -0.00000000000E+00 -0.00000000000E+00 -0.45593999997E+02  0.45594000000E+02  0.51100000000E-03 0. -1.
    9900012    2    1    2    0    0  0.13742300397E+02 -0.99701616237E+01 -0.79010347510E+01  0.72461513593E+02  0.69999926136E+02 0.  0.
        -12    1    1    2    0    0 -0.13742300397E+02  0.99701616237E+01  0.79010347510E+01  0.18726486407E+02  0.00000000000E+00 0.  1.
         11    1    3    3    0    0  0.24180424870E+02 -0.23300124657E+01  0.89511006375E+00  0.24308910450E+02  0.51100000000E-03 0. -1.
        -11    1    3    3    0    0  0.50348430342E+01 -0.16109846309E+02 -0.20822186018E+02  0.26803735250E+02  0.51100000000E-03 0.  1.
        -12    1    3    3    0    0 -0.15472967506E+02  0.84696971514E+01  0.12026041204E+02  0.21348867893E+02  0.00000000000E+00 0.  1.
</event>
<event>
 7    1  0.2489154E-013  0.7246162E+02  0.7816164E-02  0.1226708E+00
        -11   -1    0    0    0    0  0.00000000000E+00  0.00000000000E+00  0.45593999997E+02  0.45594000000E+02  0.51100000000E-03 0.  1.
         11   -1    0    0    0    0 -0.00000000000E+00 -0.00000000000E+00 -0.45593999997E+02  0.45594000000E+02  0.51100000000E-03 0. -1.
    9900012    2    1    2    0    0 -0.17256751467E+02  0.56893977924E+01  0.45290931262E+01  0.72461617461E+02  0.70000061444E+02 0.  0.
        -12    1    1    2    0    0  0.17256751467E+02 -0.56893977924E+01 -0.45290931262E+01  0.18726382539E+02  0.00000000000E+00 0.  1.
         11    1    3    3    0    0  0.85946493207E+01  0.55021921099E+01  0.52710802937E+01  0.11485921934E+02  0.51100000000E-03 0. -1.
        -11    1    3    3    0    0  0.14851105524E+02 -0.33233160695E+01  0.10636590907E+02  0.18567090008E+02  0.51100000000E-03 0.  1.
         12    1    3    3    0    0 -0.40702506312E+02  0.35105217520E+01 -0.11378578074E+02  0.42408605519E+02  0.00000000000E+00 0. -1.
</event>
<event>
 7    1  0.2489154E-013  0.7246159E+02  0.7816164E-02  0.1226708E+00
        -11   -1    0    0    0    0  0.00000000000E+00  0.00000000000E+00  0.45593999997E+02  0.45594000000E+02  0.51100000000E-03 0.  1.
         11   -1    0    0    0    0 -0.00000000000E+00 -0.00000000000E+00 -0.45593999997E+02  0.45594000000E+02  0.51100000000E-03 0. -1.
    9900012    2    1    2    0    0 -0.10238697601E+02  0.15400848980E+02  0.29430431716E+01  0.72461586008E+02  0.70000020470E+02 0.  0.
        -12    1    1    2    0    0  0.10238697601E+02 -0.15400848980E+02 -0.29430431716E+01  0.18726413992E+02  0.00000000000E+00 0.  1.
         11    1    3    3    0    0  0.12951265458E+01 -0.26983556955E+00 -0.16246835297E+01  0.20951756101E+01  0.51100000000E-03 0. -1.
        -11    1    3    3    0    0  0.21194407594E+02 -0.12945253261E+02 -0.61610170732E+01  0.25587900009E+02  0.51100000000E-03 0.  1.
         12    1    3    3    0    0 -0.32728231741E+02  0.28615937810E+02  0.10728743775E+02  0.44778510389E+02  0.00000000000E+00 0. -1.
</event>
<event>
 7    1  0.2489154E-013  0.7246146E+02  0.7816164E-02  0.1226708E+00
        -11   -1    0    0    0    0  0.00000000000E+00  0.00000000000E+00  0.45593999997E+02  0.45594000000E+02  0.51100000000E-03 0. -1.
         11   -1    0    0    0    0 -0.00000000000E+00 -0.00000000000E+00 -0.45593999997E+02  0.45594000000E+02  0.51100000000E-03 0.  1.
    9900012    2    1    2    0    0 -0.35029993439E+01  0.16285795491E+02  0.85548240463E+01  0.72461463918E+02  0.69999861425E+02 0.  0.
        -12    1    1    2    0    0  0.35029993439E+01 -0.16285795491E+02 -0.85548240463E+01  0.18726536082E+02  0.00000000000E+00 0.  1.
         11    1    3    3    0    0  0.30661929392E+02  0.14476442029E+02  0.59961433402E+01  0.34433632150E+02  0.51100000000E-03 0. -1.
        -11    1    3    3    0    0 -0.93777720374E+01 -0.17735590596E+01 -0.63301179742E+01  0.11452445763E+02  0.51100000000E-03 0.  1.
        -12    1    3    3    0    0 -0.24787156698E+02  0.35829125212E+01  0.88887986803E+01  0.26575386005E+02  0.00000000000E+00 0.  1.
</event>
<event>
 7    1  0.2489154E-013  0.7246155E+02  0.7816164E-02  0.1226708E+00
        -11   -1    0    0    0    0  0.00000000000E+00  0.00000000000E+00  0.45593999997E+02  0.45594000000E+02  0.51100000000E-03 0. -1.
         11   -1    0    0    0    0 -0.00000000000E+00 -0.00000000000E+00 -0.45593999997E+02  0.45594000000E+02  0.51100000000E-03 0.  1.
    9900012    2    1    2    0    0  0.47961293307E+01 -0.13459965558E+02  0.12103975840E+02  0.72461554515E+02  0.69999979445E+02 0.  0.
        -12    1    1    2    0    0 -0.47961293307E+01  0.13459965558E+02 -0.12103975840E+02  0.18726445485E+02  0.00000000000E+00 0.  1.
         11    1    3    3    0    0 -0.21203568549E+02 -0.23164998845E+01 -0.37069378954E+01  0.21649454490E+02  0.51100000000E-03 0. -1.
        -11    1    3    3    0    0  0.17473527713E+01 -0.10444050487E+02 -0.10576032189E+02  0.14966091320E+02  0.51100000000E-03 0.  1.
         12    1    3    3    0    0  0.24252345108E+02 -0.69941518628E+00  0.26386945924E+02  0.35846008705E+02  0.00000000000E+00 0. -1.
</event>
<event>
 7    1  0.2489154E-013  0.7246160E+02  0.7816164E-02  0.1226708E+00
        -11   -1    0    0    0    0  0.00000000000E+00  0.00000000000E+00  0.45593999997E+02  0.45594000000E+02  0.51100000000E-03 0. -1.
         11   -1    0    0    0    0 -0.00000000000E+00 -0.00000000000E+00 -0.45593999997E+02  0.45594000000E+02  0.51100000000E-03 0.  1.
    9900012    2    1    2    0    0 -0.18682668554E+02  0.12255889621E+01 -0.36589107483E+00  0.72461600216E+02  0.70000038978E+02 0.  0.
        -12    1    1    2    0    0  0.18682668554E+02 -0.12255889621E+01  0.36589107483E+00  0.18726399784E+02  0.00000000000E+00 0.  1.
         11    1    3    3    0    0 -0.12799701325E+02  0.11808431757E+02  0.18275032143E+02  0.25243775761E+02  0.51100000000E-03 0. -1.
        -11    1    3    3    0    0 -0.14102273651E+02  0.59361222670E+01  0.59995735625E+01  0.16434918706E+02  0.51100000000E-03 0.  1.
        -12    1    3    3    0    0  0.82193064215E+01 -0.16518965062E+02 -0.24640496780E+02  0.30782905749E+02  0.00000000000E+00 0.  1.
</event>
<event>
 7    1  0.2489154E-013  0.7246160E+02  0.7816164E-02  0.1226708E+00
        -11   -1    0    0    0    0  0.00000000000E+00  0.00000000000E+00  0.45593999997E+02  0.45594000000E+02  0.51100000000E-03 0. -1.
         11   -1    0    0    0    0 -0.00000000000E+00 -0.00000000000E+00 -0.45593999997E+02  0.45594000000E+02  0.51100000000E-03 0.  1.
    9900012    2    1    2    0    0  0.27701284619E+01 -0.53565953591E+01  0.17728822522E+02  0.72461604897E+02  0.70000045076E+02 0.  0.
        -12    1    1    2    0    0 -0.27701284619E+01  0.53565953591E+01 -0.17728822522E+02  0.18726395103E+02  0.00000000000E+00 0.  1.
         11    1    3    3    0    0  0.48185743558E+01 -0.41465897290E+01 -0.13905106385E+02  0.15289370459E+02  0.51100000000E-03 0. -1.
        -11    1    3    3    0    0  0.70757791722E+01  0.18669333045E+02  0.16161736328E+01  0.20030543296E+02  0.51100000000E-03 0.  1.
         12    1    3    3    0    0 -0.91242250661E+01 -0.19879338675E+02  0.30017755274E+02  0.37141691142E+02  0.00000000000E+00 0. -1.
</event>
<event>
 7    1  0.2625032E-013  0.7246222E+02  0.7816164E-02  0.1226706E+00
        -11   -1    0    0    0    0  0.00000000000E+00  0.00000000000E+00  0.45593999997E+02  0.45594000000E+02  0.51100000000E-03 0. -1.
         11   -1    0    0    0    0 -0.00000000000E+00 -0.00000000000E+00 -0.45593999997E+02  0.45594000000E+02  0.51100000000E-03 0.  1.
    9900012    2    1    2    0    0 -0.15176617551E+02  0.44318221255E+01  0.10034150205E+02  0.72462217293E+02  0.70000842831E+02 0.  0.
        -12    1    1    2    0    0  0.15176617551E+02 -0.44318221255E+01 -0.10034150205E+02  0.18725782707E+02  0.00000000000E+00 0.  1.
         11    1    3    3    0    0 -0.89259647481E+01 -0.51986929198E+01  0.32189507005E+02  0.33806265932E+02  0.51100000000E-03 0. -1.
        -11    1    3    3    0    0 -0.10164237503E+02 -0.75125383184E+01 -0.37110634941E+01  0.13172773001E+02  0.51100000000E-03 0.  1.
        -12    1    3    3    0    0  0.39135847004E+01  0.17143053364E+02 -0.18444293306E+02  0.25483178361E+02  0.00000000000E+00 0.  1.
</event>
<event>
 7    1  0.2489154E-013  0.7246159E+02  0.7816164E-02  0.1226708E+00
        -11   -1    0    0    0    0  0.00000000000E+00  0.00000000000E+00  0.45593999997E+02  0.45594000000E+02  0.51100000000E-03 0. -1.
         11   -1    0    0    0    0 -0.00000000000E+00 -0.00000000000E+00 -0.45593999997E+02  0.45594000000E+02  0.51100000000E-03 0.  1.
    9900012    2    1    2    0    0 -0.14559513080E+02 -0.64155477231E+01 -0.98762235253E+01  0.72461589109E+02  0.70000024510E+02 0.  0.
        -12    1    1    2    0    0  0.14559513080E+02  0.64155477231E+01  0.98762235253E+01  0.18726410891E+02  0.00000000000E+00 0.  1.
         11    1    3    3    0    0  0.13111565191E+02  0.13069310387E+02  0.11788148297E+02  0.21947219784E+02  0.51100000000E-03 0. -1.
        -11    1    3    3    0    0  0.24446004351E+01  0.34503602927E+01  0.31312530441E+01  0.52617300695E+01  0.51100000000E-03 0.  1.
        -12    1    3    3    0    0 -0.30115678706E+02 -0.22935218403E+02 -0.24795624866E+02  0.45252639256E+02  0.00000000000E+00 0.  1.
</event>
<event>
 7    1  0.2489154E-013  0.7246157E+02  0.7816164E-02  0.1226708E+00
        -11   -1    0    0    0    0  0.00000000000E+00  0.00000000000E+00  0.45593999997E+02  0.45594000000E+02  0.51100000000E-03 0.  1.
         11   -1    0    0    0    0 -0.00000000000E+00 -0.00000000000E+00 -0.45593999997E+02  0.45594000000E+02  0.51100000000E-03 0. -1.
    9900012    2    1    2    0    0  0.13524305590E+02  0.11894399041E+02  0.51279176825E+01  0.72461571883E+02  0.70000002070E+02 0.  0.
        -12    1    1    2    0    0 -0.13524305590E+02 -0.11894399041E+02 -0.51279176825E+01  0.18726428117E+02  0.00000000000E+00 0.  1.
         11    1    3    3    0    0  0.15007840609E+02  0.11761604502E+02  0.79954008446E+01  0.20676001913E+02  0.51100000000E-03 0. -1.
        -11    1    3    3    0    0  0.23972284847E+02 -0.44072902395E+01  0.47431990469E+01  0.24831282398E+02  0.51100000000E-03 0.  1.
         12    1    3    3    0    0 -0.25455819866E+02  0.45400847795E+01 -0.76106822090E+01  0.26954287573E+02  0.00000000000E+00 0. -1.
</event>
<event>
 7    1  0.2489154E-013  0.7246157E+02  0.7816164E-02  0.1226708E+00
        -11   -1    0    0    0    0  0.00000000000E+00  0.00000000000E+00  0.45593999997E+02  0.45594000000E+02  0.51100000000E-03 0. -1.
         11   -1    0    0    0    0 -0.00000000000E+00 -0.00000000000E+00 -0.45593999997E+02  0.45594000000E+02  0.51100000000E-03 0.  1.
    9900012    2    1    2    0    0  0.72314053957E+01  0.10474198924E+02  0.13735980758E+02  0.72461568560E+02  0.69999997740E+02 0.  0.
        -12    1    1    2    0    0 -0.72314053957E+01 -0.10474198924E+02 -0.13735980758E+02  0.18726431440E+02  0.00000000000E+00 0.  1.
         11    1    3    3    0    0  0.26766024400E+01 -0.53917862870E+01  0.10411530541E+02  0.12026451200E+02  0.51100000000E-03 0. -1.
        -11    1    3    3    0    0 -0.59511895330E+00 -0.10381706540E+02  0.24307748488E+02  0.26438620124E+02  0.51100000000E-03 0.  1.
         12    1    3    3    0    0  0.51499219090E+01  0.26247691751E+02 -0.20983298271E+02  0.33996497235E+02  0.00000000000E+00 0. -1.
</event>
<event>
 7    1  0.2489154E-013  0.7246155E+02  0.7816164E-02  0.1226708E+00
        -11   -1    0    0    0    0  0.00000000000E+00  0.00000000000E+00  0.45593999997E+02  0.45594000000E+02  0.51100000000E-03 0.  1.
         11   -1    0    0    0    0 -0.00000000000E+00 -0.00000000000E+00 -0.45593999997E+02  0.45594000000E+02  0.51100000000E-03 0. -1.
    9900012    2    1    2    0    0  0.10205652206E+02  0.85265018183E+00 -0.15677932270E+02  0.72461550536E+02  0.69999974261E+02 0.  0.
        -12    1    1    2    0    0 -0.10205652206E+02 -0.85265018183E+00  0.15677932270E+02  0.18726449464E+02  0.00000000000E+00 0.  1.
         11    1    3    3    0    0  0.18032280909E+01  0.11604497132E+02 -0.64687358324E+01  0.13407480329E+02  0.51100000000E-03 0. -1.
        -11    1    3    3    0    0  0.21085117558E+02  0.15508639344E+01  0.17216528444E+02  0.27265293200E+02  0.51100000000E-03 0.  1.
         12    1    3    3    0    0 -0.12682693443E+02 -0.12302710884E+02 -0.26425724882E+02  0.31788777007E+02  0.00000000000E+00 0. -1.
</event>
<event>
 7    1  0.2489154E-013  0.7246150E+02  0.7816164E-02  0.1226708E+00
        -11   -1    0    0    0    0  0.00000000000E+00  0.00000000000E+00  0.45593999997E+02  0.45594000000E+02  0.51100000000E-03 0. -1.
         11   -1    0    0    0    0 -0.00000000000E+00 -0.00000000000E+00 -0.45593999997E+02  0.45594000000E+02  0.51100000000E-03 0.  1.
    9900012    2    1    2    0    0  0.12723235954E+02  0.90740441524E+00  0.13710499938E+02  0.72461496736E+02  0.69999904177E+02 0.  0.
        -12    1    1    2    0    0 -0.12723235954E+02 -0.90740441524E+00 -0.13710499938E+02  0.18726503264E+02  0.00000000000E+00 0.  1.
         11    1    3    3    0    0  0.22190410897E+02 -0.30325718616E+01 -0.35559628643E+01  0.22677206619E+02  0.51100000000E-03 0. -1.
        -11    1    3    3    0    0  0.84952539100E+01 -0.92266546089E+01 -0.89329434814E+01  0.15397986030E+02  0.51100000000E-03 0.  1.
        -12    1    3    3    0    0 -0.17962428853E+02  0.13166630886E+02  0.26199406284E+02  0.34386304088E+02  0.00000000000E+00 0.  1.
</event>
<event>
 7    1  0.2489154E-013  0.7246163E+02  0.7816164E-02  0.1226708E+00
        -11   -1    0    0    0    0  0.00000000000E+00  0.00000000000E+00  0.45593999997E+02  0.45594000000E+02  0.51100000000E-03 0. -1.
         11   -1    0    0    0    0 -0.00000000000E+00 -0.00000000000E+00 -0.45593999997E+02  0.45594000000E+02  0.51100000000E-03 0.  1.
    9900012    2    1    2    0    0  0.14024847210E+02  0.74182125980E+01  0.99474005904E+01  0.72461628330E+02  0.70000075603E+02 0.  0.
        -12    1    1    2    0    0 -0.14024847210E+02 -0.74182125980E+01 -0.99474005904E+01  0.18726371670E+02  0.00000000000E+00 0.  1.
         11    1    3    3    0    0 -0.97812698557E+01 -0.11627068454E+02  0.14241084347E+01  0.15260735432E+02  0.51100000000E-03 0. -1.
        -11    1    3    3    0    0  0.60897396703E+01 -0.61933559023E+01 -0.15730692023E+02  0.17969342179E+02  0.51100000000E-03 0.  1.
         12    1    3    3    0    0  0.17716377395E+02  0.25238636954E+02  0.24253984178E+02  0.39231550719E+02  0.00000000000E+00 0. -1.
</event>
<event>
 7    1  0.2489154E-013  0.7246156E+02  0.7816164E-02  0.1226708E+00
        -11   -1    0    0    0    0  0.00000000000E+00  0.00000000000E+00  0.45593999997E+02  0.45594000000E+02  0.51100000000E-03 0.  1.
         11   -1    0    0    0    0 -0.00000000000E+00 -0.00000000000E+00 -0.45593999997E+02  0.45594000000E+02  0.51100000000E-03 0. -1.
    9900012    2    1    2    0    0  0.97554442144E+01  0.15183974238E+02 -0.49957839763E+01  0.72461558186E+02  0.69999984227E+02 0.  0.
        -12    1    1    2    0    0 -0.97554442144E+01 -0.15183974238E+02  0.49957839763E+01  0.18726441814E+02  0.00000000000E+00 0.  1.
         11    1    3    3    0    0  0.34233859895E+02 -0.55747497698E+01  0.11732972073E+01  0.34704634055E+02  0.51100000000E-03 0. -1.
        -11    1    3    3    0    0  0.10387062777E+01  0.52698096066E+00 -0.50400181781E+01  0.51728525168E+01  0.51100000000E-03 0.  1.
        -12    1    3    3    0    0 -0.25517121958E+02  0.20231743047E+02 -0.11290630055E+01  0.32584071615E+02  0.00000000000E+00 0.  1.
</event>
<event>
 7    1  0.2489154E-013  0.7246151E+02  0.7816164E-02  0.1226708E+00
        -11   -1    0    0    0    0  0.00000000000E+00  0.00000000000E+00  0.45593999997E+02  0.45594000000E+02  0.51100000000E-03 0.  1.
         11   -1    0    0    0    0 -0.00000000000E+00 -0.00000000000E+00 -0.45593999997E+02  0.45594000000E+02  0.51100000000E-03 0. -1.
    9900012    2    1    2    0    0  0.34149275485E+01 -0.18400007530E+02  0.67769944516E+00  0.72461513843E+02  0.69999926461E+02 0.  0.
        -12    1    1    2    0    0 -0.34149275485E+01  0.18400007530E+02 -0.67769944516E+00  0.18726486157E+02  0.00000000000E+00 0.  1.
         11    1    3    3    0    0 -0.24890693278E+01  0.94711584216E+01 -0.28674615263E+01  0.10203952363E+02  0.51100000000E-03 0. -1.
        -11    1    3    3    0    0 -0.18775192538E+02  0.59296057721E+01 -0.29364343902E+01  0.19907052183E+02  0.51100000000E-03 0.  1.
         12    1    3    3    0    0  0.24679189414E+02 -0.33800771723E+02  0.64815953617E+01  0.42350509296E+02  0.00000000000E+00 0. -1.
</event>
<event>
 7    1  0.2489154E-013  0.7246158E+02  0.7816164E-02  0.1226708E+00
        -11   -1    0    0    0    0  0.00000000000E+00  0.00000000000E+00  0.45593999997E+02  0.45594000000E+02  0.51100000000E-03 0.  1.
         11   -1    0    0    0    0 -0.00000000000E+00 -0.00000000000E+00 -0.45593999997E+02  0.45594000000E+02  0.51100000000E-03 0. -1.
    9900012    2    1    2    0    0 -0.46066924520E+01  0.11761388251E+02 -0.13824864934E+02  0.72461581245E+02  0.70000014266E+02 0.  0.
        -12    1    1    2    0    0  0.46066924520E+01 -0.11761388251E+02  0.13824864934E+02  0.18726418755E+02  0.00000000000E+00 0.  1.
         11    1    3    3    0    0  0.61725925740E+01 -0.14812485283E+02 -0.24083520223E+02  0.28940051243E+02  0.51100000000E-03 0. -1.
        -11    1    3    3    0    0  0.45198672272E+01 -0.52835678698E+01  0.18217412898E+01  0.71877695270E+01  0.51100000000E-03 0.  1.
        -12    1    3    3    0    0 -0.15299152253E+02  0.31857441403E+02  0.84369139993E+01  0.36333760475E+02  0.00000000000E+00 0.  1.
</event>
<event>
 7    1  0.2489154E-013  0.7246160E+02  0.7816164E-02  0.1226708E+00
        -11   -1    0    0    0    0  0.00000000000E+00  0.00000000000E+00  0.45593999997E+02  0.45594000000E+02  0.51100000000E-03 0. -1.
         11   -1    0    0    0    0 -0.00000000000E+00 -0.00000000000E+00 -0.45593999997E+02  0.45594000000E+02  0.51100000000E-03 0.  1.
    9900012    2    1    2    0    0  0.99969330344E+01  0.14725790128E+02 -0.58215683846E+01  0.72461595555E+02  0.70000032907E+02 0.  0.
        -12    1    1    2    0    0 -0.99969330344E+01 -0.14725790128E+02  0.58215683846E+01  0.18726404445E+02  0.00000000000E+00 0.  1.
         11    1    3    3    0    0 -0.29765471606E+01  0.75093108082E+01  0.30325864539E+02  0.31383238235E+02  0.51100000000E-03 0. -1.
        -11    1    3    3    0    0 -0.22765056681E-01  0.18988684552E+00  0.10432227667E+01  0.10606079690E+01  0.51100000000E-03 0.  1.
        -12    1    3    3    0    0  0.12996245252E+02  0.70265924739E+01 -0.37190655690E+02  0.40017749351E+02  0.00000000000E+00 0.  1.
</event>
<event>
 7    1  0.2489154E-013  0.7246158E+02  0.7816164E-02  0.1226708E+00
        -11   -1    0    0    0    0  0.00000000000E+00  0.00000000000E+00  0.45593999997E+02  0.45594000000E+02  0.51100000000E-03 0. -1.
         11   -1    0    0    0    0 -0.00000000000E+00 -0.00000000000E+00 -0.45593999997E+02  0.45594000000E+02  0.51100000000E-03 0.  1.
    9900012    2    1    2    0    0 -0.62647128058E+01  0.15640119420E+02  0.81742899500E+01  0.72461575403E+02  0.70000006654E+02 0.  0.
        -12    1    1    2    0    0  0.62647128058E+01 -0.15640119420E+02 -0.81742899500E+01  0.18726424597E+02  0.00000000000E+00 0.  1.
         11    1    3    3    0    0  0.21661444157E+02  0.20285460523E+02  0.26419245950E+01  0.29794258464E+02  0.51100000000E-03 0. -1.
        -11    1    3    3    0    0 -0.93648644989E+01 -0.67106550481E+01  0.17159094766E+02  0.20668045668E+02  0.51100000000E-03 0.  1.
        -12    1    3    3    0    0 -0.18561292464E+02  0.20653139449E+01 -0.11626729411E+02  0.21999271271E+02  0.00000000000E+00 0.  1.
</event>
<event>
 7    1  0.2489154E-013  0.7246158E+02  0.7816164E-02  0.1226708E+00
        -11   -1    0    0    0    0  0.00000000000E+00  0.00000000000E+00  0.45593999997E+02  0.45594000000E+02  0.51100000000E-03 0. -1.
         11   -1    0    0    0    0 -0.00000000000E+00 -0.00000000000E+00 -0.45593999997E+02  0.45594000000E+02  0.51100000000E-03 0.  1.
    9900012    2    1    2    0    0 -0.15323467758E+02 -0.25879221232E+01  0.10448578532E+02  0.72461580204E+02  0.70000012909E+02 0.  0.
        -12    1    1    2    0    0  0.15323467758E+02  0.25879221232E+01 -0.10448578532E+02  0.18726419796E+02  0.00000000000E+00 0.  1.
         11    1    3    3    0    0  0.37368484795E+01 -0.25196827064E+02 -0.10689208216E+02  0.27624324484E+02  0.51100000000E-03 0. -1.
        -11    1    3    3    0    0 -0.58237895868E+01 -0.11075849026E+01 -0.45349974659E+01  0.74638777954E+01  0.51100000000E-03 0.  1.
         12    1    3    3    0    0 -0.13236526651E+02  0.23716489843E+02  0.25672784214E+02  0.37373377925E+02  0.00000000000E+00 0. -1.
</event>
<event>
 7    1  0.2489154E-013  0.7246171E+02  0.7816164E-02  0.1226708E+00
        -11   -1    0    0    0    0  0.00000000000E+00  0.00000000000E+00  0.45593999997E+02  0.45594000000E+02  0.51100000000E-03 0. -1.
         11   -1    0    0    0    0 -0.00000000000E+00 -0.00000000000E+00 -0.45593999997E+02  0.45594000000E+02  0.51100000000E-03 0.  1.
    9900012    2    1    2    0    0 -0.48357936121E+01  0.34096880036E+01  0.17766906059E+02  0.72461713047E+02  0.70000185961E+02 0.  0.
        -12    1    1    2    0    0  0.48357936121E+01 -0.34096880036E+01 -0.17766906059E+02  0.18726286953E+02  0.00000000000E+00 0.  1.
         11    1    3    3    0    0 -0.30376811727E-01 -0.12555195412E+02  0.26680849862E+02  0.29487312598E+02  0.51100000000E-03 0. -1.
        -11    1    3    3    0    0 -0.65004936627E+01 -0.85344502447E+01 -0.14256465639E+02  0.17842087087E+02  0.51100000000E-03 0.  1.
        -12    1    3    3    0    0  0.16950768623E+01  0.24499333660E+02  0.53425218359E+01  0.25132313362E+02  0.00000000000E+00 0.  1.
</event>
<event>
 7    1  0.2489154E-013  0.7246162E+02  0.7816164E-02  0.1226708E+00
        -11   -1    0    0    0    0  0.00000000000E+00  0.00000000000E+00  0.45593999997E+02  0.45594000000E+02  0.51100000000E-03 0. -1.
         11   -1    0    0    0    0 -0.00000000000E+00 -0.00000000000E+00 -0.45593999997E+02  0.45594000000E+02  0.51100000000E-03 0.  1.
    9900012    2    1    2    0    0 -0.79828442991E+01  0.47052706648E+01  0.16273048070E+02  0.72461615709E+02  0.70000059161E+02 0.  0.
        -12    1    1    2    0    0  0.79828442991E+01 -0.47052706648E+01 -0.16273048070E+02  0.18726384291E+02  0.00000000000E+00 0.  1.
         11    1    3    3    0    0 -0.11562043719E+02  0.13851729174E+02  0.24730764447E+01  0.18211736969E+02  0.51100000000E-03 0. -1.
        -11    1    3    3    0    0 -0.22737487369E+01  0.19925587240E+02 -0.28241730264E+01  0.20252775457E+02  0.51100000000E-03 0.  1.
        -12    1    3    3    0    0  0.58529481567E+01 -0.29072045749E+02  0.16624144652E+02  0.33997103282E+02  0.00000000000E+00 0.  1.
</event>
<event>
 7    1  0.2489154E-013  0.7246158E+02  0.7816164E-02  0.1226708E+00
        -11   -1    0    0    0    0  0.00000000000E+00  0.00000000000E+00  0.45593999997E+02  0.45594000000E+02  0.51100000000E-03 0.  1.
         11   -1    0    0    0    0 -0.00000000000E+00 -0.00000000000E+00 -0.45593999997E+02  0.45594000000E+02  0.51100000000E-03 0. -1.
    9900012    2    1    2    0    0  0.16035947590E+02 -0.35995298742E+01 -0.89761097805E+01  0.72461580769E+02  0.70000013645E+02 0.  0.
        -12    1    1    2    0    0 -0.16035947590E+02  0.35995298742E+01  0.89761097805E+01  0.18726419231E+02  0.00000000000E+00 0.  1.
         11    1    3    3    0    0  0.31891271078E+02  0.29843155127E+01 -0.30437487761E+02  0.44185970302E+02  0.51100000000E-03 0. -1.
        -11    1    3    3    0    0 -0.71442692664E+01 -0.34402332783E+01  0.49594264787E+01  0.93526306256E+01  0.51100000000E-03 0.  1.
        -12    1    3    3    0    0 -0.87110542218E+01 -0.31436121085E+01  0.16501951502E+02  0.18922979842E+02  0.00000000000E+00 0.  1.
</event>
<event>
 7    1  0.2489154E-013  0.7246155E+02  0.7816164E-02  0.1226708E+00
        -11   -1    0    0    0    0  0.00000000000E+00  0.00000000000E+00  0.45593999997E+02  0.45594000000E+02  0.51100000000E-03 0. -1.
         11   -1    0    0    0    0 -0.00000000000E+00 -0.00000000000E+00 -0.45593999997E+02  0.45594000000E+02  0.51100000000E-03 0.  1.
    9900012    2    1    2    0    0 -0.17743194195E+02 -0.56390488078E+01  0.20149563803E+01  0.72461551834E+02  0.69999975952E+02 0.  0.
        -12    1    1    2    0    0  0.17743194195E+02  0.56390488078E+01 -0.20149563803E+01  0.18726448166E+02  0.00000000000E+00 0.  1.
         11    1    3    3    0    0 -0.20133321156E+01 -0.12233174474E+01 -0.47250764978E+00  0.24027641426E+01  0.51100000000E-03 0. -1.
        -11    1    3    3    0    0 -0.19039705665E+02 -0.17300747353E+02 -0.27253708802E+02  0.37477872064E+02  0.51100000000E-03 0.  1.
         12    1    3    3    0    0  0.33098435852E+01  0.12885015992E+02  0.29741172832E+02  0.32580915627E+02  0.00000000000E+00 0. -1.
</event>
<event>
 7    1  0.2489154E-013  0.7246160E+02  0.7816164E-02  0.1226708E+00
        -11   -1    0    0    0    0  0.00000000000E+00  0.00000000000E+00  0.45593999997E+02  0.45594000000E+02  0.51100000000E-03 0.  1.
         11   -1    0    0    0    0 -0.00000000000E+00 -0.00000000000E+00 -0.45593999997E+02  0.45594000000E+02  0.51100000000E-03 0. -1.
    9900012    2    1    2    0    0 -0.18676880394E+02  0.77828036001E+00  0.11164798958E+01  0.72461598612E+02  0.70000036889E+02 0.  0.
        -12    1    1    2    0    0  0.18676880394E+02 -0.77828036001E+00 -0.11164798958E+01  0.18726401388E+02  0.00000000000E+00 0.  1.
         11    1    3    3    0    0  0.39624094461E+01 -0.37481022828E+01  0.50587725814E+01  0.74390953504E+01  0.51100000000E-03 0. -1.
        -11    1    3    3    0    0  0.96106634527E+01 -0.11395523671E+02  0.17626280074E+02  0.23084812350E+02  0.51100000000E-03 0.  1.
         12    1    3    3    0    0 -0.32249953293E+02  0.15921906313E+02 -0.21568572760E+02  0.41937690911E+02  0.00000000000E+00 0. -1.
</event>
<event>
 7    1  0.2489154E-013  0.7246161E+02  0.7816164E-02  0.1226708E+00
        -11   -1    0    0    0    0  0.00000000000E+00  0.00000000000E+00  0.45593999997E+02  0.45594000000E+02  0.51100000000E-03 0. -1.
         11   -1    0    0    0    0 -0.00000000000E+00 -0.00000000000E+00 -0.45593999997E+02  0.45594000000E+02  0.51100000000E-03 0.  1.
    9900012    2    1    2    0    0  0.15528116256E+02 -0.17032296283E+01  0.10327358372E+02  0.72461609088E+02  0.70000050537E+02 0.  0.
        -12    1    1    2    0    0 -0.15528116256E+02  0.17032296283E+01 -0.10327358372E+02  0.18726390912E+02  0.00000000000E+00 0.  1.
         11    1    3    3    0    0  0.96836850003E+01  0.24840744766E+02  0.99110036222E+01  0.28444056475E+02  0.51100000000E-03 0. -1.
        -11    1    3    3    0    0  0.11748890352E+02  0.37068015394E+01 -0.38378673463E+01  0.12903721486E+02  0.51100000000E-03 0.  1.
        -12    1    3    3    0    0 -0.59044590958E+01 -0.30250775934E+02  0.42542220958E+01  0.31113831128E+02  0.00000000000E+00 0.  1.
</event>
<event>
 7    1  0.2489154E-013  0.7246223E+02  0.7816164E-02  0.1226706E+00
        -11   -1    0    0    0    0  0.00000000000E+00  0.00000000000E+00  0.45593999997E+02  0.45594000000E+02  0.51100000000E-03 0. -1.
         11   -1    0    0    0    0 -0.00000000000E+00 -0.00000000000E+00 -0.45593999997E+02  0.45594000000E+02  0.51100000000E-03 0.  1.
    9900012    2    1    2    0    0  0.60836582471E+01 -0.17709566137E+02  0.12137812520E+00  0.72462232644E+02  0.70000862828E+02 0.  0.
        -12    1    1    2    0    0 -0.60836582471E+01  0.17709566137E+02 -0.12137812520E+00  0.18725767356E+02  0.00000000000E+00 0.  1.
         11    1    3    3    0    0 -0.71081224083E+01 -0.10634571510E+02  0.18813856223E+02  0.22750400032E+02  0.51100000000E-03 0. -1.
        -11    1    3    3    0    0  0.20119284357E+02 -0.19439598397E+02 -0.23430578253E+01  0.28074428028E+02  0.51100000000E-03 0.  1.
        -12    1    3    3    0    0 -0.69275037017E+01  0.12364603770E+02 -0.16349420272E+02  0.21637404585E+02  0.00000000000E+00 0.  1.
</event>
<event>
 7    1  0.2489154E-013  0.7246157E+02  0.7816164E-02  0.1226708E+00
        -11   -1    0    0    0    0  0.00000000000E+00  0.00000000000E+00  0.45593999997E+02  0.45594000000E+02  0.51100000000E-03 0. -1.
         11   -1    0    0    0    0 -0.00000000000E+00 -0.00000000000E+00 -0.45593999997E+02  0.45594000000E+02  0.51100000000E-03 0.  1.
    9900012    2    1    2    0    0 -0.38237497900E+01 -0.76425888451E+01  0.16662805635E+02  0.72461566321E+02  0.69999994824E+02 0.  0.
        -12    1    1    2    0    0  0.38237497900E+01  0.76425888451E+01 -0.16662805635E+02  0.18726433679E+02  0.00000000000E+00 0.  1.
         11    1    3    3    0    0 -0.22968109302E+02  0.69825583308E+01  0.87470202458E+01  0.25549961433E+02  0.51100000000E-03 0. -1.
        -11    1    3    3    0    0  0.50825238710E+01 -0.38052967161E+01  0.22852875999E+02  0.23718479582E+02  0.51100000000E-03 0.  1.
        -12    1    3    3    0    0  0.14061835641E+02 -0.10819850460E+02 -0.14937090610E+02  0.23193125306E+02  0.00000000000E+00 0.  1.
</event>
<event>
 7    1  0.2489154E-013  0.7246149E+02  0.7816164E-02  0.1226708E+00
        -11   -1    0    0    0    0  0.00000000000E+00  0.00000000000E+00  0.45593999997E+02  0.45594000000E+02  0.51100000000E-03 0. -1.
         11   -1    0    0    0    0 -0.00000000000E+00 -0.00000000000E+00 -0.45593999997E+02  0.45594000000E+02  0.51100000000E-03 0.  1.
    9900012    2    1    2    0    0  0.49255174879E+01  0.10655878163E+02  0.14590186074E+02  0.72461494944E+02  0.69999901842E+02 0.  0.
        -12    1    1    2    0    0 -0.49255174879E+01 -0.10655878163E+02 -0.14590186074E+02  0.18726505056E+02  0.00000000000E+00 0.  1.
         11    1    3    3    0    0 -0.15482950343E+02 -0.20014870603E+01 -0.38057204338E+01  0.16068951741E+02  0.51100000000E-03 0. -1.
        -11    1    3    3    0    0  0.18657131940E+01  0.14658660493E+02  0.30684765391E+02  0.34057481418E+02  0.51100000000E-03 0.  1.
        -12    1    3    3    0    0  0.18542754637E+02 -0.20012952692E+01 -0.12288858884E+02  0.22335061785E+02  0.00000000000E+00 0.  1.
</event>
<event>
 7    1  0.2489154E-013  0.7246156E+02  0.7816164E-02  0.1226708E+00
        -11   -1    0    0    0    0  0.00000000000E+00  0.00000000000E+00  0.45593999997E+02  0.45594000000E+02  0.51100000000E-03 0. -1.
         11   -1    0    0    0    0 -0.00000000000E+00 -0.00000000000E+00 -0.45593999997E+02  0.45594000000E+02  0.51100000000E-03 0.  1.
    9900012    2    1    2    0    0 -0.10921541772E+02 -0.12908990033E+02  0.80472089839E+01  0.72461556910E+02  0.69999982565E+02 0.  0.
        -12    1    1    2    0    0  0.10921541772E+02  0.12908990033E+02 -0.80472089839E+01  0.18726443090E+02  0.00000000000E+00 0.  1.
         11    1    3    3    0    0 -0.46247641284E+01 -0.91807452624E+00  0.27210871902E+01  0.54438607474E+01  0.51100000000E-03 0. -1.
        -11    1    3    3    0    0 -0.32109705058E+02 -0.22210453380E+02  0.29682658753E+01  0.39155433861E+02  0.51100000000E-03 0.  1.
         12    1    3    3    0    0  0.25812927415E+02  0.10219537873E+02  0.23578559184E+01  0.27862262302E+02  0.00000000000E+00 0. -1.
</event>
<event>
 7    1  0.2489154E-013  0.7246138E+02  0.7816164E-02  0.1226709E+00
        -11   -1    0    0    0    0  0.00000000000E+00  0.00000000000E+00  0.45593999997E+02  0.45594000000E+02  0.51100000000E-03 0. -1.
         11   -1    0    0    0    0 -0.00000000000E+00 -0.00000000000E+00 -0.45593999997E+02  0.45594000000E+02  0.51100000000E-03 0.  1.
    9900012    2    1    2    0    0 -0.16368429420E+02  0.88083821479E+01  0.22744466428E+01  0.72461382973E+02  0.69999755979E+02 0.  0.
        -12    1    1    2    0    0  0.16368429420E+02 -0.88083821479E+01 -0.22744466428E+01  0.18726617027E+02  0.00000000000E+00 0.  1.
         11    1    3    3    0    0  0.35017085939E+01  0.28434399586E+02  0.20577818838E+02  0.35273554844E+02  0.51100000000E-03 0. -1.
        -11    1    3    3    0    0 -0.24309830347E+01  0.15473342226E+01  0.16010134275E+01  0.32965384826E+01  0.51100000000E-03 0.  1.
        -12    1    3    3    0    0 -0.17439154979E+02 -0.21173351661E+02 -0.19904385623E+02  0.33891289647E+02  0.00000000000E+00 0.  1.
</event>
<event>
 7    1  0.2489154E-013  0.7246156E+02  0.7816164E-02  0.1226708E+00
        -11   -1    0    0    0    0  0.00000000000E+00  0.00000000000E+00  0.45593999997E+02  0.45594000000E+02  0.51100000000E-03 0.  1.
         11   -1    0    0    0    0 -0.00000000000E+00 -0.00000000000E+00 -0.45593999997E+02  0.45594000000E+02  0.51100000000E-03 0. -1.
    9900012    2    1    2    0    0  0.25635239115E+01  0.66417456294E+01 -0.17320367025E+02  0.72461560036E+02  0.69999986636E+02 0.  0.
        -12    1    1    2    0    0 -0.25635239115E+01 -0.66417456294E+01  0.17320367025E+02  0.18726439964E+02  0.00000000000E+00 0.  1.
         11    1    3    3    0    0  0.20932848408E+02  0.18737333249E+02 -0.28540919201E+02  0.40048169357E+02  0.51100000000E-03 0. -1.
        -11    1    3    3    0    0  0.41971316621E+01 -0.13716429505E+01 -0.11077323490E+01  0.45524048360E+01  0.51100000000E-03 0.  1.
        -12    1    3    3    0    0 -0.22566456159E+02 -0.10723944669E+02  0.12328284525E+02  0.27860985843E+02  0.00000000000E+00 0.  1.
</event>
<event>
 7    1  0.2489154E-013  0.7246153E+02  0.7816164E-02  0.1226708E+00
        -11   -1    0    0    0    0  0.00000000000E+00  0.00000000000E+00  0.45593999997E+02  0.45594000000E+02  0.51100000000E-03 0. -1.
         11   -1    0    0    0    0 -0.00000000000E+00 -0.00000000000E+00 -0.45593999997E+02  0.45594000000E+02  0.51100000000E-03 0.  1.
    9900012    2    1    2    0    0 -0.73185840285E+01  0.16173856381E+02  0.59603055559E+01  0.72461533576E+02  0.69999952167E+02 0.  0.
        -12    1    1    2    0    0  0.73185840285E+01 -0.16173856381E+02 -0.59603055559E+01  0.18726466424E+02  0.00000000000E+00 0.  1.
         11    1    3    3    0    0 -0.50895916293E+01  0.40096232746E+01 -0.17583422346E+02  0.18739203916E+02  0.51100000000E-03 0. -1.
        -11    1    3    3    0    0 -0.10307991324E+02  0.14346828790E+02 -0.92056649811E+01  0.19920603643E+02  0.51100000000E-03 0.  1.
         12    1    3    3    0    0  0.80789989252E+01 -0.21825956837E+01  0.32749392883E+02  0.33801726017E+02  0.00000000000E+00 0. -1.
</event>
<event>
 7    1  0.2489154E-013  0.7246158E+02  0.7816164E-02  0.1226708E+00
        -11   -1    0    0    0    0  0.00000000000E+00  0.00000000000E+00  0.45593999997E+02  0.45594000000E+02  0.51100000000E-03 0.  1.
         11   -1    0    0    0    0 -0.00000000000E+00 -0.00000000000E+00 -0.45593999997E+02  0.45594000000E+02  0.51100000000E-03 0. -1.
    9900012    2    1    2    0    0 -0.15637266928E+01  0.59721473441E+01 -0.17679564742E+02  0.72461580307E+02  0.70000013043E+02 0.  0.
        -12    1    1    2    0    0  0.15637266928E+01 -0.59721473441E+01  0.17679564742E+02  0.18726419693E+02  0.00000000000E+00 0.  1.
         11    1    3    3    0    0  0.17704313834E+02  0.11755535166E+02 -0.30131496360E+02  0.36871973212E+02  0.51100000000E-03 0. -1.
        -11    1    3    3    0    0  0.40392597657E+01 -0.72903350879E+01 -0.13756837261E+01  0.84473138407E+01  0.51100000000E-03 0.  1.
        -12    1    3    3    0    0 -0.23307300292E+02  0.15069472656E+01  0.13827615345E+02  0.27142293254E+02  0.00000000000E+00 0.  1.
</event>
<event>
 7    1  0.2489154E-013  0.7246160E+02  0.7816164E-02  0.1226708E+00
        -11   -1    0    0    0    0  0.00000000000E+00  0.00000000000E+00  0.45593999997E+02  0.45594000000E+02  0.51100000000E-03 0.  1.
         11   -1    0    0    0    0 -0.00000000000E+00 -0.00000000000E+00 -0.45593999997E+02  0.45594000000E+02  0.51100000000E-03 0. -1.
    9900012    2    1    2    0    0 -0.10356502404E+02  0.69173312662E+01 -0.13984687773E+02  0.72461598690E+02  0.70000036991E+02 0.  0.
        -12    1    1    2    0    0  0.10356502404E+02 -0.69173312662E+01  0.13984687773E+02  0.18726401310E+02  0.00000000000E+00 0.  1.
         11    1    3    3    0    0  0.38998601431E+01  0.26475232904E+01 -0.32931909655E+02  0.33267536165E+02  0.51100000000E-03 0. -1.
        -11    1    3    3    0    0 -0.58500207067E+01 -0.13134387695E+02  0.45091478546E+01  0.15068752338E+02  0.51100000000E-03 0.  1.
        -12    1    3    3    0    0 -0.84063418403E+01  0.17404195670E+02  0.14438074026E+02  0.24125310188E+02  0.00000000000E+00 0.  1.
</event>
<event>
 7    1  0.2489154E-013  0.7246156E+02  0.7816164E-02  0.1226708E+00
        -11   -1    0    0    0    0  0.00000000000E+00  0.00000000000E+00  0.45593999997E+02  0.45594000000E+02  0.51100000000E-03 0. -1.
         11   -1    0    0    0    0 -0.00000000000E+00 -0.00000000000E+00 -0.45593999997E+02  0.45594000000E+02  0.51100000000E-03 0.  1.
    9900012    2    1    2    0    0 -0.11786902087E+02  0.13947397512E+02 -0.41495396854E+01  0.72461557792E+02  0.69999983714E+02 0.  0.
        -12    1    1    2    0    0  0.11786902087E+02 -0.13947397512E+02  0.41495396854E+01  0.18726442208E+02  0.00000000000E+00 0.  1.
         11    1    3    3    0    0  0.22316417782E+00 -0.31610018502E+01 -0.45132228852E+01  0.55146093261E+01  0.51100000000E-03 0. -1.
        -11    1    3    3    0    0  0.23241953418E+01  0.29454800066E+01 -0.30148577495E+02  0.30381153067E+02  0.51100000000E-03 0.  1.
         12    1    3    3    0    0 -0.14334261607E+02  0.14162919355E+02  0.30512260695E+02  0.36565795399E+02  0.00000000000E+00 0. -1.
</event>
<event>
 7    1  0.2489154E-013  0.7246154E+02  0.7816164E-02  0.1226708E+00
        -11   -1    0    0    0    0  0.00000000000E+00  0.00000000000E+00  0.45593999997E+02  0.45594000000E+02  0.51100000000E-03 0.  1.
         11   -1    0    0    0    0 -0.00000000000E+00 -0.00000000000E+00 -0.45593999997E+02  0.45594000000E+02  0.51100000000E-03 0. -1.
    9900012    2    1    2    0    0 -0.11760553980E+02 -0.65189459812E+01 -0.13033534934E+02  0.72461539589E+02  0.69999960001E+02 0.  0.
        -12    1    1    2    0    0  0.11760553980E+02  0.65189459812E+01  0.13033534934E+02  0.18726460411E+02  0.00000000000E+00 0.  1.
         11    1    3    3    0    0 -0.51559946295E+01 -0.13952293371E+01  0.57798655203E+01  0.78700566209E+01  0.51100000000E-03 0. -1.
        -11    1    3    3    0    0 -0.44193821440E+01  0.76454635681E+01  0.20969138640E+02  0.22752776254E+02  0.51100000000E-03 0.  1.
         12    1    3    3    0    0 -0.21851772069E+01 -0.12769180212E+02 -0.39782539095E+02  0.41838706714E+02  0.00000000000E+00 0. -1.
</event>
<event>
 7    1  0.2489154E-013  0.7246192E+02  0.7816164E-02  0.1226707E+00
        -11   -1    0    0    0    0  0.00000000000E+00  0.00000000000E+00  0.45593999997E+02  0.45594000000E+02  0.51100000000E-03 0.  1.
         11   -1    0    0    0    0 -0.00000000000E+00 -0.00000000000E+00 -0.45593999997E+02  0.45594000000E+02  0.51100000000E-03 0. -1.
    9900012    2    1    2    0    0 -0.43041834636E+01 -0.17853887084E+02 -0.36577073450E+01  0.72461919195E+02  0.70000454507E+02 0.  0.
        -12    1    1    2    0    0  0.43041834636E+01  0.17853887084E+02  0.36577073450E+01  0.18726080805E+02  0.00000000000E+00 0.  1.
         11    1    3    3    0    0  0.82393580700E+01 -0.70331801925E+01 -0.14719254780E+02  0.18275916025E+02  0.51100000000E-03 0. -1.
        -11    1    3    3    0    0 -0.23545760857E+02  0.12745272193E+02  0.29149305354E+01  0.26932167345E+02  0.51100000000E-03 0.  1.
         12    1    3    3    0    0  0.11002219323E+02 -0.23565979085E+02  0.81466168993E+01  0.27253835825E+02  0.00000000000E+00 0. -1.
</event>
<event>
 7    1  0.2489154E-013  0.7246156E+02  0.7816164E-02  0.1226708E+00
        -11   -1    0    0    0    0  0.00000000000E+00  0.00000000000E+00  0.45593999997E+02  0.45594000000E+02  0.51100000000E-03 0.  1.
         11   -1    0    0    0    0 -0.00000000000E+00 -0.00000000000E+00 -0.45593999997E+02  0.45594000000E+02  0.51100000000E-03 0. -1.
    9900012    2    1    2    0    0  0.74904191959E+01  0.15778572967E+02 -0.67534899594E+01  0.72461564909E+02  0.69999992984E+02 0.  0.
        -12    1    1    2    0    0 -0.74904191959E+01 -0.15778572967E+02  0.67534899594E+01  0.18726435091E+02  0.00000000000E+00 0.  1.
         11    1    3    3    0    0  0.19509136219E+02 -0.21177675295E+02 -0.49229336974E+01  0.29211908588E+02  0.51100000000E-03 0.  1.
        -11    1    3    3    0    0 -0.11001303607E+02  0.92999987194E+01 -0.53181202889E+01  0.15355815214E+02  0.51100000000E-03 0. -1.
        -12    1    3    3    0    0 -0.10174134161E+01  0.27656249543E+02  0.34875640269E+01  0.27893841106E+02  0.00000000000E+00 0.  1.
</event>
<event>
 7    1  0.2489154E-013  0.7246158E+02  0.7816164E-02  0.1226708E+00
        -11   -1    0    0    0    0  0.00000000000E+00  0.00000000000E+00  0.45593999997E+02  0.45594000000E+02  0.51100000000E-03 0.  1.
         11   -1    0    0    0    0 -0.00000000000E+00 -0.00000000000E+00 -0.45593999997E+02  0.45594000000E+02  0.51100000000E-03 0. -1.
    9900012    2    1    2    0    0 -0.32271140960E+01 -0.47603384872E+00 -0.18440121330E+02  0.72461576202E+02  0.70000007696E+02 0.  0.
        -12    1    1    2    0    0  0.32271140960E+01  0.47603384872E+00  0.18440121330E+02  0.18726423798E+02  0.00000000000E+00 0.  1.
         11    1    3    3    0    0 -0.15841872300E+00 -0.26891573538E+01 -0.11109528897E+02  0.11431460814E+02  0.51100000000E-03 0. -1.
        -11    1    3    3    0    0  0.84182680319E+01  0.29590424990E+02 -0.57594032674E+01  0.31299060912E+02  0.51100000000E-03 0.  1.
         12    1    3    3    0    0 -0.11486963405E+02 -0.27377301485E+02 -0.15711891651E+01  0.29731054476E+02  0.00000000000E+00 0. -1.
</event>
<event>
 7    1  0.2489154E-013  0.7246154E+02  0.7816164E-02  0.1226708E+00
        -11   -1    0    0    0    0  0.00000000000E+00  0.00000000000E+00  0.45593999997E+02  0.45594000000E+02  0.51100000000E-03 0.  1.
         11   -1    0    0    0    0 -0.00000000000E+00 -0.00000000000E+00 -0.45593999997E+02  0.45594000000E+02  0.51100000000E-03 0. -1.
    9900012    2    1    2    0    0  0.34790042271E+01 -0.33553911693E+01 -0.18091931837E+02  0.72461544973E+02  0.69999967014E+02 0.  0.
        -12    1    1    2    0    0 -0.34790042271E+01  0.33553911693E+01  0.18091931837E+02  0.18726455027E+02  0.00000000000E+00 0.  1.
         11    1    3    3    0    0  0.17740896234E+02  0.21572183427E+02 -0.10272638098E+02  0.29759462205E+02  0.51100000000E-03 0. -1.
        -11    1    3    3    0    0 -0.51711506965E+01  0.45999205605E+01  0.57119199107E+01  0.89736334901E+01  0.51100000000E-03 0.  1.
         12    1    3    3    0    0 -0.90907413099E+01 -0.29527495157E+02 -0.13531213650E+02  0.33728449277E+02  0.00000000000E+00 0. -1.
</event>
<event>
 7    1  0.2489154E-013  0.7246156E+02  0.7816164E-02  0.1226708E+00
        -11   -1    0    0    0    0  0.00000000000E+00  0.00000000000E+00  0.45593999997E+02  0.45594000000E+02  0.51100000000E-03 0.  1.
         11   -1    0    0    0    0 -0.00000000000E+00 -0.00000000000E+00 -0.45593999997E+02  0.45594000000E+02  0.51100000000E-03 0. -1.
    9900012    2    1    2    0    0 -0.27971377248E+01 -0.16661036494E+02  0.80787064183E+01  0.72461558430E+02  0.69999984544E+02 0.  0.
        -12    1    1    2    0    0  0.27971377248E+01  0.16661036494E+02 -0.80787064183E+01  0.18726441570E+02  0.00000000000E+00 0.  1.
         11    1    3    3    0    0 -0.75454054692E+01 -0.44281470586E+01 -0.22500167383E+01  0.90335046162E+01  0.51100000000E-03 0. -1.
        -11    1    3    3    0    0 -0.87455163369E+01  0.71132515369E+01  0.30421467078E+02  0.32442997131E+02  0.51100000000E-03 0.  1.
        -12    1    3    3    0    0  0.13493784081E+02 -0.19346140972E+02 -0.20092743921E+02  0.30985056682E+02  0.00000000000E+00 0.  1.
</event>
<event>
 7    1  0.2489154E-013  0.7246156E+02  0.7816164E-02  0.1226708E+00
        -11   -1    0    0    0    0  0.00000000000E+00  0.00000000000E+00  0.45593999997E+02  0.45594000000E+02  0.51100000000E-03 0.  1.
         11   -1    0    0    0    0 -0.00000000000E+00 -0.00000000000E+00 -0.45593999997E+02  0.45594000000E+02  0.51100000000E-03 0. -1.
    9900012    2    1    2    0    0  0.79280349094E+01 -0.16190123604E+02 -0.50700661598E+01  0.72461563855E+02  0.69999991611E+02 0.  0.
        -12    1    1    2    0    0 -0.79280349094E+01  0.16190123604E+02  0.50700661598E+01  0.18726436145E+02  0.00000000000E+00 0.  1.
         11    1    3    3    0    0  0.17964121627E+01 -0.28752373657E+02 -0.92255705019E+01  0.30249582458E+02  0.51100000000E-03 0. -1.
        -11    1    3    3    0    0  0.17818050485E+02 -0.70596702037E+01  0.16489437093E+01  0.19236446712E+02  0.51100000000E-03 0.  1.
        -12    1    3    3    0    0 -0.11686427739E+02  0.19621920257E+02  0.25065606329E+01  0.22975534685E+02  0.00000000000E+00 0.  1.
</event>
<event>
 7    1  0.2489154E-013  0.7246150E+02  0.7816164E-02  0.1226708E+00
        -11   -1    0    0    0    0  0.00000000000E+00  0.00000000000E+00  0.45593999997E+02  0.45594000000E+02  0.51100000000E-03 0.  1.
         11   -1    0    0    0    0 -0.00000000000E+00 -0.00000000000E+00 -0.45593999997E+02  0.45594000000E+02  0.51100000000E-03 0. -1.
    9900012    2    1    2    0    0  0.75019089529E+00 -0.18327855777E+02 -0.37694686656E+01  0.72461495314E+02  0.69999902324E+02 0.  0.
        -12    1    1    2    0    0 -0.75019089529E+00  0.18327855777E+02  0.37694686656E+01  0.18726504686E+02  0.00000000000E+00 0.  1.
         11    1    3    3    0    0  0.10778825236E+01 -0.23562245496E+02 -0.10596366514E+02  0.25857769183E+02  0.51100000000E-03 0. -1.
        -11    1    3    3    0    0 -0.40516478620E+01 -0.17374191002E+02 -0.77454622362E+01  0.19449178617E+02  0.51100000000E-03 0.  1.
        -12    1    3    3    0    0  0.37239562337E+01  0.22608580721E+02  0.14572360085E+02  0.27154547514E+02  0.00000000000E+00 0.  1.
</event>
<event>
 7    1  0.2489154E-013  0.7246173E+02  0.7816164E-02  0.1226708E+00
        -11   -1    0    0    0    0  0.00000000000E+00  0.00000000000E+00  0.45593999997E+02  0.45594000000E+02  0.51100000000E-03 0. -1.
         11   -1    0    0    0    0 -0.00000000000E+00 -0.00000000000E+00 -0.45593999997E+02  0.45594000000E+02  0.51100000000E-03 0.  1.
    9900012    2    1    2    0    0 -0.67299551902E+01 -0.11251247762E+02  0.13371253764E+02  0.72461727005E+02  0.70000204144E+02 0.  0.
        -12    1    1    2    0    0  0.67299551902E+01  0.11251247762E+02 -0.13371253764E+02  0.18726272995E+02  0.00000000000E+00 0.  1.
         11    1    3    3    0    0  0.26041895728E+00  0.53161891111E+01  0.10641708799E+01  0.54279042568E+01  0.51100000000E-03 0. -1.
        -11    1    3    3    0    0  0.44438443226E+01  0.16161671321E+02 -0.15316469547E+02  0.22705541436E+02  0.51100000000E-03 0.  1.
         12    1    3    3    0    0 -0.11434218470E+02 -0.32729108194E+02  0.27623552431E+02  0.44328281312E+02  0.00000000000E+00 0. -1.
</event>
<event>
 7    1  0.2489154E-013  0.7246166E+02  0.7816164E-02  0.1226708E+00
        -11   -1    0    0    0    0  0.00000000000E+00  0.00000000000E+00  0.45593999997E+02  0.45594000000E+02  0.51100000000E-03 0.  1.
         11   -1    0    0    0    0 -0.00000000000E+00 -0.00000000000E+00 -0.45593999997E+02  0.45594000000E+02  0.51100000000E-03 0. -1.
    9900012    2    1    2    0    0  0.16744362557E+02  0.20276813991E+01 -0.81357678629E+01  0.72461657911E+02  0.70000114137E+02 0.  0.
        -12    1    1    2    0    0 -0.16744362557E+02 -0.20276813991E+01  0.81357678629E+01  0.18726342089E+02  0.00000000000E+00 0.  1.
         11    1    3    3    0    0  0.12880331935E+01 -0.29920426561E+02  0.18319668325E+01  0.30004117348E+02  0.51100000000E-03 0. -1.
        -11    1    3    3    0    0  0.11543136536E+02  0.52393023461E+01 -0.88127828791E+01  0.15438893500E+02  0.51100000000E-03 0.  1.
        -12    1    3    3    0    0  0.39131928280E+01  0.26708805614E+02 -0.11549518164E+01  0.27018647063E+02  0.00000000000E+00 0.  1.
</event>
<event>
 7    1  0.2489154E-013  0.7246156E+02  0.7816164E-02  0.1226708E+00
        -11   -1    0    0    0    0  0.00000000000E+00  0.00000000000E+00  0.45593999997E+02  0.45594000000E+02  0.51100000000E-03 0.  1.
         11   -1    0    0    0    0 -0.00000000000E+00 -0.00000000000E+00 -0.45593999997E+02  0.45594000000E+02  0.51100000000E-03 0. -1.
    9900012    2    1    2    0    0  0.26449974133E-01  0.18687614166E+02  0.12049369852E+01  0.72461561578E+02  0.69999988645E+02 0.  0.
        -12    1    1    2    0    0 -0.26449974133E-01 -0.18687614166E+02 -0.12049369852E+01  0.18726438422E+02  0.00000000000E+00 0.  1.
         11    1    3    3    0    0  0.48783553834E+01  0.59641629890E+01 -0.21094638171E+02  0.22457812699E+02  0.51100000000E-03 0. -1.
        -11    1    3    3    0    0 -0.10555102537E+02  0.25042220659E+02  0.24084046285E+02  0.36312040576E+02  0.51100000000E-03 0.  1.
         12    1    3    3    0    0  0.57031971278E+01 -0.12318769482E+02 -0.17844711280E+01  0.13691708302E+02  0.00000000000E+00 0. -1.
</event>
<event>
 7    1  0.2489154E-013  0.7246157E+02  0.7816164E-02  0.1226708E+00
        -11   -1    0    0    0    0  0.00000000000E+00  0.00000000000E+00  0.45593999997E+02  0.45594000000E+02  0.51100000000E-03 0. -1.
         11   -1    0    0    0    0 -0.00000000000E+00 -0.00000000000E+00 -0.45593999997E+02  0.45594000000E+02  0.51100000000E-03 0.  1.
    9900012    2    1    2    0    0 -0.54037182315E+01 -0.13274213386E+02  0.12052977054E+02  0.72461570346E+02  0.70000000067E+02 0.  0.
        -12    1    1    2    0    0  0.54037182315E+01  0.13274213386E+02 -0.12052977054E+02  0.18726429654E+02  0.00000000000E+00 0.  1.
         11    1    3    3    0    0 -0.48826993129E+01  0.61070461795E+01 -0.13717075063E+01  0.79384096243E+01  0.51100000000E-03 0. -1.
        -11    1    3    3    0    0 -0.17650447263E+02  0.72208545042E+01 -0.13182164818E+02  0.23182935489E+02  0.51100000000E-03 0.  1.
        -12    1    3    3    0    0  0.17129428345E+02 -0.26602114069E+02  0.26606849378E+02  0.41340225232E+02  0.00000000000E+00 0.  1.
</event>
<event>
 7    1  0.2489154E-013  0.7246157E+02  0.7816164E-02  0.1226708E+00
        -11   -1    0    0    0    0  0.00000000000E+00  0.00000000000E+00  0.45593999997E+02  0.45594000000E+02  0.51100000000E-03 0.  1.
         11   -1    0    0    0    0 -0.00000000000E+00 -0.00000000000E+00 -0.45593999997E+02  0.45594000000E+02  0.51100000000E-03 0. -1.
    9900012    2    1    2    0    0 -0.11974805682E+02  0.11008868646E+02  0.92783542379E+01  0.72461574357E+02  0.70000005293E+02 0.  0.
        -12    1    1    2    0    0  0.11974805682E+02 -0.11008868646E+02 -0.92783542379E+01  0.18726425643E+02  0.00000000000E+00 0.  1.
         11    1    3    3    0    0  0.82869130322E+01 -0.94570517047E+01 -0.18522270336E+01  0.12709819031E+02  0.51100000000E-03 0. -1.
        -11    1    3    3    0    0  0.10785797536E+02 -0.77916390577E+01 -0.57611935620E+01  0.14499462721E+02  0.51100000000E-03 0.  1.
         12    1    3    3    0    0 -0.31047516250E+02  0.28257559408E+02  0.16891774834E+02  0.45252292605E+02  0.00000000000E+00 0. -1.
</event>
<event>
 7    1  0.2489154E-013  0.7246159E+02  0.7816164E-02  0.1226708E+00
        -11   -1    0    0    0    0  0.00000000000E+00  0.00000000000E+00  0.45593999997E+02  0.45594000000E+02  0.51100000000E-03 0.  1.
         11   -1    0    0    0    0 -0.00000000000E+00 -0.00000000000E+00 -0.45593999997E+02  0.45594000000E+02  0.51100000000E-03 0. -1.
    9900012    2    1    2    0    0  0.10020759319E+02 -0.15784712942E+02 -0.10514949562E+01  0.72461590263E+02  0.70000026014E+02 0.  0.
        -12    1    1    2    0    0 -0.10020759319E+02  0.15784712942E+02  0.10514949562E+01  0.18726409737E+02  0.00000000000E+00 0.  1.
         11    1    3    3    0    0  0.16446496533E+02 -0.26035204577E+02 -0.12368335384E+00  0.30795038941E+02  0.51100000000E-03 0. -1.
        -11    1    3    3    0    0 -0.14291413114E+02 -0.11607105923E+02  0.15058679256E+00  0.18411737380E+02  0.51100000000E-03 0.  1.
        -12    1    3    3    0    0  0.78656759002E+01  0.21857597558E+02 -0.10783983949E+01  0.23254813942E+02  0.00000000000E+00 0.  1.
</event>
<event>
 7    1  0.2489154E-013  0.7246154E+02  0.7816164E-02  0.1226708E+00
        -11   -1    0    0    0    0  0.00000000000E+00  0.00000000000E+00  0.45593999997E+02  0.45594000000E+02  0.51100000000E-03 0.  1.
         11   -1    0    0    0    0 -0.00000000000E+00 -0.00000000000E+00 -0.45593999997E+02  0.45594000000E+02  0.51100000000E-03 0. -1.
    9900012    2    1    2    0    0 -0.53162667165E+01  0.13129939849E+02 -0.12248362637E+02  0.72461537453E+02  0.69999957218E+02 0.  0.
        -12    1    1    2    0    0  0.53162667165E+01 -0.13129939849E+02  0.12248362637E+02  0.18726462547E+02  0.00000000000E+00 0.  1.
         11    1    3    3    0    0  0.73170295950E+01 -0.11026787601E+02 -0.12042719608E+02  0.17892905374E+02  0.51100000000E-03 0. -1.
        -11    1    3    3    0    0 -0.74415766419E+01 -0.14023682113E+02  0.18431620913E+01  0.15982426902E+02  0.51100000000E-03 0.  1.
         12    1    3    3    0    0 -0.51917196696E+01  0.38180409563E+02 -0.20488051194E+01  0.38586205177E+02  0.00000000000E+00 0. -1.
</event>
<event>
 7    1  0.2489154E-013  0.7246137E+02  0.7816164E-02  0.1226709E+00
        -11   -1    0    0    0    0  0.00000000000E+00  0.00000000000E+00  0.45593999997E+02  0.45594000000E+02  0.51100000000E-03 0. -1.
         11   -1    0    0    0    0 -0.00000000000E+00 -0.00000000000E+00 -0.45593999997E+02  0.45594000000E+02  0.51100000000E-03 0.  1.
    9900012    2    1    2    0    0  0.75232639063E+01 -0.14828896193E+02 -0.86134293865E+01  0.72461365815E+02  0.69999733628E+02 0.  0.
        -12    1    1    2    0    0 -0.75232639063E+01  0.14828896193E+02  0.86134293865E+01  0.18726634185E+02  0.00000000000E+00 0.  1.
         11    1    3    3    0    0 -0.40011581856E+00 -0.30310136965E+02 -0.22898674601E+02  0.37989653779E+02  0.51100000000E-03 0. -1.
        -11    1    3    3    0    0 -0.13860126201E+01 -0.18551385968E+01 -0.58658817751E+01  0.63064363517E+01  0.51100000000E-03 0.  1.
        -12    1    3    3    0    0  0.93093923449E+01  0.17336379369E+02  0.20151126990E+02  0.28165275685E+02  0.00000000000E+00 0.  1.
</event>
<event>
 7    1  0.2489154E-013  0.7246152E+02  0.7816164E-02  0.1226708E+00
        -11   -1    0    0    0    0  0.00000000000E+00  0.00000000000E+00  0.45593999997E+02  0.45594000000E+02  0.51100000000E-03 0.  1.
         11   -1    0    0    0    0 -0.00000000000E+00 -0.00000000000E+00 -0.45593999997E+02  0.45594000000E+02  0.51100000000E-03 0. -1.
    9900012    2    1    2    0    0 -0.16345299592E+02 -0.89145679052E+01  0.20106455706E+01  0.72461520478E+02  0.69999935104E+02 0.  0.
        -12    1    1    2    0    0  0.16345299592E+02  0.89145679052E+01 -0.20106455706E+01  0.18726479522E+02  0.00000000000E+00 0.  1.
         11    1    3    3    0    0 -0.24510707611E+02  0.12622492991E+02 -0.22972870299E+02  0.35886695124E+02  0.51100000000E-03 0. -1.
        -11    1    3    3    0    0  0.52444333888E+01 -0.42622933239E+01  0.14898384885E+02  0.16359495664E+02  0.51100000000E-03 0.  1.
        -12    1    3    3    0    0  0.29209746300E+01 -0.17274767572E+02  0.10085130985E+02  0.20215329689E+02  0.00000000000E+00 0.  1.
</event>
<event>
 7    1  0.2489154E-013  0.7246150E+02  0.7816164E-02  0.1226708E+00
        -11   -1    0    0    0    0  0.00000000000E+00  0.00000000000E+00  0.45593999997E+02  0.45594000000E+02  0.51100000000E-03 0. -1.
         11   -1    0    0    0    0 -0.00000000000E+00 -0.00000000000E+00 -0.45593999997E+02  0.45594000000E+02  0.51100000000E-03 0.  1.
    9900012    2    1    2    0    0  0.42130138543E-01 -0.15321729162E+02 -0.10766834118E+02  0.72461498020E+02  0.69999905850E+02 0.  0.
        -12    1    1    2    0    0 -0.42130138543E-01  0.15321729162E+02  0.10766834118E+02  0.18726501980E+02  0.00000000000E+00 0.  1.
         11    1    3    3    0    0  0.74351172551E+01 -0.72341510200E+00  0.55022838271E+01  0.92778998476E+01  0.51100000000E-03 0.  1.
        -11    1    3    3    0    0 -0.17553734561E+02 -0.24414678205E+02  0.11366016504E+02  0.32146484105E+02  0.51100000000E-03 0. -1.
         12    1    3    3    0    0  0.10160747444E+02  0.98163641447E+01 -0.27635134449E+02  0.31037114068E+02  0.00000000000E+00 0. -1.
</event>
<event>
 7    1  0.2489154E-013  0.7246155E+02  0.7816164E-02  0.1226708E+00
        -11   -1    0    0    0    0  0.00000000000E+00  0.00000000000E+00  0.45593999997E+02  0.45594000000E+02  0.51100000000E-03 0. -1.
         11   -1    0    0    0    0 -0.00000000000E+00 -0.00000000000E+00 -0.45593999997E+02  0.45594000000E+02  0.51100000000E-03 0.  1.
    9900012    2    1    2    0    0  0.13872125597E+01 -0.44249727849E+01  0.18143186875E+02  0.72461548846E+02  0.69999972059E+02 0.  0.
        -12    1    1    2    0    0 -0.13872125597E+01  0.44249727849E+01 -0.18143186875E+02  0.18726451154E+02  0.00000000000E+00 0.  1.
         11    1    3    3    0    0  0.13081255326E+02 -0.14331541527E+02  0.42146843125E+00  0.19408502244E+02  0.51100000000E-03 0. -1.
        -11    1    3    3    0    0 -0.45428035538E+01 -0.80658351838E+01 -0.13473762050E+02  0.16347385888E+02  0.51100000000E-03 0.  1.
        -12    1    3    3    0    0 -0.71512392126E+01  0.17972403926E+02  0.31195480494E+02  0.36705660714E+02  0.00000000000E+00 0.  1.
</event>
<event>
 7    1  0.2489154E-013  0.7246154E+02  0.7816164E-02  0.1226708E+00
        -11   -1    0    0    0    0  0.00000000000E+00  0.00000000000E+00  0.45593999997E+02  0.45594000000E+02  0.51100000000E-03 0. -1.
         11   -1    0    0    0    0 -0.00000000000E+00 -0.00000000000E+00 -0.45593999997E+02  0.45594000000E+02  0.51100000000E-03 0.  1.
    9900012    2    1    2    0    0  0.44744476600E+01 -0.55992566943E+01  0.17300513910E+02  0.72461544411E+02  0.69999966282E+02 0.  0.
        -12    1    1    2    0    0 -0.44744476600E+01  0.55992566943E+01 -0.17300513910E+02  0.18726455589E+02  0.00000000000E+00 0.  1.
         11    1    3    3    0    0  0.12997462393E+02 -0.33125909072E+01  0.14176491868E+02  0.19516152518E+02  0.51100000000E-03 0. -1.
        -11    1    3    3    0    0 -0.41036753366E+01  0.82695685266E+01 -0.22805269126E+02  0.24602971671E+02  0.51100000000E-03 0.  1.
         12    1    3    3    0    0 -0.44193393960E+01 -0.10556234314E+02  0.25929291168E+02  0.28342420222E+02  0.00000000000E+00 0. -1.
</event>
<event>
 7    1  0.2489154E-013  0.7246159E+02  0.7816164E-02  0.1226708E+00
        -11   -1    0    0    0    0  0.00000000000E+00  0.00000000000E+00  0.45593999997E+02  0.45594000000E+02  0.51100000000E-03 0.  1.
         11   -1    0    0    0    0 -0.00000000000E+00 -0.00000000000E+00 -0.45593999997E+02  0.45594000000E+02  0.51100000000E-03 0. -1.
    9900012    2    1    2    0    0 -0.10644121907E+02  0.28602047402E+01 -0.15139364353E+02  0.72461589363E+02  0.70000024841E+02 0.  0.
        -12    1    1    2    0    0  0.10644121907E+02 -0.28602047402E+01  0.15139364353E+02  0.18726410637E+02  0.00000000000E+00 0.  1.
         11    1    3    3    0    0  0.59201683485E+01  0.22841330069E+02 -0.21474562087E+02  0.31905039879E+02  0.51100000000E-03 0. -1.
        -11    1    3    3    0    0  0.53990686140E+01  0.21854262682E+01  0.72972873013E+01  0.93368320158E+01  0.51100000000E-03 0.  1.
        -12    1    3    3    0    0 -0.21963358869E+02 -0.22166551597E+02 -0.96208956704E+00  0.31219717469E+02  0.00000000000E+00 0.  1.
</event>
<event>
 7    1  0.2489154E-013  0.7246155E+02  0.7816164E-02  0.1226708E+00
        -11   -1    0    0    0    0  0.00000000000E+00  0.00000000000E+00  0.45593999997E+02  0.45594000000E+02  0.51100000000E-03 0. -1.
         11   -1    0    0    0    0 -0.00000000000E+00 -0.00000000000E+00 -0.45593999997E+02  0.45594000000E+02  0.51100000000E-03 0.  1.
    9900012    2    1    2    0    0 -0.11331586335E+02 -0.22731644915E+01  0.14734579381E+02  0.72461549316E+02  0.69999972672E+02 0.  0.
        -12    1    1    2    0    0  0.11331586335E+02  0.22731644915E+01 -0.14734579381E+02  0.18726450684E+02  0.00000000000E+00 0.  1.
         11    1    3    3    0    0 -0.60461645318E+01  0.11333846810E+02 -0.19349151531E+02  0.23225026465E+02  0.51100000000E-03 0. -1.
        -11    1    3    3    0    0 -0.67163256609E+01 -0.21847852083E+02  0.12418116166E+02  0.26012444722E+02  0.51100000000E-03 0.  1.
         12    1    3    3    0    0  0.14309038575E+01  0.82408407818E+01  0.21665614746E+02  0.23224078130E+02  0.00000000000E+00 0. -1.
</event>
<event>
 7    1  0.2489154E-013  0.7246170E+02  0.7816164E-02  0.1226708E+00
        -11   -1    0    0    0    0  0.00000000000E+00  0.00000000000E+00  0.45593999997E+02  0.45594000000E+02  0.51100000000E-03 0.  1.
         11   -1    0    0    0    0 -0.00000000000E+00 -0.00000000000E+00 -0.45593999997E+02  0.45594000000E+02  0.51100000000E-03 0. -1.
    9900012    2    1    2    0    0 -0.96114101668E+01  0.12503776960E+02 -0.10097067768E+02  0.72461697077E+02  0.70000165157E+02 0.  0.
        -12    1    1    2    0    0  0.96114101668E+01 -0.12503776960E+02  0.10097067768E+02  0.18726302923E+02  0.00000000000E+00 0.  1.
         11    1    3    3    0    0  0.14291600144E+02  0.17935178234E+02 -0.21596345894E+02  0.31501152506E+02  0.51100000000E-03 0. -1.
        -11    1    3    3    0    0 -0.33115150424E+01  0.68428319793E+01  0.14920441981E+02  0.16745449249E+02  0.51100000000E-03 0.  1.
        -12    1    3    3    0    0 -0.20591495268E+02 -0.12274233253E+02 -0.34211638545E+01  0.24215095322E+02  0.00000000000E+00 0.  1.
</event>
<event>
 7    1  0.2489154E-013  0.7246160E+02  0.7816164E-02  0.1226708E+00
        -11   -1    0    0    0    0  0.00000000000E+00  0.00000000000E+00  0.45593999997E+02  0.45594000000E+02  0.51100000000E-03 0.  1.
         11   -1    0    0    0    0 -0.00000000000E+00 -0.00000000000E+00 -0.45593999997E+02  0.45594000000E+02  0.51100000000E-03 0. -1.
    9900012    2    1    2    0    0 -0.21175125777E+01 -0.11053178203E+02 -0.14967340807E+02  0.72461604225E+02  0.70000044200E+02 0.  0.
        -12    1    1    2    0    0  0.21175125777E+01  0.11053178203E+02  0.14967340807E+02  0.18726395775E+02  0.00000000000E+00 0.  1.
         11    1    3    3    0    0  0.12311684681E+02  0.16863962029E+02 -0.13516461998E+02  0.24872988164E+02  0.51100000000E-03 0. -1.
        -11    1    3    3    0    0  0.75334474655E+01 -0.20984213027E+02 -0.79298302304E+01  0.23663732479E+02  0.51100000000E-03 0.  1.
        -12    1    3    3    0    0 -0.21962644724E+02 -0.69329272050E+01  0.64789514214E+01  0.23924883582E+02  0.00000000000E+00 0.  1.
</event>
<event>
 7    1  0.2489154E-013  0.7246153E+02  0.7816164E-02  0.1226708E+00
        -11   -1    0    0    0    0  0.00000000000E+00  0.00000000000E+00  0.45593999997E+02  0.45594000000E+02  0.51100000000E-03 0. -1.
         11   -1    0    0    0    0 -0.00000000000E+00 -0.00000000000E+00 -0.45593999997E+02  0.45594000000E+02  0.51100000000E-03 0.  1.
    9900012    2    1    2    0    0  0.69836759914E+01 -0.48131935986E+01  0.16695569934E+02  0.72461531610E+02  0.69999949606E+02 0.  0.
        -12    1    1    2    0    0 -0.69836759914E+01  0.48131935986E+01 -0.16695569934E+02  0.18726468390E+02  0.00000000000E+00 0.  1.
         11    1    3    3    0    0  0.30918297145E+01  0.40770451126E+01  0.19562002578E+01  0.54779948470E+01  0.51100000000E-03 0. -1.
        -11    1    3    3    0    0  0.68259177113E+01  0.25361686232E+02  0.18896662255E+02  0.32355712414E+02  0.51100000000E-03 0.  1.
         12    1    3    3    0    0 -0.29340714344E+01 -0.34251924944E+02 -0.41572925796E+01  0.34627824349E+02  0.00000000000E+00 0. -1.
</event>
<event>
 7    1  0.2489154E-013  0.7246151E+02  0.7816164E-02  0.1226708E+00
        -11   -1    0    0    0    0  0.00000000000E+00  0.00000000000E+00  0.45593999997E+02  0.45594000000E+02  0.51100000000E-03 0.  1.
         11   -1    0    0    0    0 -0.00000000000E+00 -0.00000000000E+00 -0.45593999997E+02  0.45594000000E+02  0.51100000000E-03 0. -1.
    9900012    2    1    2    0    0 -0.10233953426E+02 -0.65923812347E+01 -0.14229838782E+02  0.72461505271E+02  0.69999915295E+02 0.  0.
        -12    1    1    2    0    0  0.10233953426E+02  0.65923812347E+01  0.14229838782E+02  0.18726494729E+02  0.00000000000E+00 0.  1.
         11    1    3    3    0    0 -0.10461031932E+02  0.27631441324E+02 -0.14905990491E+02  0.33092571546E+02  0.51100000000E-03 0. -1.
        -11    1    3    3    0    0 -0.19591994799E+01  0.89815577381E+00  0.34520937199E+01  0.40696557235E+01  0.51100000000E-03 0.  1.
        -12    1    3    3    0    0  0.21862779853E+01 -0.35121978332E+02 -0.27759420100E+01  0.35299278002E+02  0.00000000000E+00 0.  1.
</event>
<event>
 7    1  0.2489154E-013  0.7246144E+02  0.7816164E-02  0.1226708E+00
        -11   -1    0    0    0    0  0.00000000000E+00  0.00000000000E+00  0.45593999997E+02  0.45594000000E+02  0.51100000000E-03 0. -1.
         11   -1    0    0    0    0 -0.00000000000E+00 -0.00000000000E+00 -0.45593999997E+02  0.45594000000E+02  0.51100000000E-03 0.  1.
    9900012    2    1    2    0    0 -0.80374034733E+01  0.11949168483E+02  0.11970856451E+02  0.72461444359E+02  0.69999835946E+02 0.  0.
        -12    1    1    2    0    0  0.80374034733E+01 -0.11949168483E+02 -0.11970856451E+02  0.18726555641E+02  0.00000000000E+00 0.  1.
         11    1    3    3    0    0  0.17709222455E+02 -0.78305470719E+01  0.12144497125E+02  0.22856571005E+02  0.51100000000E-03 0. -1.
        -11    1    3    3    0    0  0.65398098499E+01  0.63636950159E+01 -0.97502576535E+01  0.13354147360E+02  0.51100000000E-03 0.  1.
        -12    1    3    3    0    0 -0.32286435778E+02  0.13416020539E+02  0.95766169794E+01  0.36250725995E+02  0.00000000000E+00 0.  1.
</event>
<event>
 7    1  0.2489154E-013  0.7246150E+02  0.7816164E-02  0.1226708E+00
        -11   -1    0    0    0    0  0.00000000000E+00  0.00000000000E+00  0.45593999997E+02  0.45594000000E+02  0.51100000000E-03 0.  1.
         11   -1    0    0    0    0 -0.00000000000E+00 -0.00000000000E+00 -0.45593999997E+02  0.45594000000E+02  0.51100000000E-03 0. -1.
    9900012    2    1    2    0    0  0.61467413444E+01  0.82651264942E+01 -0.15639273898E+02  0.72461504514E+02  0.69999914309E+02 0.  0.
        -12    1    1    2    0    0 -0.61467413444E+01 -0.82651264942E+01  0.15639273898E+02  0.18726495486E+02  0.00000000000E+00 0.  1.
         11    1    3    3    0    0  0.75116022970E+01  0.35945084016E+02 -0.10661387743E+02  0.38237918652E+02  0.51100000000E-03 0. -1.
        -11    1    3    3    0    0 -0.13084474535E+01  0.28004096949E+01 -0.18025883517E+01  0.35782194210E+01  0.51100000000E-03 0.  1.
        -12    1    3    3    0    0 -0.56413499072E-01 -0.30480367217E+02 -0.31752978036E+01  0.30645366441E+02  0.00000000000E+00 0.  1.
</event>
<event>
 7    1  0.2489154E-013  0.7246156E+02  0.7816164E-02  0.1226708E+00
        -11   -1    0    0    0    0  0.00000000000E+00  0.00000000000E+00  0.45593999997E+02  0.45594000000E+02  0.51100000000E-03 0. -1.
         11   -1    0    0    0    0 -0.00000000000E+00 -0.00000000000E+00 -0.45593999997E+02  0.45594000000E+02  0.51100000000E-03 0.  1.
    9900012    2    1    2    0    0 -0.69635173244E+01 -0.17321930966E+02  0.14628256309E+01  0.72461555470E+02  0.69999980688E+02 0.  0.
        -12    1    1    2    0    0  0.69635173244E+01  0.17321930966E+02 -0.14628256309E+01  0.18726444530E+02  0.00000000000E+00 0.  1.
         11    1    3    3    0    0 -0.76063604758E+01  0.34307971580E+01  0.95149129820E+01  0.12655459618E+02  0.51100000000E-03 0. -1.
        -11    1    3    3    0    0 -0.16645148423E+02 -0.64759759353E+01  0.18052428348E+02  0.25394672667E+02  0.51100000000E-03 0.  1.
        -12    1    3    3    0    0  0.17287991574E+02 -0.14276752189E+02 -0.26104515699E+02  0.34411423185E+02  0.00000000000E+00 0.  1.
</event>
<event>
 7    1  0.2489154E-013  0.7246152E+02  0.7816164E-02  0.1226708E+00
        -11   -1    0    0    0    0  0.00000000000E+00  0.00000000000E+00  0.45593999997E+02  0.45594000000E+02  0.51100000000E-03 0. -1.
         11   -1    0    0    0    0 -0.00000000000E+00 -0.00000000000E+00 -0.45593999997E+02  0.45594000000E+02  0.51100000000E-03 0.  1.
    9900012    2    1    2    0    0 -0.73028854088E+01 -0.16692032774E+02  0.43272294277E+01  0.72461521208E+02  0.69999936056E+02 0.  0.
        -12    1    1    2    0    0  0.73028854088E+01  0.16692032774E+02 -0.43272294277E+01  0.18726478792E+02  0.00000000000E+00 0.  1.
         11    1    3    3    0    0  0.39835604994E+00  0.36028164778E+01  0.27915690686E+02  0.28150040157E+02  0.51100000000E-03 0. -1.
        -11    1    3    3    0    0 -0.17587192701E+01  0.25748880310E+01  0.58100759694E+01  0.65939460776E+01  0.51100000000E-03 0.  1.
        -12    1    3    3    0    0 -0.59425221886E+01 -0.22869737283E+02 -0.29398537227E+02  0.37717534973E+02  0.00000000000E+00 0.  1.
</event>
<event>
 7    1  0.2489154E-013  0.7246152E+02  0.7816164E-02  0.1226708E+00
        -11   -1    0    0    0    0  0.00000000000E+00  0.00000000000E+00  0.45593999997E+02  0.45594000000E+02  0.51100000000E-03 0.  1.
         11   -1    0    0    0    0 -0.00000000000E+00 -0.00000000000E+00 -0.45593999997E+02  0.45594000000E+02  0.51100000000E-03 0. -1.
    9900012    2    1    2    0    0  0.13608910066E+02  0.34971700378E+01 -0.12379357696E+02  0.72461517992E+02  0.69999931866E+02 0.  0.
        -12    1    1    2    0    0 -0.13608910066E+02 -0.34971700378E+01  0.12379357696E+02  0.18726482008E+02  0.00000000000E+00 0.  1.
         11    1    3    3    0    0 -0.27633730793E+01  0.74682877546E+01 -0.72044726014E+01  0.10738527762E+02  0.51100000000E-03 0. -1.
        -11    1    3    3    0    0 -0.19183907957E+02 -0.98337442307E+01 -0.12543293823E+02  0.24941112050E+02  0.51100000000E-03 0.  1.
        -12    1    3    3    0    0  0.35556191102E+02  0.58626265138E+01  0.73684087287E+01  0.36781878181E+02  0.00000000000E+00 0.  1.
</event>
<event>
 7    1  0.2489154E-013  0.7246161E+02  0.7816164E-02  0.1226708E+00
        -11   -1    0    0    0    0  0.00000000000E+00  0.00000000000E+00  0.45593999997E+02  0.45594000000E+02  0.51100000000E-03 0.  1.
         11   -1    0    0    0    0 -0.00000000000E+00 -0.00000000000E+00 -0.45593999997E+02  0.45594000000E+02  0.51100000000E-03 0. -1.
    9900012    2    1    2    0    0  0.75624951238E+01 -0.33901392580E+01 -0.16792654989E+02  0.72461611179E+02  0.70000053260E+02 0.  0.
        -12    1    1    2    0    0 -0.75624951238E+01  0.33901392580E+01  0.16792654989E+02  0.18726388821E+02  0.00000000000E+00 0.  1.
         11    1    3    3    0    0  0.11124292310E+02 -0.87361104773E+01 -0.18208297300E+02  0.23056703938E+02  0.51100000000E-03 0. -1.
        -11    1    3    3    0    0 -0.23555147016E+02 -0.85239792690E+01  0.89774278083E+00  0.25066094947E+02  0.51100000000E-03 0.  1.
         12    1    3    3    0    0  0.19993349830E+02  0.13869950488E+02  0.51789953061E+00  0.24338812294E+02  0.00000000000E+00 0. -1.
</event>
<event>
 7    1  0.2489154E-013  0.7246156E+02  0.7816164E-02  0.1226708E+00
        -11   -1    0    0    0    0  0.00000000000E+00  0.00000000000E+00  0.45593999997E+02  0.45594000000E+02  0.51100000000E-03 0. -1.
         11   -1    0    0    0    0 -0.00000000000E+00 -0.00000000000E+00 -0.45593999997E+02  0.45594000000E+02  0.51100000000E-03 0.  1.
    9900012    2    1    2    0    0  0.15502967118E+02 -0.80022074271E+01  0.68045827555E+01  0.72461557208E+02  0.69999982952E+02 0.  0.
        -12    1    1    2    0    0 -0.15502967118E+02  0.80022074271E+01 -0.68045827555E+01  0.18726442792E+02  0.00000000000E+00 0.  1.
         11    1    3    3    0    0  0.72903016965E+01 -0.26120834774E+01 -0.37085933732E+01  0.85863347237E+01  0.51100000000E-03 0. -1.
        -11    1    3    3    0    0 -0.18880184975E+02  0.18692837699E+02  0.20259374226E+01  0.26645599799E+02  0.51100000000E-03 0.  1.
         12    1    3    3    0    0  0.27092850397E+02 -0.24082961649E+02  0.84872387061E+01  0.37229622685E+02  0.00000000000E+00 0. -1.
</event>
<event>
 7    1  0.2489154E-013  0.7246161E+02  0.7816164E-02  0.1226708E+00
        -11   -1    0    0    0    0  0.00000000000E+00  0.00000000000E+00  0.45593999997E+02  0.45594000000E+02  0.51100000000E-03 0. -1.
         11   -1    0    0    0    0 -0.00000000000E+00 -0.00000000000E+00 -0.45593999997E+02  0.45594000000E+02  0.51100000000E-03 0.  1.
    9900012    2    1    2    0    0  0.10494566860E+02 -0.68317671387E+01  0.13923673819E+02  0.72461610374E+02  0.70000052211E+02 0.  0.
        -12    1    1    2    0    0 -0.10494566860E+02  0.68317671387E+01 -0.13923673819E+02  0.18726389626E+02  0.00000000000E+00 0.  1.
         11    1    3    3    0    0  0.11451091056E+02 -0.19387487917E+02  0.75609912638E+01  0.23752279118E+02  0.51100000000E-03 0. -1.
        -11    1    3    3    0    0  0.16849043364E+02 -0.86367774527E+01 -0.36351190270E+01  0.19279478148E+02  0.51100000000E-03 0.  1.
        -12    1    3    3    0    0 -0.17805567561E+02  0.21192498231E+02  0.99978015827E+01  0.29429853108E+02  0.00000000000E+00 0.  1.
</event>
<event>
 7    1  0.2489154E-013  0.7246157E+02  0.7816164E-02  0.1226708E+00
        -11   -1    0    0    0    0  0.00000000000E+00  0.00000000000E+00  0.45593999997E+02  0.45594000000E+02  0.51100000000E-03 0.  1.
         11   -1    0    0    0    0 -0.00000000000E+00 -0.00000000000E+00 -0.45593999997E+02  0.45594000000E+02  0.51100000000E-03 0. -1.
    9900012    2    1    2    0    0 -0.44885780516E+01  0.96399372341E-01 -0.18180282473E+02  0.72461566902E+02  0.69999995581E+02 0.  0.
        -12    1    1    2    0    0  0.44885780516E+01 -0.96399372341E-01  0.18180282473E+02  0.18726433098E+02  0.00000000000E+00 0.  1.
         11    1    3    3    0    0  0.95776536772E+01  0.27990155845E+02 -0.54089568055E+01  0.30073860547E+02  0.51100000000E-03 0. -1.
        -11    1    3    3    0    0  0.55801444670E+01 -0.92269576311E+01 -0.10727596502E+02  0.15210394024E+02  0.51100000000E-03 0.  1.
        -12    1    3    3    0    0 -0.19646376196E+02 -0.18666798842E+02 -0.20437291661E+01  0.27177312331E+02  0.00000000000E+00 0.  1.
</event>
<event>
 7    1  0.2489154E-013  0.7246158E+02  0.7816164E-02  0.1226708E+00
        -11   -1    0    0    0    0  0.00000000000E+00  0.00000000000E+00  0.45593999997E+02  0.45594000000E+02  0.51100000000E-03 0.  1.
         11   -1    0    0    0    0 -0.00000000000E+00 -0.00000000000E+00 -0.45593999997E+02  0.45594000000E+02  0.51100000000E-03 0. -1.
    9900012    2    1    2    0    0  0.82100538096E+01  0.12592809669E+02 -0.11166683463E+02  0.72461583939E+02  0.70000017775E+02 0.  0.
        -12    1    1    2    0    0 -0.82100538096E+01 -0.12592809669E+02  0.11166683463E+02  0.18726416061E+02  0.00000000000E+00 0.  1.
         11    1    3    3    0    0  0.21338602579E+02  0.13292737476E+01  0.43767165080E+01  0.21823349339E+02  0.51100000000E-03 0.  1.
        -11    1    3    3    0    0  0.18973368188E+01 -0.15182370952E+02  0.21486040540E+01  0.15450591392E+02  0.51100000000E-03 0. -1.
        -12    1    3    3    0    0 -0.15025885588E+02  0.26445906873E+02 -0.17692004025E+02  0.35187643208E+02  0.00000000000E+00 0.  1.
</event>
<event>
 7    1  0.2489154E-013  0.7246148E+02  0.7816164E-02  0.1226708E+00
        -11   -1    0    0    0    0  0.00000000000E+00  0.00000000000E+00  0.45593999997E+02  0.45594000000E+02  0.51100000000E-03 0.  1.
         11   -1    0    0    0    0 -0.00000000000E+00 -0.00000000000E+00 -0.45593999997E+02  0.45594000000E+02  0.51100000000E-03 0. -1.
    9900012    2    1    2    0    0  0.74216707317E+01  0.14299320606E+02 -0.95462511896E+01  0.72461476617E+02  0.69999877967E+02 0.  0.
        -12    1    1    2    0    0 -0.74216707317E+01 -0.14299320606E+02  0.95462511896E+01  0.18726523383E+02  0.00000000000E+00 0.  1.
         11    1    3    3    0    0  0.69572766780E+01  0.10167550737E+02  0.14078277936E+02  0.18707771024E+02  0.51100000000E-03 0. -1.
        -11    1    3    3    0    0 -0.15137859633E+02 -0.81747949680E+01  0.58800391153E+01  0.18181224582E+02  0.51100000000E-03 0.  1.
         12    1    3    3    0    0  0.15602253687E+02  0.12306564838E+02 -0.29504568241E+02  0.35572481011E+02  0.00000000000E+00 0. -1.
</event>
<event>
 7    1  0.2489154E-013  0.7246157E+02  0.7816164E-02  0.1226708E+00
        -11   -1    0    0    0    0  0.00000000000E+00  0.00000000000E+00  0.45593999997E+02  0.45594000000E+02  0.51100000000E-03 0.  1.
         11   -1    0    0    0    0 -0.00000000000E+00 -0.00000000000E+00 -0.45593999997E+02  0.45594000000E+02  0.51100000000E-03 0. -1.
    9900012    2    1    2    0    0 -0.17916677503E+02  0.16904209084E+01  0.51782706419E+01  0.72461565678E+02  0.69999993986E+02 0.  0.
        -12    1    1    2    0    0  0.17916677503E+02 -0.16904209084E+01 -0.51782706419E+01  0.18726434322E+02  0.00000000000E+00 0.  1.
         11    1    3    3    0    0 -0.96881895297E+01  0.16066286150E+02 -0.19849503418E+02  0.27312805664E+02  0.51100000000E-03 0. -1.
        -11    1    3    3    0    0 -0.10341193721E+02 -0.11404857668E+02 -0.39892502837E+01  0.15903621729E+02  0.51100000000E-03 0.  1.
        -12    1    3    3    0    0  0.21127057482E+01 -0.29710075734E+01  0.29017024344E+02  0.29245138286E+02  0.00000000000E+00 0.  1.
</event>
<event>
 7    1  0.2489154E-013  0.7246167E+02  0.7816164E-02  0.1226708E+00
        -11   -1    0    0    0    0  0.00000000000E+00  0.00000000000E+00  0.45593999997E+02  0.45594000000E+02  0.51100000000E-03 0.  1.
         11   -1    0    0    0    0 -0.00000000000E+00 -0.00000000000E+00 -0.45593999997E+02  0.45594000000E+02  0.51100000000E-03 0. -1.
    9900012    2    1    2    0    0 -0.51027298426E+00  0.18694844528E+02  0.95798198591E+00  0.72461673080E+02  0.70000133897E+02 0.  0.
        -12    1    1    2    0    0  0.51027298426E+00 -0.18694844528E+02 -0.95798198591E+00  0.18726326920E+02  0.00000000000E+00 0.  1.
         11    1    3    3    0    0 -0.25426987899E+01  0.58884686142E+01 -0.19299433517E+02  0.20337342847E+02  0.51100000000E-03 0. -1.
        -11    1    3    3    0    0  0.71260928811E+01  0.22628234116E+02 -0.52702271462E+01  0.24302128989E+02  0.51100000000E-03 0.  1.
         12    1    3    3    0    0 -0.50936670755E+01 -0.98218582022E+01  0.25527642649E+02  0.27822201243E+02  0.00000000000E+00 0. -1.
</event>
<event>
 7    1  0.2489154E-013  0.7246126E+02  0.7816164E-02  0.1226709E+00
        -11   -1    0    0    0    0  0.00000000000E+00  0.00000000000E+00  0.45593999997E+02  0.45594000000E+02  0.51100000000E-03 0. -1.
         11   -1    0    0    0    0 -0.00000000000E+00 -0.00000000000E+00 -0.45593999997E+02  0.45594000000E+02  0.51100000000E-03 0.  1.
    9900012    2    1    2    0    0  0.69110320350E+01  0.69125440481E+01  0.15973259105E+02  0.72461264154E+02  0.69999601195E+02 0.  0.
        -12    1    1    2    0    0 -0.69110320350E+01 -0.69125440481E+01 -0.15973259105E+02  0.18726735846E+02  0.00000000000E+00 0.  1.
         11    1    3    3    0    0 -0.10545632618E+02  0.18430885394E+02 -0.21965070092E+01  0.21347893269E+02  0.51100000000E-03 0. -1.
        -11    1    3    3    0    0 -0.88558453094E+01  0.50224000451E+01 -0.59324387605E+01  0.11783222321E+02  0.51100000000E-03 0.  1.
         12    1    3    3    0    0  0.26312509963E+02 -0.16540741391E+02  0.24102204874E+02  0.39330148564E+02  0.00000000000E+00 0. -1.
</event>
<event>
 7    1  0.2489154E-013  0.7246155E+02  0.7816164E-02  0.1226708E+00
        -11   -1    0    0    0    0  0.00000000000E+00  0.00000000000E+00  0.45593999997E+02  0.45594000000E+02  0.51100000000E-03 0. -1.
         11   -1    0    0    0    0 -0.00000000000E+00 -0.00000000000E+00 -0.45593999997E+02  0.45594000000E+02  0.51100000000E-03 0.  1.
    9900012    2    1    2    0    0  0.85127546115E+01  0.16472292687E+02  0.26223304524E+01  0.72461547201E+02  0.69999969916E+02 0.  0.
        -12    1    1    2    0    0 -0.85127546115E+01 -0.16472292687E+02 -0.26223304524E+01  0.18726452799E+02  0.00000000000E+00 0.  1.
         11    1    3    3    0    0 -0.71346650716E+01  0.16353020883E+01  0.22905451046E+02  0.24046566210E+02  0.51100000000E-03 0. -1.
        -11    1    3    3    0    0 -0.22157921747E+01 -0.53085038238E+01  0.76807271585E+01  0.95960157228E+01  0.51100000000E-03 0.  1.
        -12    1    3    3    0    0  0.17863211858E+02  0.20145494423E+02 -0.27963847752E+02  0.38818965268E+02  0.00000000000E+00 0.  1.
</event>
<event>
 7    1  0.2489154E-013  0.7246160E+02  0.7816164E-02  0.1226708E+00
        -11   -1    0    0    0    0  0.00000000000E+00  0.00000000000E+00  0.45593999997E+02  0.45594000000E+02  0.51100000000E-03 0.  1.
         11   -1    0    0    0    0 -0.00000000000E+00 -0.00000000000E+00 -0.45593999997E+02  0.45594000000E+02  0.51100000000E-03 0. -1.
    9900012    2    1    2    0    0 -0.23222663644E+01  0.85937750301E-02 -0.18581851401E+02  0.72461596277E+02  0.70000033847E+02 0.  0.
        -12    1    1    2    0    0  0.23222663644E+01 -0.85937750301E-02  0.18581851401E+02  0.18726403723E+02  0.00000000000E+00 0.  1.
         11    1    3    3    0    0 -0.25666601574E+02  0.31479723694E+00 -0.40944831356E+01  0.25993043802E+02  0.51100000000E-03 0. -1.
        -11    1    3    3    0    0 -0.27326459091E+01  0.13282163111E+02  0.28101803499E+00  0.13563265904E+02  0.51100000000E-03 0.  1.
         12    1    3    3    0    0  0.26076981119E+02 -0.13588366573E+02 -0.14768386300E+02  0.32905286571E+02  0.00000000000E+00 0. -1.
</event>
<event>
 7    1  0.2489154E-013  0.7246160E+02  0.7816164E-02  0.1226708E+00
        -11   -1    0    0    0    0  0.00000000000E+00  0.00000000000E+00  0.45593999997E+02  0.45594000000E+02  0.51100000000E-03 0.  1.
         11   -1    0    0    0    0 -0.00000000000E+00 -0.00000000000E+00 -0.45593999997E+02  0.45594000000E+02  0.51100000000E-03 0. -1.
    9900012    2    1    2    0    0  0.13017038123E+02 -0.11160163931E+02 -0.75289844826E+01  0.72461597575E+02  0.70000035538E+02 0.  0.
        -12    1    1    2    0    0 -0.13017038123E+02  0.11160163931E+02  0.75289844826E+01  0.18726402425E+02  0.00000000000E+00 0.  1.
         11    1    3    3    0    0  0.20158400028E+02 -0.23505240301E+01 -0.30690959347E+01  0.20525725444E+02  0.51100000000E-03 0. -1.
        -11    1    3    3    0    0  0.18271184526E+02  0.56329857834E+01  0.72492249796E+01  0.20447933291E+02  0.51100000000E-03 0.  1.
        -12    1    3    3    0    0 -0.25412546431E+02 -0.14442625684E+02 -0.11709113528E+02  0.31487938839E+02  0.00000000000E+00 0.  1.
</event>
<event>
 7    1  0.2489154E-013  0.7246156E+02  0.7816164E-02  0.1226708E+00
        -11   -1    0    0    0    0  0.00000000000E+00  0.00000000000E+00  0.45593999997E+02  0.45594000000E+02  0.51100000000E-03 0.  1.
         11   -1    0    0    0    0 -0.00000000000E+00 -0.00000000000E+00 -0.45593999997E+02  0.45594000000E+02  0.51100000000E-03 0. -1.
    9900012    2    1    2    0    0  0.85562012278E+01  0.64883974074E+01 -0.15341827918E+02  0.72461559756E+02  0.69999986272E+02 0.  0.
        -12    1    1    2    0    0 -0.85562012278E+01 -0.64883974074E+01  0.15341827918E+02  0.18726440244E+02  0.00000000000E+00 0.  1.
         11    1    3    3    0    0 -0.26492559181E+01 -0.15264491602E+02 -0.24196770015E+02  0.28731636573E+02  0.51100000000E-03 0. -1.
        -11    1    3    3    0    0  0.13129840838E+02 -0.63952463879E+01  0.33575996677E+01  0.14985505416E+02  0.51100000000E-03 0.  1.
        -12    1    3    3    0    0 -0.19243836917E+01  0.28148135397E+02  0.54973424294E+01  0.28744417766E+02  0.00000000000E+00 0.  1.
</event>
<event>
 7    1  0.2489154E-013  0.7246156E+02  0.7816164E-02  0.1226708E+00
        -11   -1    0    0    0    0  0.00000000000E+00  0.00000000000E+00  0.45593999997E+02  0.45594000000E+02  0.51100000000E-03 0. -1.
         11   -1    0    0    0    0 -0.00000000000E+00 -0.00000000000E+00 -0.45593999997E+02  0.45594000000E+02  0.51100000000E-03 0.  1.
    9900012    2    1    2    0    0 -0.11144885267E+02 -0.81357494162E+01  0.12660195559E+02  0.72461563132E+02  0.69999990669E+02 0.  0.
        -12    1    1    2    0    0  0.11144885267E+02  0.81357494162E+01 -0.12660195559E+02  0.18726436868E+02  0.00000000000E+00 0.  1.
         11    1    3    3    0    0 -0.27749859017E+02  0.40250103920E+01  0.18870513805E+02  0.33798693402E+02  0.51100000000E-03 0. -1.
        -11    1    3    3    0    0 -0.13439272210E+01 -0.40886856709E+01  0.11442613154E+02  0.12225256109E+02  0.51100000000E-03 0.  1.
        -12    1    3    3    0    0  0.17948900971E+02 -0.80720741373E+01 -0.17652931400E+02  0.26437613621E+02  0.00000000000E+00 0.  1.
</event>
<event>
 7    1  0.2489154E-013  0.7246156E+02  0.7816164E-02  0.1226708E+00
        -11   -1    0    0    0    0  0.00000000000E+00  0.00000000000E+00  0.45593999997E+02  0.45594000000E+02  0.51100000000E-03 0.  1.
         11   -1    0    0    0    0 -0.00000000000E+00 -0.00000000000E+00 -0.45593999997E+02  0.45594000000E+02  0.51100000000E-03 0. -1.
    9900012    2    1    2    0    0  0.12681830311E+02 -0.13775248208E+02 -0.30519951710E+00  0.72461563340E+02  0.69999990941E+02 0.  0.
        -12    1    1    2    0    0 -0.12681830311E+02  0.13775248208E+02  0.30519951710E+00  0.18726436660E+02  0.00000000000E+00 0.  1.
         11    1    3    3    0    0  0.32160527054E+00  0.42579831066E+01  0.19884285226E+01  0.47103819736E+01  0.51100000000E-03 0. -1.
        -11    1    3    3    0    0  0.95454917354E+01  0.23859120574E+02  0.71001577133E-01  0.25697842098E+02  0.51100000000E-03 0.  1.
         12    1    3    3    0    0  0.28147333049E+01 -0.41892351889E+02 -0.23646296169E+01  0.42053339268E+02  0.00000000000E+00 0. -1.
</event>
<event>
 7    1  0.2489154E-013  0.7246161E+02  0.7816164E-02  0.1226708E+00
        -11   -1    0    0    0    0  0.00000000000E+00  0.00000000000E+00  0.45593999997E+02  0.45594000000E+02  0.51100000000E-03 0. -1.
         11   -1    0    0    0    0 -0.00000000000E+00 -0.00000000000E+00 -0.45593999997E+02  0.45594000000E+02  0.51100000000E-03 0.  1.
    9900012    2    1    2    0    0  0.10008956497E+01 -0.16689868570E+02  0.84335255846E+01  0.72461605292E+02  0.70000045591E+02 0.  0.
        -12    1    1    2    0    0 -0.10008956497E+01  0.16689868570E+02 -0.84335255846E+01  0.18726394708E+02  0.00000000000E+00 0.  1.
         11    1    3    3    0    0  0.12810517289E+02  0.11469357831E+02  0.19775531433E+02  0.26205479694E+02  0.51100000000E-03 0. -1.
        -11    1    3    3    0    0  0.30088220997E+01  0.17100708661E+00  0.82334298028E+01  0.87676462309E+01  0.51100000000E-03 0.  1.
        -12    1    3    3    0    0 -0.14818443739E+02 -0.28330233488E+02 -0.19575435651E+02  0.37488479367E+02  0.00000000000E+00 0.  1.
</event>
<event>
 7    1  0.2489154E-013  0.7246164E+02  0.7816164E-02  0.1226708E+00
        -11   -1    0    0    0    0  0.00000000000E+00  0.00000000000E+00  0.45593999997E+02  0.45594000000E+02  0.51100000000E-03 0.  1.
         11   -1    0    0    0    0 -0.00000000000E+00 -0.00000000000E+00 -0.45593999997E+02  0.45594000000E+02  0.51100000000E-03 0. -1.
    9900012    2    1    2    0    0 -0.27354921182E+01  0.13565119311E+01 -0.18475756824E+02  0.72461638047E+02  0.70000088261E+02 0.  0.
        -12    1    1    2    0    0  0.27354921182E+01 -0.13565119311E+01  0.18475756824E+02  0.18726361953E+02  0.00000000000E+00 0.  1.
         11    1    3    3    0    0  0.13534069297E+02  0.13689460961E+01 -0.35153530875E+01  0.14050008994E+02  0.51100000000E-03 0. -1.
        -11    1    3    3    0    0 -0.20122929255E+00 -0.24404825915E+02 -0.16001857745E+02  0.29183822106E+02  0.51100000000E-03 0.  1.
         12    1    3    3    0    0 -0.16068332123E+02  0.24392391750E+02  0.10414540077E+01  0.29227806947E+02  0.00000000000E+00 0. -1.
</event>
<event>
 7    1  0.2489154E-013  0.7246155E+02  0.7816164E-02  0.1226708E+00
        -11   -1    0    0    0    0  0.00000000000E+00  0.00000000000E+00  0.45593999997E+02  0.45594000000E+02  0.51100000000E-03 0.  1.
         11   -1    0    0    0    0 -0.00000000000E+00 -0.00000000000E+00 -0.45593999997E+02  0.45594000000E+02  0.51100000000E-03 0. -1.
    9900012    2    1    2    0    0  0.45243773087E+01  0.11729098255E+02 -0.13879410651E+02  0.72461554104E+02  0.69999978909E+02 0.  0.
        -12    1    1    2    0    0 -0.45243773087E+01 -0.11729098255E+02  0.13879410651E+02  0.18726445896E+02  0.00000000000E+00 0.  1.
         11    1    3    3    0    0 -0.94655050614E+01  0.50441230263E+01 -0.27920425395E+02  0.29909682674E+02  0.51100000000E-03 0. -1.
        -11    1    3    3    0    0  0.78185172826E+01  0.60191316440E+01 -0.12140552446E+02  0.15644557271E+02  0.51100000000E-03 0.  1.
        -12    1    3    3    0    0  0.61713650875E+01  0.66584358461E+00  0.26181567190E+02  0.26907314159E+02  0.00000000000E+00 0.  1.
</event>
<event>
 7    1  0.2489154E-013  0.7246157E+02  0.7816164E-02  0.1226708E+00
        -11   -1    0    0    0    0  0.00000000000E+00  0.00000000000E+00  0.45593999997E+02  0.45594000000E+02  0.51100000000E-03 0. -1.
         11   -1    0    0    0    0 -0.00000000000E+00 -0.00000000000E+00 -0.45593999997E+02  0.45594000000E+02  0.51100000000E-03 0.  1.
    9900012    2    1    2    0    0  0.10580118247E+02 -0.14587815420E+02  0.50927252280E+01  0.72461571855E+02  0.70000002033E+02 0.  0.
        -12    1    1    2    0    0 -0.10580118247E+02  0.14587815420E+02 -0.50927252280E+01  0.18726428145E+02  0.00000000000E+00 0.  1.
         11    1    3    3    0    0 -0.12615767929E+02  0.89278734889E+01 -0.60066826254E+01  0.16581458377E+02  0.51100000000E-03 0. -1.
        -11    1    3    3    0    0 -0.49431810644E+01 -0.11053606509E+02 -0.12269261743E+02  0.17238098499E+02  0.51100000000E-03 0.  1.
         12    1    3    3    0    0  0.28139067240E+02 -0.12462082400E+02  0.23368669597E+02  0.38642014979E+02  0.00000000000E+00 0. -1.
</event>
<event>
 7    1  0.2489154E-013  0.7246156E+02  0.7816164E-02  0.1226708E+00
        -11   -1    0    0    0    0  0.00000000000E+00  0.00000000000E+00  0.45593999997E+02  0.45594000000E+02  0.51100000000E-03 0.  1.
         11   -1    0    0    0    0 -0.00000000000E+00 -0.00000000000E+00 -0.45593999997E+02  0.45594000000E+02  0.51100000000E-03 0. -1.
    9900012    2    1    2    0    0  0.10917609978E+02  0.47031160950E+01 -0.14469492012E+02  0.72461555925E+02  0.69999981281E+02 0.  0.
        -12    1    1    2    0    0 -0.10917609978E+02 -0.47031160950E+01  0.14469492012E+02  0.18726444075E+02  0.00000000000E+00 0.  1.
         11    1    3    3    0    0  0.86637333367E+01  0.30402856945E+01 -0.25939902870E+02  0.27516943391E+02  0.51100000000E-03 0. -1.
        -11    1    3    3    0    0  0.20771467124E+02 -0.79845107553E+01  0.86489522251E+01  0.23874895462E+02  0.51100000000E-03 0.  1.
        -12    1    3    3    0    0 -0.18517590483E+02  0.96473411557E+01  0.28214586330E+01  0.21069717071E+02  0.00000000000E+00 0.  1.
</event>
<event>
 7    1  0.2489154E-013  0.7246158E+02  0.7816164E-02  0.1226708E+00
        -11   -1    0    0    0    0  0.00000000000E+00  0.00000000000E+00  0.45593999997E+02  0.45594000000E+02  0.51100000000E-03 0. -1.
         11   -1    0    0    0    0 -0.00000000000E+00 -0.00000000000E+00 -0.45593999997E+02  0.45594000000E+02  0.51100000000E-03 0.  1.
    9900012    2    1    2    0    0  0.11870343244E+02 -0.71680394383E+01  0.12585429844E+02  0.72461577959E+02  0.70000009984E+02 0.  0.
        -12    1    1    2    0    0 -0.11870343244E+02  0.71680394383E+01 -0.12585429844E+02  0.18726422041E+02  0.00000000000E+00 0.  1.
         11    1    3    3    0    0  0.14844854323E+02  0.15944665757E+02 -0.32109548078E+01  0.22020724262E+02  0.51100000000E-03 0. -1.
        -11    1    3    3    0    0  0.79527187028E+01 -0.28686145217E+02 -0.82940976482E+00  0.29779667275E+02  0.51100000000E-03 0.  1.
        -12    1    3    3    0    0 -0.10927229782E+02  0.55734400219E+01  0.16625794417E+02  0.20661186422E+02  0.00000000000E+00 0.  1.
</event>
<event>
 7    1  0.2489154E-013  0.7246152E+02  0.7816164E-02  0.1226708E+00
        -11   -1    0    0    0    0  0.00000000000E+00  0.00000000000E+00  0.45593999997E+02  0.45594000000E+02  0.51100000000E-03 0.  1.
         11   -1    0    0    0    0 -0.00000000000E+00 -0.00000000000E+00 -0.45593999997E+02  0.45594000000E+02  0.51100000000E-03 0. -1.
    9900012    2    1    2    0    0 -0.11370905590E+02 -0.12795642762E+02 -0.75930868119E+01  0.72461523156E+02  0.69999938594E+02 0.  0.
        -12    1    1    2    0    0  0.11370905590E+02  0.12795642762E+02  0.75930868119E+01  0.18726476844E+02  0.00000000000E+00 0.  1.
         11    1    3    3    0    0 -0.28284461383E+01 -0.13195890709E+02 -0.55972217621E+01  0.14610288528E+02  0.51100000000E-03 0. -1.
        -11    1    3    3    0    0 -0.11577053294E+02  0.26353053405E+02 -0.10082870274E+02  0.30498784565E+02  0.51100000000E-03 0.  1.
         12    1    3    3    0    0  0.30345938417E+01 -0.25952805458E+02  0.80870052245E+01  0.27352450063E+02  0.00000000000E+00 0. -1.
</event>
<event>
 7    1  0.2489154E-013  0.7246153E+02  0.7816164E-02  0.1226708E+00
        -11   -1    0    0    0    0  0.00000000000E+00  0.00000000000E+00  0.45593999997E+02  0.45594000000E+02  0.51100000000E-03 0. -1.
         11   -1    0    0    0    0 -0.00000000000E+00 -0.00000000000E+00 -0.45593999997E+02  0.45594000000E+02  0.51100000000E-03 0.  1.
    9900012    2    1    2    0    0  0.11966602591E+02  0.11995559597E+02  0.79741827290E+01  0.72461531625E+02  0.69999949626E+02 0.  0.
        -12    1    1    2    0    0 -0.11966602591E+02 -0.11995559597E+02 -0.79741827290E+01  0.18726468375E+02  0.00000000000E+00 0.  1.
         11    1    3    3    0    0 -0.13251327833E+02 -0.45198492875E+01  0.20022662336E+02  0.24432227369E+02  0.51100000000E-03 0. -1.
        -11    1    3    3    0    0 -0.89354931286E+01  0.57125827652E+01 -0.38431892671E+01  0.11280369821E+02  0.51100000000E-03 0.  1.
        -12    1    3    3    0    0  0.34153423553E+02  0.10802826119E+02 -0.82052903400E+01  0.36748934435E+02  0.00000000000E+00 0.  1.
</event>
<event>
 7    1  0.2489154E-013  0.7246148E+02  0.7816164E-02  0.1226708E+00
        -11   -1    0    0    0    0  0.00000000000E+00  0.00000000000E+00  0.45593999997E+02  0.45594000000E+02  0.51100000000E-03 0.  1.
         11   -1    0    0    0    0 -0.00000000000E+00 -0.00000000000E+00 -0.45593999997E+02  0.45594000000E+02  0.51100000000E-03 0. -1.
    9900012    2    1    2    0    0  0.17885913710E+02 -0.52801721263E+01  0.17018426379E+01  0.72461484166E+02  0.69999887801E+02 0.  0.
        -12    1    1    2    0    0 -0.17885913710E+02  0.52801721263E+01 -0.17018426379E+01  0.18726515834E+02  0.00000000000E+00 0.  1.
         11    1    3    3    0    0  0.29663154332E+02 -0.17456922614E+02 -0.94306773382E+01  0.35687316338E+02  0.51100000000E-03 0. -1.
        -11    1    3    3    0    0 -0.11357880843E+00 -0.11961617319E+01 -0.94913989940E+01  0.95671499496E+01  0.51100000000E-03 0.  1.
        -12    1    3    3    0    0 -0.11663661813E+02  0.13372912220E+02  0.20623918970E+02  0.27207017878E+02  0.00000000000E+00 0.  1.
</event>
<event>
 7    1  0.2489154E-013  0.7246156E+02  0.7816164E-02  0.1226708E+00
        -11   -1    0    0    0    0  0.00000000000E+00  0.00000000000E+00  0.45593999997E+02  0.45594000000E+02  0.51100000000E-03 0. -1.
         11   -1    0    0    0    0 -0.00000000000E+00 -0.00000000000E+00 -0.45593999997E+02  0.45594000000E+02  0.51100000000E-03 0.  1.
    9900012    2    1    2    0    0  0.46440050502E+01  0.33535975545E+01  0.17828798855E+02  0.72461562323E+02  0.69999989615E+02 0.  0.
        -12    1    1    2    0    0 -0.46440050502E+01 -0.33535975545E+01 -0.17828798855E+02  0.18726437677E+02  0.00000000000E+00 0.  1.
         11    1    3    3    0    0  0.38558859153E+01 -0.67851985923E+01  0.91187155026E+01  0.12002405959E+02  0.51100000000E-03 0.  1.
        -11    1    3    3    0    0  0.58661131004E+00  0.34874386135E+02  0.25806846727E+01  0.34974660181E+02  0.51100000000E-03 0. -1.
         12    1    3    3    0    0  0.20150782490E+00 -0.24735589989E+02  0.61293986799E+01  0.25484496182E+02  0.00000000000E+00 0. -1.
</event>
<event>
 7    1  0.2489154E-013  0.7246158E+02  0.7816164E-02  0.1226708E+00
        -11   -1    0    0    0    0  0.00000000000E+00  0.00000000000E+00  0.45593999997E+02  0.45594000000E+02  0.51100000000E-03 0. -1.
         11   -1    0    0    0    0 -0.00000000000E+00 -0.00000000000E+00 -0.45593999997E+02  0.45594000000E+02  0.51100000000E-03 0.  1.
    9900012    2    1    2    0    0 -0.31057636616E+01  0.10799845510E+02  0.14979863677E+02  0.72461581583E+02  0.70000014706E+02 0.  0.
        -12    1    1    2    0    0  0.31057636616E+01 -0.10799845510E+02 -0.14979863677E+02  0.18726418417E+02  0.00000000000E+00 0.  1.
         11    1    3    3    0    0  0.15952694101E+02  0.25809061791E+02 -0.92218062476E+01  0.31711793237E+02  0.51100000000E-03 0. -1.
        -11    1    3    3    0    0  0.17178147380E+01  0.72526393021E+00 -0.27083187259E+01  0.32881432184E+01  0.51100000000E-03 0.  1.
        -12    1    3    3    0    0 -0.20776272500E+02 -0.15734480211E+02  0.26909988650E+02  0.37461645128E+02  0.00000000000E+00 0.  1.
</event>
<event>
 7    1  0.2489154E-013  0.7246155E+02  0.7816164E-02  0.1226708E+00
        -11   -1    0    0    0    0  0.00000000000E+00  0.00000000000E+00  0.45593999997E+02  0.45594000000E+02  0.51100000000E-03 0.  1.
         11   -1    0    0    0    0 -0.00000000000E+00 -0.00000000000E+00 -0.45593999997E+02  0.45594000000E+02  0.51100000000E-03 0. -1.
    9900012    2    1    2    0    0 -0.47505266477E+01  0.91052903171E-01 -0.18113646826E+02  0.72461548243E+02  0.69999971274E+02 0.  0.
        -12    1    1    2    0    0  0.47505266477E+01 -0.91052903171E-01  0.18113646826E+02  0.18726451757E+02  0.00000000000E+00 0.  1.
         11    1    3    3    0    0  0.50820555504E+01  0.65337603718E+00 -0.27609552861E+02  0.28080982859E+02  0.51100000000E-03 0. -1.
        -11    1    3    3    0    0 -0.33986111595E+01  0.20759086570E+02  0.56375450208E+01  0.21777790227E+02  0.51100000000E-03 0.  1.
        -12    1    3    3    0    0 -0.64339710387E+01 -0.21321409704E+02  0.38583610138E+01  0.22602775157E+02  0.00000000000E+00 0.  1.
</event>
<event>
 7    1  0.2489154E-013  0.7246200E+02  0.7816164E-02  0.1226707E+00
        -11   -1    0    0    0    0  0.00000000000E+00  0.00000000000E+00  0.45593999997E+02  0.45594000000E+02  0.51100000000E-03 0. -1.
         11   -1    0    0    0    0 -0.00000000000E+00 -0.00000000000E+00 -0.45593999997E+02  0.45594000000E+02  0.51100000000E-03 0.  1.
    9900012    2    1    2    0    0 -0.17862227308E+02 -0.19753510148E+01  0.52632588607E+01  0.72462000163E+02  0.70000559982E+02 0.  0.
        -12    1    1    2    0    0  0.17862227308E+02  0.19753510148E+01 -0.52632588607E+01  0.18725999837E+02  0.00000000000E+00 0.  1.
         11    1    3    3    0    0 -0.96388918235E+01  0.38515663155E+01 -0.73393414701E+01  0.12712542316E+02  0.51100000000E-03 0. -1.
        -11    1    3    3    0    0 -0.18834174571E+02 -0.16070883409E+02 -0.14645256356E+02  0.28766003534E+02  0.51100000000E-03 0.  1.
         12    1    3    3    0    0  0.10610839086E+02  0.10243966079E+02  0.27247856687E+02  0.30983454313E+02  0.00000000000E+00 0. -1.
</event>
<event>
 7    1  0.2489154E-013  0.7246154E+02  0.7816164E-02  0.1226708E+00
        -11   -1    0    0    0    0  0.00000000000E+00  0.00000000000E+00  0.45593999997E+02  0.45594000000E+02  0.51100000000E-03 0.  1.
         11   -1    0    0    0    0 -0.00000000000E+00 -0.00000000000E+00 -0.45593999997E+02  0.45594000000E+02  0.51100000000E-03 0. -1.
    9900012    2    1    2    0    0 -0.12852875222E+02 -0.57261583290E+01 -0.12356986621E+02  0.72461537199E+02  0.69999956887E+02 0.  0.
        -12    1    1    2    0    0  0.12852875222E+02  0.57261583290E+01  0.12356986621E+02  0.18726462801E+02  0.00000000000E+00 0.  1.
         11    1    3    3    0    0 -0.66624885606E+01 -0.71398699379E+01 -0.22772508434E+02  0.24778087844E+02  0.51100000000E-03 0. -1.
        -11    1    3    3    0    0  0.13550006182E+02 -0.84752445559E+01 -0.89478398916E+01  0.18316557450E+02  0.51100000000E-03 0.  1.
        -12    1    3    3    0    0 -0.19740392844E+02  0.98889561648E+01  0.19363361705E+02  0.29366891905E+02  0.00000000000E+00 0.  1.
</event>
<event>
 7    1  0.2489154E-013  0.7246156E+02  0.7816164E-02  0.1226708E+00
        -11   -1    0    0    0    0  0.00000000000E+00  0.00000000000E+00  0.45593999997E+02  0.45594000000E+02  0.51100000000E-03 0.  1.
         11   -1    0    0    0    0 -0.00000000000E+00 -0.00000000000E+00 -0.45593999997E+02  0.45594000000E+02  0.51100000000E-03 0. -1.
    9900012    2    1    2    0    0  0.33891134202E+01  0.93360123072E+01 -0.15875532252E+02  0.72461555066E+02  0.69999980162E+02 0.  0.
        -12    1    1    2    0    0 -0.33891134202E+01 -0.93360123072E+01  0.15875532252E+02  0.18726444934E+02  0.00000000000E+00 0.  1.
         11    1    3    3    0    0  0.22999903398E+02 -0.74311414811E+01  0.11169600969E+02  0.26626629642E+02  0.51100000000E-03 0. -1.
        -11    1    3    3    0    0  0.28891910303E+01  0.93959122061E+01  0.79413117553E-01  0.98304067921E+01  0.51100000000E-03 0.  1.
        -12    1    3    3    0    0 -0.22499981008E+02  0.73712415823E+01 -0.27124546339E+02  0.36004518632E+02  0.00000000000E+00 0.  1.
</event>
<event>
 7    1  0.2489154E-013  0.7246160E+02  0.7816164E-02  0.1226708E+00
        -11   -1    0    0    0    0  0.00000000000E+00  0.00000000000E+00  0.45593999997E+02  0.45594000000E+02  0.51100000000E-03 0.  1.
         11   -1    0    0    0    0 -0.00000000000E+00 -0.00000000000E+00 -0.45593999997E+02  0.45594000000E+02  0.51100000000E-03 0. -1.
    9900012    2    1    2    0    0  0.35011607735E+01  0.57762496794E+01 -0.17465818535E+02  0.72461601409E+02  0.70000040532E+02 0.  0.
        -12    1    1    2    0    0 -0.35011607735E+01 -0.57762496794E+01  0.17465818535E+02  0.18726398591E+02  0.00000000000E+00 0.  1.
         11    1    3    3    0    0  0.34353519635E+01 -0.50680002408E-01  0.85715561963E+01  0.92344890202E+01  0.51100000000E-03 0. -1.
        -11    1    3    3    0    0 -0.17867247477E+02 -0.19401208115E+02 -0.88344630584E+01  0.27815340130E+02  0.51100000000E-03 0.  1.
         12    1    3    3    0    0  0.17933056287E+02  0.25228137797E+02 -0.17202911673E+02  0.35411772259E+02  0.00000000000E+00 0. -1.
</event>
<event>
 7    1  0.2489154E-013  0.7246172E+02  0.7816164E-02  0.1226708E+00
        -11   -1    0    0    0    0  0.00000000000E+00  0.00000000000E+00  0.45593999997E+02  0.45594000000E+02  0.51100000000E-03 0. -1.
         11   -1    0    0    0    0 -0.00000000000E+00 -0.00000000000E+00 -0.45593999997E+02  0.45594000000E+02  0.51100000000E-03 0.  1.
    9900012    2    1    2    0    0 -0.75665341926E+01  0.17120730251E+02  0.54927977976E+00  0.72461720276E+02  0.70000195379E+02 0.  0.
        -12    1    1    2    0    0  0.75665341926E+01 -0.17120730251E+02 -0.54927977976E+00  0.18726279724E+02  0.00000000000E+00 0.  1.
         11    1    3    3    0    0 -0.10412946705E+02 -0.10636175111E+02  0.16259176562E+02  0.22043559214E+02  0.51100000000E-03 0. -1.
        -11    1    3    3    0    0  0.12652021670E+02 -0.50439834489E+01 -0.34131698349E+01  0.14041550839E+02  0.51100000000E-03 0.  1.
        -12    1    3    3    0    0 -0.98056091577E+01  0.32800888811E+02 -0.12296726948E+02  0.36376610224E+02  0.00000000000E+00 0.  1.
</event>
<event>
 7    1  0.2489154E-013  0.7246152E+02  0.7816164E-02  0.1226708E+00
        -11   -1    0    0    0    0  0.00000000000E+00  0.00000000000E+00  0.45593999997E+02  0.45594000000E+02  0.51100000000E-03 0. -1.
         11   -1    0    0    0    0 -0.00000000000E+00 -0.00000000000E+00 -0.45593999997E+02  0.45594000000E+02  0.51100000000E-03 0.  1.
    9900012    2    1    2    0    0  0.49918560296E+01 -0.13879544254E+02  0.11537785657E+02  0.72461524806E+02  0.69999940743E+02 0.  0.
        -12    1    1    2    0    0 -0.49918560296E+01  0.13879544254E+02 -0.11537785657E+02  0.18726475194E+02  0.00000000000E+00 0.  1.
         11    1    3    3    0    0 -0.15207186367E+02  0.91897309443E+00 -0.28683137879E+01  0.15502588590E+02  0.51100000000E-03 0. -1.
        -11    1    3    3    0    0 -0.10567643225E+02 -0.19752142994E+02 -0.51654091460E+00  0.22407343684E+02  0.51100000000E-03 0.  1.
         12    1    3    3    0    0  0.30766685622E+02  0.49536256454E+01  0.14922640359E+02  0.34551592532E+02  0.00000000000E+00 0. -1.
</event>
<event>
 7    1  0.2638611E-013  0.7246176E+02  0.7816164E-02  0.1226708E+00
        -11   -1    0    0    0    0  0.00000000000E+00  0.00000000000E+00  0.45593999997E+02  0.45594000000E+02  0.51100000000E-03 0. -1.
         11   -1    0    0    0    0 -0.00000000000E+00 -0.00000000000E+00 -0.45593999997E+02  0.45594000000E+02  0.51100000000E-03 0.  1.
    9900012    2    1    2    0    0  0.36809807447E+00 -0.11278912185E+02  0.14943986389E+02  0.72461759441E+02  0.70000246399E+02 0.  0.
        -12    1    1    2    0    0 -0.36809807447E+00  0.11278912185E+02 -0.14943986389E+02  0.18726240559E+02  0.00000000000E+00 0.  1.
         11    1    3    3    0    0  0.15166750024E+02  0.34564848193E+01 -0.69757527818E+00  0.15571262156E+02  0.51100000000E-03 0. -1.
        -11    1    3    3    0    0 -0.11878430165E+02 -0.83267753846E+00 -0.17308243071E+02  0.21008706136E+02  0.51100000000E-03 0.  1.
         12    1    3    3    0    0 -0.29202217846E+01 -0.13902719466E+02  0.32949804738E+02  0.35881791149E+02  0.00000000000E+00 0. -1.
</event>
<event>
 7    1  0.2489154E-013  0.7246154E+02  0.7816164E-02  0.1226708E+00
        -11   -1    0    0    0    0  0.00000000000E+00  0.00000000000E+00  0.45593999997E+02  0.45594000000E+02  0.51100000000E-03 0. -1.
         11   -1    0    0    0    0 -0.00000000000E+00 -0.00000000000E+00 -0.45593999997E+02  0.45594000000E+02  0.51100000000E-03 0.  1.
    9900012    2    1    2    0    0 -0.16401226125E+02 -0.43197497364E+01  0.79384986517E+01  0.72461542325E+02  0.69999963565E+02 0.  0.
        -12    1    1    2    0    0  0.16401226125E+02  0.43197497364E+01 -0.79384986517E+01  0.18726457675E+02  0.00000000000E+00 0.  1.
         11    1    3    3    0    0 -0.14728280169E+02 -0.43626993271E+01  0.29364124622E+01  0.15638986558E+02  0.51100000000E-03 0. -1.
        -11    1    3    3    0    0 -0.11824242628E+02  0.23766474904E+02  0.13334628965E+02  0.29706402896E+02  0.51100000000E-03 0.  1.
        -12    1    3    3    0    0  0.10151296672E+02 -0.23723525314E+02 -0.83325427760E+01  0.27116152871E+02  0.00000000000E+00 0.  1.
</event>
<event>
 7    1  0.2489154E-013  0.7246148E+02  0.7816164E-02  0.1226708E+00
        -11   -1    0    0    0    0  0.00000000000E+00  0.00000000000E+00  0.45593999997E+02  0.45594000000E+02  0.51100000000E-03 0. -1.
         11   -1    0    0    0    0 -0.00000000000E+00 -0.00000000000E+00 -0.45593999997E+02  0.45594000000E+02  0.51100000000E-03 0.  1.
    9900012    2    1    2    0    0  0.30871789947E+01  0.83449426801E+01  0.16477676064E+02  0.72461480010E+02  0.69999882388E+02 0.  0.
        -12    1    1    2    0    0 -0.30871789947E+01 -0.83449426801E+01 -0.16477676064E+02  0.18726519990E+02  0.00000000000E+00 0.  1.
         11    1    3    3    0    0  0.10772148468E+02  0.15638249651E+02  0.18964499484E+02  0.26837404415E+02  0.51100000000E-03 0.  1.
        -11    1    3    3    0    0 -0.10149854295E+02 -0.75314647458E+01  0.19642052522E+02  0.23357070256E+02  0.51100000000E-03 0. -1.
         12    1    3    3    0    0  0.24648848210E+01  0.23815777512E+00 -0.22128875942E+02  0.22267005339E+02  0.00000000000E+00 0. -1.
</event>
<event>
 7    1  0.2489154E-013  0.7246157E+02  0.7816164E-02  0.1226708E+00
        -11   -1    0    0    0    0  0.00000000000E+00  0.00000000000E+00  0.45593999997E+02  0.45594000000E+02  0.51100000000E-03 0.  1.
         11   -1    0    0    0    0 -0.00000000000E+00 -0.00000000000E+00 -0.45593999997E+02  0.45594000000E+02  0.51100000000E-03 0. -1.
    9900012    2    1    2    0    0  0.15033536337E+02 -0.91700785450E+01 -0.63703633396E+01  0.72461572567E+02  0.70000002960E+02 0.  0.
        -12    1    1    2    0    0 -0.15033536337E+02  0.91700785450E+01  0.63703633396E+01  0.18726427433E+02  0.00000000000E+00 0.  1.
         11    1    3    3    0    0  0.36726239629E+01  0.45805487641E+01  0.52150108072E+00  0.58941969251E+01  0.51100000000E-03 0. -1.
        -11    1    3    3    0    0  0.68506230613E+01  0.15741343829E+02  0.20030807295E+02  0.26380943558E+02  0.51100000000E-03 0.  1.
         12    1    3    3    0    0  0.45102893131E+01 -0.29491971138E+02 -0.26922671715E+02  0.40186432083E+02  0.00000000000E+00 0. -1.
</event>
<event>
 7    1  0.2489154E-013  0.7246153E+02  0.7816164E-02  0.1226708E+00
        -11   -1    0    0    0    0  0.00000000000E+00  0.00000000000E+00  0.45593999997E+02  0.45594000000E+02  0.51100000000E-03 0. -1.
         11   -1    0    0    0    0 -0.00000000000E+00 -0.00000000000E+00 -0.45593999997E+02  0.45594000000E+02  0.51100000000E-03 0.  1.
    9900012    2    1    2    0    0 -0.18655880867E+02  0.15528325933E+01  0.47698085580E+00  0.72461529677E+02  0.69999947089E+02 0.  0.
        -12    1    1    2    0    0  0.18655880867E+02 -0.15528325933E+01 -0.47698085580E+00  0.18726470323E+02  0.00000000000E+00 0.  1.
         11    1    3    3    0    0  0.94506874466E+01 -0.74101970578E+00 -0.36019438616E+01  0.10140937001E+02  0.51100000000E-03 0. -1.
        -11    1    3    3    0    0 -0.17650865114E+02  0.24968000966E+02 -0.11750310432E+02  0.32757043624E+02  0.51100000000E-03 0.  1.
         12    1    3    3    0    0 -0.10455703200E+02 -0.22674148667E+02  0.15829235149E+02  0.29563549052E+02  0.00000000000E+00 0. -1.
</event>
<event>
 7    1  0.2489154E-013  0.7246155E+02  0.7816164E-02  0.1226708E+00
        -11   -1    0    0    0    0  0.00000000000E+00  0.00000000000E+00  0.45593999997E+02  0.45594000000E+02  0.51100000000E-03 0.  1.
         11   -1    0    0    0    0 -0.00000000000E+00 -0.00000000000E+00 -0.45593999997E+02  0.45594000000E+02  0.51100000000E-03 0. -1.
    9900012    2    1    2    0    0  0.11451512974E+02 -0.11269415428E+02 -0.96199328010E+01  0.72461548639E+02  0.69999971790E+02 0.  0.
        -12    1    1    2    0    0 -0.11451512974E+02  0.11269415428E+02  0.96199328010E+01  0.18726451361E+02  0.00000000000E+00 0.  1.
         11    1    3    3    0    0 -0.94216040905E+01 -0.53377668159E+00  0.21528648663E+01  0.96791718952E+01  0.51100000000E-03 0.  1.
        -11    1    3    3    0    0  0.32598064995E+02  0.12707378991E+02 -0.28897822555E+01  0.35106440492E+02  0.51100000000E-03 0. -1.
         12    1    3    3    0    0 -0.11724947931E+02 -0.23443017738E+02 -0.88830154118E+01  0.27675936252E+02  0.00000000000E+00 0. -1.
</event>
<event>
 7    1  0.2489154E-013  0.7246158E+02  0.7816164E-02  0.1226708E+00
        -11   -1    0    0    0    0  0.00000000000E+00  0.00000000000E+00  0.45593999997E+02  0.45594000000E+02  0.51100000000E-03 0.  1.
         11   -1    0    0    0    0 -0.00000000000E+00 -0.00000000000E+00 -0.45593999997E+02  0.45594000000E+02  0.51100000000E-03 0. -1.
    9900012    2    1    2    0    0  0.77302811599E+01 -0.68677077918E+01 -0.15612693270E+02  0.72461578872E+02  0.70000011174E+02 0.  0.
        -12    1    1    2    0    0 -0.77302811599E+01  0.68677077918E+01  0.15612693270E+02  0.18726421128E+02  0.00000000000E+00 0.  1.
         11    1    3    3    0    0 -0.16685656978E+00 -0.21426488309E+02 -0.27772862139E+02  0.35077829380E+02  0.51100000000E-03 0. -1.
        -11    1    3    3    0    0 -0.23435383815E+01 -0.72231230176E+01 -0.38123128388E+01  0.84970234620E+01  0.51100000000E-03 0.  1.
        -12    1    3    3    0    0  0.10240676111E+02  0.21781903535E+02  0.15972481708E+02  0.28886726030E+02  0.00000000000E+00 0.  1.
</event>
<event>
 7    1  0.2489154E-013  0.7246159E+02  0.7816164E-02  0.1226708E+00
        -11   -1    0    0    0    0  0.00000000000E+00  0.00000000000E+00  0.45593999997E+02  0.45594000000E+02  0.51100000000E-03 0.  1.
         11   -1    0    0    0    0 -0.00000000000E+00 -0.00000000000E+00 -0.45593999997E+02  0.45594000000E+02  0.51100000000E-03 0. -1.
    9900012    2    1    2    0    0  0.18650718833E+02 -0.58774116501E+00  0.15759853669E+01  0.72461588637E+02  0.70000023895E+02 0.  0.
        -12    1    1    2    0    0 -0.18650718833E+02  0.58774116501E+00 -0.15759853669E+01  0.18726411363E+02  0.00000000000E+00 0.  1.
         11    1    3    3    0    0  0.13033328036E+02  0.18265193718E+02 -0.10316334399E+02  0.24696390362E+02  0.51100000000E-03 0. -1.
        -11    1    3    3    0    0  0.53808353089E+01 -0.52530230074E+01  0.26652732264E+02  0.27693244243E+02  0.51100000000E-03 0.  1.
         12    1    3    3    0    0  0.23655548805E+00 -0.13599911875E+02 -0.14760412498E+02  0.20071954031E+02  0.00000000000E+00 0. -1.
</event>
<event>
 7    1  0.2489154E-013  0.7246151E+02  0.7816164E-02  0.1226708E+00
        -11   -1    0    0    0    0  0.00000000000E+00  0.00000000000E+00  0.45593999997E+02  0.45594000000E+02  0.51100000000E-03 0.  1.
         11   -1    0    0    0    0 -0.00000000000E+00 -0.00000000000E+00 -0.45593999997E+02  0.45594000000E+02  0.51100000000E-03 0. -1.
    9900012    2    1    2    0    0  0.63529784695E+01  0.80967708386E+01 -0.15644914236E+02  0.72461511410E+02  0.69999923293E+02 0.  0.
        -12    1    1    2    0    0 -0.63529784695E+01 -0.80967708386E+01  0.15644914236E+02  0.18726488590E+02  0.00000000000E+00 0.  1.
         11    1    3    3    0    0 -0.29816522102E+01 -0.28195657450E+02 -0.10010052933E+02  0.30068031344E+02  0.51100000000E-03 0.  1.
        -11    1    3    3    0    0 -0.11375731570E+01  0.32100425025E+01  0.50449546886E+01  0.60868722368E+01  0.51100000000E-03 0. -1.
         12    1    3    3    0    0  0.10472203837E+02  0.33082385786E+02 -0.10679815991E+02  0.36306607830E+02  0.00000000000E+00 0. -1.
</event>
<event>
 7    1  0.2489154E-013  0.7246155E+02  0.7816164E-02  0.1226708E+00
        -11   -1    0    0    0    0  0.00000000000E+00  0.00000000000E+00  0.45593999997E+02  0.45594000000E+02  0.51100000000E-03 0.  1.
         11   -1    0    0    0    0 -0.00000000000E+00 -0.00000000000E+00 -0.45593999997E+02  0.45594000000E+02  0.51100000000E-03 0. -1.
    9900012    2    1    2    0    0 -0.32676199285E+01 -0.18368139621E+02  0.16168385169E+01  0.72461546521E+02  0.69999969031E+02 0.  0.
        -12    1    1    2    0    0  0.32676199285E+01  0.18368139621E+02 -0.16168385169E+01  0.18726453479E+02  0.00000000000E+00 0.  1.
         11    1    3    3    0    0 -0.19115832510E+01 -0.69173450805E+01  0.19548523724E+02  0.20824230923E+02  0.51100000000E-03 0. -1.
        -11    1    3    3    0    0  0.11585260568E+02  0.14393598242E+02 -0.18708629186E+01  0.18571323623E+02  0.51100000000E-03 0.  1.
         12    1    3    3    0    0 -0.12941297245E+02 -0.25844392782E+02 -0.16060822289E+02  0.33065991975E+02  0.00000000000E+00 0. -1.
</event>
<event>
 7    1  0.2489154E-013  0.7246159E+02  0.7816164E-02  0.1226708E+00
        -11   -1    0    0    0    0  0.00000000000E+00  0.00000000000E+00  0.45593999997E+02  0.45594000000E+02  0.51100000000E-03 0.  1.
         11   -1    0    0    0    0 -0.00000000000E+00 -0.00000000000E+00 -0.45593999997E+02  0.45594000000E+02  0.51100000000E-03 0. -1.
    9900012    2    1    2    0    0 -0.66352572480E+01  0.79092497338E+01 -0.15623557370E+02  0.72461590440E+02  0.70000026244E+02 0.  0.
        -12    1    1    2    0    0  0.66352572480E+01 -0.79092497338E+01  0.15623557370E+02  0.18726409560E+02  0.00000000000E+00 0.  1.
         11    1    3    3    0    0  0.27635326163E-02 -0.28083257638E+01 -0.44286242021E+01  0.52439883502E+01  0.51100000000E-03 0. -1.
        -11    1    3    3    0    0 -0.32466162629E+02 -0.82713000191E+01 -0.10651629564E+02  0.35155701280E+02  0.51100000000E-03 0.  1.
         12    1    3    3    0    0  0.25828141849E+02  0.18988875517E+02 -0.54330360380E+00  0.32061900810E+02  0.00000000000E+00 0. -1.
</event>
<event>
 7    1  0.2489154E-013  0.7246159E+02  0.7816164E-02  0.1226708E+00
        -11   -1    0    0    0    0  0.00000000000E+00  0.00000000000E+00  0.45593999997E+02  0.45594000000E+02  0.51100000000E-03 0. -1.
         11   -1    0    0    0    0 -0.00000000000E+00 -0.00000000000E+00 -0.45593999997E+02  0.45594000000E+02  0.51100000000E-03 0.  1.
    9900012    2    1    2    0    0  0.38682311160E+01  0.83465421141E+01  0.16311052188E+02  0.72461590822E+02  0.70000026741E+02 0.  0.
        -12    1    1    2    0    0 -0.38682311160E+01 -0.83465421141E+01 -0.16311052188E+02  0.18726409178E+02  0.00000000000E+00 0.  1.
         11    1    3    3    0    0  0.95929633038E+01 -0.81469434007E+01  0.21730666933E+02  0.25112138844E+02  0.51100000000E-03 0. -1.
        -11    1    3    3    0    0  0.97943358966E+01  0.26413763066E+02 -0.76544707816E-01  0.28171293090E+02  0.51100000000E-03 0.  1.
         12    1    3    3    0    0 -0.15519068084E+02 -0.99202775517E+01 -0.53430700375E+01  0.19178158888E+02  0.00000000000E+00 0. -1.
</event>
<event>
 7    1  0.2489154E-013  0.7246158E+02  0.7816164E-02  0.1226708E+00
        -11   -1    0    0    0    0  0.00000000000E+00  0.00000000000E+00  0.45593999997E+02  0.45594000000E+02  0.51100000000E-03 0.  1.
         11   -1    0    0    0    0 -0.00000000000E+00 -0.00000000000E+00 -0.45593999997E+02  0.45594000000E+02  0.51100000000E-03 0. -1.
    9900012    2    1    2    0    0 -0.38696989574E+01 -0.15209296756E+02 -0.10216726117E+02  0.72461580951E+02  0.70000013883E+02 0.  0.
        -12    1    1    2    0    0  0.38696989574E+01  0.15209296756E+02  0.10216726117E+02  0.18726419049E+02  0.00000000000E+00 0.  1.
         11    1    3    3    0    0 -0.28350200117E+02 -0.21157803841E+02 -0.81713678094E+01  0.36306442433E+02  0.51100000000E-03 0. -1.
        -11    1    3    3    0    0  0.12345440604E+02 -0.10025190425E+02  0.63809157766E+00  0.15916077026E+02  0.51100000000E-03 0.  1.
        -12    1    3    3    0    0  0.12135060556E+02  0.15973697510E+02 -0.26834498853E+01  0.20239061493E+02  0.00000000000E+00 0.  1.
</event>
<event>
 7    1  0.2489154E-013  0.7246161E+02  0.7816164E-02  0.1226708E+00
        -11   -1    0    0    0    0  0.00000000000E+00  0.00000000000E+00  0.45593999997E+02  0.45594000000E+02  0.51100000000E-03 0. -1.
         11   -1    0    0    0    0 -0.00000000000E+00 -0.00000000000E+00 -0.45593999997E+02  0.45594000000E+02  0.51100000000E-03 0.  1.
    9900012    2    1    2    0    0 -0.11675565596E+02  0.30420555448E+01  0.14321476977E+02  0.72461611221E+02  0.70000053314E+02 0.  0.
        -12    1    1    2    0    0  0.11675565596E+02 -0.30420555448E+01 -0.14321476977E+02  0.18726388779E+02  0.00000000000E+00 0.  1.
         11    1    3    3    0    0  0.47426943062E+01  0.30632505529E+00  0.13698969977E+02  0.14499957346E+02  0.51100000000E-03 0. -1.
        -11    1    3    3    0    0 -0.22401810017E+02  0.33805829919E+01  0.24481200934E+02  0.33355638696E+02  0.51100000000E-03 0.  1.
        -12    1    3    3    0    0  0.59835501146E+01 -0.64485250242E+00 -0.23858693935E+02  0.24606015179E+02  0.00000000000E+00 0.  1.
</event>
<event>
 7    1  0.2489154E-013  0.7246157E+02  0.7816164E-02  0.1226708E+00
        -11   -1    0    0    0    0  0.00000000000E+00  0.00000000000E+00  0.45593999997E+02  0.45594000000E+02  0.51100000000E-03 0. -1.
         11   -1    0    0    0    0 -0.00000000000E+00 -0.00000000000E+00 -0.45593999997E+02  0.45594000000E+02  0.51100000000E-03 0.  1.
    9900012    2    1    2    0    0  0.74706394503E+00 -0.80480316598E+01  0.16892317425E+02  0.72461566647E+02  0.69999995248E+02 0.  0.
        -12    1    1    2    0    0 -0.74706394503E+00  0.80480316598E+01 -0.16892317425E+02  0.18726433353E+02  0.00000000000E+00 0.  1.
         11    1    3    3    0    0 -0.31214034741E+01 -0.79330414760E+01  0.12897260234E+02  0.15460130288E+02  0.51100000000E-03 0. -1.
        -11    1    3    3    0    0  0.15786097591E+01  0.21971575781E+01  0.30337933648E+02  0.30458327736E+02  0.51100000000E-03 0.  1.
        -12    1    3    3    0    0  0.22898576601E+01 -0.23121477619E+01 -0.26342876456E+02  0.26543108623E+02  0.00000000000E+00 0.  1.
</event>
<event>
 7    1  0.2489154E-013  0.7246152E+02  0.7816164E-02  0.1226708E+00
        -11   -1    0    0    0    0  0.00000000000E+00  0.00000000000E+00  0.45593999997E+02  0.45594000000E+02  0.51100000000E-03 0.  1.
         11   -1    0    0    0    0 -0.00000000000E+00 -0.00000000000E+00 -0.45593999997E+02  0.45594000000E+02  0.51100000000E-03 0. -1.
    9900012    2    1    2    0    0  0.72337541733E+00  0.16608360008E+02 -0.86209132017E+01  0.72461520390E+02  0.69999934991E+02 0.  0.
        -12    1    1    2    0    0 -0.72337541733E+00 -0.16608360008E+02  0.86209132017E+01  0.18726479610E+02  0.00000000000E+00 0.  1.
         11    1    3    3    0    0  0.20902754270E+02  0.18799220797E+00 -0.21119603210E+01  0.21010017939E+02  0.51100000000E-03 0. -1.
        -11    1    3    3    0    0 -0.53551512804E+01 -0.14575286649E+02  0.29706090696E+01  0.15809527021E+02  0.51100000000E-03 0.  1.
         12    1    3    3    0    0 -0.14824227572E+02  0.30995654448E+02 -0.94795619502E+01  0.35641975430E+02  0.00000000000E+00 0. -1.
</event>
<event>
 7    1  0.2489154E-013  0.7246147E+02  0.7816164E-02  0.1226708E+00
        -11   -1    0    0    0    0  0.00000000000E+00  0.00000000000E+00  0.45593999997E+02  0.45594000000E+02  0.51100000000E-03 0. -1.
         11   -1    0    0    0    0 -0.00000000000E+00 -0.00000000000E+00 -0.45593999997E+02  0.45594000000E+02  0.51100000000E-03 0.  1.
    9900012    2    1    2    0    0  0.12018006123E+02  0.14093076854E+02 -0.27632679122E+01  0.72461469731E+02  0.69999868997E+02 0.  0.
        -12    1    1    2    0    0 -0.12018006123E+02 -0.14093076854E+02  0.27632679122E+01  0.18726530269E+02  0.00000000000E+00 0.  1.
         11    1    3    3    0    0  0.14185244311E+02 -0.17796772255E+01  0.18344368782E+02  0.23257348805E+02  0.51100000000E-03 0. -1.
        -11    1    3    3    0    0 -0.13121071303E+02  0.12295375228E+02  0.66324997601E+01  0.19165824205E+02  0.51100000000E-03 0.  1.
        -12    1    3    3    0    0  0.10953833115E+02  0.35773788517E+01 -0.27740136454E+02  0.30038296720E+02  0.00000000000E+00 0.  1.
</event>
<event>
 7    1  0.2489154E-013  0.7246157E+02  0.7816164E-02  0.1226708E+00
        -11   -1    0    0    0    0  0.00000000000E+00  0.00000000000E+00  0.45593999997E+02  0.45594000000E+02  0.51100000000E-03 0. -1.
         11   -1    0    0    0    0 -0.00000000000E+00 -0.00000000000E+00 -0.45593999997E+02  0.45594000000E+02  0.51100000000E-03 0.  1.
    9900012    2    1    2    0    0 -0.69700033506E+01  0.14612107796E+02  0.94119396207E+01  0.72461568189E+02  0.69999997257E+02 0.  0.
        -12    1    1    2    0    0  0.69700033506E+01 -0.14612107796E+02 -0.94119396207E+01  0.18726431811E+02  0.00000000000E+00 0.  1.
         11    1    3    3    0    0  0.23361471899E+01  0.24954059951E+01 -0.54991662146E+01  0.64749875745E+01  0.51100000000E-03 0. -1.
        -11    1    3    3    0    0 -0.35793409586E+02  0.78999303801E+01  0.34407921873E+01  0.36815976436E+02  0.51100000000E-03 0.  1.
         12    1    3    3    0    0  0.26487259045E+02  0.42167714212E+01  0.11470313648E+02  0.29170604178E+02  0.00000000000E+00 0. -1.
</event>
<event>
 7    1  0.2489154E-013  0.7246160E+02  0.7816164E-02  0.1226708E+00
        -11   -1    0    0    0    0  0.00000000000E+00  0.00000000000E+00  0.45593999997E+02  0.45594000000E+02  0.51100000000E-03 0.  1.
         11   -1    0    0    0    0 -0.00000000000E+00 -0.00000000000E+00 -0.45593999997E+02  0.45594000000E+02  0.51100000000E-03 0. -1.
    9900012    2    1    2    0    0 -0.44787485201E+01 -0.16303984913E+02 -0.80497850105E+01  0.72461597488E+02  0.70000035424E+02 0.  0.
        -12    1    1    2    0    0  0.44787485201E+01  0.16303984913E+02  0.80497850105E+01  0.18726402512E+02  0.00000000000E+00 0.  1.
         11    1    3    3    0    0  0.91708064443E+01  0.29017132969E+01  0.57833817840E+01  0.11223686383E+02  0.51100000000E-03 0. -1.
        -11    1    3    3    0    0 -0.14846586337E+02  0.14323317967E+02 -0.18065622646E+02  0.27421620763E+02  0.51100000000E-03 0.  1.
         12    1    3    3    0    0  0.11970313729E+01 -0.33529016177E+02  0.42324558511E+01  0.33816290341E+02  0.00000000000E+00 0. -1.
</event>
<event>
 7    1  0.2489154E-013  0.7246157E+02  0.7816164E-02  0.1226708E+00
        -11   -1    0    0    0    0  0.00000000000E+00  0.00000000000E+00  0.45593999997E+02  0.45594000000E+02  0.51100000000E-03 0. -1.
         11   -1    0    0    0    0 -0.00000000000E+00 -0.00000000000E+00 -0.45593999997E+02  0.45594000000E+02  0.51100000000E-03 0.  1.
    9900012    2    1    2    0    0  0.11292467637E-01 -0.16747754641E+02  0.83780603770E+01  0.72461566578E+02  0.69999995159E+02 0.  0.
        -12    1    1    2    0    0 -0.11292467637E-01  0.16747754641E+02 -0.83780603770E+01  0.18726433422E+02  0.00000000000E+00 0.  1.
         11    1    3    3    0    0  0.17786665646E+02 -0.20111311529E+02  0.22837205487E+02  0.35247245012E+02  0.51100000000E-03 0. -1.
        -11    1    3    3    0    0  0.42915043697E+01 -0.63141368455E+00  0.56295091535E+01  0.71068323862E+01  0.51100000000E-03 0.  1.
        -12    1    3    3    0    0 -0.22066877548E+02  0.39949705730E+01 -0.20088654264E+02  0.30107489180E+02  0.00000000000E+00 0.  1.
</event>
<event>
 7    1  0.2489154E-013  0.7246150E+02  0.7816164E-02  0.1226708E+00
        -11   -1    0    0    0    0  0.00000000000E+00  0.00000000000E+00  0.45593999997E+02  0.45594000000E+02  0.51100000000E-03 0. -1.
         11   -1    0    0    0    0 -0.00000000000E+00 -0.00000000000E+00 -0.45593999997E+02  0.45594000000E+02  0.51100000000E-03 0.  1.
    9900012    2    1    2    0    0 -0.16146226320E+02 -0.44964805637E+01 -0.83524255690E+01  0.72461495395E+02  0.69999902430E+02 0.  0.
        -12    1    1    2    0    0  0.16146226320E+02  0.44964805637E+01  0.83524255690E+01  0.18726504605E+02  0.00000000000E+00 0.  1.
         11    1    3    3    0    0 -0.52911161001E+01  0.47372521172E+01 -0.49541286315E+01  0.86591488014E+01  0.51100000000E-03 0. -1.
        -11    1    3    3    0    0 -0.34652862679E+02 -0.29775125376E+01 -0.13356945755E+02  0.37257139892E+02  0.51100000000E-03 0.  1.
         12    1    3    3    0    0  0.23797752459E+02 -0.62562201432E+01  0.99586488179E+01  0.26545206702E+02  0.00000000000E+00 0. -1.
</event>
<event>
 7    1  0.2489154E-013  0.7246159E+02  0.7816164E-02  0.1226708E+00
        -11   -1    0    0    0    0  0.00000000000E+00  0.00000000000E+00  0.45593999997E+02  0.45594000000E+02  0.51100000000E-03 0.  1.
         11   -1    0    0    0    0 -0.00000000000E+00 -0.00000000000E+00 -0.45593999997E+02  0.45594000000E+02  0.51100000000E-03 0. -1.
    9900012    2    1    2    0    0  0.59580603532E+01 -0.11068651323E+02 -0.13880372762E+02  0.72461594224E+02  0.70000031173E+02 0.  0.
        -12    1    1    2    0    0 -0.59580603532E+01  0.11068651323E+02  0.13880372762E+02  0.18726405776E+02  0.00000000000E+00 0.  1.
         11    1    3    3    0    0  0.15566595248E+02  0.34400380696E+01 -0.11664617706E+02  0.19753887112E+02  0.51100000000E-03 0. -1.
        -11    1    3    3    0    0  0.51053006856E+01 -0.73303726491E+01 -0.23912923290E+02  0.25526973161E+02  0.51100000000E-03 0.  1.
        -12    1    3    3    0    0 -0.14713835581E+02 -0.71783167434E+01  0.21697168233E+02  0.27180733951E+02  0.00000000000E+00 0.  1.
</event>
<event>
 7    1  0.2489154E-013  0.7246157E+02  0.7816164E-02  0.1226708E+00
        -11   -1    0    0    0    0  0.00000000000E+00  0.00000000000E+00  0.45593999997E+02  0.45594000000E+02  0.51100000000E-03 0. -1.
         11   -1    0    0    0    0 -0.00000000000E+00 -0.00000000000E+00 -0.45593999997E+02  0.45594000000E+02  0.51100000000E-03 0.  1.
    9900012    2    1    2    0    0  0.13714500680E+02 -0.99934142220E+01 -0.79198016278E+01  0.72461571763E+02  0.70000001913E+02 0.  0.
        -12    1    1    2    0    0 -0.13714500680E+02  0.99934142220E+01  0.79198016278E+01  0.18726428237E+02  0.00000000000E+00 0.  1.
         11    1    3    3    0    0  0.54765367630E+01 -0.63899522416E+01 -0.25784142344E+00  0.84196453029E+01  0.51100000000E-03 0. -1.
        -11    1    3    3    0    0  0.11962331598E+02  0.23042048017E+02 -0.21571526318E+02  0.33754467882E+02  0.51100000000E-03 0.  1.
         12    1    3    3    0    0 -0.37243676815E+01 -0.26645509997E+02  0.13909566113E+02  0.30287458578E+02  0.00000000000E+00 0. -1.
</event>
<event>
 7    1  0.2489154E-013  0.7246165E+02  0.7816164E-02  0.1226708E+00
        -11   -1    0    0    0    0  0.00000000000E+00  0.00000000000E+00  0.45593999997E+02  0.45594000000E+02  0.51100000000E-03 0. -1.
         11   -1    0    0    0    0 -0.00000000000E+00 -0.00000000000E+00 -0.45593999997E+02  0.45594000000E+02  0.51100000000E-03 0.  1.
    9900012    2    1    2    0    0  0.13885531961E+02 -0.74395044689E+01  0.10125307332E+02  0.72461652968E+02  0.70000107698E+02 0.  0.
        -12    1    1    2    0    0 -0.13885531961E+02  0.74395044689E+01 -0.10125307332E+02  0.18726347032E+02  0.00000000000E+00 0.  1.
         11    1    3    3    0    0  0.19326990943E+02 -0.25635519068E+02  0.26554378685E+02  0.41663502546E+02  0.51100000000E-03 0. -1.
        -11    1    3    3    0    0  0.29092394039E+01 -0.19911004830E+00  0.19328219286E+01  0.34984453103E+01  0.51100000000E-03 0.  1.
        -12    1    3    3    0    0 -0.83506983863E+01  0.18395124647E+02 -0.18361893281E+02  0.27299705112E+02  0.00000000000E+00 0.  1.
</event>
<event>
 7    1  0.2489154E-013  0.7246156E+02  0.7816164E-02  0.1226708E+00
        -11   -1    0    0    0    0  0.00000000000E+00  0.00000000000E+00  0.45593999997E+02  0.45594000000E+02  0.51100000000E-03 0.  1.
         11   -1    0    0    0    0 -0.00000000000E+00 -0.00000000000E+00 -0.45593999997E+02  0.45594000000E+02  0.51100000000E-03 0. -1.
    9900012    2    1    2    0    0 -0.11297875910E+02 -0.14790435070E+02 -0.20689123650E+01  0.72461564995E+02  0.69999993097E+02 0.  0.
        -12    1    1    2    0    0  0.11297875910E+02  0.14790435070E+02  0.20689123650E+01  0.18726435005E+02  0.00000000000E+00 0.  1.
         11    1    3    3    0    0  0.81380161206E+01  0.15464891669E+02  0.34669559566E+01  0.17816003047E+02  0.51100000000E-03 0. -1.
        -11    1    3    3    0    0 -0.18013131803E+02 -0.28052769935E+02  0.13104844228E+02  0.35821331087E+02  0.51100000000E-03 0.  1.
         12    1    3    3    0    0 -0.14227602270E+01 -0.22025568038E+01 -0.18640712549E+02  0.18824230860E+02  0.00000000000E+00 0. -1.
</event>
<event>
 7    1  0.2489154E-013  0.7246155E+02  0.7816164E-02  0.1226708E+00
        -11   -1    0    0    0    0  0.00000000000E+00  0.00000000000E+00  0.45593999997E+02  0.45594000000E+02  0.51100000000E-03 0. -1.
         11   -1    0    0    0    0 -0.00000000000E+00 -0.00000000000E+00 -0.45593999997E+02  0.45594000000E+02  0.51100000000E-03 0.  1.
    9900012    2    1    2    0    0  0.13296867355E+02  0.86715739302E+01  0.99336276546E+01  0.72461552545E+02  0.69999976879E+02 0.  0.
        -12    1    1    2    0    0 -0.13296867355E+02 -0.86715739302E+01 -0.99336276546E+01  0.18726447455E+02  0.00000000000E+00 0.  1.
         11    1    3    3    0    0  0.11294157541E+01  0.28206319758E+01  0.23810914057E+02  0.24003982445E+02  0.51100000000E-03 0. -1.
        -11    1    3    3    0    0  0.27720469781E+02  0.30836600785E+01 -0.72338733347E+00  0.27900836795E+02  0.51100000000E-03 0.  1.
         12    1    3    3    0    0 -0.15553018180E+02  0.27672818759E+01 -0.13153899069E+02  0.20556733306E+02  0.00000000000E+00 0. -1.
</event>
<event>
 7    1  0.2489154E-013  0.7246147E+02  0.7816164E-02  0.1226708E+00
        -11   -1    0    0    0    0  0.00000000000E+00  0.00000000000E+00  0.45593999997E+02  0.45594000000E+02  0.51100000000E-03 0.  1.
         11   -1    0    0    0    0 -0.00000000000E+00 -0.00000000000E+00 -0.45593999997E+02  0.45594000000E+02  0.51100000000E-03 0. -1.
    9900012    2    1    2    0    0  0.39944455141E+01  0.80400683368E+01 -0.16434246154E+02  0.72461474950E+02  0.69999875796E+02 0.  0.
        -12    1    1    2    0    0 -0.39944455141E+01 -0.80400683368E+01  0.16434246154E+02  0.18726525050E+02  0.00000000000E+00 0.  1.
         11    1    3    3    0    0 -0.45221088858E+01  0.32322813861E+01  0.71331372046E+01  0.90431608619E+01  0.51100000000E-03 0. -1.
        -11    1    3    3    0    0 -0.15669526899E+01  0.90817132857E+01  0.18113192743E+02  0.20322908467E+02  0.51100000000E-03 0.  1.
         12    1    3    3    0    0  0.10083507090E+02 -0.42739263351E+01 -0.41680576101E+02  0.43095405621E+02  0.00000000000E+00 0. -1.
</event>
<event>
 7    1  0.2489154E-013  0.7246157E+02  0.7816164E-02  0.1226708E+00
        -11   -1    0    0    0    0  0.00000000000E+00  0.00000000000E+00  0.45593999997E+02  0.45594000000E+02  0.51100000000E-03 0.  1.
         11   -1    0    0    0    0 -0.00000000000E+00 -0.00000000000E+00 -0.45593999997E+02  0.45594000000E+02  0.51100000000E-03 0. -1.
    9900012    2    1    2    0    0 -0.39239191305E+01  0.11448189976E+02 -0.14290597313E+02  0.72461565031E+02  0.69999993144E+02 0.  0.
        -12    1    1    2    0    0  0.39239191305E+01 -0.11448189976E+02  0.14290597313E+02  0.18726434969E+02  0.00000000000E+00 0.  1.
         11    1    3    3    0    0  0.24059461419E+01 -0.36435095588E+01  0.54646716843E+01  0.69947391388E+01  0.51100000000E-03 0. -1.
        -11    1    3    3    0    0 -0.13301606626E+02  0.14622995780E+02  0.18202155989E+02  0.26871606340E+02  0.51100000000E-03 0.  1.
         12    1    3    3    0    0  0.69717413537E+01  0.46870375550E+00 -0.37957424986E+02  0.38595219552E+02  0.00000000000E+00 0. -1.
</event>
<event>
 7    1  0.2489154E-013  0.7246156E+02  0.7816164E-02  0.1226708E+00
        -11   -1    0    0    0    0  0.00000000000E+00  0.00000000000E+00  0.45593999997E+02  0.45594000000E+02  0.51100000000E-03 0. -1.
         11   -1    0    0    0    0 -0.00000000000E+00 -0.00000000000E+00 -0.45593999997E+02  0.45594000000E+02  0.51100000000E-03 0.  1.
    9900012    2    1    2    0    0  0.15813314844E+02  0.80182339689E+01  0.60271586874E+01  0.72461557621E+02  0.69999983490E+02 0.  0.
        -12    1    1    2    0    0 -0.15813314844E+02 -0.80182339689E+01 -0.60271586874E+01  0.18726442379E+02  0.00000000000E+00 0.  1.
         11    1    3    3    0    0  0.45983534815E+01 -0.27834791549E+02  0.15616773279E+01  0.28255252815E+02  0.51100000000E-03 0. -1.
        -11    1    3    3    0    0  0.11642718126E+02  0.61094231500E+01 -0.31080303575E+01  0.13510654668E+02  0.51100000000E-03 0.  1.
        -12    1    3    3    0    0 -0.42775676373E+00  0.29743602368E+02  0.75735117170E+01  0.30695650138E+02  0.00000000000E+00 0.  1.
</event>
<event>
 7    1  0.2489154E-013  0.7246161E+02  0.7816164E-02  0.1226708E+00
        -11   -1    0    0    0    0  0.00000000000E+00  0.00000000000E+00  0.45593999997E+02  0.45594000000E+02  0.51100000000E-03 0.  1.
         11   -1    0    0    0    0 -0.00000000000E+00 -0.00000000000E+00 -0.45593999997E+02  0.45594000000E+02  0.51100000000E-03 0. -1.
    9900012    2    1    2    0    0  0.88935337521E+01 -0.16465346936E+02  0.68929178820E+00  0.72461609117E+02  0.70000050574E+02 0.  0.
        -12    1    1    2    0    0 -0.88935337521E+01  0.16465346936E+02 -0.68929178820E+00  0.18726390883E+02  0.00000000000E+00 0.  1.
         11    1    3    3    0    0 -0.47866263118E+01  0.18360984581E+02  0.71116183657E+01  0.20263579700E+02  0.51100000000E-03 0. -1.
        -11    1    3    3    0    0 -0.47420630887E+00  0.63481904371E+01  0.38815299177E+01  0.74559149816E+01  0.51100000000E-03 0.  1.
        -12    1    3    3    0    0  0.14154366373E+02 -0.41174521954E+02 -0.10303856495E+02  0.44742114436E+02  0.00000000000E+00 0.  1.
</event>
<event>
 7    1  0.2489154E-013  0.7246158E+02  0.7816164E-02  0.1226708E+00
        -11   -1    0    0    0    0  0.00000000000E+00  0.00000000000E+00  0.45593999997E+02  0.45594000000E+02  0.51100000000E-03 0.  1.
         11   -1    0    0    0    0 -0.00000000000E+00 -0.00000000000E+00 -0.45593999997E+02  0.45594000000E+02  0.51100000000E-03 0. -1.
    9900012    2    1    2    0    0 -0.78211099219E+01 -0.13404124652E+02 -0.10480382862E+02  0.72461581682E+02  0.70000014834E+02 0.  0.
        -12    1    1    2    0    0  0.78211099219E+01  0.13404124652E+02  0.10480382862E+02  0.18726418318E+02  0.00000000000E+00 0.  1.
         11    1    3    3    0    0 -0.17056527483E+02  0.99217144811E+01 -0.11961812895E+02  0.23074889296E+02  0.51100000000E-03 0. -1.
        -11    1    3    3    0    0  0.22974464318E+02 -0.13013349341E+02 -0.10528862481E+02  0.28425872321E+02  0.51100000000E-03 0.  1.
         12    1    3    3    0    0 -0.13739046757E+02 -0.10312489792E+02  0.12010292514E+02  0.20960820065E+02  0.00000000000E+00 0. -1.
</event>
<event>
 7    1  0.2489154E-013  0.7246159E+02  0.7816164E-02  0.1226708E+00
        -11   -1    0    0    0    0  0.00000000000E+00  0.00000000000E+00  0.45593999997E+02  0.45594000000E+02  0.51100000000E-03 0.  1.
         11   -1    0    0    0    0 -0.00000000000E+00 -0.00000000000E+00 -0.45593999997E+02  0.45594000000E+02  0.51100000000E-03 0. -1.
    9900012    2    1    2    0    0  0.13248097346E+02  0.11777587009E+02 -0.60377935506E+01  0.72461585768E+02  0.70000020157E+02 0.  0.
        -12    1    1    2    0    0 -0.13248097346E+02 -0.11777587009E+02  0.60377935506E+01  0.18726414232E+02  0.00000000000E+00 0.  1.
         11    1    3    3    0    0 -0.49421577725E+01 -0.16343656690E+02  0.92658236090E+00  0.17099666447E+02  0.51100000000E-03 0. -1.
        -11    1    3    3    0    0 -0.73800894675E+01 -0.49565845036E+00 -0.14476691153E+02  0.16256875003E+02  0.51100000000E-03 0.  1.
        -12    1    3    3    0    0  0.25570344586E+02  0.28616902149E+02  0.75123152416E+01  0.39105044318E+02  0.00000000000E+00 0.  1.
</event>
<event>
 7    1  0.2489154E-013  0.7246158E+02  0.7816164E-02  0.1226708E+00
        -11   -1    0    0    0    0  0.00000000000E+00  0.00000000000E+00  0.45593999997E+02  0.45594000000E+02  0.51100000000E-03 0.  1.
         11   -1    0    0    0    0 -0.00000000000E+00 -0.00000000000E+00 -0.45593999997E+02  0.45594000000E+02  0.51100000000E-03 0. -1.
    9900012    2    1    2    0    0  0.10337403977E+02  0.38547380682E+01 -0.15131352164E+02  0.72461581632E+02  0.70000014770E+02 0.  0.
        -12    1    1    2    0    0 -0.10337403977E+02 -0.38547380682E+01  0.15131352164E+02  0.18726418368E+02  0.00000000000E+00 0.  1.
         11    1    3    3    0    0  0.77555236559E+00 -0.18168342955E+02 -0.23929359531E+02  0.30055023125E+02  0.51100000000E-03 0. -1.
        -11    1    3    3    0    0  0.53555467104E+01 -0.81702085134E+01  0.67074844073E+01  0.11850085867E+02  0.51100000000E-03 0.  1.
         12    1    3    3    0    0  0.42063049012E+01  0.30193289537E+02  0.20905229597E+01  0.30556472640E+02  0.00000000000E+00 0. -1.
</event>
<event>
 7    1  0.2489154E-013  0.7246157E+02  0.7816164E-02  0.1226708E+00
        -11   -1    0    0    0    0  0.00000000000E+00  0.00000000000E+00  0.45593999997E+02  0.45594000000E+02  0.51100000000E-03 0. -1.
         11   -1    0    0    0    0 -0.00000000000E+00 -0.00000000000E+00 -0.45593999997E+02  0.45594000000E+02  0.51100000000E-03 0.  1.
    9900012    2    1    2    0    0 -0.14132282541E+02 -0.11051002745E+02  0.53696484980E+01  0.72461569575E+02  0.69999999063E+02 0.  0.
        -12    1    1    2    0    0  0.14132282541E+02  0.11051002745E+02 -0.53696484980E+01  0.18726430425E+02  0.00000000000E+00 0.  1.
         11    1    3    3    0    0 -0.22288585899E+02 -0.18721504354E+02  0.16119040355E+02  0.33273100981E+02  0.51100000000E-03 0. -1.
        -11    1    3    3    0    0 -0.13895342016E+02 -0.27142121407E+00 -0.14522182954E+01  0.13973658699E+02  0.51100000000E-03 0.  1.
        -12    1    3    3    0    0  0.22051645374E+02  0.79419228231E+01 -0.92971735613E+01  0.25214809895E+02  0.00000000000E+00 0.  1.
</event>
<event>
 7    1  0.2489154E-013  0.7246158E+02  0.7816164E-02  0.1226708E+00
        -11   -1    0    0    0    0  0.00000000000E+00  0.00000000000E+00  0.45593999997E+02  0.45594000000E+02  0.51100000000E-03 0. -1.
         11   -1    0    0    0    0 -0.00000000000E+00 -0.00000000000E+00 -0.45593999997E+02  0.45594000000E+02  0.51100000000E-03 0.  1.
    9900012    2    1    2    0    0 -0.18664496429E+02 -0.15115964519E+01  0.17488477397E+00  0.72461576544E+02  0.70000008141E+02 0.  0.
        -12    1    1    2    0    0  0.18664496429E+02  0.15115964519E+01 -0.17488477397E+00  0.18726423456E+02  0.00000000000E+00 0.  1.
         11    1    3    3    0    0 -0.16088503969E+02  0.21602329808E+02 -0.26538489918E+01  0.27065541336E+02  0.51100000000E-03 0. -1.
        -11    1    3    3    0    0  0.15248652464E+02 -0.43445749182E+01 -0.74837366869E+01  0.17532913285E+02  0.51100000000E-03 0.  1.
        -12    1    3    3    0    0 -0.17824644924E+02 -0.18769351341E+02  0.10312470453E+02  0.27863121923E+02  0.00000000000E+00 0.  1.
</event>
<event>
 7    1  0.2489154E-013  0.7246157E+02  0.7816164E-02  0.1226708E+00
        -11   -1    0    0    0    0  0.00000000000E+00  0.00000000000E+00  0.45593999997E+02  0.45594000000E+02  0.51100000000E-03 0.  1.
         11   -1    0    0    0    0 -0.00000000000E+00 -0.00000000000E+00 -0.45593999997E+02  0.45594000000E+02  0.51100000000E-03 0. -1.
    9900012    2    1    2    0    0 -0.11757103948E+02 -0.94055133120E+01 -0.11134900748E+02  0.72461569786E+02  0.69999999337E+02 0.  0.
        -12    1    1    2    0    0  0.11757103948E+02  0.94055133120E+01  0.11134900748E+02  0.18726430214E+02  0.00000000000E+00 0.  1.
         11    1    3    3    0    0 -0.51305550546E+01  0.25411522753E+02 -0.61922683101E+01  0.26653560192E+02  0.51100000000E-03 0. -1.
        -11    1    3    3    0    0 -0.71081712946E+01  0.30030478115E+01 -0.72805514574E+00  0.77507715660E+01  0.51100000000E-03 0.  1.
        -12    1    3    3    0    0  0.48162240088E+00 -0.37820083877E+02 -0.42145772919E+01  0.38057238028E+02  0.00000000000E+00 0.  1.
</event>
<event>
 7    1  0.2489154E-013  0.7246162E+02  0.7816164E-02  0.1226708E+00
        -11   -1    0    0    0    0  0.00000000000E+00  0.00000000000E+00  0.45593999997E+02  0.45594000000E+02  0.51100000000E-03 0.  1.
         11   -1    0    0    0    0 -0.00000000000E+00 -0.00000000000E+00 -0.45593999997E+02  0.45594000000E+02  0.51100000000E-03 0. -1.
    9900012    2    1    2    0    0 -0.14661798260E+02 -0.56979357521E+00 -0.11635480943E+02  0.72461617282E+02  0.70000061210E+02 0.  0.
        -12    1    1    2    0    0  0.14661798260E+02  0.56979357521E+00  0.11635480943E+02  0.18726382718E+02  0.00000000000E+00 0.  1.
         11    1    3    3    0    0  0.97466001318E+01 -0.72022959234E+01 -0.22346703054E+02  0.25421337855E+02  0.51100000000E-03 0. -1.
        -11    1    3    3    0    0  0.75860602319E+01  0.97396962875E+01 -0.19369071326E+01  0.12496463624E+02  0.51100000000E-03 0.  1.
        -12    1    3    3    0    0 -0.31994458624E+02 -0.31071939392E+01  0.12648129244E+02  0.34543815802E+02  0.00000000000E+00 0.  1.
</event>
<event>
 7    1  0.2489154E-013  0.7246184E+02  0.7816164E-02  0.1226707E+00
        -11   -1    0    0    0    0  0.00000000000E+00  0.00000000000E+00  0.45593999997E+02  0.45594000000E+02  0.51100000000E-03 0.  1.
         11   -1    0    0    0    0 -0.00000000000E+00 -0.00000000000E+00 -0.45593999997E+02  0.45594000000E+02  0.51100000000E-03 0. -1.
    9900012    2    1    2    0    0 -0.17097893059E+02 -0.68004336334E+01 -0.34763846313E+01  0.72461839295E+02  0.70000350422E+02 0.  0.
        -12    1    1    2    0    0  0.17097893059E+02  0.68004336334E+01  0.34763846313E+01  0.18726160705E+02  0.00000000000E+00 0.  1.
         11    1    3    3    0    0 -0.11326805502E+02 -0.88836924087E+01 -0.88469634008E+01  0.16896309519E+02  0.51100000000E-03 0. -1.
        -11    1    3    3    0    0 -0.28201070881E+02  0.11876431817E+02  0.46121100166E+00  0.30603312686E+02  0.51100000000E-03 0.  1.
        -12    1    3    3    0    0  0.22429983324E+02 -0.97931730420E+01  0.49093677678E+01  0.24962217089E+02  0.00000000000E+00 0.  1.
</event>
<event>
 7    1  0.2489154E-013  0.7246166E+02  0.7816164E-02  0.1226708E+00
        -11   -1    0    0    0    0  0.00000000000E+00  0.00000000000E+00  0.45593999997E+02  0.45594000000E+02  0.51100000000E-03 0.  1.
         11   -1    0    0    0    0 -0.00000000000E+00 -0.00000000000E+00 -0.45593999997E+02  0.45594000000E+02  0.51100000000E-03 0. -1.
    9900012    2    1    2    0    0 -0.87263790959E+01 -0.12794660137E+02 -0.10527241678E+02  0.72461659261E+02  0.70000115895E+02 0.  0.
        -12    1    1    2    0    0  0.87263790959E+01  0.12794660137E+02  0.10527241678E+02  0.18726340739E+02  0.00000000000E+00 0.  1.
         11    1    3    3    0    0  0.67882762085E+01  0.27415277034E+00  0.19846932635E+02  0.20977525805E+02  0.51100000000E-03 0.  1.
        -11    1    3    3    0    0  0.11364729384E+02 -0.37762785263E+01 -0.14868345627E+02  0.19091491703E+02  0.51100000000E-03 0. -1.
         12    1    3    3    0    0 -0.26879384689E+02 -0.92925343806E+01 -0.15505828686E+02  0.32392641752E+02  0.00000000000E+00 0. -1.
</event>
<event>
 7    1  0.2489154E-013  0.7246158E+02  0.7816164E-02  0.1226708E+00
        -11   -1    0    0    0    0  0.00000000000E+00  0.00000000000E+00  0.45593999997E+02  0.45594000000E+02  0.51100000000E-03 0.  1.
         11   -1    0    0    0    0 -0.00000000000E+00 -0.00000000000E+00 -0.45593999997E+02  0.45594000000E+02  0.51100000000E-03 0. -1.
    9900012    2    1    2    0    0  0.13057381601E+02  0.12132887216E+02 -0.57425445585E+01  0.72461575235E+02  0.70000006436E+02 0.  0.
        -12    1    1    2    0    0 -0.13057381601E+02 -0.12132887216E+02  0.57425445585E+01  0.18726424765E+02  0.00000000000E+00 0.  1.
         11    1    3    3    0    0  0.10792454042E+02 -0.57646191333E+01 -0.77085489906E+01  0.14461314802E+02  0.51100000000E-03 0. -1.
        -11    1    3    3    0    0  0.26328271217E+02  0.12900720600E+02  0.11698378197E+02  0.31566731063E+02  0.51100000000E-03 0.  1.
        -12    1    3    3    0    0 -0.24063343658E+02  0.49967857492E+01 -0.97323737652E+01  0.26433529370E+02  0.00000000000E+00 0.  1.
</event>
<event>
 7    1  0.2489154E-013  0.7246158E+02  0.7816164E-02  0.1226708E+00
        -11   -1    0    0    0    0  0.00000000000E+00  0.00000000000E+00  0.45593999997E+02  0.45594000000E+02  0.51100000000E-03 0.  1.
         11   -1    0    0    0    0 -0.00000000000E+00 -0.00000000000E+00 -0.45593999997E+02  0.45594000000E+02  0.51100000000E-03 0. -1.
    9900012    2    1    2    0    0  0.10621069000E+02  0.41797243275E+01 -0.14845928947E+02  0.72461579935E+02  0.70000012559E+02 0.  0.
        -12    1    1    2    0    0 -0.10621069000E+02 -0.41797243275E+01  0.14845928947E+02  0.18726420065E+02  0.00000000000E+00 0.  1.
         11    1    3    3    0    0 -0.83065424884E+00  0.30002679415E+01 -0.23354096662E+02  0.23560675401E+02  0.51100000000E-03 0. -1.
        -11    1    3    3    0    0 -0.46394413159E+01  0.18336730040E+02 -0.76079536359E+01  0.20387276500E+02  0.51100000000E-03 0.  1.
        -12    1    3    3    0    0  0.16091164565E+02 -0.17157273654E+02  0.16116121351E+02  0.28513628034E+02  0.00000000000E+00 0.  1.
</event>
<event>
 7    1  0.2489154E-013  0.7246157E+02  0.7816164E-02  0.1226708E+00
        -11   -1    0    0    0    0  0.00000000000E+00  0.00000000000E+00  0.45593999997E+02  0.45594000000E+02  0.51100000000E-03 0.  1.
         11   -1    0    0    0    0 -0.00000000000E+00 -0.00000000000E+00 -0.45593999997E+02  0.45594000000E+02  0.51100000000E-03 0. -1.
    9900012    2    1    2    0    0  0.40227372134E+01 -0.89271096713E+01 -0.15962564458E+02  0.72461570392E+02  0.70000000127E+02 0.  0.
        -12    1    1    2    0    0 -0.40227372134E+01  0.89271096713E+01  0.15962564458E+02  0.18726429608E+02  0.00000000000E+00 0.  1.
         11    1    3    3    0    0  0.73225803446E+01  0.14194722914E+02  0.11400306466E+02  0.19623387304E+02  0.51100000000E-03 0. -1.
        -11    1    3    3    0    0 -0.93088626913E+01  0.15399961065E+01  0.58002933367E+01  0.11075645158E+02  0.51100000000E-03 0.  1.
         12    1    3    3    0    0  0.60090195601E+01 -0.24661828692E+02 -0.33163164261E+02  0.41762537930E+02  0.00000000000E+00 0. -1.
</event>
<event>
 7    1  0.2489154E-013  0.7246156E+02  0.7816164E-02  0.1226708E+00
        -11   -1    0    0    0    0  0.00000000000E+00  0.00000000000E+00  0.45593999997E+02  0.45594000000E+02  0.51100000000E-03 0.  1.
         11   -1    0    0    0    0 -0.00000000000E+00 -0.00000000000E+00 -0.45593999997E+02  0.45594000000E+02  0.51100000000E-03 0. -1.
    9900012    2    1    2    0    0 -0.10443056046E+02 -0.13923788709E+02 -0.69101650515E+01  0.72461556327E+02  0.69999981805E+02 0.  0.
        -12    1    1    2    0    0  0.10443056046E+02  0.13923788709E+02  0.69101650515E+01  0.18726443673E+02  0.00000000000E+00 0.  1.
         11    1    3    3    0    0 -0.25218131269E+02 -0.17938702297E+02 -0.72587362986E+01  0.31787425780E+02  0.51100000000E-03 0. -1.
        -11    1    3    3    0    0  0.18183942855E+01  0.31593431248E+01  0.18221359371E+02  0.18582409541E+02  0.51100000000E-03 0.  1.
         12    1    3    3    0    0  0.12956680937E+02  0.85557046338E+00 -0.17872788124E+02  0.22091721007E+02  0.00000000000E+00 0. -1.
</event>
<event>
 7    1  0.2489154E-013  0.7246159E+02  0.7816164E-02  0.1226708E+00
        -11   -1    0    0    0    0  0.00000000000E+00  0.00000000000E+00  0.45593999997E+02  0.45594000000E+02  0.51100000000E-03 0.  1.
         11   -1    0    0    0    0 -0.00000000000E+00 -0.00000000000E+00 -0.45593999997E+02  0.45594000000E+02  0.51100000000E-03 0. -1.
    9900012    2    1    2    0    0  0.22685145300E+01 -0.18468665529E+02 -0.21073131688E+01  0.72461587280E+02  0.70000022127E+02 0.  0.
        -12    1    1    2    0    0 -0.22685145300E+01  0.18468665529E+02  0.21073131688E+01  0.18726412720E+02  0.00000000000E+00 0.  1.
         11    1    3    3    0    0 -0.18777618691E+02 -0.50411524487E+01  0.45422025430E+01  0.19966065860E+02  0.51100000000E-03 0. -1.
        -11    1    3    3    0    0 -0.14680502739E+01  0.15403796243E+02 -0.26186139599E+01  0.15693605374E+02  0.51100000000E-03 0.  1.
         12    1    3    3    0    0  0.22514183495E+02 -0.28831309322E+02 -0.40309017519E+01  0.36801916046E+02  0.00000000000E+00 0. -1.
</event>
<event>
 7    1  0.2489154E-013  0.7246166E+02  0.7816164E-02  0.1226708E+00
        -11   -1    0    0    0    0  0.00000000000E+00  0.00000000000E+00  0.45593999997E+02  0.45594000000E+02  0.51100000000E-03 0. -1.
         11   -1    0    0    0    0 -0.00000000000E+00 -0.00000000000E+00 -0.45593999997E+02  0.45594000000E+02  0.51100000000E-03 0.  1.
    9900012    2    1    2    0    0  0.91375215215E+01 -0.95113698225E+01  0.13293429348E+02  0.72461662417E+02  0.70000120006E+02 0.  0.
        -12    1    1    2    0    0 -0.91375215215E+01  0.95113698225E+01 -0.13293429348E+02  0.18726337583E+02  0.00000000000E+00 0.  1.
         11    1    3    3    0    0 -0.94569848820E+01 -0.12995129103E+02  0.12293176419E+02  0.20234379906E+02  0.51100000000E-03 0. -1.
        -11    1    3    3    0    0  0.34358806378E+02  0.37940691600E+01 -0.58091576542E+01  0.35052372950E+02  0.51100000000E-03 0.  1.
         12    1    3    3    0    0 -0.15764299975E+02 -0.31030987939E+00  0.68094105830E+01  0.17174909560E+02  0.00000000000E+00 0. -1.
</event>
<event>
 7    1  0.2489154E-013  0.7246156E+02  0.7816164E-02  0.1226708E+00
        -11   -1    0    0    0    0  0.00000000000E+00  0.00000000000E+00  0.45593999997E+02  0.45594000000E+02  0.51100000000E-03 0.  1.
         11   -1    0    0    0    0 -0.00000000000E+00 -0.00000000000E+00 -0.45593999997E+02  0.45594000000E+02  0.51100000000E-03 0. -1.
    9900012    2    1    2    0    0  0.36753295236E+01 -0.16829729293E+02  0.73438126008E+01  0.72461563641E+02  0.69999991333E+02 0.  0.
        -12    1    1    2    0    0 -0.36753295236E+01  0.16829729293E+02 -0.73438126008E+01  0.18726436359E+02  0.00000000000E+00 0.  1.
         11    1    3    3    0    0  0.13169509172E+02  0.20807288460E+02 -0.73804092376E+01  0.25706996434E+02  0.51100000000E-03 0. -1.
        -11    1    3    3    0    0 -0.68768655167E+01 -0.94527575228E+00 -0.46479707285E+00  0.69570728157E+01  0.51100000000E-03 0.  1.
        -12    1    3    3    0    0 -0.26173141322E+01 -0.36691742001E+02  0.15189018911E+02  0.39797494391E+02  0.00000000000E+00 0.  1.
</event>
<event>
 7    1  0.2489154E-013  0.7246159E+02  0.7816164E-02  0.1226708E+00
        -11   -1    0    0    0    0  0.00000000000E+00  0.00000000000E+00  0.45593999997E+02  0.45594000000E+02  0.51100000000E-03 0. -1.
         11   -1    0    0    0    0 -0.00000000000E+00 -0.00000000000E+00 -0.45593999997E+02  0.45594000000E+02  0.51100000000E-03 0.  1.
    9900012    2    1    2    0    0  0.27993948929E+01 -0.17696137335E+02  0.54487202611E+01  0.72461589750E+02  0.70000025345E+02 0.  0.
        -12    1    1    2    0    0 -0.27993948929E+01  0.17696137335E+02 -0.54487202611E+01  0.18726410250E+02  0.00000000000E+00 0.  1.
         11    1    3    3    0    0 -0.18837142250E+02 -0.20718132104E+02  0.11203548055E+02  0.30159549322E+02  0.51100000000E-03 0. -1.
        -11    1    3    3    0    0 -0.74171188231E+01  0.81528279309E+01  0.31872159810E+01  0.11473473793E+02  0.51100000000E-03 0.  1.
         12    1    3    3    0    0  0.29053655966E+02 -0.51308331623E+01 -0.89420437747E+01  0.30828566635E+02  0.00000000000E+00 0. -1.
</event>
<event>
 7    1  0.2489154E-013  0.7246153E+02  0.7816164E-02  0.1226708E+00
        -11   -1    0    0    0    0  0.00000000000E+00  0.00000000000E+00  0.45593999997E+02  0.45594000000E+02  0.51100000000E-03 0. -1.
         11   -1    0    0    0    0 -0.00000000000E+00 -0.00000000000E+00 -0.45593999997E+02  0.45594000000E+02  0.51100000000E-03 0.  1.
    9900012    2    1    2    0    0 -0.99293296415E+01 -0.13660131290E+02 -0.80925946672E+01  0.72461525093E+02  0.69999941117E+02 0.  0.
        -12    1    1    2    0    0  0.99293296415E+01  0.13660131290E+02  0.80925946672E+01  0.18726474907E+02  0.00000000000E+00 0.  1.
         11    1    3    3    0    0  0.10333587192E+02 -0.18347368397E+02  0.57650735924E+01  0.21832201564E+02  0.51100000000E-03 0. -1.
        -11    1    3    3    0    0 -0.61310840463E+01 -0.19578108169E+02 -0.42549014102E+01  0.20952248026E+02  0.51100000000E-03 0.  1.
        -12    1    3    3    0    0 -0.14131832787E+02  0.24265345276E+02 -0.96027668494E+01  0.29677075504E+02  0.00000000000E+00 0.  1.
</event>
<event>
 7    1  0.2489154E-013  0.7246160E+02  0.7816164E-02  0.1226708E+00
        -11   -1    0    0    0    0  0.00000000000E+00  0.00000000000E+00  0.45593999997E+02  0.45594000000E+02  0.51100000000E-03 0.  1.
         11   -1    0    0    0    0 -0.00000000000E+00 -0.00000000000E+00 -0.45593999997E+02  0.45594000000E+02  0.51100000000E-03 0. -1.
    9900012    2    1    2    0    0 -0.64429518465E+01 -0.24087942934E+01 -0.17417352885E+02  0.72461598852E+02  0.70000037201E+02 0.  0.
        -12    1    1    2    0    0  0.64429518465E+01  0.24087942934E+01  0.17417352885E+02  0.18726401148E+02  0.00000000000E+00 0.  1.
         11    1    3    3    0    0 -0.18798503692E+02 -0.37596174939E+01 -0.45524612311E+01  0.19703892211E+02  0.51100000000E-03 0. -1.
        -11    1    3    3    0    0  0.18317266860E+02 -0.10851643040E+01 -0.29600019430E+02  0.34826153927E+02  0.51100000000E-03 0.  1.
         12    1    3    3    0    0 -0.59617150153E+01  0.24359875045E+01  0.16735127776E+02  0.17931552714E+02  0.00000000000E+00 0. -1.
</event>
<event>
 7    1  0.2489154E-013  0.7246159E+02  0.7816164E-02  0.1226708E+00
        -11   -1    0    0    0    0  0.00000000000E+00  0.00000000000E+00  0.45593999997E+02  0.45594000000E+02  0.51100000000E-03 0.  1.
         11   -1    0    0    0    0 -0.00000000000E+00 -0.00000000000E+00 -0.45593999997E+02  0.45594000000E+02  0.51100000000E-03 0. -1.
    9900012    2    1    2    0    0  0.56136230932E+01 -0.14425743398E+02 -0.10538668034E+02  0.72461591889E+02  0.70000028131E+02 0.  0.
        -12    1    1    2    0    0 -0.56136230932E+01  0.14425743398E+02  0.10538668034E+02  0.18726408111E+02  0.00000000000E+00 0.  1.
         11    1    3    3    0    0 -0.15756485501E+02 -0.38560376001E+01 -0.65790522058E+01  0.17504850456E+02  0.51100000000E-03 0. -1.
        -11    1    3    3    0    0 -0.57612730915E+01 -0.23729221666E+02 -0.43330989702E+01  0.24800080150E+02  0.51100000000E-03 0.  1.
         12    1    3    3    0    0  0.27131381685E+02  0.13159515868E+02  0.37348314235E+00  0.30156661282E+02  0.00000000000E+00 0. -1.
</event>
<event>
 7    1  0.2489154E-013  0.7246159E+02  0.7816164E-02  0.1226708E+00
        -11   -1    0    0    0    0  0.00000000000E+00  0.00000000000E+00  0.45593999997E+02  0.45594000000E+02  0.51100000000E-03 0.  1.
         11   -1    0    0    0    0 -0.00000000000E+00 -0.00000000000E+00 -0.45593999997E+02  0.45594000000E+02  0.51100000000E-03 0. -1.
    9900012    2    1    2    0    0  0.14917255157E+02  0.72735427000E+01 -0.86746547336E+01  0.72461586580E+02  0.70000021215E+02 0.  0.
        -12    1    1    2    0    0 -0.14917255157E+02 -0.72735427000E+01  0.86746547336E+01  0.18726413420E+02  0.00000000000E+00 0.  1.
         11    1    3    3    0    0 -0.78781288383E+01 -0.10781929402E+01  0.10472572682E+01  0.80202345387E+01  0.51100000000E-03 0. -1.
        -11    1    3    3    0    0 -0.37544141280E+01 -0.64331515981E+01  0.20361069705E+02  0.21680733952E+02  0.51100000000E-03 0.  1.
         12    1    3    3    0    0  0.26549798123E+02  0.14784887238E+02 -0.30082981707E+02  0.42760618089E+02  0.00000000000E+00 0. -1.
</event>
<event>
 7    1  0.2489154E-013  0.7246155E+02  0.7816164E-02  0.1226708E+00
        -11   -1    0    0    0    0  0.00000000000E+00  0.00000000000E+00  0.45593999997E+02  0.45594000000E+02  0.51100000000E-03 0. -1.
         11   -1    0    0    0    0 -0.00000000000E+00 -0.00000000000E+00 -0.45593999997E+02  0.45594000000E+02  0.51100000000E-03 0.  1.
    9900012    2    1    2    0    0  0.53659959826E+01 -0.27433740106E+01  0.17730199851E+02  0.72461548104E+02  0.69999971093E+02 0.  0.
        -12    1    1    2    0    0 -0.53659959826E+01  0.27433740106E+01 -0.17730199851E+02  0.18726451896E+02  0.00000000000E+00 0.  1.
         11    1    3    3    0    0  0.18379158546E+01  0.15766017805E+01  0.85786257791E+01  0.89138335401E+01  0.51100000000E-03 0. -1.
        -11    1    3    3    0    0 -0.11676871432E+02  0.72170617890E+01  0.31378913060E+02  0.34250131276E+02  0.51100000000E-03 0.  1.
        -12    1    3    3    0    0  0.15204951560E+02 -0.11537037580E+02 -0.22227338988E+02  0.29297583288E+02  0.00000000000E+00 0.  1.
</event>
<event>
 7    1  0.2489154E-013  0.7246156E+02  0.7816164E-02  0.1226708E+00
        -11   -1    0    0    0    0  0.00000000000E+00  0.00000000000E+00  0.45593999997E+02  0.45594000000E+02  0.51100000000E-03 0. -1.
         11   -1    0    0    0    0 -0.00000000000E+00 -0.00000000000E+00 -0.45593999997E+02  0.45594000000E+02  0.51100000000E-03 0.  1.
    9900012    2    1    2    0    0  0.32331925458E-01  0.40261964934E+01  0.18288469844E+02  0.72461563265E+02  0.69999990843E+02 0.  0.
        -12    1    1    2    0    0 -0.32331925458E-01 -0.40261964934E+01 -0.18288469844E+02  0.18726436735E+02  0.00000000000E+00 0.  1.
         11    1    3    3    0    0  0.44818240133E+01 -0.39643601987E+01  0.10897452308E+02  0.12432110253E+02  0.51100000000E-03 0. -1.
        -11    1    3    3    0    0 -0.23278384362E+02 -0.14735438917E+02  0.12194493994E+02  0.30128425491E+02  0.51100000000E-03 0.  1.
         12    1    3    3    0    0  0.18828892274E+02  0.22725995609E+02 -0.48034764577E+01  0.29901027520E+02  0.00000000000E+00 0. -1.
</event>
<event>
 7    1  0.2489154E-013  0.7246187E+02  0.7816164E-02  0.1226707E+00
        -11   -1    0    0    0    0  0.00000000000E+00  0.00000000000E+00  0.45593999997E+02  0.45594000000E+02  0.51100000000E-03 0. -1.
         11   -1    0    0    0    0 -0.00000000000E+00 -0.00000000000E+00 -0.45593999997E+02  0.45594000000E+02  0.51100000000E-03 0.  1.
    9900012    2    1    2    0    0 -0.10512669154E+02 -0.14051434745E+02  0.65351927313E+01  0.72461874529E+02  0.70000396321E+02 0.  0.
        -12    1    1    2    0    0  0.10512669154E+02  0.14051434745E+02 -0.65351927313E+01  0.18726125471E+02  0.00000000000E+00 0.  1.
         11    1    3    3    0    0  0.77539418603E+01 -0.11451367366E+02  0.19121719630E+02  0.23598677734E+02  0.51100000000E-03 0. -1.
        -11    1    3    3    0    0  0.93297625993E+01  0.11264994608E+02 -0.10310968773E+02  0.17895827754E+02  0.51100000000E-03 0.  1.
         12    1    3    3    0    0 -0.27596373613E+02 -0.13865061988E+02 -0.22755581253E+01  0.30967369041E+02  0.00000000000E+00 0. -1.
</event>
<event>
 7    1  0.2489154E-013  0.7246177E+02  0.7816164E-02  0.1226707E+00
        -11   -1    0    0    0    0  0.00000000000E+00  0.00000000000E+00  0.45593999997E+02  0.45594000000E+02  0.51100000000E-03 0.  1.
         11   -1    0    0    0    0 -0.00000000000E+00 -0.00000000000E+00 -0.45593999997E+02  0.45594000000E+02  0.51100000000E-03 0. -1.
    9900012    2    1    2    0    0  0.35484054961E+00 -0.80763584454E+00 -0.18705443972E+02  0.72461766485E+02  0.70000255575E+02 0.  0.
        -12    1    1    2    0    0 -0.35484054961E+00  0.80763584454E+00  0.18705443972E+02  0.18726233515E+02  0.00000000000E+00 0.  1.
         11    1    3    3    0    0 -0.90942373764E+01  0.22973647110E+02 -0.10848547655E+02  0.26984895803E+02  0.51100000000E-03 0. -1.
        -11    1    3    3    0    0  0.67312918980E+01  0.84242163764E+01 -0.75355324862E+01  0.13155301680E+02  0.51100000000E-03 0.  1.
        -12    1    3    3    0    0  0.27177860281E+01 -0.32205499331E+02 -0.32136383093E+00  0.32321569003E+02  0.00000000000E+00 0.  1.
</event>
<event>
 7    1  0.2489154E-013  0.7246155E+02  0.7816164E-02  0.1226708E+00
        -11   -1    0    0    0    0  0.00000000000E+00  0.00000000000E+00  0.45593999997E+02  0.45594000000E+02  0.51100000000E-03 0.  1.
         11   -1    0    0    0    0 -0.00000000000E+00 -0.00000000000E+00 -0.45593999997E+02  0.45594000000E+02  0.51100000000E-03 0. -1.
    9900012    2    1    2    0    0 -0.98552706162E+01 -0.13582178843E+01 -0.15865328468E+02  0.72461554471E+02  0.69999979387E+02 0.  0.
        -12    1    1    2    0    0  0.98552706162E+01  0.13582178843E+01  0.15865328468E+02  0.18726445529E+02  0.00000000000E+00 0.  1.
         11    1    3    3    0    0 -0.66477378409E+01  0.87246947208E+01 -0.26778503878E+02  0.28937881515E+02  0.51100000000E-03 0. -1.
        -11    1    3    3    0    0  0.87576144125E+01  0.99102518865E+01 -0.62076981404E+01  0.14609737134E+02  0.51100000000E-03 0.  1.
        -12    1    3    3    0    0 -0.11965147188E+02 -0.19993164492E+02  0.17120873550E+02  0.28913935822E+02  0.00000000000E+00 0.  1.
</event>
<event>
 7    1  0.2489154E-013  0.7246163E+02  0.7816164E-02  0.1226708E+00
        -11   -1    0    0    0    0  0.00000000000E+00  0.00000000000E+00  0.45593999997E+02  0.45594000000E+02  0.51100000000E-03 0.  1.
         11   -1    0    0    0    0 -0.00000000000E+00 -0.00000000000E+00 -0.45593999997E+02  0.45594000000E+02  0.51100000000E-03 0. -1.
    9900012    2    1    2    0    0  0.16506485162E+02 -0.58389119052E+01  0.66422944929E+01  0.72461627667E+02  0.70000074738E+02 0.  0.
        -12    1    1    2    0    0 -0.16506485162E+02  0.58389119052E+01 -0.66422944929E+01  0.18726372333E+02  0.00000000000E+00 0.  1.
         11    1    3    3    0    0  0.71895335899E+00 -0.10309403828E+02 -0.19257484713E+02  0.21855237792E+02  0.51100000000E-03 0. -1.
        -11    1    3    3    0    0  0.10400463339E+02 -0.33790276367E+01 -0.91674122568E+01  0.14269860307E+02  0.51100000000E-03 0.  1.
        -12    1    3    3    0    0  0.53870684644E+01  0.78495195592E+01  0.35067191463E+02  0.36336529568E+02  0.00000000000E+00 0.  1.
</event>
<event>
 7    1  0.2489154E-013  0.7246160E+02  0.7816164E-02  0.1226708E+00
        -11   -1    0    0    0    0  0.00000000000E+00  0.00000000000E+00  0.45593999997E+02  0.45594000000E+02  0.51100000000E-03 0. -1.
         11   -1    0    0    0    0 -0.00000000000E+00 -0.00000000000E+00 -0.45593999997E+02  0.45594000000E+02  0.51100000000E-03 0.  1.
    9900012    2    1    2    0    0 -0.53906582900E+01 -0.17441882428E+02  0.41712990318E+01  0.72461596313E+02  0.70000033894E+02 0.  0.
        -12    1    1    2    0    0  0.53906582900E+01  0.17441882428E+02 -0.41712990318E+01  0.18726403687E+02  0.00000000000E+00 0.  1.
         11    1    3    3    0    0 -0.16444497105E+02  0.13293530625E+01 -0.20800303104E+01  0.16628745923E+02  0.51100000000E-03 0. -1.
        -11    1    3    3    0    0  0.25890520788E+02  0.57598969330E+01  0.15979022078E+00  0.26523970528E+02  0.51100000000E-03 0.  1.
         12    1    3    3    0    0 -0.14836681973E+02 -0.24531132423E+02  0.60915391214E+01  0.29308879863E+02  0.00000000000E+00 0. -1.
</event>
<event>
 7    1  0.2489154E-013  0.7246148E+02  0.7816164E-02  0.1226708E+00
        -11   -1    0    0    0    0  0.00000000000E+00  0.00000000000E+00  0.45593999997E+02  0.45594000000E+02  0.51100000000E-03 0. -1.
         11   -1    0    0    0    0 -0.00000000000E+00 -0.00000000000E+00 -0.45593999997E+02  0.45594000000E+02  0.51100000000E-03 0.  1.
    9900012    2    1    2    0    0  0.56524567587E+01 -0.16455476803E+02 -0.69245716353E+01  0.72461476656E+02  0.69999878019E+02 0.  0.
        -12    1    1    2    0    0 -0.56524567587E+01  0.16455476803E+02  0.69245716353E+01  0.18726523344E+02  0.00000000000E+00 0.  1.
         11    1    3    3    0    0  0.78117338055E+01 -0.98327005849E+01  0.95244868449E+01  0.15761377978E+02  0.51100000000E-03 0. -1.
        -11    1    3    3    0    0  0.12029989668E+02  0.18289696077E+02  0.29420658049E+01  0.22088218250E+02  0.51100000000E-03 0.  1.
         12    1    3    3    0    0 -0.14189266715E+02 -0.24912472295E+02 -0.19391124285E+02  0.34611880428E+02  0.00000000000E+00 0. -1.
</event>
<event>
 7    1  0.2489154E-013  0.7246158E+02  0.7816164E-02  0.1226708E+00
        -11   -1    0    0    0    0  0.00000000000E+00  0.00000000000E+00  0.45593999997E+02  0.45594000000E+02  0.51100000000E-03 0.  1.
         11   -1    0    0    0    0 -0.00000000000E+00 -0.00000000000E+00 -0.45593999997E+02  0.45594000000E+02  0.51100000000E-03 0. -1.
    9900012    2    1    2    0    0 -0.14918015208E+02  0.11285667600E+02  0.87476129856E+00  0.72461583412E+02  0.70000017088E+02 0.  0.
        -12    1    1    2    0    0  0.14918015208E+02 -0.11285667600E+02 -0.87476129856E+00  0.18726416588E+02  0.00000000000E+00 0.  1.
         11    1    3    3    0    0  0.49878557059E+01  0.42575984640E+01 -0.37334837884E+01  0.75461745728E+01  0.51100000000E-03 0. -1.
        -11    1    3    3    0    0  0.21460323594E+02  0.17073379221E+01  0.82386452945E+01  0.23050721639E+02  0.51100000000E-03 0.  1.
         12    1    3    3    0    0 -0.41366194507E+02  0.53207312136E+01 -0.36304002076E+01  0.41864687200E+02  0.00000000000E+00 0. -1.
</event>
<event>
 7    1  0.2489154E-013  0.7246154E+02  0.7816164E-02  0.1226708E+00
        -11   -1    0    0    0    0  0.00000000000E+00  0.00000000000E+00  0.45593999997E+02  0.45594000000E+02  0.51100000000E-03 0. -1.
         11   -1    0    0    0    0 -0.00000000000E+00 -0.00000000000E+00 -0.45593999997E+02  0.45594000000E+02  0.51100000000E-03 0.  1.
    9900012    2    1    2    0    0  0.13281481943E+02 -0.89956589421E+00 -0.13170920634E+02  0.72461544602E+02  0.69999966531E+02 0.  0.
        -12    1    1    2    0    0 -0.13281481943E+02  0.89956589421E+00  0.13170920634E+02  0.18726455398E+02  0.00000000000E+00 0.  1.
         11    1    3    3    0    0 -0.17169927206E+02  0.74505458021E+01 -0.18595462352E+02  0.26383863503E+02  0.51100000000E-03 0. -1.
        -11    1    3    3    0    0  0.12541490143E+02 -0.17796998497E+02 -0.63183472997E+01  0.22670325171E+02  0.51100000000E-03 0.  1.
        -12    1    3    3    0    0  0.17909919007E+02  0.94468868008E+01  0.11742889018E+02  0.23407355928E+02  0.00000000000E+00 0.  1.
</event>
<event>
 7    1  0.2489154E-013  0.7246163E+02  0.7816164E-02  0.1226708E+00
        -11   -1    0    0    0    0  0.00000000000E+00  0.00000000000E+00  0.45593999997E+02  0.45594000000E+02  0.51100000000E-03 0.  1.
         11   -1    0    0    0    0 -0.00000000000E+00 -0.00000000000E+00 -0.45593999997E+02  0.45594000000E+02  0.51100000000E-03 0. -1.
    9900012    2    1    2    0    0  0.92532594995E+01 -0.11207333461E+02 -0.11808892040E+02  0.72461626462E+02  0.70000073169E+02 0.  0.
        -12    1    1    2    0    0 -0.92532594995E+01  0.11207333461E+02  0.11808892040E+02  0.18726373538E+02  0.00000000000E+00 0.  1.
         11    1    3    3    0    0  0.21929683163E+02 -0.10340110206E+02 -0.17095124377E+02  0.29666010188E+02  0.51100000000E-03 0. -1.
        -11    1    3    3    0    0 -0.44921559911E+01  0.97769602285E+01 -0.15005170808E+02  0.18464115684E+02  0.51100000000E-03 0.  1.
        -12    1    3    3    0    0 -0.81842676727E+01 -0.10644183483E+02  0.20291403145E+02  0.24331500590E+02  0.00000000000E+00 0.  1.
</event>
<event>
 7    1  0.2489154E-013  0.7246163E+02  0.7816164E-02  0.1226708E+00
        -11   -1    0    0    0    0  0.00000000000E+00  0.00000000000E+00  0.45593999997E+02  0.45594000000E+02  0.51100000000E-03 0.  1.
         11   -1    0    0    0    0 -0.00000000000E+00 -0.00000000000E+00 -0.45593999997E+02  0.45594000000E+02  0.51100000000E-03 0. -1.
    9900012    2    1    2    0    0  0.55892719673E+01  0.15538502599E+02 -0.88313021860E+01  0.72461630292E+02  0.70000078158E+02 0.  0.
        -12    1    1    2    0    0 -0.55892719673E+01 -0.15538502599E+02  0.88313021860E+01  0.18726369708E+02  0.00000000000E+00 0.  1.
         11    1    3    3    0    0 -0.26474454768E+02  0.91271818624E+01 -0.13833879926E+02  0.31234251040E+02  0.51100000000E-03 0. -1.
        -11    1    3    3    0    0  0.80188805618E+01  0.13524471778E+02  0.34974675981E+01  0.16107329456E+02  0.51100000000E-03 0.  1.
        -12    1    3    3    0    0  0.24044846173E+02 -0.71131510413E+01  0.15051101421E+01  0.25120049796E+02  0.00000000000E+00 0.  1.
</event>
<event>
 7    1  0.2489154E-013  0.7246153E+02  0.7816164E-02  0.1226708E+00
        -11   -1    0    0    0    0  0.00000000000E+00  0.00000000000E+00  0.45593999997E+02  0.45594000000E+02  0.51100000000E-03 0. -1.
         11   -1    0    0    0    0 -0.00000000000E+00 -0.00000000000E+00 -0.45593999997E+02  0.45594000000E+02  0.51100000000E-03 0.  1.
    9900012    2    1    2    0    0  0.78726487948E+01 -0.12647405891E+02  0.11346591738E+02  0.72461531596E+02  0.69999949588E+02 0.  0.
        -12    1    1    2    0    0 -0.78726487948E+01  0.12647405891E+02 -0.11346591738E+02  0.18726468404E+02  0.00000000000E+00 0.  1.
         11    1    3    3    0    0 -0.15963093084E+02 -0.97364844400E+01  0.25518187453E+02  0.31635381477E+02  0.51100000000E-03 0. -1.
        -11    1    3    3    0    0  0.91459756428E+01 -0.15960639657E+02 -0.45595222740E+01  0.18952048236E+02  0.51100000000E-03 0.  1.
        -12    1    3    3    0    0  0.14689766236E+02  0.13049718206E+02 -0.96120734406E+01  0.21874101883E+02  0.00000000000E+00 0.  1.
</event>
<event>
 7    1  0.2489154E-013  0.7246157E+02  0.7816164E-02  0.1226708E+00
        -11   -1    0    0    0    0  0.00000000000E+00  0.00000000000E+00  0.45593999997E+02  0.45594000000E+02  0.51100000000E-03 0.  1.
         11   -1    0    0    0    0 -0.00000000000E+00 -0.00000000000E+00 -0.45593999997E+02  0.45594000000E+02  0.51100000000E-03 0. -1.
    9900012    2    1    2    0    0 -0.14398464792E+02  0.10216816120E+02 -0.62434152409E+01  0.72461565372E+02  0.69999993588E+02 0.  0.
        -12    1    1    2    0    0  0.14398464792E+02 -0.10216816120E+02  0.62434152409E+01  0.18726434628E+02  0.00000000000E+00 0.  1.
         11    1    3    3    0    0 -0.37930527151E+02  0.44750989507E+01  0.10613084798E+02  0.39640748855E+02  0.51100000000E-03 0. -1.
        -11    1    3    3    0    0  0.14980374525E+02  0.92826973741E+00 -0.21811895062E+01  0.15166769383E+02  0.51100000000E-03 0.  1.
        -12    1    3    3    0    0  0.85516878341E+01  0.48134474320E+01 -0.14675310533E+02  0.17654047134E+02  0.00000000000E+00 0.  1.
</event>
<event>
 7    1  0.2489154E-013  0.7246149E+02  0.7816164E-02  0.1226708E+00
        -11   -1    0    0    0    0  0.00000000000E+00  0.00000000000E+00  0.45593999997E+02  0.45594000000E+02  0.51100000000E-03 0.  1.
         11   -1    0    0    0    0 -0.00000000000E+00 -0.00000000000E+00 -0.45593999997E+02  0.45594000000E+02  0.51100000000E-03 0. -1.
    9900012    2    1    2    0    0  0.86235602740E+01  0.33735855177E+01 -0.16276828757E+02  0.72461494041E+02  0.69999900666E+02 0.  0.
        -12    1    1    2    0    0 -0.86235602740E+01 -0.33735855177E+01  0.16276828757E+02  0.18726505959E+02  0.00000000000E+00 0.  1.
         11    1    3    3    0    0  0.19727474157E+02  0.54257530958E+01  0.15223987627E+02  0.25502584826E+02  0.51100000000E-03 0. -1.
        -11    1    3    3    0    0 -0.23992167452E+01 -0.11733536068E+02  0.93003089175E+00  0.12012371430E+02  0.51100000000E-03 0.  1.
        -12    1    3    3    0    0 -0.87046971379E+01  0.96813684901E+01 -0.32430847276E+02  0.34946537785E+02  0.00000000000E+00 0.  1.
</event>
<event>
 7    1  0.2489154E-013  0.7246164E+02  0.7816164E-02  0.1226708E+00
        -11   -1    0    0    0    0  0.00000000000E+00  0.00000000000E+00  0.45593999997E+02  0.45594000000E+02  0.51100000000E-03 0.  1.
         11   -1    0    0    0    0 -0.00000000000E+00 -0.00000000000E+00 -0.45593999997E+02  0.45594000000E+02  0.51100000000E-03 0. -1.
    9900012    2    1    2    0    0  0.10002083534E+02 -0.15053157695E+02 -0.49027795778E+01  0.72461642127E+02  0.70000093576E+02 0.  0.
        -12    1    1    2    0    0 -0.10002083534E+02  0.15053157695E+02  0.49027795778E+01  0.18726357873E+02  0.00000000000E+00 0.  1.
         11    1    3    3    0    0 -0.15542910599E+02 -0.63047960304E+01  0.18253892746E+02  0.24789859289E+02  0.51100000000E-03 0. -1.
        -11    1    3    3    0    0 -0.18881695033E+01 -0.13341904308E+01  0.63188142839E+01  0.67284962952E+01  0.51100000000E-03 0.  1.
         12    1    3    3    0    0  0.27433163636E+02 -0.74141712333E+01 -0.29475486608E+02  0.40943286543E+02  0.00000000000E+00 0. -1.
</event>
<event>
 7    1  0.2489154E-013  0.7246154E+02  0.7816164E-02  0.1226708E+00
        -11   -1    0    0    0    0  0.00000000000E+00  0.00000000000E+00  0.45593999997E+02  0.45594000000E+02  0.51100000000E-03 0. -1.
         11   -1    0    0    0    0 -0.00000000000E+00 -0.00000000000E+00 -0.45593999997E+02  0.45594000000E+02  0.51100000000E-03 0.  1.
    9900012    2    1    2    0    0  0.75695341404E+01 -0.14959591159E+02  0.83422574577E+01  0.72461535458E+02  0.69999954619E+02 0.  0.
        -12    1    1    2    0    0 -0.75695341404E+01  0.14959591159E+02 -0.83422574577E+01  0.18726464542E+02  0.00000000000E+00 0.  1.
         11    1    3    3    0    0  0.12759283012E+02  0.38346707468E+01  0.51257688768E+01  0.14275066009E+02  0.51100000000E-03 0. -1.
        -11    1    3    3    0    0  0.22670436588E+01 -0.37164229883E+02 -0.31430332627E+01  0.37365734679E+02  0.51100000000E-03 0.  1.
         12    1    3    3    0    0 -0.74567925303E+01  0.18369967977E+02  0.63595218436E+01  0.20820734771E+02  0.00000000000E+00 0. -1.
</event>
<event>
 7    1  0.2489154E-013  0.7246158E+02  0.7816164E-02  0.1226708E+00
        -11   -1    0    0    0    0  0.00000000000E+00  0.00000000000E+00  0.45593999997E+02  0.45594000000E+02  0.51100000000E-03 0. -1.
         11   -1    0    0    0    0 -0.00000000000E+00 -0.00000000000E+00 -0.45593999997E+02  0.45594000000E+02  0.51100000000E-03 0.  1.
    9900012    2    1    2    0    0 -0.37138096011E+01  0.12363907436E+02  0.13565399347E+02  0.72461584212E+02  0.70000018130E+02 0.  0.
        -12    1    1    2    0    0  0.37138096011E+01 -0.12363907436E+02 -0.13565399347E+02  0.18726415788E+02  0.00000000000E+00 0.  1.
         11    1    3    3    0    0  0.16138204136E+02  0.21600642743E+02  0.10662214326E+01  0.26984555361E+02  0.51100000000E-03 0. -1.
        -11    1    3    3    0    0  0.53497702355E+01  0.65084350431E+01  0.13307300843E+02  0.15750048389E+02  0.51100000000E-03 0.  1.
        -12    1    3    3    0    0 -0.25201783972E+02 -0.15745170350E+02 -0.80812292848E+00  0.29726980462E+02  0.00000000000E+00 0.  1.
</event>
<event>
 7    1  0.2489154E-013  0.7246160E+02  0.7816164E-02  0.1226708E+00
        -11   -1    0    0    0    0  0.00000000000E+00  0.00000000000E+00  0.45593999997E+02  0.45594000000E+02  0.51100000000E-03 0.  1.
         11   -1    0    0    0    0 -0.00000000000E+00 -0.00000000000E+00 -0.45593999997E+02  0.45594000000E+02  0.51100000000E-03 0. -1.
    9900012    2    1    2    0    0  0.12358660006E+02  0.70978195326E+01  0.12147539118E+02  0.72461595490E+02  0.70000032821E+02 0.  0.
        -12    1    1    2    0    0 -0.12358660006E+02 -0.70978195326E+01 -0.12147539118E+02  0.18726404510E+02  0.00000000000E+00 0.  1.
         11    1    3    3    0    0 -0.67972998125E+01  0.49058069743E+01  0.21859885812E+01  0.86630694992E+01  0.51100000000E-03 0. -1.
        -11    1    3    3    0    0 -0.28620170346E+01  0.17961947635E+02  0.26443315509E+02  0.32094729158E+02  0.51100000000E-03 0.  1.
         12    1    3    3    0    0  0.22017976853E+02 -0.15769935077E+02 -0.16481764972E+02  0.31703796833E+02  0.00000000000E+00 0. -1.
</event>
<event>
 7    1  0.2489154E-013  0.7246156E+02  0.7816164E-02  0.1226708E+00
        -11   -1    0    0    0    0  0.00000000000E+00  0.00000000000E+00  0.45593999997E+02  0.45594000000E+02  0.51100000000E-03 0.  1.
         11   -1    0    0    0    0 -0.00000000000E+00 -0.00000000000E+00 -0.45593999997E+02  0.45594000000E+02  0.51100000000E-03 0. -1.
    9900012    2    1    2    0    0  0.17411037996E+02 -0.57238325657E+00  0.68707950502E+01  0.72461556363E+02  0.69999981851E+02 0.  0.
        -12    1    1    2    0    0 -0.17411037996E+02  0.57238325657E+00 -0.68707950502E+01  0.18726443637E+02  0.00000000000E+00 0.  1.
         11    1    3    3    0    0  0.17459571899E+02 -0.39358100859E+01  0.31885050538E+01  0.18179488900E+02  0.51100000000E-03 0. -1.
        -11    1    3    3    0    0  0.63198853074E+00  0.26226319254E+02  0.13367141192E+02  0.29443160412E+02  0.51100000000E-03 0.  1.
         12    1    3    3    0    0 -0.68052243369E+00 -0.22862892425E+02 -0.96848511955E+01  0.24838907051E+02  0.00000000000E+00 0. -1.
</event>
<event>
 7    1  0.2489154E-013  0.7246157E+02  0.7816164E-02  0.1226708E+00
        -11   -1    0    0    0    0  0.00000000000E+00  0.00000000000E+00  0.45593999997E+02  0.45594000000E+02  0.51100000000E-03 0.  1.
         11   -1    0    0    0    0 -0.00000000000E+00 -0.00000000000E+00 -0.45593999997E+02  0.45594000000E+02  0.51100000000E-03 0. -1.
    9900012    2    1    2    0    0 -0.15251164203E+02  0.20681850328E+01 -0.10667885627E+02  0.72461569944E+02  0.69999999544E+02 0.  0.
        -12    1    1    2    0    0  0.15251164203E+02 -0.20681850328E+01  0.10667885627E+02  0.18726430056E+02  0.00000000000E+00 0.  1.
         11    1    3    3    0    0  0.46954511974E+01 -0.33732938520E+01  0.33357084803E+01  0.66748276896E+01  0.51100000000E-03 0. -1.
        -11    1    3    3    0    0 -0.18569848468E+02  0.17976315406E+02  0.17928411520E+02  0.31454969839E+02  0.51100000000E-03 0.  1.
         12    1    3    3    0    0 -0.13767669319E+01 -0.12534836521E+02 -0.31932005628E+02  0.34331772416E+02  0.00000000000E+00 0. -1.
</event>
<event>
 7    1  0.2489154E-013  0.7246157E+02  0.7816164E-02  0.1226708E+00
        -11   -1    0    0    0    0  0.00000000000E+00  0.00000000000E+00  0.45593999997E+02  0.45594000000E+02  0.51100000000E-03 0.  1.
         11   -1    0    0    0    0 -0.00000000000E+00 -0.00000000000E+00 -0.45593999997E+02  0.45594000000E+02  0.51100000000E-03 0. -1.
    9900012    2    1    2    0    0  0.15323545058E+02  0.91542290686E+01 -0.56628889117E+01  0.72461568044E+02  0.69999997069E+02 0.  0.
        -12    1    1    2    0    0 -0.15323545058E+02 -0.91542290686E+01  0.56628889117E+01  0.18726431956E+02  0.00000000000E+00 0.  1.
         11    1    3    3    0    0  0.17136022793E+02  0.37152593962E+01 -0.18061243876E+02  0.25172504050E+02  0.51100000000E-03 0. -1.
        -11    1    3    3    0    0  0.12278039517E+02 -0.91748793736E+01  0.20358920864E+02  0.25483608946E+02  0.51100000000E-03 0.  1.
         12    1    3    3    0    0 -0.14090517253E+02  0.14613849046E+02 -0.79605658999E+01  0.21805455048E+02  0.00000000000E+00 0. -1.
</event>
<event>
 7    1  0.2489154E-013  0.7246127E+02  0.7816164E-02  0.1226709E+00
        -11   -1    0    0    0    0  0.00000000000E+00  0.00000000000E+00  0.45593999997E+02  0.45594000000E+02  0.51100000000E-03 0.  1.
         11   -1    0    0    0    0 -0.00000000000E+00 -0.00000000000E+00 -0.45593999997E+02  0.45594000000E+02  0.51100000000E-03 0. -1.
    9900012    2    1    2    0    0  0.14509724152E+02 -0.10497342045E+02  0.54739553003E+01  0.72461268528E+02  0.69999606892E+02 0.  0.
        -12    1    1    2    0    0 -0.14509724152E+02  0.10497342045E+02 -0.54739553003E+01  0.18726731472E+02  0.00000000000E+00 0.  1.
         11    1    3    3    0    0  0.33410701986E+02 -0.15476316582E+01  0.93362998485E+00  0.33459555230E+02  0.51100000000E-03 0. -1.
        -11    1    3    3    0    0  0.14098430336E+01 -0.26764741844E+01  0.15005768875E+02  0.15307654008E+02  0.51100000000E-03 0.  1.
         12    1    3    3    0    0 -0.20310820867E+02 -0.62732362024E+01 -0.10465443560E+02  0.23694059290E+02  0.00000000000E+00 0. -1.
</event>
<event>
 7    1  0.2489154E-013  0.7246159E+02  0.7816164E-02  0.1226708E+00
        -11   -1    0    0    0    0  0.00000000000E+00  0.00000000000E+00  0.45593999997E+02  0.45594000000E+02  0.51100000000E-03 0. -1.
         11   -1    0    0    0    0 -0.00000000000E+00 -0.00000000000E+00 -0.45593999997E+02  0.45594000000E+02  0.51100000000E-03 0.  1.
    9900012    2    1    2    0    0  0.97110703109E+01  0.11038888511E+02  0.11598130065E+02  0.72461586378E+02  0.70000020952E+02 0.  0.
        -12    1    1    2    0    0 -0.97110703109E+01 -0.11038888511E+02 -0.11598130065E+02  0.18726413622E+02  0.00000000000E+00 0.  1.
         11    1    3    3    0    0 -0.37455669080E+01  0.12565799153E+01  0.43527916337E+00  0.39746361792E+01  0.51100000000E-03 0. -1.
        -11    1    3    3    0    0  0.87150211790E+01 -0.26150215775E+02  0.16078861978E+02  0.31911051095E+02  0.51100000000E-03 0.  1.
         12    1    3    3    0    0  0.47416160398E+01  0.35932524371E+02 -0.49160110756E+01  0.36575899103E+02  0.00000000000E+00 0. -1.
</event>
<event>
 7    1  0.2489154E-013  0.7246156E+02  0.7816164E-02  0.1226708E+00
        -11   -1    0    0    0    0  0.00000000000E+00  0.00000000000E+00  0.45593999997E+02  0.45594000000E+02  0.51100000000E-03 0.  1.
         11   -1    0    0    0    0 -0.00000000000E+00 -0.00000000000E+00 -0.45593999997E+02  0.45594000000E+02  0.51100000000E-03 0. -1.
    9900012    2    1    2    0    0 -0.15772312010E+02 -0.55031954423E+01  0.84633721473E+01  0.72461557350E+02  0.69999983138E+02 0.  0.
        -12    1    1    2    0    0  0.15772312010E+02  0.55031954423E+01 -0.84633721473E+01  0.18726442650E+02  0.00000000000E+00 0.  1.
         11    1    3    3    0    0 -0.14078761573E+02 -0.92402540545E+01 -0.57935129933E+01  0.17808947624E+02  0.51100000000E-03 0. -1.
        -11    1    3    3    0    0 -0.18670084334E+01 -0.24123309747E+02  0.22016214546E+01  0.24295409668E+02  0.51100000000E-03 0.  1.
        -12    1    3    3    0    0  0.17345799680E+00  0.27860368360E+02  0.12055263686E+02  0.30357200058E+02  0.00000000000E+00 0.  1.
</event>
<event>
 7    1  0.2489154E-013  0.7246150E+02  0.7816164E-02  0.1226708E+00
        -11   -1    0    0    0    0  0.00000000000E+00  0.00000000000E+00  0.45593999997E+02  0.45594000000E+02  0.51100000000E-03 0.  1.
         11   -1    0    0    0    0 -0.00000000000E+00 -0.00000000000E+00 -0.45593999997E+02  0.45594000000E+02  0.51100000000E-03 0. -1.
    9900012    2    1    2    0    0 -0.67854523634E+01  0.62172249713E+01 -0.16309059330E+02  0.72461503629E+02  0.69999913156E+02 0.  0.
        -12    1    1    2    0    0  0.67854523634E+01 -0.62172249713E+01  0.16309059330E+02  0.18726496371E+02  0.00000000000E+00 0.  1.
         11    1    3    3    0    0 -0.59620874959E+01 -0.40256096396E+01  0.18329320371E+02  0.19690505474E+02  0.51100000000E-03 0.  1.
        -11    1    3    3    0    0 -0.18554662026E+02  0.63839730162E+01 -0.26266435608E+02  0.32786525192E+02  0.51100000000E-03 0. -1.
         12    1    3    3    0    0  0.17731297158E+02  0.38588615947E+01 -0.83719440931E+01  0.19984472963E+02  0.00000000000E+00 0. -1.
</event>
<event>
 7    1  0.2489154E-013  0.7246158E+02  0.7816164E-02  0.1226708E+00
        -11   -1    0    0    0    0  0.00000000000E+00  0.00000000000E+00  0.45593999997E+02  0.45594000000E+02  0.51100000000E-03 0. -1.
         11   -1    0    0    0    0 -0.00000000000E+00 -0.00000000000E+00 -0.45593999997E+02  0.45594000000E+02  0.51100000000E-03 0.  1.
    9900012    2    1    2    0    0  0.18169627544E+02 -0.44538392814E+01  0.84073231134E+00  0.72461578018E+02  0.70000010061E+02 0.  0.
        -12    1    1    2    0    0 -0.18169627544E+02  0.44538392814E+01 -0.84073231134E+00  0.18726421982E+02  0.00000000000E+00 0.  1.
         11    1    3    3    0    0  0.64502052595E+01  0.17571252976E+02  0.11134632328E+02  0.21779212942E+02  0.51100000000E-03 0. -1.
        -11    1    3    3    0    0 -0.15332877081E+02 -0.13601908198E+01 -0.11629982400E+01  0.15436962260E+02  0.51100000000E-03 0.  1.
        -12    1    3    3    0    0  0.27052299366E+02 -0.20664901438E+02 -0.91309017763E+01  0.35245402816E+02  0.00000000000E+00 0.  1.
</event>
<event>
 7    1  0.2489154E-013  0.7246157E+02  0.7816164E-02  0.1226708E+00
        -11   -1    0    0    0    0  0.00000000000E+00  0.00000000000E+00  0.45593999997E+02  0.45594000000E+02  0.51100000000E-03 0.  1.
         11   -1    0    0    0    0 -0.00000000000E+00 -0.00000000000E+00 -0.45593999997E+02  0.45594000000E+02  0.51100000000E-03 0. -1.
    9900012    2    1    2    0    0 -0.36079448609E+01  0.87792510229E+01 -0.16142692287E+02  0.72461574049E+02  0.70000004891E+02 0.  0.
        -12    1    1    2    0    0  0.36079448609E+01 -0.87792510229E+01  0.16142692287E+02  0.18726425951E+02  0.00000000000E+00 0.  1.
         11    1    3    3    0    0 -0.95585410843E+01  0.52614386934E+01  0.19539057312E+02  0.22379079644E+02  0.51100000000E-03 0. -1.
        -11    1    3    3    0    0  0.23182566787E+01 -0.10585048036E+02  0.73594942245E+00  0.10860901333E+02  0.51100000000E-03 0.  1.
        -12    1    3    3    0    0  0.36323395446E+01  0.14102860366E+02 -0.36417699021E+02  0.39221593072E+02  0.00000000000E+00 0.  1.
</event>
<event>
 7    1  0.2489154E-013  0.7246159E+02  0.7816164E-02  0.1226708E+00
        -11   -1    0    0    0    0  0.00000000000E+00  0.00000000000E+00  0.45593999997E+02  0.45594000000E+02  0.51100000000E-03 0.  1.
         11   -1    0    0    0    0 -0.00000000000E+00 -0.00000000000E+00 -0.45593999997E+02  0.45594000000E+02  0.51100000000E-03 0. -1.
    9900012    2    1    2    0    0  0.16376883907E+02 -0.84084048606E+01 -0.34314440194E+01  0.72461590657E+02  0.70000026526E+02 0.  0.
        -12    1    1    2    0    0 -0.16376883907E+02  0.84084048606E+01  0.34314440194E+01  0.18726409343E+02  0.00000000000E+00 0.  1.
         11    1    3    3    0    0 -0.48476448589E+01  0.16600338703E+02 -0.85444164945E+01  0.19289322415E+02  0.51100000000E-03 0. -1.
        -11    1    3    3    0    0  0.40532488304E+01  0.16435093121E+01 -0.15000853882E+02  0.15625478118E+02  0.51100000000E-03 0.  1.
        -12    1    3    3    0    0  0.17171279936E+02 -0.26652252875E+02  0.20113826358E+02  0.37546790125E+02  0.00000000000E+00 0.  1.
</event>
<event>
 7    1  0.2489154E-013  0.7246155E+02  0.7816164E-02  0.1226708E+00
        -11   -1    0    0    0    0  0.00000000000E+00  0.00000000000E+00  0.45593999997E+02  0.45594000000E+02  0.51100000000E-03 0.  1.
         11   -1    0    0    0    0 -0.00000000000E+00 -0.00000000000E+00 -0.45593999997E+02  0.45594000000E+02  0.51100000000E-03 0. -1.
    9900012    2    1    2    0    0  0.12232040823E+02  0.10145185608E+02 -0.99061726017E+01  0.72461551609E+02  0.69999975659E+02 0.  0.
        -12    1    1    2    0    0 -0.12232040823E+02 -0.10145185608E+02  0.99061726017E+01  0.18726448391E+02  0.00000000000E+00 0.  1.
         11    1    3    3    0    0  0.14442422233E+02 -0.14431193220E+01  0.69878417665E+01  0.16108882213E+02  0.51100000000E-03 0. -1.
        -11    1    3    3    0    0  0.13221359824E+02  0.44788371172E+01  0.14829223561E+02  0.20365908014E+02  0.51100000000E-03 0.  1.
        -12    1    3    3    0    0 -0.15431741234E+02  0.71094678125E+01 -0.31723237930E+02  0.35986761383E+02  0.00000000000E+00 0.  1.
</event>
<event>
 7    1  0.2489154E-013  0.7246152E+02  0.7816164E-02  0.1226708E+00
        -11   -1    0    0    0    0  0.00000000000E+00  0.00000000000E+00  0.45593999997E+02  0.45594000000E+02  0.51100000000E-03 0. -1.
         11   -1    0    0    0    0 -0.00000000000E+00 -0.00000000000E+00 -0.45593999997E+02  0.45594000000E+02  0.51100000000E-03 0.  1.
    9900012    2    1    2    0    0  0.12735450867E+01  0.91348125383E+01  0.16297684469E+02  0.72461515112E+02  0.69999928115E+02 0.  0.
        -12    1    1    2    0    0 -0.12735450867E+01 -0.91348125383E+01 -0.16297684469E+02  0.18726484888E+02  0.00000000000E+00 0.  1.
         11    1    3    3    0    0 -0.78863342007E+01  0.11638384709E+02 -0.12039819464E+02  0.18509552095E+02  0.51100000000E-03 0.  1.
        -11    1    3    3    0    0  0.20636348330E+02  0.10201947863E+02  0.28743742925E+02  0.36825824773E+02  0.51100000000E-03 0. -1.
         12    1    3    3    0    0 -0.11476469043E+02 -0.12705520035E+02 -0.40623899173E+00  0.17126138244E+02  0.00000000000E+00 0. -1.
</event>
<event>
 7    1  0.2489154E-013  0.7246145E+02  0.7816164E-02  0.1226708E+00
        -11   -1    0    0    0    0  0.00000000000E+00  0.00000000000E+00  0.45593999997E+02  0.45594000000E+02  0.51100000000E-03 0. -1.
         11   -1    0    0    0    0 -0.00000000000E+00 -0.00000000000E+00 -0.45593999997E+02  0.45594000000E+02  0.51100000000E-03 0.  1.
    9900012    2    1    2    0    0  0.55987253378E+01  0.17484751462E+02  0.36907188053E+01  0.72461450280E+02  0.69999843659E+02 0.  0.
        -12    1    1    2    0    0 -0.55987253378E+01 -0.17484751462E+02 -0.36907188053E+01  0.18726549720E+02  0.00000000000E+00 0.  1.
         11    1    3    3    0    0 -0.10774723515E+02  0.52498579128E+01 -0.11562284271E+02  0.16653590986E+02  0.51100000000E-03 0. -1.
        -11    1    3    3    0    0 -0.17122306440E+02  0.16481869457E+01  0.11010742737E+02  0.20423671411E+02  0.51100000000E-03 0.  1.
         12    1    3    3    0    0  0.33495755293E+02  0.10586706604E+02  0.42422603391E+01  0.35384187883E+02  0.00000000000E+00 0. -1.
</event>
<event>
 7    1  0.2489154E-013  0.7246158E+02  0.7816164E-02  0.1226708E+00
        -11   -1    0    0    0    0  0.00000000000E+00  0.00000000000E+00  0.45593999997E+02  0.45594000000E+02  0.51100000000E-03 0.  1.
         11   -1    0    0    0    0 -0.00000000000E+00 -0.00000000000E+00 -0.45593999997E+02  0.45594000000E+02  0.51100000000E-03 0. -1.
    9900012    2    1    2    0    0 -0.42166417289E+01  0.25950749289E+01 -0.18060018235E+02  0.72461581762E+02  0.70000014939E+02 0.  0.
        -12    1    1    2    0    0  0.42166417289E+01 -0.25950749289E+01  0.18060018235E+02  0.18726418238E+02  0.00000000000E+00 0.  1.
         11    1    3    3    0    0 -0.91812290987E+01 -0.91094340539E+01  0.12641070455E+02  0.18085171247E+02  0.51100000000E-03 0. -1.
        -11    1    3    3    0    0  0.64531673003E+01  0.53727060580E+01  0.10057541781E+02  0.13102041273E+02  0.51100000000E-03 0.  1.
         12    1    3    3    0    0 -0.14885799304E+01  0.63318029248E+01 -0.40758630470E+02  0.41274369242E+02  0.00000000000E+00 0. -1.
</event>
<event>
 7    1  0.2489154E-013  0.7246165E+02  0.7816164E-02  0.1226708E+00
        -11   -1    0    0    0    0  0.00000000000E+00  0.00000000000E+00  0.45593999997E+02  0.45594000000E+02  0.51100000000E-03 0.  1.
         11   -1    0    0    0    0 -0.00000000000E+00 -0.00000000000E+00 -0.45593999997E+02  0.45594000000E+02  0.51100000000E-03 0. -1.
    9900012    2    1    2    0    0 -0.71862333631E+01  0.13763320943E+02 -0.10469243495E+02  0.72461654583E+02  0.70000109801E+02 0.  0.
        -12    1    1    2    0    0  0.71862333631E+01 -0.13763320943E+02  0.10469243495E+02  0.18726345417E+02  0.00000000000E+00 0.  1.
         11    1    3    3    0    0 -0.18429346080E+01 -0.13163395370E+02  0.19312980434E+02  0.23444884285E+02  0.51100000000E-03 0.  1.
        -11    1    3    3    0    0 -0.26939050976E+01  0.13606278604E+02  0.24088244234E+01  0.14078010424E+02  0.51100000000E-03 0. -1.
         12    1    3    3    0    0 -0.26493936574E+01  0.13320437708E+02 -0.32191048352E+02  0.34938759874E+02  0.00000000000E+00 0. -1.
</event>
<event>
 7    1  0.2489154E-013  0.7246154E+02  0.7816164E-02  0.1226708E+00
        -11   -1    0    0    0    0  0.00000000000E+00  0.00000000000E+00  0.45593999997E+02  0.45594000000E+02  0.51100000000E-03 0.  1.
         11   -1    0    0    0    0 -0.00000000000E+00 -0.00000000000E+00 -0.45593999997E+02  0.45594000000E+02  0.51100000000E-03 0. -1.
    9900012    2    1    2    0    0 -0.10083824071E+02 -0.15197808500E+02  0.42454118790E+01  0.72461537090E+02  0.69999956746E+02 0.  0.
        -12    1    1    2    0    0  0.10083824071E+02  0.15197808500E+02 -0.42454118790E+01  0.18726462910E+02  0.00000000000E+00 0.  1.
         11    1    3    3    0    0  0.95040497922E+01 -0.32029069566E+02 -0.11824634187E+02  0.35440234672E+02  0.51100000000E-03 0. -1.
        -11    1    3    3    0    0  0.43065361810E+01  0.50779602210E+01  0.41567397924E+01  0.78492305258E+01  0.51100000000E-03 0.  1.
        -12    1    3    3    0    0 -0.23894410044E+02  0.11753300845E+02  0.11913306274E+02  0.29172071892E+02  0.00000000000E+00 0.  1.
</event>
<event>
 7    1  0.2489154E-013  0.7246144E+02  0.7816164E-02  0.1226708E+00
        -11   -1    0    0    0    0  0.00000000000E+00  0.00000000000E+00  0.45593999997E+02  0.45594000000E+02  0.51100000000E-03 0.  1.
         11   -1    0    0    0    0 -0.00000000000E+00 -0.00000000000E+00 -0.45593999997E+02  0.45594000000E+02  0.51100000000E-03 0. -1.
    9900012    2    1    2    0    0  0.36229504973E+01 -0.45859551699E+01 -0.17791213165E+02  0.72461440759E+02  0.69999831256E+02 0.  0.
        -12    1    1    2    0    0 -0.36229504973E+01  0.45859551699E+01  0.17791213165E+02  0.18726559241E+02  0.00000000000E+00 0.  1.
         11    1    3    3    0    0  0.19234561026E+02  0.29927032757E+01 -0.14659728116E+02  0.24368673322E+02  0.51100000000E-03 0. -1.
        -11    1    3    3    0    0  0.13688444597E+02 -0.12128671290E+02 -0.22693190608E+01  0.18428998671E+02  0.51100000000E-03 0.  1.
        -12    1    3    3    0    0 -0.29300055126E+02  0.45500128442E+01 -0.86216598791E+00  0.29663768767E+02  0.00000000000E+00 0.  1.
</event>
<event>
 7    1  0.2489154E-013  0.7246159E+02  0.7816164E-02  0.1226708E+00
        -11   -1    0    0    0    0  0.00000000000E+00  0.00000000000E+00  0.45593999997E+02  0.45594000000E+02  0.51100000000E-03 0. -1.
         11   -1    0    0    0    0 -0.00000000000E+00 -0.00000000000E+00 -0.45593999997E+02  0.45594000000E+02  0.51100000000E-03 0.  1.
    9900012    2    1    2    0    0  0.76202602303E+01  0.72657993004E+01  0.15486069088E+02  0.72461587069E+02  0.70000021852E+02 0.  0.
        -12    1    1    2    0    0 -0.76202602303E+01 -0.72657993004E+01 -0.15486069088E+02  0.18726412931E+02  0.00000000000E+00 0.  1.
         11    1    3    3    0    0 -0.78429634758E+01  0.28200608671E+02 -0.37499883065E+01  0.29510147713E+02  0.51100000000E-03 0. -1.
        -11    1    3    3    0    0  0.91592134965E+00 -0.36274043565E+01 -0.72314804207E+01  0.81419459358E+01  0.51100000000E-03 0.  1.
        -12    1    3    3    0    0  0.14547302356E+02 -0.17307405014E+02  0.26467537816E+02  0.34809493420E+02  0.00000000000E+00 0.  1.
</event>
<event>
 7    1  0.2489154E-013  0.7246161E+02  0.7816164E-02  0.1226708E+00
        -11   -1    0    0    0    0  0.00000000000E+00  0.00000000000E+00  0.45593999997E+02  0.45594000000E+02  0.51100000000E-03 0.  1.
         11   -1    0    0    0    0 -0.00000000000E+00 -0.00000000000E+00 -0.45593999997E+02  0.45594000000E+02  0.51100000000E-03 0. -1.
    9900012    2    1    2    0    0  0.80982660268E-01 -0.14629626535E+02 -0.11689525467E+02  0.72461613900E+02  0.70000056804E+02 0.  0.
        -12    1    1    2    0    0 -0.80982660268E-01  0.14629626535E+02  0.11689525467E+02  0.18726386100E+02  0.00000000000E+00 0.  1.
         11    1    3    3    0    0  0.25411192070E+01 -0.63209943092E+01  0.37703294380E+01  0.77863752936E+01  0.51100000000E-03 0. -1.
        -11    1    3    3    0    0 -0.22385960767E+02  0.16574123773E+02  0.27058117341E+01  0.27984892991E+02  0.51100000000E-03 0.  1.
         12    1    3    3    0    0  0.19925824220E+02 -0.24882755999E+02 -0.18165666639E+02  0.36690345615E+02  0.00000000000E+00 0. -1.
</event>
<event>
 7    1  0.2489154E-013  0.7246157E+02  0.7816164E-02  0.1226708E+00
        -11   -1    0    0    0    0  0.00000000000E+00  0.00000000000E+00  0.45593999997E+02  0.45594000000E+02  0.51100000000E-03 0.  1.
         11   -1    0    0    0    0 -0.00000000000E+00 -0.00000000000E+00 -0.45593999997E+02  0.45594000000E+02  0.51100000000E-03 0. -1.
    9900012    2    1    2    0    0  0.10069771159E+02 -0.14747538866E+02  0.56381647437E+01  0.72461572271E+02  0.70000002576E+02 0.  0.
        -12    1    1    2    0    0 -0.10069771159E+02  0.14747538866E+02 -0.56381647437E+01  0.18726427729E+02  0.00000000000E+00 0.  1.
         11    1    3    3    0    0 -0.79411666498E+01 -0.26986093924E+02 -0.24332677584E+01  0.28235300339E+02  0.51100000000E-03 0. -1.
        -11    1    3    3    0    0 -0.11751699868E+02  0.20655835095E+01  0.35569273105E+01  0.12450735607E+02  0.51100000000E-03 0.  1.
         12    1    3    3    0    0  0.29762637677E+02  0.10172971548E+02  0.45145051915E+01  0.31775536325E+02  0.00000000000E+00 0. -1.
</event>
<event>
 7    1  0.2489154E-013  0.7246157E+02  0.7816164E-02  0.1226708E+00
        -11   -1    0    0    0    0  0.00000000000E+00  0.00000000000E+00  0.45593999997E+02  0.45594000000E+02  0.51100000000E-03 0.  1.
         11   -1    0    0    0    0 -0.00000000000E+00 -0.00000000000E+00 -0.45593999997E+02  0.45594000000E+02  0.51100000000E-03 0. -1.
    9900012    2    1    2    0    0 -0.10936845133E+02 -0.33361488334E+01 -0.14830200590E+02  0.72461566276E+02  0.69999994765E+02 0.  0.
        -12    1    1    2    0    0  0.10936845133E+02  0.33361488334E+01  0.14830200590E+02  0.18726433724E+02  0.00000000000E+00 0.  1.
         11    1    3    3    0    0  0.92936563523E+01  0.64669496342E+01 -0.35061670862E+02  0.36844460233E+02  0.51100000000E-03 0. -1.
        -11    1    3    3    0    0  0.24363388266E+01  0.23375727173E+01  0.38871936786E+01  0.51488122944E+01  0.51100000000E-03 0.  1.
        -12    1    3    3    0    0 -0.22666840312E+02 -0.12140671185E+02  0.16344276594E+02  0.30468293748E+02  0.00000000000E+00 0.  1.
</event>
<event>
 7    1  0.2489154E-013  0.7246154E+02  0.7816164E-02  0.1226708E+00
        -11   -1    0    0    0    0  0.00000000000E+00  0.00000000000E+00  0.45593999997E+02  0.45594000000E+02  0.51100000000E-03 0.  1.
         11   -1    0    0    0    0 -0.00000000000E+00 -0.00000000000E+00 -0.45593999997E+02  0.45594000000E+02  0.51100000000E-03 0. -1.
    9900012    2    1    2    0    0  0.10911152205E+02 -0.81979509526E+01 -0.12822659505E+02  0.72461541738E+02  0.69999962799E+02 0.  0.
        -12    1    1    2    0    0 -0.10911152205E+02  0.81979509526E+01  0.12822659505E+02  0.18726458262E+02  0.00000000000E+00 0.  1.
         11    1    3    3    0    0 -0.29154824692E+01 -0.10317370169E+02  0.26985197867E+01  0.11055775619E+02  0.51100000000E-03 0. -1.
        -11    1    3    3    0    0 -0.15384806617E+01 -0.26685129553E+02 -0.80504792841E+01  0.27915466662E+02  0.51100000000E-03 0.  1.
        -12    1    3    3    0    0  0.15365115336E+02  0.28804548769E+02 -0.74707000079E+01  0.33490299457E+02  0.00000000000E+00 0.  1.
</event>
<event>
 7    1  0.2489154E-013  0.7246156E+02  0.7816164E-02  0.1226708E+00
        -11   -1    0    0    0    0  0.00000000000E+00  0.00000000000E+00  0.45593999997E+02  0.45594000000E+02  0.51100000000E-03 0. -1.
         11   -1    0    0    0    0 -0.00000000000E+00 -0.00000000000E+00 -0.45593999997E+02  0.45594000000E+02  0.51100000000E-03 0.  1.
    9900012    2    1    2    0    0 -0.13906158789E+01  0.38387027095E+01  0.18275941820E+02  0.72461561459E+02  0.69999988491E+02 0.  0.
        -12    1    1    2    0    0  0.13906158789E+01 -0.38387027095E+01 -0.18275941820E+02  0.18726438541E+02  0.00000000000E+00 0.  1.
         11    1    3    3    0    0 -0.27412007586E+01  0.61368394997E+01 -0.18506798075E+01  0.69713697833E+01  0.51100000000E-03 0. -1.
        -11    1    3    3    0    0  0.19994038019E+02  0.16060501438E+01 -0.15326818609E+02  0.25243857120E+02  0.51100000000E-03 0.  1.
         12    1    3    3    0    0 -0.18643453139E+02 -0.39041869340E+01  0.35453440237E+02  0.40246334556E+02  0.00000000000E+00 0. -1.
</event>
<event>
 7    1  0.2489154E-013  0.7246166E+02  0.7816164E-02  0.1226708E+00
        -11   -1    0    0    0    0  0.00000000000E+00  0.00000000000E+00  0.45593999997E+02  0.45594000000E+02  0.51100000000E-03 0. -1.
         11   -1    0    0    0    0 -0.00000000000E+00 -0.00000000000E+00 -0.45593999997E+02  0.45594000000E+02  0.51100000000E-03 0.  1.
    9900012    2    1    2    0    0 -0.12796862305E+02  0.27881184749E+01  0.13384412474E+02  0.72461660615E+02  0.70000117660E+02 0.  0.
        -12    1    1    2    0    0  0.12796862305E+02 -0.27881184749E+01 -0.13384412474E+02  0.18726339385E+02  0.00000000000E+00 0.  1.
         11    1    3    3    0    0  0.26527839912E+01  0.69294357582E+01 -0.96524970447E+01  0.12174770728E+02  0.51100000000E-03 0. -1.
        -11    1    3    3    0    0 -0.12490143278E+02 -0.23040009386E+02 -0.46674592403E+01  0.26620121856E+02  0.51100000000E-03 0.  1.
         12    1    3    3    0    0 -0.29595030181E+01  0.18898692103E+02  0.27704368759E+02  0.33666768031E+02  0.00000000000E+00 0. -1.
</event>
<event>
 7    1  0.2489154E-013  0.7246155E+02  0.7816164E-02  0.1226708E+00
        -11   -1    0    0    0    0  0.00000000000E+00  0.00000000000E+00  0.45593999997E+02  0.45594000000E+02  0.51100000000E-03 0. -1.
         11   -1    0    0    0    0 -0.00000000000E+00 -0.00000000000E+00 -0.45593999997E+02  0.45594000000E+02  0.51100000000E-03 0.  1.
    9900012    2    1    2    0    0 -0.10008177072E+02  0.66356739417E+01  0.14369551454E+02  0.72461553836E+02  0.69999978559E+02 0.  0.
        -12    1    1    2    0    0  0.10008177072E+02 -0.66356739417E+01 -0.14369551454E+02  0.18726446164E+02  0.00000000000E+00 0.  1.
         11    1    3    3    0    0 -0.79981190176E+01  0.29464844648E+01  0.31953101372E+02  0.33070415269E+02  0.51100000000E-03 0. -1.
        -11    1    3    3    0    0  0.11835191120E+02  0.11405960624E+02 -0.10245767466E+01  0.16468680711E+02  0.51100000000E-03 0.  1.
        -12    1    3    3    0    0 -0.13845249175E+02 -0.77167711466E+01 -0.16558973172E+02  0.22922457855E+02  0.00000000000E+00 0.  1.
</event>
<event>
 7    1  0.2489154E-013  0.7246150E+02  0.7816164E-02  0.1226708E+00
        -11   -1    0    0    0    0  0.00000000000E+00  0.00000000000E+00  0.45593999997E+02  0.45594000000E+02  0.51100000000E-03 0.  1.
         11   -1    0    0    0    0 -0.00000000000E+00 -0.00000000000E+00 -0.45593999997E+02  0.45594000000E+02  0.51100000000E-03 0. -1.
    9900012    2    1    2    0    0  0.14834858423E+02  0.16114525169E+01  0.11314231040E+02  0.72461504661E+02  0.69999914500E+02 0.  0.
        -12    1    1    2    0    0 -0.14834858423E+02 -0.16114525169E+01 -0.11314231040E+02  0.18726495339E+02  0.00000000000E+00 0.  1.
         11    1    3    3    0    0  0.35397907645E+01  0.88904784113E+01 -0.14560029089E+02  0.17423121774E+02  0.51100000000E-03 0. -1.
        -11    1    3    3    0    0 -0.52772797191E+01  0.77541130581E+01  0.30741167130E+02  0.32140244357E+02  0.51100000000E-03 0.  1.
         12    1    3    3    0    0  0.16572347378E+02 -0.15033138953E+02 -0.48669070009E+01  0.22898138530E+02  0.00000000000E+00 0. -1.
</event>
<event>
 7    1  0.2489154E-013  0.7246158E+02  0.7816164E-02  0.1226708E+00
        -11   -1    0    0    0    0  0.00000000000E+00  0.00000000000E+00  0.45593999997E+02  0.45594000000E+02  0.51100000000E-03 0. -1.
         11   -1    0    0    0    0 -0.00000000000E+00 -0.00000000000E+00 -0.45593999997E+02  0.45594000000E+02  0.51100000000E-03 0.  1.
    9900012    2    1    2    0    0  0.10062379934E+02 -0.31859149713E+01  0.15468586972E+02  0.72461582109E+02  0.70000015390E+02 0.  0.
        -12    1    1    2    0    0 -0.10062379934E+02  0.31859149713E+01 -0.15468586972E+02  0.18726417891E+02  0.00000000000E+00 0.  1.
         11    1    3    3    0    0  0.20140003034E+02 -0.56836174959E+01  0.64221977588E+01  0.21889903024E+02  0.51100000000E-03 0. -1.
        -11    1    3    3    0    0 -0.91085279913E+00  0.24420244249E+02  0.10857912893E+02  0.26740834965E+02  0.51100000000E-03 0.  1.
        -12    1    3    3    0    0 -0.91667703014E+01 -0.21922541724E+02 -0.18115236796E+01  0.23830844120E+02  0.00000000000E+00 0.  1.
</event>
<event>
 7    1  0.2489154E-013  0.7246155E+02  0.7816164E-02  0.1226708E+00
        -11   -1    0    0    0    0  0.00000000000E+00  0.00000000000E+00  0.45593999997E+02  0.45594000000E+02  0.51100000000E-03 0.  1.
         11   -1    0    0    0    0 -0.00000000000E+00 -0.00000000000E+00 -0.45593999997E+02  0.45594000000E+02  0.51100000000E-03 0. -1.
    9900012    2    1    2    0    0  0.29497531421E+00  0.97851513379E+01 -0.15963823041E+02  0.72461552306E+02  0.69999976567E+02 0.  0.
        -12    1    1    2    0    0 -0.29497531421E+00 -0.97851513379E+01  0.15963823041E+02  0.18726447694E+02  0.00000000000E+00 0.  1.
         11    1    3    3    0    0 -0.10022234545E+02 -0.20155624186E+01 -0.15103942218E+02  0.18238331829E+02  0.51100000000E-03 0. -1.
        -11    1    3    3    0    0  0.16488824734E+02 -0.73927612144E+01 -0.19627219926E+02  0.26678868450E+02  0.51100000000E-03 0.  1.
        -12    1    3    3    0    0 -0.61716148748E+01  0.19193474971E+02  0.18767339103E+02  0.27544352027E+02  0.00000000000E+00 0.  1.
</event>
<event>
 7    1  0.2489154E-013  0.7246160E+02  0.7816164E-02  0.1226708E+00
        -11   -1    0    0    0    0  0.00000000000E+00  0.00000000000E+00  0.45593999997E+02  0.45594000000E+02  0.51100000000E-03 0. -1.
         11   -1    0    0    0    0 -0.00000000000E+00 -0.00000000000E+00 -0.45593999997E+02  0.45594000000E+02  0.51100000000E-03 0.  1.
    9900012    2    1    2    0    0 -0.86523284653E+01  0.12678850781E+02  0.10726697703E+02  0.72461599155E+02  0.70000037596E+02 0.  0.
        -12    1    1    2    0    0  0.86523284653E+01 -0.12678850781E+02 -0.10726697703E+02  0.18726400845E+02  0.00000000000E+00 0.  1.
         11    1    3    3    0    0  0.54273460962E+01 -0.48746301420E+01 -0.12546645067E+02  0.14513318276E+02  0.51100000000E-03 0. -1.
        -11    1    3    3    0    0  0.15064525445E+01 -0.14216023494E+02  0.16653187020E+02  0.21947513787E+02  0.51100000000E-03 0.  1.
         12    1    3    3    0    0 -0.15586127106E+02  0.31769504417E+02  0.66201557502E+01  0.36000767092E+02  0.00000000000E+00 0. -1.
</event>
<event>
 7    1  0.2489154E-013  0.7246157E+02  0.7816164E-02  0.1226708E+00
        -11   -1    0    0    0    0  0.00000000000E+00  0.00000000000E+00  0.45593999997E+02  0.45594000000E+02  0.51100000000E-03 0. -1.
         11   -1    0    0    0    0 -0.00000000000E+00 -0.00000000000E+00 -0.45593999997E+02  0.45594000000E+02  0.51100000000E-03 0.  1.
    9900012    2    1    2    0    0  0.42084130372E+01  0.16142958613E+02  0.85072411511E+01  0.72461574685E+02  0.70000005719E+02 0.  0.
        -12    1    1    2    0    0 -0.42084130372E+01 -0.16142958613E+02 -0.85072411511E+01  0.18726425315E+02  0.00000000000E+00 0.  1.
         11    1    3    3    0    0  0.12541303276E+02  0.31494894397E+02  0.18520715272E+01  0.33950593959E+02  0.51100000000E-03 0. -1.
        -11    1    3    3    0    0 -0.12523738024E+02  0.64243144291E+01  0.81853938749E+01  0.16282398568E+02  0.51100000000E-03 0.  1.
        -12    1    3    3    0    0  0.41908477859E+01 -0.21776250213E+02 -0.15302242510E+01  0.22228582158E+02  0.00000000000E+00 0.  1.
</event>
<event>
 7    1  0.2489154E-013  0.7246158E+02  0.7816164E-02  0.1226708E+00
        -11   -1    0    0    0    0  0.00000000000E+00  0.00000000000E+00  0.45593999997E+02  0.45594000000E+02  0.51100000000E-03 0. -1.
         11   -1    0    0    0    0 -0.00000000000E+00 -0.00000000000E+00 -0.45593999997E+02  0.45594000000E+02  0.51100000000E-03 0.  1.
    9900012    2    1    2    0    0  0.87367051204E+01  0.65462836424E+01  0.15214958044E+02  0.72461580316E+02  0.70000013055E+02 0.  0.
        -12    1    1    2    0    0 -0.87367051204E+01 -0.65462836424E+01 -0.15214958044E+02  0.18726419684E+02  0.00000000000E+00 0.  1.
         11    1    3    3    0    0 -0.12739370608E+02 -0.14150261874E-01  0.23221251316E+02  0.26486190302E+02  0.51100000000E-03 0.  1.
        -11    1    3    3    0    0 -0.73086741656E+01 -0.43434029656E+01  0.76542204627E+01  0.11439797137E+02  0.51100000000E-03 0. -1.
        -12    1    3    3    0    0  0.28784749894E+02  0.10903836870E+02 -0.15660513735E+02  0.34535592878E+02  0.00000000000E+00 0.  1.
</event>
<event>
 7    1  0.2489154E-013  0.7246159E+02  0.7816164E-02  0.1226708E+00
        -11   -1    0    0    0    0  0.00000000000E+00  0.00000000000E+00  0.45593999997E+02  0.45594000000E+02  0.51100000000E-03 0.  1.
         11   -1    0    0    0    0 -0.00000000000E+00 -0.00000000000E+00 -0.45593999997E+02  0.45594000000E+02  0.51100000000E-03 0. -1.
    9900012    2    1    2    0    0 -0.10377727006E+02 -0.12556013617E+02 -0.92373011672E+01  0.72461590076E+02  0.70000025770E+02 0.  0.
        -12    1    1    2    0    0  0.10377727006E+02  0.12556013617E+02  0.92373011672E+01  0.18726409924E+02  0.00000000000E+00 0.  1.
         11    1    3    3    0    0  0.38357395584E+01 -0.18792860234E+01  0.12847023175E+02  0.13538486571E+02  0.51100000000E-03 0. -1.
        -11    1    3    3    0    0  0.27625310454E+01 -0.19088246466E+02  0.99524730461E+01  0.21703558485E+02  0.51100000000E-03 0.  1.
         12    1    3    3    0    0 -0.16975997610E+02  0.84115188726E+01 -0.32036797388E+02  0.37219545020E+02  0.00000000000E+00 0. -1.
</event>
<event>
 7    1  0.2489154E-013  0.7246152E+02  0.7816164E-02  0.1226708E+00
        -11   -1    0    0    0    0  0.00000000000E+00  0.00000000000E+00  0.45593999997E+02  0.45594000000E+02  0.51100000000E-03 0. -1.
         11   -1    0    0    0    0 -0.00000000000E+00 -0.00000000000E+00 -0.45593999997E+02  0.45594000000E+02  0.51100000000E-03 0.  1.
    9900012    2    1    2    0    0  0.13865424590E+02 -0.16899868399E+01  0.12472964843E+02  0.72461523916E+02  0.69999939583E+02 0.  0.
        -12    1    1    2    0    0 -0.13865424590E+02  0.16899868399E+01 -0.12472964843E+02  0.18726476084E+02  0.00000000000E+00 0.  1.
         11    1    3    3    0    0  0.17273878295E+01  0.32474446227E+01 -0.29121860544E+01  0.46915448594E+01  0.51100000000E-03 0. -1.
        -11    1    3    3    0    0  0.12799467375E+01  0.24625847328E+02 -0.10695630370E+02  0.26878748660E+02  0.51100000000E-03 0.  1.
         12    1    3    3    0    0  0.10858090023E+02 -0.29563278791E+02  0.26080781267E+02  0.40891230396E+02  0.00000000000E+00 0. -1.
</event>
<event>
 7    1  0.2489154E-013  0.7246186E+02  0.7816164E-02  0.1226707E+00
        -11   -1    0    0    0    0  0.00000000000E+00  0.00000000000E+00  0.45593999997E+02  0.45594000000E+02  0.51100000000E-03 0. -1.
         11   -1    0    0    0    0 -0.00000000000E+00 -0.00000000000E+00 -0.45593999997E+02  0.45594000000E+02  0.51100000000E-03 0.  1.
    9900012    2    1    2    0    0  0.13865103065E+02  0.53289909537E+00  0.12575502078E+02  0.72461860062E+02  0.70000377475E+02 0.  0.
        -12    1    1    2    0    0 -0.13865103065E+02 -0.53289909537E+00 -0.12575502078E+02  0.18726139938E+02  0.00000000000E+00 0.  1.
         11    1    3    3    0    0  0.10696603759E+02  0.80468612831E+01  0.19993496900E+02  0.24060532559E+02  0.51100000000E-03 0. -1.
        -11    1    3    3    0    0 -0.47954527024E+01 -0.50458526422E+01  0.19244926968E+02  0.20465195082E+02  0.51100000000E-03 0.  1.
        -12    1    3    3    0    0  0.79639520089E+01 -0.24681095455E+01 -0.26662921789E+02  0.27936132421E+02  0.00000000000E+00 0.  1.
</event>
<event>
 7    1  0.2489154E-013  0.7246121E+02  0.7816164E-02  0.1226709E+00
        -11   -1    0    0    0    0  0.00000000000E+00  0.00000000000E+00  0.45593999997E+02  0.45594000000E+02  0.51100000000E-03 0. -1.
         11   -1    0    0    0    0 -0.00000000000E+00 -0.00000000000E+00 -0.45593999997E+02  0.45594000000E+02  0.51100000000E-03 0.  1.
    9900012    2    1    2    0    0 -0.17089081871E+01 -0.35115675867E+01  0.18315050271E+02  0.72461213289E+02  0.69999534932E+02 0.  0.
        -12    1    1    2    0    0  0.17089081871E+01  0.35115675867E+01 -0.18315050271E+02  0.18726786711E+02  0.00000000000E+00 0.  1.
         11    1    3    3    0    0 -0.73057439423E+01  0.92044518534E+00  0.35955928212E+01  0.81944738627E+01  0.51100000000E-03 0. -1.
        -11    1    3    3    0    0  0.26098420957E+02  0.11600173236E+02  0.23304162229E+02  0.36861573122E+02  0.51100000000E-03 0.  1.
         12    1    3    3    0    0 -0.20501585202E+02 -0.16032186008E+02 -0.85847047788E+01  0.27405166304E+02  0.00000000000E+00 0. -1.
</event>
<event>
 7    1  0.2489154E-013  0.7246147E+02  0.7816164E-02  0.1226708E+00
        -11   -1    0    0    0    0  0.00000000000E+00  0.00000000000E+00  0.45593999997E+02  0.45594000000E+02  0.51100000000E-03 0. -1.
         11   -1    0    0    0    0 -0.00000000000E+00 -0.00000000000E+00 -0.45593999997E+02  0.45594000000E+02  0.51100000000E-03 0.  1.
    9900012    2    1    2    0    0  0.12006798456E+02 -0.92471103683E+01 -0.11000481112E+02  0.72461472184E+02  0.69999872194E+02 0.  0.
        -12    1    1    2    0    0 -0.12006798456E+02  0.92471103683E+01  0.11000481112E+02  0.18726527816E+02  0.00000000000E+00 0.  1.
         11    1    3    3    0    0  0.11090580015E+02 -0.63799860094E+01  0.12659338011E+02  0.17999000686E+02  0.51100000000E-03 0. -1.
        -11    1    3    3    0    0  0.13141805115E+01 -0.43474816131E+01  0.15050990568E+02  0.15721322595E+02  0.51100000000E-03 0.  1.
        -12    1    3    3    0    0 -0.39796207119E+00  0.14803572542E+01 -0.38710809691E+02  0.38741148904E+02  0.00000000000E+00 0.  1.
</event>
<event>
 7    1  0.2489154E-013  0.7246162E+02  0.7816164E-02  0.1226708E+00
        -11   -1    0    0    0    0  0.00000000000E+00  0.00000000000E+00  0.45593999997E+02  0.45594000000E+02  0.51100000000E-03 0.  1.
         11   -1    0    0    0    0 -0.00000000000E+00 -0.00000000000E+00 -0.45593999997E+02  0.45594000000E+02  0.51100000000E-03 0. -1.
    9900012    2    1    2    0    0  0.13507692790E+02 -0.11913007479E+02 -0.51283162381E+01  0.72461624506E+02  0.70000070621E+02 0.  0.
        -12    1    1    2    0    0 -0.13507692790E+02  0.11913007479E+02  0.51283162381E+01  0.18726375494E+02  0.00000000000E+00 0.  1.
         11    1    3    3    0    0  0.50717220195E+00 -0.16870241481E+02 -0.63278625171E+00  0.16889721430E+02  0.51100000000E-03 0. -1.
        -11    1    3    3    0    0  0.91185712752E+01  0.30670921749E+01  0.24466388608E+02  0.26289913812E+02  0.51100000000E-03 0.  1.
         12    1    3    3    0    0  0.38819493132E+01  0.18901418278E+01 -0.28961918594E+02  0.29281989264E+02  0.00000000000E+00 0. -1.
</event>
<event>
 7    1  0.2489154E-013  0.7246163E+02  0.7816164E-02  0.1226708E+00
        -11   -1    0    0    0    0  0.00000000000E+00  0.00000000000E+00  0.45593999997E+02  0.45594000000E+02  0.51100000000E-03 0.  1.
         11   -1    0    0    0    0 -0.00000000000E+00 -0.00000000000E+00 -0.45593999997E+02  0.45594000000E+02  0.51100000000E-03 0. -1.
    9900012    2    1    2    0    0 -0.16195881749E+02  0.88751722043E+01 -0.30986462273E+01  0.72461631539E+02  0.70000079782E+02 0.  0.
        -12    1    1    2    0    0  0.16195881749E+02 -0.88751722043E+01  0.30986462273E+01  0.18726368461E+02  0.00000000000E+00 0.  1.
         11    1    3    3    0    0 -0.10971491287E+02 -0.18331814906E+01 -0.11731783082E+02  0.16166907867E+02  0.51100000000E-03 0. -1.
        -11    1    3    3    0    0 -0.27639688766E+02  0.16480896999E+02  0.79030913176E+01  0.33136554039E+02  0.51100000000E-03 0.  1.
         12    1    3    3    0    0  0.22415298303E+02 -0.57725433042E+01  0.73004553750E+00  0.23158169632E+02  0.00000000000E+00 0. -1.
</event>
<event>
 7    1  0.2489154E-013  0.7246131E+02  0.7816164E-02  0.1226709E+00
        -11   -1    0    0    0    0  0.00000000000E+00  0.00000000000E+00  0.45593999997E+02  0.45594000000E+02  0.51100000000E-03 0.  1.
         11   -1    0    0    0    0 -0.00000000000E+00 -0.00000000000E+00 -0.45593999997E+02  0.45594000000E+02  0.51100000000E-03 0. -1.
    9900012    2    1    2    0    0 -0.13387452094E+02  0.12616955739E+02 -0.35039107898E+01  0.72461312186E+02  0.69999663765E+02 0.  0.
        -12    1    1    2    0    0  0.13387452094E+02 -0.12616955739E+02  0.35039107898E+01  0.18726687814E+02  0.00000000000E+00 0.  1.
         11    1    3    3    0    0  0.14737437589E+02  0.13324198204E+02 -0.14751055846E+02  0.24745099986E+02  0.51100000000E-03 0. -1.
        -11    1    3    3    0    0  0.82267266219E+01 -0.18200009762E+01 -0.25737514127E+01  0.88099733859E+01  0.51100000000E-03 0.  1.
        -12    1    3    3    0    0 -0.36351616305E+02  0.11127585105E+01  0.13820896469E+02  0.38906238814E+02  0.00000000000E+00 0.  1.
</event>
<event>
 7    1  0.2489154E-013  0.7246156E+02  0.7816164E-02  0.1226708E+00
        -11   -1    0    0    0    0  0.00000000000E+00  0.00000000000E+00  0.45593999997E+02  0.45594000000E+02  0.51100000000E-03 0. -1.
         11   -1    0    0    0    0 -0.00000000000E+00 -0.00000000000E+00 -0.45593999997E+02  0.45594000000E+02  0.51100000000E-03 0.  1.
    9900012    2    1    2    0    0  0.44915800251E+01  0.11425576367E+02  0.14140777750E+02  0.72461556616E+02  0.69999982182E+02 0.  0.
        -12    1    1    2    0    0 -0.44915800251E+01 -0.11425576367E+02 -0.14140777750E+02  0.18726443384E+02  0.00000000000E+00 0.  1.
         11    1    3    3    0    0 -0.21092382212E+01  0.11490262923E+02 -0.57794410330E+01  0.13033685850E+02  0.51100000000E-03 0. -1.
        -11    1    3    3    0    0  0.37207936279E+01  0.25358364922E+02  0.21973675934E+02  0.33759937960E+02  0.51100000000E-03 0.  1.
         12    1    3    3    0    0  0.28800246185E+01 -0.25423051479E+02 -0.20534571509E+01  0.25667932807E+02  0.00000000000E+00 0. -1.
</event>
<event>
 7    1  0.2489154E-013  0.7246172E+02  0.7816164E-02  0.1226708E+00
        -11   -1    0    0    0    0  0.00000000000E+00  0.00000000000E+00  0.45593999997E+02  0.45594000000E+02  0.51100000000E-03 0.  1.
         11   -1    0    0    0    0 -0.00000000000E+00 -0.00000000000E+00 -0.45593999997E+02  0.45594000000E+02  0.51100000000E-03 0. -1.
    9900012    2    1    2    0    0 -0.28655856925E+01  0.15389977541E+02 -0.10276692217E+02  0.72461724530E+02  0.70000200920E+02 0.  0.
        -12    1    1    2    0    0  0.28655856925E+01 -0.15389977541E+02  0.10276692217E+02  0.18726275470E+02  0.00000000000E+00 0.  1.
         11    1    3    3    0    0 -0.56533570812E+01  0.66218333597E+01 -0.26335724723E+02  0.27737691330E+02  0.51100000000E-03 0. -1.
        -11    1    3    3    0    0  0.14384459993E+02  0.12667575567E+02 -0.54953267835E+01  0.19939377542E+02  0.51100000000E-03 0.  1.
        -12    1    3    3    0    0 -0.11596688604E+02 -0.38994313858E+01  0.21554359290E+02  0.24784655659E+02  0.00000000000E+00 0.  1.
</event>
<event>
 7    1  0.2489154E-013  0.7246157E+02  0.7816164E-02  0.1226708E+00
        -11   -1    0    0    0    0  0.00000000000E+00  0.00000000000E+00  0.45593999997E+02  0.45594000000E+02  0.51100000000E-03 0.  1.
         11   -1    0    0    0    0 -0.00000000000E+00 -0.00000000000E+00 -0.45593999997E+02  0.45594000000E+02  0.51100000000E-03 0. -1.
    9900012    2    1    2    0    0 -0.17729861920E+02 -0.48477317370E+01 -0.35820185759E+01  0.72461565107E+02  0.69999993243E+02 0.  0.
        -12    1    1    2    0    0  0.17729861920E+02  0.48477317370E+01  0.35820185759E+01  0.18726434893E+02  0.00000000000E+00 0.  1.
         11    1    3    3    0    0 -0.50537672000E+01 -0.11380539635E+02  0.32163070336E+01  0.12860866086E+02  0.51100000000E-03 0. -1.
        -11    1    3    3    0    0 -0.29336883646E+02 -0.38729669806E+01  0.12445292253E+02  0.32101992381E+02  0.51100000000E-03 0.  1.
        -12    1    3    3    0    0  0.16660788926E+02  0.10405774878E+02 -0.19243617863E+02  0.27498706640E+02  0.00000000000E+00 0.  1.
</event>
<event>
 7    1  0.2489154E-013  0.7246156E+02  0.7816164E-02  0.1226708E+00
        -11   -1    0    0    0    0  0.00000000000E+00  0.00000000000E+00  0.45593999997E+02  0.45594000000E+02  0.51100000000E-03 0.  1.
         11   -1    0    0    0    0 -0.00000000000E+00 -0.00000000000E+00 -0.45593999997E+02  0.45594000000E+02  0.51100000000E-03 0. -1.
    9900012    2    1    2    0    0  0.86159834713E+01  0.93484266427E+01  0.13749595283E+02  0.72461558204E+02  0.69999984251E+02 0.  0.
        -12    1    1    2    0    0 -0.86159834713E+01 -0.93484266427E+01 -0.13749595283E+02  0.18726441796E+02  0.00000000000E+00 0.  1.
         11    1    3    3    0    0 -0.51471621269E+01  0.15548729932E+02  0.66712549885E+01  0.17685076303E+02  0.51100000000E-03 0. -1.
        -11    1    3    3    0    0 -0.20094035960E+02 -0.25936024090E+01  0.21935568734E+01  0.20379125267E+02  0.51100000000E-03 0.  1.
         12    1    3    3    0    0  0.33857181559E+02 -0.36067008805E+01  0.48847834214E+01  0.34397356634E+02  0.00000000000E+00 0. -1.
</event>
<event>
 7    1  0.2489154E-013  0.7246164E+02  0.7816164E-02  0.1226708E+00
        -11   -1    0    0    0    0  0.00000000000E+00  0.00000000000E+00  0.45593999997E+02  0.45594000000E+02  0.51100000000E-03 0.  1.
         11   -1    0    0    0    0 -0.00000000000E+00 -0.00000000000E+00 -0.45593999997E+02  0.45594000000E+02  0.51100000000E-03 0. -1.
    9900012    2    1    2    0    0  0.98675509296E+01  0.14877734214E+02  0.56534126109E+01  0.72461638612E+02  0.70000088996E+02 0.  0.
        -12    1    1    2    0    0 -0.98675509296E+01 -0.14877734214E+02 -0.56534126109E+01  0.18726361388E+02  0.00000000000E+00 0.  1.
         11    1    3    3    0    0  0.16979016794E+01 -0.10952470702E+02  0.21626057001E+02  0.24300737154E+02  0.51100000000E-03 0. -1.
        -11    1    3    3    0    0  0.27185230832E+01 -0.90191203595E+01  0.48087665123E-01  0.94200431261E+01  0.51100000000E-03 0.  1.
         12    1    3    3    0    0  0.54511261670E+01  0.34849325275E+02 -0.16020732055E+02  0.38740858331E+02  0.00000000000E+00 0. -1.
</event>
<event>
 7    1  0.2489154E-013  0.7246154E+02  0.7816164E-02  0.1226708E+00
        -11   -1    0    0    0    0  0.00000000000E+00  0.00000000000E+00  0.45593999997E+02  0.45594000000E+02  0.51100000000E-03 0.  1.
         11   -1    0    0    0    0 -0.00000000000E+00 -0.00000000000E+00 -0.45593999997E+02  0.45594000000E+02  0.51100000000E-03 0. -1.
    9900012    2    1    2    0    0  0.87539842898E+01  0.12749692193E+02 -0.10559050559E+02  0.72461536354E+02  0.69999955787E+02 0.  0.
        -12    1    1    2    0    0 -0.87539842898E+01 -0.12749692193E+02  0.10559050559E+02  0.18726463646E+02  0.00000000000E+00 0.  1.
         11    1    3    3    0    0  0.42718430211E+00  0.89823847949E+01 -0.95478608698E+01  0.13115920497E+02  0.51100000000E-03 0. -1.
        -11    1    3    3    0    0  0.17741766804E+02  0.27361935904E+02  0.56187118633E+01  0.33091022181E+02  0.51100000000E-03 0.  1.
        -12    1    3    3    0    0 -0.94149668159E+01 -0.23594628506E+02 -0.66299015529E+01  0.26254593676E+02  0.00000000000E+00 0.  1.
</event>
<event>
 7    1  0.2489154E-013  0.7246165E+02  0.7816164E-02  0.1226708E+00
        -11   -1    0    0    0    0  0.00000000000E+00  0.00000000000E+00  0.45593999997E+02  0.45594000000E+02  0.51100000000E-03 0.  1.
         11   -1    0    0    0    0 -0.00000000000E+00 -0.00000000000E+00 -0.45593999997E+02  0.45594000000E+02  0.51100000000E-03 0. -1.
    9900012    2    1    2    0    0 -0.78090105158E+00 -0.16833737151E+02 -0.81664999704E+01  0.72461648655E+02  0.70000102079E+02 0.  0.
        -12    1    1    2    0    0  0.78090105158E+00  0.16833737151E+02  0.81664999704E+01  0.18726351345E+02  0.00000000000E+00 0.  1.
         11    1    3    3    0    0  0.64588757594E+01 -0.28295977684E+02  0.19826198898E+02  0.35149076690E+02  0.51100000000E-03 0. -1.
        -11    1    3    3    0    0 -0.67755841349E+01 -0.47598056799E+01 -0.74988313005E+01  0.11171247093E+02  0.51100000000E-03 0.  1.
        -12    1    3    3    0    0 -0.46419267612E+00  0.16222046212E+02 -0.20493867568E+02  0.26141324872E+02  0.00000000000E+00 0.  1.
</event>
<event>
 7    1  0.2489154E-013  0.7246157E+02  0.7816164E-02  0.1226708E+00
        -11   -1    0    0    0    0  0.00000000000E+00  0.00000000000E+00  0.45593999997E+02  0.45594000000E+02  0.51100000000E-03 0.  1.
         11   -1    0    0    0    0 -0.00000000000E+00 -0.00000000000E+00 -0.45593999997E+02  0.45594000000E+02  0.51100000000E-03 0. -1.
    9900012    2    1    2    0    0 -0.13422409080E+02 -0.66713337925E-01 -0.13058081023E+02  0.72461574922E+02  0.70000006029E+02 0.  0.
        -12    1    1    2    0    0  0.13422409080E+02  0.66713337925E-01  0.13058081023E+02  0.18726425078E+02  0.00000000000E+00 0.  1.
         11    1    3    3    0    0  0.12415554751E+01 -0.16729926158E+02 -0.19909969017E+02  0.26035336675E+02  0.51100000000E-03 0. -1.
        -11    1    3    3    0    0 -0.41611770565E+01 -0.13400628984E+02  0.12008700633E+01  0.14083122552E+02  0.51100000000E-03 0.  1.
        -12    1    3    3    0    0 -0.10502787498E+02  0.30063841804E+02  0.56510179306E+01  0.32343115695E+02  0.00000000000E+00 0.  1.
</event>
<event>
 7    1  0.2489154E-013  0.7246158E+02  0.7816164E-02  0.1226708E+00
        -11   -1    0    0    0    0  0.00000000000E+00  0.00000000000E+00  0.45593999997E+02  0.45594000000E+02  0.51100000000E-03 0.  1.
         11   -1    0    0    0    0 -0.00000000000E+00 -0.00000000000E+00 -0.45593999997E+02  0.45594000000E+02  0.51100000000E-03 0. -1.
    9900012    2    1    2    0    0 -0.15295600969E+02 -0.10357669589E+01 -0.10754094528E+02  0.72461580927E+02  0.70000013850E+02 0.  0.
        -12    1    1    2    0    0  0.15295600969E+02  0.10357669589E+01  0.10754094528E+02  0.18726419073E+02  0.00000000000E+00 0.  1.
         11    1    3    3    0    0 -0.12332937706E+02 -0.32281531431E+01 -0.80004155058E+01  0.15050879499E+02  0.51100000000E-03 0. -1.
        -11    1    3    3    0    0 -0.89957226924E+01  0.26850482087E+02  0.86107569156E+01  0.29597576759E+02  0.51100000000E-03 0.  1.
         12    1    3    3    0    0  0.60330594295E+01 -0.24658095903E+02 -0.11364435938E+02  0.27813124669E+02  0.00000000000E+00 0. -1.
</event>
<event>
 7    1  0.2489154E-013  0.7246171E+02  0.7816164E-02  0.1226708E+00
        -11   -1    0    0    0    0  0.00000000000E+00  0.00000000000E+00  0.45593999997E+02  0.45594000000E+02  0.51100000000E-03 0.  1.
         11   -1    0    0    0    0 -0.00000000000E+00 -0.00000000000E+00 -0.45593999997E+02  0.45594000000E+02  0.51100000000E-03 0. -1.
    9900012    2    1    2    0    0 -0.13496664941E+02  0.46375479363E+01 -0.12124650410E+02  0.72461709311E+02  0.70000181095E+02 0.  0.
        -12    1    1    2    0    0  0.13496664941E+02 -0.46375479363E+01  0.12124650410E+02  0.18726290689E+02  0.00000000000E+00 0.  1.
         11    1    3    3    0    0 -0.70229634025E+01  0.10730485424E+02 -0.68124490592E+01  0.14521528667E+02  0.51100000000E-03 0. -1.
        -11    1    3    3    0    0  0.72665282082E+01  0.13964958240E+02  0.18237414341E+02  0.24092027166E+02  0.51100000000E-03 0.  1.
         12    1    3    3    0    0 -0.13740229747E+02 -0.20057895728E+02 -0.23549615692E+02  0.33848153477E+02  0.00000000000E+00 0. -1.
</event>
<event>
 7    1  0.2489154E-013  0.7246152E+02  0.7816164E-02  0.1226708E+00
        -11   -1    0    0    0    0  0.00000000000E+00  0.00000000000E+00  0.45593999997E+02  0.45594000000E+02  0.51100000000E-03 0. -1.
         11   -1    0    0    0    0 -0.00000000000E+00 -0.00000000000E+00 -0.45593999997E+02  0.45594000000E+02  0.51100000000E-03 0.  1.
    9900012    2    1    2    0    0 -0.81507795431E+01 -0.15299873823E+02  0.70823572861E+01  0.72461517926E+02  0.69999931780E+02 0.  0.
        -12    1    1    2    0    0  0.81507795431E+01  0.15299873823E+02 -0.70823572861E+01  0.18726482074E+02  0.00000000000E+00 0.  1.
         11    1    3    3    0    0  0.13692246398E+02  0.31602189699E+01  0.19336986654E+02  0.23903632537E+02  0.51100000000E-03 0. -1.
        -11    1    3    3    0    0 -0.11919532833E+02 -0.74739600063E+01  0.13083174180E+02  0.19212100042E+02  0.51100000000E-03 0.  1.
        -12    1    3    3    0    0 -0.99234931080E+01 -0.10986132786E+02 -0.25337803547E+02  0.29345785348E+02  0.00000000000E+00 0.  1.
</event>
<event>
 7    1  0.2489154E-013  0.7246163E+02  0.7816164E-02  0.1226708E+00
        -11   -1    0    0    0    0  0.00000000000E+00  0.00000000000E+00  0.45593999997E+02  0.45594000000E+02  0.51100000000E-03 0. -1.
         11   -1    0    0    0    0 -0.00000000000E+00 -0.00000000000E+00 -0.45593999997E+02  0.45594000000E+02  0.51100000000E-03 0.  1.
    9900012    2    1    2    0    0  0.68536137737E+01  0.16599900973E+02  0.53054942810E+01  0.72461628124E+02  0.70000075334E+02 0.  0.
        -12    1    1    2    0    0 -0.68536137737E+01 -0.16599900973E+02 -0.53054942810E+01  0.18726371876E+02  0.00000000000E+00 0.  1.
         11    1    3    3    0    0  0.11521492261E+02 -0.13052133427E+02  0.18687531201E+02  0.25540688980E+02  0.51100000000E-03 0. -1.
        -11    1    3    3    0    0 -0.34582747283E+01 -0.67689245562E+01 -0.61307342069E+01  0.97654444814E+01  0.51100000000E-03 0.  1.
        -12    1    3    3    0    0 -0.12096037591E+01  0.36420958956E+02 -0.72513027134E+01  0.37155494662E+02  0.00000000000E+00 0.  1.
</event>
<event>
 7    1  0.2489154E-013  0.7246160E+02  0.7816164E-02  0.1226708E+00
        -11   -1    0    0    0    0  0.00000000000E+00  0.00000000000E+00  0.45593999997E+02  0.45594000000E+02  0.51100000000E-03 0.  1.
         11   -1    0    0    0    0 -0.00000000000E+00 -0.00000000000E+00 -0.45593999997E+02  0.45594000000E+02  0.51100000000E-03 0. -1.
    9900012    2    1    2    0    0  0.60046357245E+01  0.24630458443E+00 -0.17735890159E+02  0.72461598427E+02  0.70000036649E+02 0.  0.
        -12    1    1    2    0    0 -0.60046357245E+01 -0.24630458443E+00  0.17735890159E+02  0.18726401573E+02  0.00000000000E+00 0.  1.
         11    1    3    3    0    0 -0.23007952448E+01  0.97072774609E+01 -0.46105869952E+01  0.10990104966E+02  0.51100000000E-03 0. -1.
        -11    1    3    3    0    0  0.19830213264E+02  0.47259214141E+01  0.16792975840E+02  0.26411658962E+02  0.51100000000E-03 0.  1.
         12    1    3    3    0    0 -0.11524782295E+02 -0.14186894291E+02 -0.29918279004E+02  0.35059834499E+02  0.00000000000E+00 0. -1.
</event>
<event>
 7    1  0.2489154E-013  0.7246164E+02  0.7816164E-02  0.1226708E+00
        -11   -1    0    0    0    0  0.00000000000E+00  0.00000000000E+00  0.45593999997E+02  0.45594000000E+02  0.51100000000E-03 0. -1.
         11   -1    0    0    0    0 -0.00000000000E+00 -0.00000000000E+00 -0.45593999997E+02  0.45594000000E+02  0.51100000000E-03 0.  1.
    9900012    2    1    2    0    0 -0.70128986126E+01  0.47970332359E+01  0.16687844778E+02  0.72461643223E+02  0.70000095003E+02 0.  0.
        -12    1    1    2    0    0  0.70128986126E+01 -0.47970332359E+01 -0.16687844778E+02  0.18726356777E+02  0.00000000000E+00 0.  1.
         11    1    3    3    0    0 -0.11959865471E+02  0.32578627622E+01  0.12149464154E+01  0.12455045039E+02  0.51100000000E-03 0. -1.
        -11    1    3    3    0    0 -0.13916491394E+02 -0.11980065203E+02 -0.13568077863E+02  0.22831632271E+02  0.51100000000E-03 0.  1.
         12    1    3    3    0    0  0.18863458252E+02  0.13519235677E+02  0.29040976225E+02  0.37174965913E+02  0.00000000000E+00 0. -1.
</event>
<event>
 7    1  0.2489154E-013  0.7246158E+02  0.7816164E-02  0.1226708E+00
        -11   -1    0    0    0    0  0.00000000000E+00  0.00000000000E+00  0.45593999997E+02  0.45594000000E+02  0.51100000000E-03 0.  1.
         11   -1    0    0    0    0 -0.00000000000E+00 -0.00000000000E+00 -0.45593999997E+02  0.45594000000E+02  0.51100000000E-03 0. -1.
    9900012    2    1    2    0    0 -0.33101938399E+01 -0.18376727520E+02 -0.14203779301E+01  0.72461575593E+02  0.70000006903E+02 0.  0.
        -12    1    1    2    0    0  0.33101938399E+01  0.18376727520E+02  0.14203779301E+01  0.18726424407E+02  0.00000000000E+00 0.  1.
         11    1    3    3    0    0 -0.41398746469E+01 -0.19355052266E+02 -0.15348912195E+02  0.25046870386E+02  0.51100000000E-03 0. -1.
        -11    1    3    3    0    0  0.41828873476E+01 -0.19828459073E+02  0.16566937133E+02  0.26174944929E+02  0.51100000000E-03 0.  1.
        -12    1    3    3    0    0 -0.33532065406E+01  0.20806783819E+02 -0.26384028685E+01  0.21239760279E+02  0.00000000000E+00 0.  1.
</event>
<event>
 7    1  0.2489154E-013  0.7246152E+02  0.7816164E-02  0.1226708E+00
        -11   -1    0    0    0    0  0.00000000000E+00  0.00000000000E+00  0.45593999997E+02  0.45594000000E+02  0.51100000000E-03 0. -1.
         11   -1    0    0    0    0 -0.00000000000E+00 -0.00000000000E+00 -0.45593999997E+02  0.45594000000E+02  0.51100000000E-03 0.  1.
    9900012    2    1    2    0    0  0.11232507903E+01  0.38487994313E+01  0.18292243717E+02  0.72461517960E+02  0.69999931824E+02 0.  0.
        -12    1    1    2    0    0 -0.11232507903E+01 -0.38487994313E+01 -0.18292243717E+02  0.18726482040E+02  0.00000000000E+00 0.  1.
         11    1    3    3    0    0 -0.30534554042E+01 -0.22091263328E+02  0.15392863727E+02  0.27097744543E+02  0.51100000000E-03 0. -1.
        -11    1    3    3    0    0 -0.19849444398E+01 -0.80169295961E+01 -0.54008921107E+01  0.98681710784E+01  0.51100000000E-03 0.  1.
        -12    1    3    3    0    0  0.61616506343E+01  0.33956992356E+02  0.83002721012E+01  0.35495602338E+02  0.00000000000E+00 0.  1.
</event>
<event>
 7    1  0.2489154E-013  0.7246157E+02  0.7816164E-02  0.1226708E+00
        -11   -1    0    0    0    0  0.00000000000E+00  0.00000000000E+00  0.45593999997E+02  0.45594000000E+02  0.51100000000E-03 0.  1.
         11   -1    0    0    0    0 -0.00000000000E+00 -0.00000000000E+00 -0.45593999997E+02  0.45594000000E+02  0.51100000000E-03 0. -1.
    9900012    2    1    2    0    0  0.84610712047E+01  0.45986571457E+01 -0.16060572023E+02  0.72461565551E+02  0.69999993821E+02 0.  0.
        -12    1    1    2    0    0 -0.84610712047E+01 -0.45986571457E+01  0.16060572023E+02  0.18726434449E+02  0.00000000000E+00 0.  1.
         11    1    3    3    0    0  0.30414270106E+01  0.88733633048E+01 -0.14697267202E+01  0.94945748453E+01  0.51100000000E-03 0. -1.
        -11    1    3    3    0    0  0.14042110136E+01  0.11609693092E+02  0.20859338762E+02  0.23913778374E+02  0.51100000000E-03 0.  1.
         12    1    3    3    0    0  0.40154331805E+01 -0.15884399251E+02 -0.35450184065E+02  0.39053212332E+02  0.00000000000E+00 0. -1.
</event>
<event>
 7    1  0.2489154E-013  0.7246146E+02  0.7816164E-02  0.1226708E+00
        -11   -1    0    0    0    0  0.00000000000E+00  0.00000000000E+00  0.45593999997E+02  0.45594000000E+02  0.51100000000E-03 0. -1.
         11   -1    0    0    0    0 -0.00000000000E+00 -0.00000000000E+00 -0.45593999997E+02  0.45594000000E+02  0.51100000000E-03 0.  1.
    9900012    2    1    2    0    0 -0.14236170961E+02  0.12017585742E+02  0.18953296587E+01  0.72461462541E+02  0.69999859631E+02 0.  0.
        -12    1    1    2    0    0  0.14236170961E+02 -0.12017585742E+02 -0.18953296587E+01  0.18726537459E+02  0.00000000000E+00 0.  1.
         11    1    3    3    0    0 -0.14050912250E+02  0.12359265263E+02  0.22126181776E+02  0.28978397008E+02  0.51100000000E-03 0. -1.
        -11    1    3    3    0    0 -0.23982134210E+01  0.17854643087E+02 -0.28811942206E+01  0.18243930163E+02  0.51100000000E-03 0.  1.
        -12    1    3    3    0    0  0.22129547102E+01 -0.18196322609E+02 -0.17349657897E+02  0.25239135369E+02  0.00000000000E+00 0.  1.
</event>
<event>
 7    1  0.2489154E-013  0.7246155E+02  0.7816164E-02  0.1226708E+00
        -11   -1    0    0    0    0  0.00000000000E+00  0.00000000000E+00  0.45593999997E+02  0.45594000000E+02  0.51100000000E-03 0. -1.
         11   -1    0    0    0    0 -0.00000000000E+00 -0.00000000000E+00 -0.45593999997E+02  0.45594000000E+02  0.51100000000E-03 0.  1.
    9900012    2    1    2    0    0  0.10881275925E+02  0.13627096357E+02 -0.68249419956E+01  0.72461554686E+02  0.69999979667E+02 0.  0.
        -12    1    1    2    0    0 -0.10881275925E+02 -0.13627096357E+02  0.68249419956E+01  0.18726445314E+02  0.00000000000E+00 0.  1.
         11    1    3    3    0    0  0.82707713291E+01 -0.50664086769E+01 -0.21300353104E+02  0.23404683247E+02  0.51100000000E-03 0. -1.
        -11    1    3    3    0    0  0.88968570260E+01  0.15639336201E+02 -0.12030972367E+02  0.21644565094E+02  0.51100000000E-03 0.  1.
         12    1    3    3    0    0 -0.62863524306E+01  0.30541688330E+01  0.26506383476E+02  0.27412306344E+02  0.00000000000E+00 0. -1.
</event>
<event>
 7    1  0.2489154E-013  0.7246158E+02  0.7816164E-02  0.1226708E+00
        -11   -1    0    0    0    0  0.00000000000E+00  0.00000000000E+00  0.45593999997E+02  0.45594000000E+02  0.51100000000E-03 0.  1.
         11   -1    0    0    0    0 -0.00000000000E+00 -0.00000000000E+00 -0.45593999997E+02  0.45594000000E+02  0.51100000000E-03 0. -1.
    9900012    2    1    2    0    0  0.73617528747E+01 -0.14728702651E+02 -0.89190173613E+01  0.72461575945E+02  0.70000007362E+02 0.  0.
        -12    1    1    2    0    0 -0.73617528747E+01  0.14728702651E+02  0.89190173613E+01  0.18726424055E+02  0.00000000000E+00 0.  1.
         11    1    3    3    0    0 -0.69181154998E+00 -0.20709950444E+02 -0.17788884948E+01  0.20797718508E+02  0.51100000000E-03 0. -1.
        -11    1    3    3    0    0  0.20205496706E+02 -0.16016570463E+02 -0.61827338081E+01  0.26514502148E+02  0.51100000000E-03 0.  1.
        -12    1    3    3    0    0 -0.12151932282E+02  0.21997818255E+02 -0.95739505847E+00  0.25149355289E+02  0.00000000000E+00 0.  1.
</event>
<event>
 7    1  0.2489154E-013  0.7246195E+02  0.7816164E-02  0.1226707E+00
        -11   -1    0    0    0    0  0.00000000000E+00  0.00000000000E+00  0.45593999997E+02  0.45594000000E+02  0.51100000000E-03 0.  1.
         11   -1    0    0    0    0 -0.00000000000E+00 -0.00000000000E+00 -0.45593999997E+02  0.45594000000E+02  0.51100000000E-03 0. -1.
    9900012    2    1    2    0    0  0.13223979039E+02 -0.10597944524E+02 -0.79671180297E+01  0.72461948108E+02  0.70000492171E+02 0.  0.
        -12    1    1    2    0    0 -0.13223979039E+02  0.10597944524E+02  0.79671180297E+01  0.18726051892E+02  0.00000000000E+00 0.  1.
         11    1    3    3    0    0 -0.40760649680E+01  0.93578092649E+01 -0.61147396773E+01  0.11898442816E+02  0.51100000000E-03 0. -1.
        -11    1    3    3    0    0 -0.73069180180E+01  0.13247733846E+02  0.92981012055E+01  0.17758045762E+02  0.51100000000E-03 0.  1.
        -12    1    3    3    0    0  0.24606962024E+02 -0.33203487636E+02 -0.11150479558E+02  0.42805459531E+02  0.00000000000E+00 0.  1.
</event>
<event>
 7    1  0.2489154E-013  0.7246158E+02  0.7816164E-02  0.1226708E+00
        -11   -1    0    0    0    0  0.00000000000E+00  0.00000000000E+00  0.45593999997E+02  0.45594000000E+02  0.51100000000E-03 0. -1.
         11   -1    0    0    0    0 -0.00000000000E+00 -0.00000000000E+00 -0.45593999997E+02  0.45594000000E+02  0.51100000000E-03 0.  1.
    9900012    2    1    2    0    0  0.62554162335E+01  0.17534380940E+02 -0.20234130948E+01  0.72461576216E+02  0.70000007714E+02 0.  0.
        -12    1    1    2    0    0 -0.62554162335E+01 -0.17534380940E+02  0.20234130948E+01  0.18726423784E+02  0.00000000000E+00 0.  1.
         11    1    3    3    0    0  0.49716010176E+01  0.20310547479E+02  0.14682399623E+02  0.25550107916E+02  0.51100000000E-03 0. -1.
        -11    1    3    3    0    0  0.93824641096E+01  0.25726217172E+01  0.12669749858E+02  0.15974090804E+02  0.51100000000E-03 0.  1.
        -12    1    3    3    0    0 -0.80986488937E+01 -0.53487882560E+01 -0.29375562576E+02  0.30937377497E+02  0.00000000000E+00 0.  1.
</event>
<event>
 7    1  0.2489154E-013  0.7246167E+02  0.7816164E-02  0.1226708E+00
        -11   -1    0    0    0    0  0.00000000000E+00  0.00000000000E+00  0.45593999997E+02  0.45594000000E+02  0.51100000000E-03 0. -1.
         11   -1    0    0    0    0 -0.00000000000E+00 -0.00000000000E+00 -0.45593999997E+02  0.45594000000E+02  0.51100000000E-03 0.  1.
    9900012    2    1    2    0    0 -0.12116829060E+02  0.14071874485E+02 -0.24166823975E+01  0.72461666889E+02  0.70000125832E+02 0.  0.
        -12    1    1    2    0    0  0.12116829060E+02 -0.14071874485E+02  0.24166823975E+01  0.18726333111E+02  0.00000000000E+00 0.  1.
         11    1    3    3    0    0 -0.83432896605E+01 -0.61221426761E+01  0.20811946353E+02  0.23242810169E+02  0.51100000000E-03 0. -1.
        -11    1    3    3    0    0  0.12564516629E+01  0.13600138955E+02  0.87246556599E+01  0.16206852471E+02  0.51100000000E-03 0.  1.
         12    1    3    3    0    0 -0.50299910622E+01  0.65938782053E+01 -0.31953284410E+02  0.33012004248E+02  0.00000000000E+00 0. -1.
</event>
<event>
 7    1  0.2489154E-013  0.7246154E+02  0.7816164E-02  0.1226708E+00
        -11   -1    0    0    0    0  0.00000000000E+00  0.00000000000E+00  0.45593999997E+02  0.45594000000E+02  0.51100000000E-03 0. -1.
         11   -1    0    0    0    0 -0.00000000000E+00 -0.00000000000E+00 -0.45593999997E+02  0.45594000000E+02  0.51100000000E-03 0.  1.
    9900012    2    1    2    0    0  0.83143434860E+01 -0.59398047897E+01  0.15693017445E+02  0.72461537839E+02  0.69999957721E+02 0.  0.
        -12    1    1    2    0    0 -0.83143434860E+01  0.59398047897E+01 -0.15693017445E+02  0.18726462161E+02  0.00000000000E+00 0.  1.
         11    1    3    3    0    0 -0.32788978376E+01 -0.97734747712E+01 -0.71636895567E+01  0.12553502637E+02  0.51100000000E-03 0. -1.
        -11    1    3    3    0    0 -0.63506384786E+00 -0.16458245765E+02 -0.10099065566E+02  0.19320152311E+02  0.51100000000E-03 0.  1.
         12    1    3    3    0    0  0.12228305171E+02  0.20291915746E+02  0.32955772568E+02  0.40587882891E+02  0.00000000000E+00 0. -1.
</event>
<event>
 7    1  0.2489154E-013  0.7246183E+02  0.7816164E-02  0.1226707E+00
        -11   -1    0    0    0    0  0.00000000000E+00  0.00000000000E+00  0.45593999997E+02  0.45594000000E+02  0.51100000000E-03 0.  1.
         11   -1    0    0    0    0 -0.00000000000E+00 -0.00000000000E+00 -0.45593999997E+02  0.45594000000E+02  0.51100000000E-03 0. -1.
    9900012    2    1    2    0    0 -0.10021646082E+02  0.28928057742E+00 -0.15816203175E+02  0.72461832311E+02  0.70000341325E+02 0.  0.
        -12    1    1    2    0    0  0.10021646082E+02 -0.28928057742E+00  0.15816203175E+02  0.18726167689E+02  0.00000000000E+00 0.  1.
         11    1    3    3    0    0 -0.10935676635E+02  0.19808611764E+02  0.44993428221E+01  0.23069768303E+02  0.51100000000E-03 0. -1.
        -11    1    3    3    0    0 -0.51795791282E+01  0.98169040508E+01 -0.15470589881E+02  0.19040451587E+02  0.51100000000E-03 0.  1.
        -12    1    3    3    0    0  0.60936096820E+01 -0.29336235237E+02 -0.48449561154E+01  0.30351612422E+02  0.00000000000E+00 0.  1.
</event>
<event>
 7    1  0.2489154E-013  0.7246160E+02  0.7816164E-02  0.1226708E+00
        -11   -1    0    0    0    0  0.00000000000E+00  0.00000000000E+00  0.45593999997E+02  0.45594000000E+02  0.51100000000E-03 0.  1.
         11   -1    0    0    0    0 -0.00000000000E+00 -0.00000000000E+00 -0.45593999997E+02  0.45594000000E+02  0.51100000000E-03 0. -1.
    9900012    2    1    2    0    0  0.12659144615E+01  0.13069748992E+02 -0.13351294556E+02  0.72461603004E+02  0.70000042610E+02 0.  0.
        -12    1    1    2    0    0 -0.12659144615E+01 -0.13069748992E+02  0.13351294556E+02  0.18726396996E+02  0.00000000000E+00 0.  1.
         11    1    3    3    0    0  0.97029381160E+01  0.22596772673E+02 -0.62603501516E+01  0.25376231549E+02  0.51100000000E-03 0. -1.
        -11    1    3    3    0    0  0.10011260198E+02  0.13535501706E+02 -0.45691203849E+01  0.17444540652E+02  0.51100000000E-03 0.  1.
        -12    1    3    3    0    0 -0.18448283852E+02 -0.23062525387E+02 -0.25218240194E+01  0.29640830803E+02  0.00000000000E+00 0.  1.
</event>
<event>
 7    1  0.2489154E-013  0.7246125E+02  0.7816164E-02  0.1226709E+00
        -11   -1    0    0    0    0  0.00000000000E+00  0.00000000000E+00  0.45593999997E+02  0.45594000000E+02  0.51100000000E-03 0.  1.
         11   -1    0    0    0    0 -0.00000000000E+00 -0.00000000000E+00 -0.45593999997E+02  0.45594000000E+02  0.51100000000E-03 0. -1.
    9900012    2    1    2    0    0 -0.14695332164E+02 -0.91914546433E+01 -0.70891075512E+01  0.72461252505E+02  0.69999586019E+02 0.  0.
        -12    1    1    2    0    0  0.14695332164E+02  0.91914546433E+01  0.70891075512E+01  0.18726747495E+02  0.00000000000E+00 0.  1.
         11    1    3    3    0    0 -0.20970929684E+02  0.10756226635E+02  0.12322152456E+02  0.26595333137E+02  0.51100000000E-03 0. -1.
        -11    1    3    3    0    0 -0.34589346458E+01 -0.12990937642E+02  0.82185724154E+01  0.15756700876E+02  0.51100000000E-03 0.  1.
         12    1    3    3    0    0  0.97345321664E+01 -0.69567436367E+01 -0.27629832422E+02  0.30109218492E+02  0.00000000000E+00 0. -1.
</event>
<event>
 7    1  0.2489154E-013  0.7246157E+02  0.7816164E-02  0.1226708E+00
        -11   -1    0    0    0    0  0.00000000000E+00  0.00000000000E+00  0.45593999997E+02  0.45594000000E+02  0.51100000000E-03 0. -1.
         11   -1    0    0    0    0 -0.00000000000E+00 -0.00000000000E+00 -0.45593999997E+02  0.45594000000E+02  0.51100000000E-03 0.  1.
    9900012    2    1    2    0    0 -0.57861656695E+01  0.16725257089E+02  0.61208960560E+01  0.72461566641E+02  0.69999995240E+02 0.  0.
        -12    1    1    2    0    0  0.57861656695E+01 -0.16725257089E+02 -0.61208960560E+01  0.18726433359E+02  0.00000000000E+00 0.  1.
         11    1    3    3    0    0 -0.98904693676E+00  0.10654146125E+02  0.27219304025E+02  0.29246872574E+02  0.51100000000E-03 0. -1.
        -11    1    3    3    0    0 -0.97517121075E+01  0.42007888177E-01  0.82952997913E+01  0.12802720515E+02  0.51100000000E-03 0.  1.
        -12    1    3    3    0    0  0.49545933747E+01  0.60291030759E+01 -0.29393707761E+02  0.30411973552E+02  0.00000000000E+00 0.  1.
</event>
<event>
 7    1  0.2489154E-013  0.7246170E+02  0.7816164E-02  0.1226708E+00
        -11   -1    0    0    0    0  0.00000000000E+00  0.00000000000E+00  0.45593999997E+02  0.45594000000E+02  0.51100000000E-03 0.  1.
         11   -1    0    0    0    0 -0.00000000000E+00 -0.00000000000E+00 -0.45593999997E+02  0.45594000000E+02  0.51100000000E-03 0. -1.
    9900012    2    1    2    0    0 -0.64155204395E+01 -0.12050053747E+02 -0.12818412093E+02  0.72461698005E+02  0.70000166367E+02 0.  0.
        -12    1    1    2    0    0  0.64155204395E+01  0.12050053747E+02  0.12818412093E+02  0.18726301995E+02  0.00000000000E+00 0.  1.
         11    1    3    3    0    0  0.60433990616E+01 -0.52187604840E+01  0.59694909784E+00  0.80071519090E+01  0.51100000000E-03 0. -1.
        -11    1    3    3    0    0 -0.75114041593E+01 -0.28199420240E+02  0.11404582420E+02  0.31331980383E+02  0.51100000000E-03 0.  1.
         12    1    3    3    0    0 -0.49475153418E+01  0.21368126977E+02 -0.24819943611E+02  0.33122565713E+02  0.00000000000E+00 0. -1.
</event>
<event>
 7    1  0.2489154E-013  0.7246158E+02  0.7816164E-02  0.1226708E+00
        -11   -1    0    0    0    0  0.00000000000E+00  0.00000000000E+00  0.45593999997E+02  0.45594000000E+02  0.51100000000E-03 0. -1.
         11   -1    0    0    0    0 -0.00000000000E+00 -0.00000000000E+00 -0.45593999997E+02  0.45594000000E+02  0.51100000000E-03 0.  1.
    9900012    2    1    2    0    0  0.18694484037E+02  0.98498895351E+00 -0.47411200232E+00  0.72461582327E+02  0.70000015675E+02 0.  0.
        -12    1    1    2    0    0 -0.18694484037E+02 -0.98498895351E+00  0.47411200232E+00  0.18726417673E+02  0.00000000000E+00 0.  1.
         11    1    3    3    0    0  0.20538444423E+02  0.46110864890E+01  0.11873904149E+01  0.21083161864E+02  0.51100000000E-03 0. -1.
        -11    1    3    3    0    0  0.15427994774E+02 -0.20037441585E+02 -0.83504907155E+01  0.26631800229E+02  0.51100000000E-03 0.  1.
         12    1    3    3    0    0 -0.17271955159E+02  0.16411344050E+02  0.66889882983E+01  0.24746620234E+02  0.00000000000E+00 0. -1.
</event>
<event>
 7    1  0.2489154E-013  0.7246158E+02  0.7816164E-02  0.1226708E+00
        -11   -1    0    0    0    0  0.00000000000E+00  0.00000000000E+00  0.45593999997E+02  0.45594000000E+02  0.51100000000E-03 0.  1.
         11   -1    0    0    0    0 -0.00000000000E+00 -0.00000000000E+00 -0.45593999997E+02  0.45594000000E+02  0.51100000000E-03 0. -1.
    9900012    2    1    2    0    0 -0.69404146171E+01  0.13583271318E+02 -0.10862981075E+02  0.72461575553E+02  0.70000006850E+02 0.  0.
        -12    1    1    2    0    0  0.69404146171E+01 -0.13583271318E+02  0.10862981075E+02  0.18726424447E+02  0.00000000000E+00 0.  1.
         11    1    3    3    0    0 -0.16244300038E+02  0.15978266636E+02  0.73200935354E+01  0.23932531375E+02  0.51100000000E-03 0. -1.
        -11    1    3    3    0    0 -0.98492235834E+01  0.59472187619E+01  0.87419507586E+01  0.14449855346E+02  0.51100000000E-03 0.  1.
        -12    1    3    3    0    0  0.19153109004E+02 -0.83422140802E+01 -0.26925025369E+02  0.34079188831E+02  0.00000000000E+00 0.  1.
</event>
<event>
 7    1  0.2489154E-013  0.7246158E+02  0.7816164E-02  0.1226708E+00
        -11   -1    0    0    0    0  0.00000000000E+00  0.00000000000E+00  0.45593999997E+02  0.45594000000E+02  0.51100000000E-03 0.  1.
         11   -1    0    0    0    0 -0.00000000000E+00 -0.00000000000E+00 -0.45593999997E+02  0.45594000000E+02  0.51100000000E-03 0. -1.
    9900012    2    1    2    0    0 -0.17240882633E+02 -0.52254476120E+01 -0.51112964515E+01  0.72461583148E+02  0.70000016744E+02 0.  0.
        -12    1    1    2    0    0  0.17240882633E+02  0.52254476120E+01  0.51112964515E+01  0.18726416852E+02  0.00000000000E+00 0.  1.
         11    1    3    3    0    0 -0.11589241707E+02 -0.73430656617E+01 -0.19212991339E+02  0.23608688509E+02  0.51100000000E-03 0. -1.
        -11    1    3    3    0    0 -0.24872292503E+02 -0.60401704356E+01  0.50184201938E+01  0.26082544637E+02  0.51100000000E-03 0.  1.
         12    1    3    3    0    0  0.19220651578E+02  0.81577884853E+01  0.90832746933E+01  0.22770350002E+02  0.00000000000E+00 0. -1.
</event>
<event>
 7    1  0.2489154E-013  0.7246138E+02  0.7816164E-02  0.1226709E+00
        -11   -1    0    0    0    0  0.00000000000E+00  0.00000000000E+00  0.45593999997E+02  0.45594000000E+02  0.51100000000E-03 0.  1.
         11   -1    0    0    0    0 -0.00000000000E+00 -0.00000000000E+00 -0.45593999997E+02  0.45594000000E+02  0.51100000000E-03 0. -1.
    9900012    2    1    2    0    0  0.90359082191E+01  0.58440394282E+01 -0.15325981324E+02  0.72461384242E+02  0.69999757632E+02 0.  0.
        -12    1    1    2    0    0 -0.90359082191E+01 -0.58440394282E+01  0.15325981324E+02  0.18726615758E+02  0.00000000000E+00 0.  1.
         11    1    3    3    0    0  0.10174896345E+01  0.13270633039E+01 -0.25183446159E+02  0.25238905342E+02  0.51100000000E-03 0. -1.
        -11    1    3    3    0    0  0.15728338424E+01  0.17291883042E+02 -0.11993915760E+02  0.21103010235E+02  0.51100000000E-03 0.  1.
         12    1    3    3    0    0  0.64455847422E+01 -0.12774906918E+02  0.21851380595E+02  0.26119468665E+02  0.00000000000E+00 0. -1.
</event>
<event>
 7    1  0.2489154E-013  0.7246153E+02  0.7816164E-02  0.1226708E+00
        -11   -1    0    0    0    0  0.00000000000E+00  0.00000000000E+00  0.45593999997E+02  0.45594000000E+02  0.51100000000E-03 0. -1.
         11   -1    0    0    0    0 -0.00000000000E+00 -0.00000000000E+00 -0.45593999997E+02  0.45594000000E+02  0.51100000000E-03 0.  1.
    9900012    2    1    2    0    0  0.60672603321E+01  0.13422538489E+02 -0.11563061681E+02  0.72461532558E+02  0.69999950841E+02 0.  0.
        -12    1    1    2    0    0 -0.60672603321E+01 -0.13422538489E+02  0.11563061681E+02  0.18726467442E+02  0.00000000000E+00 0.  1.
         11    1    3    3    0    0 -0.19156659084E+02  0.17168444720E+02 -0.22559173482E+02  0.34214753978E+02  0.51100000000E-03 0. -1.
        -11    1    3    3    0    0  0.14010107378E+02  0.11198824655E+02  0.48965590014E+01  0.18592285301E+02  0.51100000000E-03 0.  1.
        -12    1    3    3    0    0  0.11213812038E+02 -0.14944730886E+02  0.60995528000E+01  0.19654493278E+02  0.00000000000E+00 0.  1.
</event>
<event>
 7    1  0.2489154E-013  0.7246158E+02  0.7816164E-02  0.1226708E+00
        -11   -1    0    0    0    0  0.00000000000E+00  0.00000000000E+00  0.45593999997E+02  0.45594000000E+02  0.51100000000E-03 0.  1.
         11   -1    0    0    0    0 -0.00000000000E+00 -0.00000000000E+00 -0.45593999997E+02  0.45594000000E+02  0.51100000000E-03 0. -1.
    9900012    2    1    2    0    0 -0.37521638758E+01  0.94739806060E+01 -0.15711260483E+02  0.72461581543E+02  0.70000014653E+02 0.  0.
        -12    1    1    2    0    0  0.37521638758E+01 -0.94739806060E+01  0.15711260483E+02  0.18726418457E+02  0.00000000000E+00 0.  1.
         11    1    3    3    0    0 -0.59850883509E+00 -0.22272996105E+02 -0.69552996604E+01  0.23341395887E+02  0.51100000000E-03 0. -1.
        -11    1    3    3    0    0  0.95226948709E+01  0.52649743168E+01  0.95864924908E+01  0.14501810601E+02  0.51100000000E-03 0.  1.
         12    1    3    3    0    0 -0.12676349912E+02  0.26482002394E+02 -0.18342453313E+02  0.34618375055E+02  0.00000000000E+00 0. -1.
</event>
<event>
 7    1  0.2489154E-013  0.7246149E+02  0.7816164E-02  0.1226708E+00
        -11   -1    0    0    0    0  0.00000000000E+00  0.00000000000E+00  0.45593999997E+02  0.45594000000E+02  0.51100000000E-03 0. -1.
         11   -1    0    0    0    0 -0.00000000000E+00 -0.00000000000E+00 -0.45593999997E+02  0.45594000000E+02  0.51100000000E-03 0.  1.
    9900012    2    1    2    0    0 -0.67798231083E+00 -0.14078264610E+02  0.12329838721E+02  0.72461491587E+02  0.69999897469E+02 0.  0.
        -12    1    1    2    0    0  0.67798231083E+00  0.14078264610E+02 -0.12329838721E+02  0.18726508413E+02  0.00000000000E+00 0.  1.
         11    1    3    3    0    0  0.18063812280E+02  0.33936214883E+01 -0.54690061005E+01  0.19176235524E+02  0.51100000000E-03 0. -1.
        -11    1    3    3    0    0  0.11636301031E+02 -0.12764080419E+02 -0.91509310166E+00  0.17296318865E+02  0.51100000000E-03 0.  1.
        -12    1    3    3    0    0 -0.30378095622E+02 -0.47078056794E+01  0.18713937924E+02  0.35988937197E+02  0.00000000000E+00 0.  1.
</event>
<event>
 7    1  0.2489154E-013  0.7246163E+02  0.7816164E-02  0.1226708E+00
        -11   -1    0    0    0    0  0.00000000000E+00  0.00000000000E+00  0.45593999997E+02  0.45594000000E+02  0.51100000000E-03 0.  1.
         11   -1    0    0    0    0 -0.00000000000E+00 -0.00000000000E+00 -0.45593999997E+02  0.45594000000E+02  0.51100000000E-03 0. -1.
    9900012    2    1    2    0    0  0.80171649585E+01 -0.50304097681E+01 -0.16158497664E+02  0.72461628136E+02  0.70000075350E+02 0.  0.
        -12    1    1    2    0    0 -0.80171649585E+01  0.50304097681E+01  0.16158497664E+02  0.18726371864E+02  0.00000000000E+00 0.  1.
         11    1    3    3    0    0 -0.19163303293E+02  0.62622468684E+01  0.14320806034E+02  0.24729201659E+02  0.51100000000E-03 0. -1.
        -11    1    3    3    0    0  0.50535073472E+01 -0.13166812966E+02 -0.83876117601E+01  0.16408989350E+02  0.51100000000E-03 0.  1.
        -12    1    3    3    0    0  0.22126960905E+02  0.18741563295E+01 -0.22091691938E+02  0.31323437128E+02  0.00000000000E+00 0.  1.
</event>
<event>
 7    1  0.2489154E-013  0.7246156E+02  0.7816164E-02  0.1226708E+00
        -11   -1    0    0    0    0  0.00000000000E+00  0.00000000000E+00  0.45593999997E+02  0.45594000000E+02  0.51100000000E-03 0.  1.
         11   -1    0    0    0    0 -0.00000000000E+00 -0.00000000000E+00 -0.45593999997E+02  0.45594000000E+02  0.51100000000E-03 0. -1.
    9900012    2    1    2    0    0  0.10269217162E+02 -0.95597044117E+01 -0.12403016758E+02  0.72461558954E+02  0.69999985227E+02 0.  0.
        -12    1    1    2    0    0 -0.10269217162E+02  0.95597044117E+01  0.12403016758E+02  0.18726441046E+02  0.00000000000E+00 0.  1.
         11    1    3    3    0    0  0.18216980454E+02  0.64142699195E+01 -0.12463504981E+00  0.19313642060E+02  0.51100000000E-03 0. -1.
        -11    1    3    3    0    0  0.27776499348E+01  0.64537165303E+01  0.14803131272E+02  0.16385923591E+02  0.51100000000E-03 0.  1.
        -12    1    3    3    0    0 -0.10725413227E+02 -0.22427690862E+02 -0.27081512980E+02  0.36761993303E+02  0.00000000000E+00 0.  1.
</event>
<event>
 7    1  0.2489154E-013  0.7246152E+02  0.7816164E-02  0.1226708E+00
        -11   -1    0    0    0    0  0.00000000000E+00  0.00000000000E+00  0.45593999997E+02  0.45594000000E+02  0.51100000000E-03 0.  1.
         11   -1    0    0    0    0 -0.00000000000E+00 -0.00000000000E+00 -0.45593999997E+02  0.45594000000E+02  0.51100000000E-03 0. -1.
    9900012    2    1    2    0    0  0.15624563615E+02  0.10288882278E+02  0.83249393217E+00  0.72461517874E+02  0.69999931712E+02 0.  0.
        -12    1    1    2    0    0 -0.15624563615E+02 -0.10288882278E+02 -0.83249393217E+00  0.18726482126E+02  0.00000000000E+00 0.  1.
         11    1    3    3    0    0 -0.18117403652E+02  0.14524166424E+02  0.48671334038E+01  0.23725107233E+02  0.51100000000E-03 0. -1.
        -11    1    3    3    0    0  0.15584469853E+02  0.11802001601E+02  0.86654839732E+01  0.21383487909E+02  0.51100000000E-03 0.  1.
        -12    1    3    3    0    0  0.18157497414E+02 -0.16037285747E+02 -0.12700123445E+02  0.27352922732E+02  0.00000000000E+00 0.  1.
</event>
<event>
 7    1  0.2489154E-013  0.7246164E+02  0.7816164E-02  0.1226708E+00
        -11   -1    0    0    0    0  0.00000000000E+00  0.00000000000E+00  0.45593999997E+02  0.45594000000E+02  0.51100000000E-03 0.  1.
         11   -1    0    0    0    0 -0.00000000000E+00 -0.00000000000E+00 -0.45593999997E+02  0.45594000000E+02  0.51100000000E-03 0. -1.
    9900012    2    1    2    0    0 -0.15289914866E+02 -0.27589710892E+01 -0.10453850970E+02  0.72461643756E+02  0.70000095697E+02 0.  0.
        -12    1    1    2    0    0  0.15289914866E+02  0.27589710892E+01  0.10453850970E+02  0.18726356244E+02  0.00000000000E+00 0.  1.
         11    1    3    3    0    0  0.79833341148E+01 -0.80188748873E+01  0.12269754822E+02  0.16690801709E+02  0.51100000000E-03 0. -1.
        -11    1    3    3    0    0 -0.28117815942E+01 -0.69903360530E+01  0.11686247496E+02  0.13904650109E+02  0.51100000000E-03 0.  1.
         12    1    3    3    0    0 -0.20461467386E+02  0.12250239851E+02 -0.34409853288E+02  0.41866191937E+02  0.00000000000E+00 0. -1.
</event>
<event>
 7    1  0.2489154E-013  0.7246152E+02  0.7816164E-02  0.1226708E+00
        -11   -1    0    0    0    0  0.00000000000E+00  0.00000000000E+00  0.45593999997E+02  0.45594000000E+02  0.51100000000E-03 0. -1.
         11   -1    0    0    0    0 -0.00000000000E+00 -0.00000000000E+00 -0.45593999997E+02  0.45594000000E+02  0.51100000000E-03 0.  1.
    9900012    2    1    2    0    0 -0.81639853124E+01 -0.16795513980E+02 -0.13932347044E+01  0.72461520113E+02  0.69999934629E+02 0.  0.
        -12    1    1    2    0    0  0.81639853124E+01  0.16795513980E+02  0.13932347044E+01  0.18726479887E+02  0.00000000000E+00 0.  1.
         11    1    3    3    0    0  0.43389150054E+01 -0.15380837707E+02  0.17618641259E+02  0.23786821394E+02  0.51100000000E-03 0. -1.
        -11    1    3    3    0    0 -0.25823176033E+01 -0.69030681991E+01  0.12873295230E+02  0.14833827729E+02  0.51100000000E-03 0.  1.
        -12    1    3    3    0    0 -0.99205827145E+01  0.54883919257E+01 -0.31885171193E+02  0.33840870989E+02  0.00000000000E+00 0.  1.
</event>
<event>
 7    1  0.2489154E-013  0.7246152E+02  0.7816164E-02  0.1226708E+00
        -11   -1    0    0    0    0  0.00000000000E+00  0.00000000000E+00  0.45593999997E+02  0.45594000000E+02  0.51100000000E-03 0.  1.
         11   -1    0    0    0    0 -0.00000000000E+00 -0.00000000000E+00 -0.45593999997E+02  0.45594000000E+02  0.51100000000E-03 0. -1.
    9900012    2    1    2    0    0  0.28791265496E+01 -0.24138062151E+01  0.18345718858E+02  0.72461515264E+02  0.69999928313E+02 0.  0.
        -12    1    1    2    0    0 -0.28791265496E+01  0.24138062151E+01 -0.18345718858E+02  0.18726484736E+02  0.00000000000E+00 0.  1.
         11    1    3    3    0    0  0.51577291528E+01  0.38057212198E+01 -0.18249898115E+01  0.66645534051E+01  0.51100000000E-03 0. -1.
        -11    1    3    3    0    0  0.14955404611E+02 -0.27348510631E+02  0.22482955501E+02  0.38432908414E+02  0.51100000000E-03 0.  1.
         12    1    3    3    0    0 -0.17234007215E+02  0.21128983196E+02 -0.23122468310E+01  0.27364053446E+02  0.00000000000E+00 0. -1.
</event>
<event>
 7    1  0.2489154E-013  0.7246160E+02  0.7816164E-02  0.1226708E+00
        -11   -1    0    0    0    0  0.00000000000E+00  0.00000000000E+00  0.45593999997E+02  0.45594000000E+02  0.51100000000E-03 0.  1.
         11   -1    0    0    0    0 -0.00000000000E+00 -0.00000000000E+00 -0.45593999997E+02  0.45594000000E+02  0.51100000000E-03 0. -1.
    9900012    2    1    2    0    0  0.18089350334E+02  0.46493461067E+01  0.13553273796E+01  0.72461603470E+02  0.70000043217E+02 0.  0.
        -12    1    1    2    0    0 -0.18089350334E+02 -0.46493461067E+01 -0.13553273796E+01  0.18726396530E+02  0.00000000000E+00 0.  1.
         11    1    3    3    0    0 -0.32004797235E+01 -0.11621681607E+02  0.22598320870E+02  0.25612314621E+02  0.51100000000E-03 0. -1.
        -11    1    3    3    0    0  0.95772291904E+01 -0.86601746203E+01 -0.15856970563E+01  0.13009088317E+02  0.51100000000E-03 0.  1.
        -12    1    3    3    0    0  0.11712600867E+02  0.24931202334E+02 -0.19657296434E+02  0.33840200531E+02  0.00000000000E+00 0.  1.
</event>
<event>
 7    1  0.2489154E-013  0.7246157E+02  0.7816164E-02  0.1226708E+00
        -11   -1    0    0    0    0  0.00000000000E+00  0.00000000000E+00  0.45593999997E+02  0.45594000000E+02  0.51100000000E-03 0. -1.
         11   -1    0    0    0    0 -0.00000000000E+00 -0.00000000000E+00 -0.45593999997E+02  0.45594000000E+02  0.51100000000E-03 0.  1.
    9900012    2    1    2    0    0 -0.93861457035E+01  0.83333317927E+01  0.13897299533E+02  0.72461572571E+02  0.70000002966E+02 0.  0.
        -12    1    1    2    0    0  0.93861457035E+01 -0.83333317927E+01 -0.13897299533E+02  0.18726427429E+02  0.00000000000E+00 0.  1.
         11    1    3    3    0    0 -0.20797105111E+02 -0.17257823275E+01  0.84104344925E+00  0.20885527524E+02  0.51100000000E-03 0. -1.
        -11    1    3    3    0    0  0.10119469499E+02 -0.45348979799E+01 -0.15747578570E+02  0.19260197136E+02  0.51100000000E-03 0.  1.
         12    1    3    3    0    0  0.12914899077E+01  0.14594012100E+02  0.28803834654E+02  0.32315847910E+02  0.00000000000E+00 0. -1.
</event>
<event>
 7    1  0.2489154E-013  0.7246158E+02  0.7816164E-02  0.1226708E+00
        -11   -1    0    0    0    0  0.00000000000E+00  0.00000000000E+00  0.45593999997E+02  0.45594000000E+02  0.51100000000E-03 0. -1.
         11   -1    0    0    0    0 -0.00000000000E+00 -0.00000000000E+00 -0.45593999997E+02  0.45594000000E+02  0.51100000000E-03 0.  1.
    9900012    2    1    2    0    0 -0.39127091902E+01 -0.11911209619E+02  0.13910159904E+02  0.72461581326E+02  0.70000014371E+02 0.  0.
        -12    1    1    2    0    0  0.39127091902E+01  0.11911209619E+02 -0.13910159904E+02  0.18726418674E+02  0.00000000000E+00 0.  1.
         11    1    3    3    0    0  0.24457675537E+02 -0.10269025453E+02 -0.16685889096E+01  0.26578468083E+02  0.51100000000E-03 0. -1.
        -11    1    3    3    0    0  0.49889529132E+01  0.68500802504E+01  0.51426517328E+01  0.99126241588E+01  0.51100000000E-03 0.  1.
        -12    1    3    3    0    0 -0.33359337640E+02 -0.84922644159E+01  0.10436097080E+02  0.35970489085E+02  0.00000000000E+00 0.  1.
</event>
<event>
 7    1  0.2489154E-013  0.7246156E+02  0.7816164E-02  0.1226708E+00
        -11   -1    0    0    0    0  0.00000000000E+00  0.00000000000E+00  0.45593999997E+02  0.45594000000E+02  0.51100000000E-03 0.  1.
         11   -1    0    0    0    0 -0.00000000000E+00 -0.00000000000E+00 -0.45593999997E+02  0.45594000000E+02  0.51100000000E-03 0. -1.
    9900012    2    1    2    0    0  0.18578553233E+02  0.23261566645E+01 -0.32534908519E+00  0.72461561548E+02  0.69999988606E+02 0.  0.
        -12    1    1    2    0    0 -0.18578553233E+02 -0.23261566645E+01  0.32534908519E+00  0.18726438452E+02  0.00000000000E+00 0.  1.
         11    1    3    3    0    0  0.18797408464E+02 -0.16777021561E+02 -0.88209747477E+01  0.26694954827E+02  0.51100000000E-03 0. -1.
        -11    1    3    3    0    0  0.18257763769E+02  0.27862764195E+01 -0.27495397992E+01  0.18672687099E+02  0.51100000000E-03 0.  1.
        -12    1    3    3    0    0 -0.18476619000E+02  0.16316901806E+02  0.11245165462E+02  0.27093919622E+02  0.00000000000E+00 0.  1.
</event>
<event>
 7    1  0.2489154E-013  0.7246158E+02  0.7816164E-02  0.1226708E+00
        -11   -1    0    0    0    0  0.00000000000E+00  0.00000000000E+00  0.45593999997E+02  0.45594000000E+02  0.51100000000E-03 0. -1.
         11   -1    0    0    0    0 -0.00000000000E+00 -0.00000000000E+00 -0.45593999997E+02  0.45594000000E+02  0.51100000000E-03 0.  1.
    9900012    2    1    2    0    0  0.79192692913E+01 -0.49318800282E+01  0.16237006610E+02  0.72461584156E+02  0.70000018057E+02 0.  0.
        -12    1    1    2    0    0 -0.79192692913E+01  0.49318800282E+01 -0.16237006610E+02  0.18726415844E+02  0.00000000000E+00 0.  1.
         11    1    3    3    0    0  0.13387273832E+01 -0.19154255899E+02  0.28917058194E+02  0.34711294486E+02  0.51100000000E-03 0. -1.
        -11    1    3    3    0    0  0.64097106382E+01 -0.88640596179E+01 -0.94168526424E+01  0.14433747169E+02  0.51100000000E-03 0.  1.
        -12    1    3    3    0    0  0.17083126992E+00  0.23086435488E+02 -0.32631989420E+01  0.23316542501E+02  0.00000000000E+00 0.  1.
</event>
<event>
 7    1  0.2489154E-013  0.7246152E+02  0.7816164E-02  0.1226708E+00
        -11   -1    0    0    0    0  0.00000000000E+00  0.00000000000E+00  0.45593999997E+02  0.45594000000E+02  0.51100000000E-03 0. -1.
         11   -1    0    0    0    0 -0.00000000000E+00 -0.00000000000E+00 -0.45593999997E+02  0.45594000000E+02  0.51100000000E-03 0.  1.
    9900012    2    1    2    0    0  0.20678417231E+01  0.12534166961E+02  0.13758626140E+02  0.72461518642E+02  0.69999932714E+02 0.  0.
        -12    1    1    2    0    0 -0.20678417231E+01 -0.12534166961E+02 -0.13758626140E+02  0.18726481358E+02  0.00000000000E+00 0.  1.
         11    1    3    3    0    0 -0.10632696849E+02  0.37709230799E+02  0.11144679110E+02  0.40733821359E+02  0.51100000000E-03 0. -1.
        -11    1    3    3    0    0  0.54809555911E+01 -0.77484474935E+01 -0.57464224137E+01  0.11095074744E+02  0.51100000000E-03 0.  1.
        -12    1    3    3    0    0  0.72195829814E+01 -0.17426616345E+02  0.83603694429E+01  0.20632622540E+02  0.00000000000E+00 0.  1.
</event>
<event>
 7    1  0.2489154E-013  0.7246140E+02  0.7816164E-02  0.1226708E+00
        -11   -1    0    0    0    0  0.00000000000E+00  0.00000000000E+00  0.45593999997E+02  0.45594000000E+02  0.51100000000E-03 0. -1.
         11   -1    0    0    0    0 -0.00000000000E+00 -0.00000000000E+00 -0.45593999997E+02  0.45594000000E+02  0.51100000000E-03 0.  1.
    9900012    2    1    2    0    0 -0.27551769161E+01  0.17892567856E+02  0.47906678397E+01  0.72461401733E+02  0.69999780417E+02 0.  0.
        -12    1    1    2    0    0  0.27551769161E+01 -0.17892567856E+02 -0.47906678397E+01  0.18726598267E+02  0.00000000000E+00 0.  1.
         11    1    3    3    0    0  0.22350627909E+02  0.38818474678E+00  0.12613021996E+02  0.25666896568E+02  0.51100000000E-03 0. -1.
        -11    1    3    3    0    0 -0.18330038113E+01  0.21394524909E+02  0.12632500145E+01  0.21510030217E+02  0.51100000000E-03 0.  1.
        -12    1    3    3    0    0 -0.23272801014E+02 -0.38901418002E+01 -0.90856041711E+01  0.25284474948E+02  0.00000000000E+00 0.  1.
</event>
<event>
 7    1  0.2489154E-013  0.7246103E+02  0.7816164E-02  0.1226709E+00
        -11   -1    0    0    0    0  0.00000000000E+00  0.00000000000E+00  0.45593999997E+02  0.45594000000E+02  0.51100000000E-03 0.  1.
         11   -1    0    0    0    0 -0.00000000000E+00 -0.00000000000E+00 -0.45593999997E+02  0.45594000000E+02  0.51100000000E-03 0. -1.
    9900012    2    1    2    0    0 -0.12990709889E+02  0.12788351746E+02  0.42893895424E+01  0.72461031574E+02  0.69999298213E+02 0.  0.
        -12    1    1    2    0    0  0.12990709889E+02 -0.12788351746E+02 -0.42893895424E+01  0.18726968426E+02  0.00000000000E+00 0.  1.
         11    1    3    3    0    0  0.35689593728E+01  0.58043226485E+00 -0.10119407372E+02  0.10746012211E+02  0.51100000000E-03 0. -1.
        -11    1    3    3    0    0  0.19112991267E+00 -0.21595435754E+02  0.97748441498E+01  0.23705420360E+02  0.51100000000E-03 0.  1.
         12    1    3    3    0    0 -0.16750799174E+02  0.33803355234E+02  0.46339527649E+01  0.38009599002E+02  0.00000000000E+00 0. -1.
</event>
<event>
 7    1  0.2489154E-013  0.7246152E+02  0.7816164E-02  0.1226708E+00
        -11   -1    0    0    0    0  0.00000000000E+00  0.00000000000E+00  0.45593999997E+02  0.45594000000E+02  0.51100000000E-03 0.  1.
         11   -1    0    0    0    0 -0.00000000000E+00 -0.00000000000E+00 -0.45593999997E+02  0.45594000000E+02  0.51100000000E-03 0. -1.
    9900012    2    1    2    0    0 -0.32692274665E+01 -0.13871683468E+02 -0.12147821547E+02  0.72461520918E+02  0.69999935678E+02 0.  0.
        -12    1    1    2    0    0  0.32692274665E+01  0.13871683468E+02  0.12147821547E+02  0.18726479082E+02  0.00000000000E+00 0.  1.
         11    1    3    3    0    0 -0.11013275402E+02  0.32586732717E+01 -0.38050370334E+01  0.12099152601E+02  0.51100000000E-03 0. -1.
        -11    1    3    3    0    0  0.53601298895E+00  0.14286856499E+02  0.14879464650E+02  0.20634922996E+02  0.51100000000E-03 0.  1.
         12    1    3    3    0    0  0.72080349462E+01 -0.31417213239E+02 -0.23222249163E+02  0.39727445321E+02  0.00000000000E+00 0. -1.
</event>
<event>
 7    1  0.2489154E-013  0.7246158E+02  0.7816164E-02  0.1226708E+00
        -11   -1    0    0    0    0  0.00000000000E+00  0.00000000000E+00  0.45593999997E+02  0.45594000000E+02  0.51100000000E-03 0.  1.
         11   -1    0    0    0    0 -0.00000000000E+00 -0.00000000000E+00 -0.45593999997E+02  0.45594000000E+02  0.51100000000E-03 0. -1.
    9900012    2    1    2    0    0  0.17309068298E+02 -0.58701717814E+01  0.40762564393E+01  0.72461584736E+02  0.70000018813E+02 0.  0.
        -12    1    1    2    0    0 -0.17309068298E+02  0.58701717814E+01 -0.40762564393E+01  0.18726415264E+02  0.00000000000E+00 0.  1.
         11    1    3    3    0    0  0.46667244648E+01 -0.58834223854E+01 -0.23814526310E+02  0.24970475362E+02  0.51100000000E-03 0. -1.
        -11    1    3    3    0    0  0.51935488245E+01 -0.50126981077E+01 -0.78347365592E+01  0.10652848864E+02  0.51100000000E-03 0.  1.
        -12    1    3    3    0    0  0.74487950085E+01  0.50259487117E+01  0.35725519308E+02  0.36838260510E+02  0.00000000000E+00 0.  1.
</event>
<event>
 7    1  0.2489154E-013  0.7246157E+02  0.7816164E-02  0.1226708E+00
        -11   -1    0    0    0    0  0.00000000000E+00  0.00000000000E+00  0.45593999997E+02  0.45594000000E+02  0.51100000000E-03 0.  1.
         11   -1    0    0    0    0 -0.00000000000E+00 -0.00000000000E+00 -0.45593999997E+02  0.45594000000E+02  0.51100000000E-03 0. -1.
    9900012    2    1    2    0    0 -0.11852058993E+02  0.13670407412E+02  0.48299031377E+01  0.72461566664E+02  0.69999995271E+02 0.  0.
        -12    1    1    2    0    0  0.11852058993E+02 -0.13670407412E+02 -0.48299031377E+01  0.18726433336E+02  0.00000000000E+00 0.  1.
         11    1    3    3    0    0 -0.74072151844E+01 -0.13705656380E+02  0.24045440434E+01  0.15763682499E+02  0.51100000000E-03 0. -1.
        -11    1    3    3    0    0 -0.13397763294E+02 -0.10905837988E+02  0.18999712278E+01  0.17379506737E+02  0.51100000000E-03 0.  1.
        -12    1    3    3    0    0  0.89529194858E+01  0.38281901780E+02  0.52538786657E+00  0.39318377428E+02  0.00000000000E+00 0.  1.
</event>
<event>
 7    1  0.2489154E-013  0.7246156E+02  0.7816164E-02  0.1226708E+00
        -11   -1    0    0    0    0  0.00000000000E+00  0.00000000000E+00  0.45593999997E+02  0.45594000000E+02  0.51100000000E-03 0.  1.
         11   -1    0    0    0    0 -0.00000000000E+00 -0.00000000000E+00 -0.45593999997E+02  0.45594000000E+02  0.51100000000E-03 0. -1.
    9900012    2    1    2    0    0  0.11530677746E+01 -0.17588670844E+02 -0.63236651915E+01  0.72461557498E+02  0.69999983330E+02 0.  0.
        -12    1    1    2    0    0 -0.11530677746E+01  0.17588670844E+02  0.63236651915E+01  0.18726442502E+02  0.00000000000E+00 0.  1.
         11    1    3    3    0    0  0.52794878766E+01 -0.53102107362E+01  0.17145927978E+02  0.18709734814E+02  0.51100000000E-03 0.  1.
        -11    1    3    3    0    0  0.15746150830E+02  0.62946829109E+01  0.12405749144E+01  0.17003038707E+02  0.51100000000E-03 0. -1.
         12    1    3    3    0    0 -0.19872570932E+02 -0.18573143018E+02 -0.24710168084E+02  0.36748783977E+02  0.00000000000E+00 0. -1.
</event>
<event>
 7    1  0.2489154E-013  0.7246158E+02  0.7816164E-02  0.1226708E+00
        -11   -1    0    0    0    0  0.00000000000E+00  0.00000000000E+00  0.45593999997E+02  0.45594000000E+02  0.51100000000E-03 0.  1.
         11   -1    0    0    0    0 -0.00000000000E+00 -0.00000000000E+00 -0.45593999997E+02  0.45594000000E+02  0.51100000000E-03 0. -1.
    9900012    2    1    2    0    0 -0.15535902269E+02 -0.89895805711E+01  0.53387385713E+01  0.72461576217E+02  0.70000007716E+02 0.  0.
        -12    1    1    2    0    0  0.15535902269E+02  0.89895805711E+01 -0.53387385713E+01  0.18726423783E+02  0.00000000000E+00 0.  1.
         11    1    3    3    0    0 -0.17267539534E+02  0.20706591036E+02  0.13655546346E+02  0.30222587251E+02  0.51100000000E-03 0. -1.
        -11    1    3    3    0    0 -0.46805597023E+01  0.13257352482E+01  0.57898952601E+01  0.75622814322E+01  0.51100000000E-03 0.  1.
        -12    1    3    3    0    0  0.64121969670E+01 -0.31021906855E+02 -0.14106703035E+02  0.34676707534E+02  0.00000000000E+00 0.  1.
</event>
<event>
 7    1  0.2489154E-013  0.7246159E+02  0.7816164E-02  0.1226708E+00
        -11   -1    0    0    0    0  0.00000000000E+00  0.00000000000E+00  0.45593999997E+02  0.45594000000E+02  0.51100000000E-03 0. -1.
         11   -1    0    0    0    0 -0.00000000000E+00 -0.00000000000E+00 -0.45593999997E+02  0.45594000000E+02  0.51100000000E-03 0.  1.
    9900012    2    1    2    0    0  0.10803336415E+02 -0.12885513212E+02 -0.82419697226E+01  0.72461585678E+02  0.70000020041E+02 0.  0.
        -12    1    1    2    0    0 -0.10803336415E+02  0.12885513212E+02  0.82419697226E+01  0.18726414322E+02  0.00000000000E+00 0.  1.
         11    1    3    3    0    0  0.12241477783E+02  0.21166264371E+00  0.16209710272E+02  0.20313869320E+02  0.51100000000E-03 0. -1.
        -11    1    3    3    0    0  0.58962641452E+01  0.15459640491E+02 -0.97001225739E+01  0.19179645283E+02  0.51100000000E-03 0.  1.
         12    1    3    3    0    0 -0.73344055130E+01 -0.28556816347E+02 -0.14751557421E+02  0.32968071075E+02  0.00000000000E+00 0. -1.
</event>
<event>
 7    1  0.2489154E-013  0.7246157E+02  0.7816164E-02  0.1226708E+00
        -11   -1    0    0    0    0  0.00000000000E+00  0.00000000000E+00  0.45593999997E+02  0.45594000000E+02  0.51100000000E-03 0. -1.
         11   -1    0    0    0    0 -0.00000000000E+00 -0.00000000000E+00 -0.45593999997E+02  0.45594000000E+02  0.51100000000E-03 0.  1.
    9900012    2    1    2    0    0 -0.11613020977E+02 -0.67648074961E+01  0.13040488839E+02  0.72461568791E+02  0.69999998042E+02 0.  0.
        -12    1    1    2    0    0  0.11613020977E+02  0.67648074961E+01 -0.13040488839E+02  0.18726431209E+02  0.00000000000E+00 0.  1.
         11    1    3    3    0    0 -0.28932483234E+02  0.13472512159E+02  0.41367533923E+01  0.32182447061E+02  0.51100000000E-03 0. -1.
        -11    1    3    3    0    0 -0.63133453094E+01 -0.47781166107E+01 -0.44047021890E+01  0.90603603116E+01  0.51100000000E-03 0.  1.
        -12    1    3    3    0    0  0.23632807567E+02 -0.15459203044E+02  0.13308437635E+02  0.31218761419E+02  0.00000000000E+00 0.  1.
</event>
<event>
 7    1  0.2489154E-013  0.7246170E+02  0.7816164E-02  0.1226708E+00
        -11   -1    0    0    0    0  0.00000000000E+00  0.00000000000E+00  0.45593999997E+02  0.45594000000E+02  0.51100000000E-03 0.  1.
         11   -1    0    0    0    0 -0.00000000000E+00 -0.00000000000E+00 -0.45593999997E+02  0.45594000000E+02  0.51100000000E-03 0. -1.
    9900012    2    1    2    0    0  0.44045363309E+01 -0.27294126197E+01 -0.17995127351E+02  0.72461701863E+02  0.70000171393E+02 0.  0.
        -12    1    1    2    0    0 -0.44045363309E+01  0.27294126197E+01  0.17995127351E+02  0.18726298137E+02  0.00000000000E+00 0.  1.
         11    1    3    3    0    0 -0.79142557147E+00  0.12964708618E+01  0.17072851438E+01  0.22851726311E+01  0.51100000000E-03 0. -1.
        -11    1    3    3    0    0 -0.49819653180E+01  0.28894127418E+02  0.21085472873E+01  0.29396199577E+02  0.51100000000E-03 0.  1.
         12    1    3    3    0    0  0.10177927220E+02 -0.32920010899E+02 -0.21810959782E+02  0.40780329654E+02  0.00000000000E+00 0. -1.
</event>
<event>
 7    1  0.2489154E-013  0.7246140E+02  0.7816164E-02  0.1226708E+00
        -11   -1    0    0    0    0  0.00000000000E+00  0.00000000000E+00  0.45593999997E+02  0.45594000000E+02  0.51100000000E-03 0. -1.
         11   -1    0    0    0    0 -0.00000000000E+00 -0.00000000000E+00 -0.45593999997E+02  0.45594000000E+02  0.51100000000E-03 0.  1.
    9900012    2    1    2    0    0 -0.56245823187E+01 -0.82096335239E+01  0.15863522948E+02  0.72461404763E+02  0.69999784364E+02 0.  0.
        -12    1    1    2    0    0  0.56245823187E+01  0.82096335239E+01 -0.15863522948E+02  0.18726595237E+02  0.00000000000E+00 0.  1.
         11    1    3    3    0    0  0.98177451132E+01  0.15564367523E+02  0.14196790854E+02  0.23241913138E+02  0.51100000000E-03 0. -1.
        -11    1    3    3    0    0  0.11139798777E+02 -0.60941454008E+01 -0.89956125377E+01  0.15561322892E+02  0.51100000000E-03 0.  1.
        -12    1    3    3    0    0 -0.26582126208E+02 -0.17679855646E+02  0.10662344632E+02  0.33658168733E+02  0.00000000000E+00 0.  1.
</event>
<event>
 7    1  0.2489154E-013  0.7246158E+02  0.7816164E-02  0.1226708E+00
        -11   -1    0    0    0    0  0.00000000000E+00  0.00000000000E+00  0.45593999997E+02  0.45594000000E+02  0.51100000000E-03 0. -1.
         11   -1    0    0    0    0 -0.00000000000E+00 -0.00000000000E+00 -0.45593999997E+02  0.45594000000E+02  0.51100000000E-03 0.  1.
    9900012    2    1    2    0    0  0.41569604814E+01  0.23091206873E+01  0.18112609659E+02  0.72461575156E+02  0.70000006333E+02 0.  0.
        -12    1    1    2    0    0 -0.41569604814E+01 -0.23091206873E+01 -0.18112609659E+02  0.18726424844E+02  0.00000000000E+00 0.  1.
         11    1    3    3    0    0  0.15004319312E+01  0.67410746667E+01  0.39529990235E+01  0.79573604407E+01  0.51100000000E-03 0. -1.
        -11    1    3    3    0    0  0.25241878275E+02  0.11253567172E+02 -0.84552562401E+01  0.28901324386E+02  0.51100000000E-03 0.  1.
         12    1    3    3    0    0 -0.22585349725E+02 -0.15685521151E+02  0.22614866875E+02  0.35602890329E+02  0.00000000000E+00 0. -1.
</event>
<event>
 7    1  0.2489154E-013  0.7246159E+02  0.7816164E-02  0.1226708E+00
        -11   -1    0    0    0    0  0.00000000000E+00  0.00000000000E+00  0.45593999997E+02  0.45594000000E+02  0.51100000000E-03 0. -1.
         11   -1    0    0    0    0 -0.00000000000E+00 -0.00000000000E+00 -0.45593999997E+02  0.45594000000E+02  0.51100000000E-03 0.  1.
    9900012    2    1    2    0    0  0.13862241325E+02 -0.78920261039E+01  0.98098204654E+01  0.72461591157E+02  0.70000027178E+02 0.  0.
        -12    1    1    2    0    0 -0.13862241325E+02  0.78920261039E+01 -0.98098204654E+01  0.18726408843E+02  0.00000000000E+00 0.  1.
         11    1    3    3    0    0  0.15006504045E+01 -0.34576578537E+01  0.16876463817E+01  0.41298305099E+01  0.51100000000E-03 0. -1.
        -11    1    3    3    0    0  0.19727244882E+02 -0.30856385137E+02 -0.65809919487E+01  0.37210081290E+02  0.51100000000E-03 0.  1.
         12    1    3    3    0    0 -0.73656539606E+01  0.26422016887E+02  0.14703166032E+02  0.31121679357E+02  0.00000000000E+00 0. -1.
</event>
<event>
 7    1  0.2489154E-013  0.7246184E+02  0.7816164E-02  0.1226707E+00
        -11   -1    0    0    0    0  0.00000000000E+00  0.00000000000E+00  0.45593999997E+02  0.45594000000E+02  0.51100000000E-03 0.  1.
         11   -1    0    0    0    0 -0.00000000000E+00 -0.00000000000E+00 -0.45593999997E+02  0.45594000000E+02  0.51100000000E-03 0. -1.
    9900012    2    1    2    0    0  0.20284182744E+01 -0.10211945467E+02 -0.15565047446E+02  0.72461841481E+02  0.70000353269E+02 0.  0.
        -12    1    1    2    0    0 -0.20284182744E+01  0.10211945467E+02  0.15565047446E+02  0.18726158519E+02  0.00000000000E+00 0.  1.
         11    1    3    3    0    0 -0.63197724140E+01 -0.31627260087E+01 -0.20141392821E+00  0.70698604655E+01  0.51100000000E-03 0. -1.
        -11    1    3    3    0    0  0.19449975604E+02 -0.85475263006E+01  0.19460117793E+02  0.28810726156E+02  0.51100000000E-03 0.  1.
         12    1    3    3    0    0 -0.11101784916E+02  0.14983068424E+01 -0.34823751310E+02  0.36581254859E+02  0.00000000000E+00 0. -1.
</event>
<event>
 7    1  0.2489154E-013  0.7246161E+02  0.7816164E-02  0.1226708E+00
        -11   -1    0    0    0    0  0.00000000000E+00  0.00000000000E+00  0.45593999997E+02  0.45594000000E+02  0.51100000000E-03 0. -1.
         11   -1    0    0    0    0 -0.00000000000E+00 -0.00000000000E+00 -0.45593999997E+02  0.45594000000E+02  0.51100000000E-03 0.  1.
    9900012    2    1    2    0    0 -0.11819543701E+02  0.13933031409E+02  0.41044764478E+01  0.72461609412E+02  0.70000050958E+02 0.  0.
        -12    1    1    2    0    0  0.11819543701E+02 -0.13933031409E+02 -0.41044764478E+01  0.18726390588E+02  0.00000000000E+00 0.  1.
         11    1    3    3    0    0 -0.59134252155E+01  0.29085042000E+02 -0.14234158683E+02  0.32916857985E+02  0.51100000000E-03 0. -1.
        -11    1    3    3    0    0  0.11070899269E+02 -0.31326817074E+00  0.11538528578E+02  0.15993767210E+02  0.51100000000E-03 0.  1.
         12    1    3    3    0    0 -0.16977017754E+02 -0.14838742420E+02  0.68001065532E+01  0.23550984217E+02  0.00000000000E+00 0. -1.
</event>
<event>
 7    1  0.2489154E-013  0.7246159E+02  0.7816164E-02  0.1226708E+00
        -11   -1    0    0    0    0  0.00000000000E+00  0.00000000000E+00  0.45593999997E+02  0.45594000000E+02  0.51100000000E-03 0.  1.
         11   -1    0    0    0    0 -0.00000000000E+00 -0.00000000000E+00 -0.45593999997E+02  0.45594000000E+02  0.51100000000E-03 0. -1.
    9900012    2    1    2    0    0 -0.17222583314E+02  0.36431043693E+01 -0.63866284485E+01  0.72461585277E+02  0.70000019517E+02 0.  0.
        -12    1    1    2    0    0  0.17222583314E+02 -0.36431043693E+01  0.63866284485E+01  0.18726414723E+02  0.00000000000E+00 0.  1.
         11    1    3    3    0    0  0.10562494017E+02  0.24566736547E+01 -0.81824974865E+01  0.13585094431E+02  0.51100000000E-03 0. -1.
        -11    1    3    3    0    0  0.60641436902E+01 -0.17172514685E+02 -0.67672515782E+01  0.19428453194E+02  0.51100000000E-03 0.  1.
        -12    1    3    3    0    0 -0.33849221021E+02  0.18358945400E+02  0.85631206162E+01  0.39448037653E+02  0.00000000000E+00 0.  1.
</event>
<event>
 7    1  0.2489154E-013  0.7246157E+02  0.7816164E-02  0.1226708E+00
        -11   -1    0    0    0    0  0.00000000000E+00  0.00000000000E+00  0.45593999997E+02  0.45594000000E+02  0.51100000000E-03 0. -1.
         11   -1    0    0    0    0 -0.00000000000E+00 -0.00000000000E+00 -0.45593999997E+02  0.45594000000E+02  0.51100000000E-03 0.  1.
    9900012    2    1    2    0    0  0.64225078993E+01 -0.13294949146E+02  0.11518454066E+02  0.72461573096E+02  0.70000003650E+02 0.  0.
        -12    1    1    2    0    0 -0.64225078993E+01  0.13294949146E+02 -0.11518454066E+02  0.18726426904E+02  0.00000000000E+00 0.  1.
         11    1    3    3    0    0  0.17470322343E+02  0.25634012848E+01  0.17333899080E+00  0.17658234214E+02  0.51100000000E-03 0. -1.
        -11    1    3    3    0    0  0.16755348390E+02 -0.15514057240E+02  0.14139442003E+02  0.26857987492E+02  0.51100000000E-03 0.  1.
        -12    1    3    3    0    0 -0.27803162833E+02 -0.34429319001E+00 -0.27943269269E+01  0.27945351390E+02  0.00000000000E+00 0.  1.
</event>
<event>
 7    1  0.2489154E-013  0.7246130E+02  0.7816164E-02  0.1226709E+00
        -11   -1    0    0    0    0  0.00000000000E+00  0.00000000000E+00  0.45593999997E+02  0.45594000000E+02  0.51100000000E-03 0. -1.
         11   -1    0    0    0    0 -0.00000000000E+00 -0.00000000000E+00 -0.45593999997E+02  0.45594000000E+02  0.51100000000E-03 0.  1.
    9900012    2    1    2    0    0  0.13184835488E+02 -0.12231738750E+01  0.13242105076E+02  0.72461297460E+02  0.69999644582E+02 0.  0.
        -12    1    1    2    0    0 -0.13184835488E+02  0.12231738750E+01 -0.13242105076E+02  0.18726702540E+02  0.00000000000E+00 0.  1.
         11    1    3    3    0    0  0.17332324726E+02  0.11859435938E+02 -0.86500030344E+00  0.21019132403E+02  0.51100000000E-03 0. -1.
        -11    1    3    3    0    0  0.10265263448E+02  0.90548390777E+01 -0.89703766714E+01  0.16365616465E+02  0.51100000000E-03 0.  1.
         12    1    3    3    0    0 -0.14412752686E+02 -0.22137448891E+02  0.23077482051E+02  0.35076548593E+02  0.00000000000E+00 0. -1.
</event>
<event>
 7    1  0.2489154E-013  0.7246160E+02  0.7816164E-02  0.1226708E+00
        -11   -1    0    0    0    0  0.00000000000E+00  0.00000000000E+00  0.45593999997E+02  0.45594000000E+02  0.51100000000E-03 0.  1.
         11   -1    0    0    0    0 -0.00000000000E+00 -0.00000000000E+00 -0.45593999997E+02  0.45594000000E+02  0.51100000000E-03 0. -1.
    9900012    2    1    2    0    0 -0.13370784823E+02 -0.59981403393E+01 -0.11658585747E+02  0.72461596289E+02  0.70000033863E+02 0.  0.
        -12    1    1    2    0    0  0.13370784823E+02  0.59981403393E+01  0.11658585747E+02  0.18726403711E+02  0.00000000000E+00 0.  1.
         11    1    3    3    0    0  0.16089831455E+02  0.21823395667E+01  0.10914191803E+02  0.19564377455E+02  0.51100000000E-03 0. -1.
        -11    1    3    3    0    0 -0.10462089513E+02 -0.15451382536E+02  0.43431049127E+01  0.19158890881E+02  0.51100000000E-03 0.  1.
         12    1    3    3    0    0 -0.18998526766E+02  0.72709026297E+01 -0.26915882463E+02  0.33738327953E+02  0.00000000000E+00 0. -1.
</event>
<event>
 7    1  0.2489154E-013  0.7246163E+02  0.7816164E-02  0.1226708E+00
        -11   -1    0    0    0    0  0.00000000000E+00  0.00000000000E+00  0.45593999997E+02  0.45594000000E+02  0.51100000000E-03 0.  1.
         11   -1    0    0    0    0 -0.00000000000E+00 -0.00000000000E+00 -0.45593999997E+02  0.45594000000E+02  0.51100000000E-03 0. -1.
    9900012    2    1    2    0    0  0.58389993934E+01  0.10883679155E+02  0.14075820204E+02  0.72461625543E+02  0.70000071972E+02 0.  0.
        -12    1    1    2    0    0 -0.58389993934E+01 -0.10883679155E+02 -0.14075820204E+02  0.18726374457E+02  0.00000000000E+00 0.  1.
         11    1    3    3    0    0 -0.42493560941E+01  0.28263763161E+02  0.21259293757E+02  0.35620989691E+02  0.51100000000E-03 0.  1.
        -11    1    3    3    0    0  0.92945829375E+01 -0.14527393973E+02  0.96406323953E+01  0.19757941210E+02  0.51100000000E-03 0. -1.
        -12    1    3    3    0    0  0.79377255000E+00 -0.28526900321E+01 -0.16824105948E+02  0.17082694642E+02  0.00000000000E+00 0.  1.
</event>
<event>
 7    1  0.2489154E-013  0.7246159E+02  0.7816164E-02  0.1226708E+00
        -11   -1    0    0    0    0  0.00000000000E+00  0.00000000000E+00  0.45593999997E+02  0.45594000000E+02  0.51100000000E-03 0.  1.
         11   -1    0    0    0    0 -0.00000000000E+00 -0.00000000000E+00 -0.45593999997E+02  0.45594000000E+02  0.51100000000E-03 0. -1.
    9900012    2    1    2    0    0 -0.18720310581E+02 -0.12191840771E-01  0.47791203914E+00  0.72461586120E+02  0.70000020615E+02 0.  0.
        -12    1    1    2    0    0  0.18720310581E+02  0.12191840771E-01 -0.47791203914E+00  0.18726413880E+02  0.00000000000E+00 0.  1.
         11    1    3    3    0    0  0.19822006059E+02  0.60743483768E+01  0.74807377077E+01  0.22040214821E+02  0.51100000000E-03 0. -1.
        -11    1    3    3    0    0 -0.12323197135E+02  0.12361341216E+02  0.63172825622E+00  0.17466053508E+02  0.51100000000E-03 0.  1.
        -12    1    3    3    0    0 -0.26219119505E+02 -0.18447881434E+02 -0.76345539248E+01  0.32955317791E+02  0.00000000000E+00 0.  1.
</event>
<event>
 7    1  0.2489154E-013  0.7246156E+02  0.7816164E-02  0.1226708E+00
        -11   -1    0    0    0    0  0.00000000000E+00  0.00000000000E+00  0.45593999997E+02  0.45594000000E+02  0.51100000000E-03 0.  1.
         11   -1    0    0    0    0 -0.00000000000E+00 -0.00000000000E+00 -0.45593999997E+02  0.45594000000E+02  0.51100000000E-03 0. -1.
    9900012    2    1    2    0    0  0.17745168083E+02 -0.45033343858E+01  0.39381023866E+01  0.72461557164E+02  0.69999982896E+02 0.  0.
        -12    1    1    2    0    0 -0.17745168083E+02  0.45033343858E+01 -0.39381023866E+01  0.18726442836E+02  0.00000000000E+00 0.  1.
         11    1    3    3    0    0  0.98334785066E+01 -0.77828352790E+01  0.34258011952E+02  0.36481244602E+02  0.51100000000E-03 0.  1.
        -11    1    3    3    0    0 -0.24085639890E+01 -0.53597496833E+01 -0.82111275870E+01  0.10097064607E+02  0.51100000000E-03 0. -1.
        -12    1    3    3    0    0  0.10320253565E+02  0.86392505765E+01 -0.22108781979E+02  0.25883247956E+02  0.00000000000E+00 0.  1.
</event>
<event>
 7    1  0.2489154E-013  0.7246161E+02  0.7816164E-02  0.1226708E+00
        -11   -1    0    0    0    0  0.00000000000E+00  0.00000000000E+00  0.45593999997E+02  0.45594000000E+02  0.51100000000E-03 0.  1.
         11   -1    0    0    0    0 -0.00000000000E+00 -0.00000000000E+00 -0.45593999997E+02  0.45594000000E+02  0.51100000000E-03 0. -1.
    9900012    2    1    2    0    0 -0.25497215766E+01 -0.18470983205E+02 -0.17318653394E+01  0.72461610646E+02  0.70000052565E+02 0.  0.
        -12    1    1    2    0    0  0.25497215766E+01  0.18470983205E+02  0.17318653394E+01  0.18726389354E+02  0.00000000000E+00 0.  1.
         11    1    3    3    0    0 -0.19287247405E+02 -0.26004992420E+02  0.12787084598E+02  0.34810444927E+02  0.51100000000E-03 0. -1.
        -11    1    3    3    0    0  0.22122704621E+01 -0.94315981123E+01  0.19748173942E+01  0.98868138221E+01  0.51100000000E-03 0.  1.
        -12    1    3    3    0    0  0.14525255367E+02  0.16965607327E+02 -0.16493767332E+02  0.27764351897E+02  0.00000000000E+00 0.  1.
</event>
<event>
 7    1  0.2489154E-013  0.7246158E+02  0.7816164E-02  0.1226708E+00
        -11   -1    0    0    0    0  0.00000000000E+00  0.00000000000E+00  0.45593999997E+02  0.45594000000E+02  0.51100000000E-03 0. -1.
         11   -1    0    0    0    0 -0.00000000000E+00 -0.00000000000E+00 -0.45593999997E+02  0.45594000000E+02  0.51100000000E-03 0.  1.
    9900012    2    1    2    0    0 -0.10587410347E+02 -0.10311250496E+02  0.11500591539E+02  0.72461581485E+02  0.70000014578E+02 0.  0.
        -12    1    1    2    0    0  0.10587410347E+02  0.10311250496E+02 -0.11500591539E+02  0.18726418515E+02  0.00000000000E+00 0.  1.
         11    1    3    3    0    0  0.18304715169E+02  0.29080887852E+01  0.37575564974E+01  0.18911340748E+02  0.51100000000E-03 0. -1.
        -11    1    3    3    0    0  0.89429080161E+01  0.36105784390E+01  0.73721464479E+01  0.12139210187E+02  0.51100000000E-03 0.  1.
        -12    1    3    3    0    0 -0.37835033532E+02 -0.16829917720E+02  0.37088859351E+00  0.41411030550E+02  0.00000000000E+00 0.  1.
</event>
<event>
 7    1  0.2489154E-013  0.7246154E+02  0.7816164E-02  0.1226708E+00
        -11   -1    0    0    0    0  0.00000000000E+00  0.00000000000E+00  0.45593999997E+02  0.45594000000E+02  0.51100000000E-03 0. -1.
         11   -1    0    0    0    0 -0.00000000000E+00 -0.00000000000E+00 -0.45593999997E+02  0.45594000000E+02  0.51100000000E-03 0.  1.
    9900012    2    1    2    0    0  0.76030525224E+01  0.14528888888E+02  0.90435153313E+01  0.72461543060E+02  0.69999964522E+02 0.  0.
        -12    1    1    2    0    0 -0.76030525224E+01 -0.14528888888E+02 -0.90435153313E+01  0.18726456940E+02  0.00000000000E+00 0.  1.
         11    1    3    3    0    0  0.86979829481E+01  0.19407854412E+02 -0.83965637106E+01  0.22865301280E+02  0.51100000000E-03 0. -1.
        -11    1    3    3    0    0  0.14856462879E+02 -0.43751144168E+01  0.26902984226E+02  0.31042336832E+02  0.51100000000E-03 0.  1.
        -12    1    3    3    0    0 -0.15951393304E+02 -0.50385110686E+00 -0.94629051846E+01  0.18553904948E+02  0.00000000000E+00 0.  1.
</event>
<event>
 7    1  0.2489154E-013  0.7246155E+02  0.7816164E-02  0.1226708E+00
        -11   -1    0    0    0    0  0.00000000000E+00  0.00000000000E+00  0.45593999997E+02  0.45594000000E+02  0.51100000000E-03 0.  1.
         11   -1    0    0    0    0 -0.00000000000E+00 -0.00000000000E+00 -0.45593999997E+02  0.45594000000E+02  0.51100000000E-03 0. -1.
    9900012    2    1    2    0    0 -0.16770312190E+02  0.44765189007E+01  0.70283190262E+01  0.72461551838E+02  0.69999975957E+02 0.  0.
        -12    1    1    2    0    0  0.16770312190E+02 -0.44765189007E+01 -0.70283190262E+01  0.18726448162E+02  0.00000000000E+00 0.  1.
         11    1    3    3    0    0  0.80769204853E+01  0.14786808468E+02 -0.98626290683E+01  0.19523263088E+02  0.51100000000E-03 0. -1.
        -11    1    3    3    0    0 -0.13849695171E+02 -0.18661630765E+02 -0.79128136292E+01  0.24549605678E+02  0.51100000000E-03 0.  1.
        -12    1    3    3    0    0 -0.10997537504E+02  0.83513411974E+01  0.24803761724E+02  0.28388683073E+02  0.00000000000E+00 0.  1.
</event>
<event>
 7    1  0.2489154E-013  0.7246149E+02  0.7816164E-02  0.1226708E+00
        -11   -1    0    0    0    0  0.00000000000E+00  0.00000000000E+00  0.45593999997E+02  0.45594000000E+02  0.51100000000E-03 0.  1.
         11   -1    0    0    0    0 -0.00000000000E+00 -0.00000000000E+00 -0.45593999997E+02  0.45594000000E+02  0.51100000000E-03 0. -1.
    9900012    2    1    2    0    0 -0.17654679005E+02 -0.10795735141E+01 -0.61505412151E+01  0.72461485990E+02  0.69999890178E+02 0.  0.
        -12    1    1    2    0    0  0.17654679005E+02  0.10795735141E+01  0.61505412151E+01  0.18726514010E+02  0.00000000000E+00 0.  1.
         11    1    3    3    0    0 -0.17451129590E+01  0.72506703275E+01 -0.18777047277E+02  0.20203839836E+02  0.51100000000E-03 0. -1.
        -11    1    3    3    0    0  0.16941104664E+02 -0.36867092741E+01  0.65204174489E+01  0.18523193475E+02  0.51100000000E-03 0.  1.
         12    1    3    3    0    0 -0.32850670710E+02 -0.46435345675E+01  0.61060886128E+01  0.33734452679E+02  0.00000000000E+00 0. -1.
</event>
<event>
 7    1  0.2489154E-013  0.7246155E+02  0.7816164E-02  0.1226708E+00
        -11   -1    0    0    0    0  0.00000000000E+00  0.00000000000E+00  0.45593999997E+02  0.45594000000E+02  0.51100000000E-03 0. -1.
         11   -1    0    0    0    0 -0.00000000000E+00 -0.00000000000E+00 -0.45593999997E+02  0.45594000000E+02  0.51100000000E-03 0.  1.
    9900012    2    1    2    0    0  0.14674694120E+02  0.10308942150E+02  0.53906546402E+01  0.72461545632E+02  0.69999967873E+02 0.  0.
        -12    1    1    2    0    0 -0.14674694120E+02 -0.10308942150E+02 -0.53906546402E+01  0.18726454368E+02  0.00000000000E+00 0.  1.
         11    1    3    3    0    0 -0.88575078806E+01 -0.10391130247E+02  0.16939858313E+02  0.21757523609E+02  0.51100000000E-03 0.  1.
        -11    1    3    3    0    0 -0.43801166789E+00  0.24965630779E+02 -0.46519699871E+01  0.25399122021E+02  0.51100000000E-03 0. -1.
         12    1    3    3    0    0  0.23970213668E+02 -0.42655583820E+01 -0.68972336853E+01  0.25304900002E+02  0.00000000000E+00 0. -1.
</event>
<event>
 7    1  0.2489154E-013  0.7246155E+02  0.7816164E-02  0.1226708E+00
        -11   -1    0    0    0    0  0.00000000000E+00  0.00000000000E+00  0.45593999997E+02  0.45594000000E+02  0.51100000000E-03 0. -1.
         11   -1    0    0    0    0 -0.00000000000E+00 -0.00000000000E+00 -0.45593999997E+02  0.45594000000E+02  0.51100000000E-03 0.  1.
    9900012    2    1    2    0    0  0.17957640839E+02 -0.50468276256E+01  0.16530568147E+01  0.72461549978E+02  0.69999973535E+02 0.  0.
        -12    1    1    2    0    0 -0.17957640839E+02  0.50468276256E+01 -0.16530568147E+01  0.18726450022E+02  0.00000000000E+00 0.  1.
         11    1    3    3    0    0  0.71616927556E-03 -0.74241076486E+01 -0.11256263647E+02  0.13484096056E+02  0.51100000000E-03 0. -1.
        -11    1    3    3    0    0  0.33349586720E+02  0.80923214724E+01 -0.50009815530E+01  0.34679827248E+02  0.51100000000E-03 0.  1.
         12    1    3    3    0    0 -0.15392662050E+02 -0.57150414493E+01  0.17910302015E+02  0.24297626675E+02  0.00000000000E+00 0. -1.
</event>
<event>
 7    1  0.2489154E-013  0.7246156E+02  0.7816164E-02  0.1226708E+00
        -11   -1    0    0    0    0  0.00000000000E+00  0.00000000000E+00  0.45593999997E+02  0.45594000000E+02  0.51100000000E-03 0.  1.
         11   -1    0    0    0    0 -0.00000000000E+00 -0.00000000000E+00 -0.45593999997E+02  0.45594000000E+02  0.51100000000E-03 0. -1.
    9900012    2    1    2    0    0 -0.17527062521E+02 -0.42252068026E+01 -0.50625262403E+01  0.72461562403E+02  0.69999989721E+02 0.  0.
        -12    1    1    2    0    0  0.17527062521E+02  0.42252068026E+01  0.50625262403E+01  0.18726437597E+02  0.00000000000E+00 0.  1.
         11    1    3    3    0    0  0.92560795476E+01 -0.35154199500E+01  0.67964127644E+01  0.12009346891E+02  0.51100000000E-03 0. -1.
        -11    1    3    3    0    0 -0.41755941693E+02 -0.36097429826E+01 -0.13543570191E+01  0.41933556899E+02  0.51100000000E-03 0.  1.
         12    1    3    3    0    0  0.14972799624E+02  0.28999561300E+01 -0.10504581986E+02  0.18518658613E+02  0.00000000000E+00 0. -1.
</event>
<event>
 7    1  0.2489154E-013  0.7246147E+02  0.7816164E-02  0.1226708E+00
        -11   -1    0    0    0    0  0.00000000000E+00  0.00000000000E+00  0.45593999997E+02  0.45594000000E+02  0.51100000000E-03 0. -1.
         11   -1    0    0    0    0 -0.00000000000E+00 -0.00000000000E+00 -0.45593999997E+02  0.45594000000E+02  0.51100000000E-03 0.  1.
    9900012    2    1    2    0    0  0.78919313366E+00 -0.28575087956E+01  0.18490391668E+02  0.72461474259E+02  0.69999874896E+02 0.  0.
        -12    1    1    2    0    0 -0.78919313366E+00  0.28575087956E+01 -0.18490391668E+02  0.18726525741E+02  0.00000000000E+00 0.  1.
         11    1    3    3    0    0 -0.14621447250E+02  0.12530752553E+02  0.19955495023E+02  0.27731358804E+02  0.51100000000E-03 0. -1.
        -11    1    3    3    0    0  0.10875658330E+02 -0.10914703145E+02  0.18323899413E+02  0.23941093935E+02  0.51100000000E-03 0.  1.
        -12    1    3    3    0    0  0.45349820546E+01 -0.44735582031E+01 -0.19789002768E+02  0.20789021520E+02  0.00000000000E+00 0.  1.
</event>
<event>
 7    1  0.2489154E-013  0.7246157E+02  0.7816164E-02  0.1226708E+00
        -11   -1    0    0    0    0  0.00000000000E+00  0.00000000000E+00  0.45593999997E+02  0.45594000000E+02  0.51100000000E-03 0.  1.
         11   -1    0    0    0    0 -0.00000000000E+00 -0.00000000000E+00 -0.45593999997E+02  0.45594000000E+02  0.51100000000E-03 0. -1.
    9900012    2    1    2    0    0 -0.18335795157E+02  0.32022099993E+01  0.20551111065E+01  0.72461574431E+02  0.70000005389E+02 0.  0.
        -12    1    1    2    0    0  0.18335795157E+02 -0.32022099993E+01 -0.20551111065E+01  0.18726425569E+02  0.00000000000E+00 0.  1.
         11    1    3    3    0    0 -0.36390256114E+02 -0.60013342433E+01  0.66039101623E+01  0.37468365089E+02  0.51100000000E-03 0. -1.
        -11    1    3    3    0    0 -0.25218566944E+01  0.67135084653E+01 -0.11135788960E+02  0.13245253985E+02  0.51100000000E-03 0.  1.
        -12    1    3    3    0    0  0.20576317651E+02  0.24900357773E+01  0.65869899040E+01  0.21747955358E+02  0.00000000000E+00 0.  1.
</event>
<event>
 7    1  0.2489154E-013  0.7246157E+02  0.7816164E-02  0.1226708E+00
        -11   -1    0    0    0    0  0.00000000000E+00  0.00000000000E+00  0.45593999997E+02  0.45594000000E+02  0.51100000000E-03 0. -1.
         11   -1    0    0    0    0 -0.00000000000E+00 -0.00000000000E+00 -0.45593999997E+02  0.45594000000E+02  0.51100000000E-03 0.  1.
    9900012    2    1    2    0    0  0.15119876988E+02  0.54198598316E+01 -0.96277597695E+01  0.72461566306E+02  0.69999994804E+02 0.  0.
        -12    1    1    2    0    0 -0.15119876988E+02 -0.54198598316E+01  0.96277597695E+01  0.18726433694E+02  0.00000000000E+00 0.  1.
         11    1    3    3    0    0  0.26635149449E+01 -0.50929977378E+01 -0.28952273018E+01  0.64354703953E+01  0.51100000000E-03 0. -1.
        -11    1    3    3    0    0 -0.20324619490E+02 -0.12327881844E+02 -0.10314012160E+02  0.25912268818E+02  0.51100000000E-03 0.  1.
        -12    1    3    3    0    0  0.32780981533E+02  0.22840739413E+02  0.35814796926E+01  0.40113827093E+02  0.00000000000E+00 0.  1.
</event>
<event>
 7    1  0.2489154E-013  0.7246153E+02  0.7816164E-02  0.1226708E+00
        -11   -1    0    0    0    0  0.00000000000E+00  0.00000000000E+00  0.45593999997E+02  0.45594000000E+02  0.51100000000E-03 0.  1.
         11   -1    0    0    0    0 -0.00000000000E+00 -0.00000000000E+00 -0.45593999997E+02  0.45594000000E+02  0.51100000000E-03 0. -1.
    9900012    2    1    2    0    0  0.14244099668E+02 -0.56038041250E+01  0.10788130904E+02  0.72461527710E+02  0.69999944526E+02 0.  0.
        -12    1    1    2    0    0 -0.14244099668E+02  0.56038041250E+01 -0.10788130904E+02  0.18726472290E+02  0.00000000000E+00 0.  1.
         11    1    3    3    0    0  0.25399091986E+02  0.63061220289E+01  0.10391784610E+02  0.28157951566E+02  0.51100000000E-03 0. -1.
        -11    1    3    3    0    0  0.27227900282E+01  0.13732261561E+02  0.48348426494E+01  0.14810951921E+02  0.51100000000E-03 0.  1.
        -12    1    3    3    0    0 -0.13877782347E+02 -0.25642187715E+02 -0.44384963545E+01  0.29492624223E+02  0.00000000000E+00 0.  1.
</event>
<event>
 7    1  0.2489154E-013  0.7246159E+02  0.7816164E-02  0.1226708E+00
        -11   -1    0    0    0    0  0.00000000000E+00  0.00000000000E+00  0.45593999997E+02  0.45594000000E+02  0.51100000000E-03 0.  1.
         11   -1    0    0    0    0 -0.00000000000E+00 -0.00000000000E+00 -0.45593999997E+02  0.45594000000E+02  0.51100000000E-03 0. -1.
    9900012    2    1    2    0    0 -0.88090092140E+01  0.87646058570E+01 -0.14009337073E+02  0.72461588588E+02  0.70000023831E+02 0.  0.
        -12    1    1    2    0    0  0.88090092140E+01 -0.87646058570E+01  0.14009337073E+02  0.18726411412E+02  0.00000000000E+00 0.  1.
         11    1    3    3    0    0  0.33245786962E+01  0.10497340865E+02 -0.12473945391E+02  0.16638698947E+02  0.51100000000E-03 0. -1.
        -11    1    3    3    0    0 -0.75870805631E+01  0.24161774015E+02  0.98496947876E+01  0.27172993995E+02  0.51100000000E-03 0.  1.
         12    1    3    3    0    0 -0.45465073471E+01 -0.25894509023E+02 -0.11385086469E+02  0.28649895646E+02  0.00000000000E+00 0. -1.
</event>
<event>
 7    1  0.2489154E-013  0.7246115E+02  0.7816164E-02  0.1226709E+00
        -11   -1    0    0    0    0  0.00000000000E+00  0.00000000000E+00  0.45593999997E+02  0.45594000000E+02  0.51100000000E-03 0.  1.
         11   -1    0    0    0    0 -0.00000000000E+00 -0.00000000000E+00 -0.45593999997E+02  0.45594000000E+02  0.51100000000E-03 0. -1.
    9900012    2    1    2    0    0  0.15973988150E+02 -0.97726431553E+01 -0.14831153866E+00  0.72461151681E+02  0.69999454676E+02 0.  0.
        -12    1    1    2    0    0 -0.15973988150E+02  0.97726431553E+01  0.14831153866E+00  0.18726848319E+02  0.00000000000E+00 0.  1.
         11    1    3    3    0    0 -0.10404044208E+02  0.15294790320E+02 -0.43860092716E+01  0.19010834395E+02  0.51100000000E-03 0.  1.
        -11    1    3    3    0    0  0.14784486127E+02 -0.16253959268E+02 -0.16943069822E+02  0.27745987767E+02  0.51100000000E-03 0. -1.
        -12    1    3    3    0    0  0.11593546231E+02 -0.88134742069E+01  0.21180767555E+02  0.25704329519E+02  0.00000000000E+00 0.  1.
</event>
<event>
 7    1  0.2489154E-013  0.7246154E+02  0.7816164E-02  0.1226708E+00
        -11   -1    0    0    0    0  0.00000000000E+00  0.00000000000E+00  0.45593999997E+02  0.45594000000E+02  0.51100000000E-03 0.  1.
         11   -1    0    0    0    0 -0.00000000000E+00 -0.00000000000E+00 -0.45593999997E+02  0.45594000000E+02  0.51100000000E-03 0. -1.
    9900012    2    1    2    0    0  0.12607134155E+02  0.77574655008E+01 -0.11470060828E+02  0.72461537494E+02  0.69999957272E+02 0.  0.
        -12    1    1    2    0    0 -0.12607134155E+02 -0.77574655008E+01  0.11470060828E+02  0.18726462506E+02  0.00000000000E+00 0.  1.
         11    1    3    3    0    0  0.20532673494E+02 -0.70688071636E+01  0.60004795620E+01  0.22529191525E+02  0.51100000000E-03 0. -1.
        -11    1    3    3    0    0  0.33355372954E+01 -0.12507531575E+02  0.38252550119E+01  0.13498026942E+02  0.51100000000E-03 0.  1.
        -12    1    3    3    0    0 -0.11261076635E+02  0.27333804240E+02 -0.21295795402E+02  0.36434319027E+02  0.00000000000E+00 0.  1.
</event>
<event>
 7    1  0.2489154E-013  0.7246161E+02  0.7816164E-02  0.1226708E+00
        -11   -1    0    0    0    0  0.00000000000E+00  0.00000000000E+00  0.45593999997E+02  0.45594000000E+02  0.51100000000E-03 0.  1.
         11   -1    0    0    0    0 -0.00000000000E+00 -0.00000000000E+00 -0.45593999997E+02  0.45594000000E+02  0.51100000000E-03 0. -1.
    9900012    2    1    2    0    0  0.15406762816E+02 -0.10644635536E+02  0.33746821515E-01  0.72461608329E+02  0.70000049548E+02 0.  0.
        -12    1    1    2    0    0 -0.15406762816E+02  0.10644635536E+02 -0.33746821515E-01  0.18726391671E+02  0.00000000000E+00 0.  1.
         11    1    3    3    0    0 -0.31891150321E+01  0.97102774541E+01  0.15150416937E+02  0.18275532182E+02  0.51100000000E-03 0. -1.
        -11    1    3    3    0    0  0.79314388230E+00 -0.33164535208E+00  0.14340683998E+02  0.14366429050E+02  0.51100000000E-03 0.  1.
        -12    1    3    3    0    0  0.17802733966E+02 -0.20023267638E+02 -0.29457354113E+02  0.39819647097E+02  0.00000000000E+00 0.  1.
</event>
<event>
 7    1  0.2489154E-013  0.7246152E+02  0.7816164E-02  0.1226708E+00
        -11   -1    0    0    0    0  0.00000000000E+00  0.00000000000E+00  0.45593999997E+02  0.45594000000E+02  0.51100000000E-03 0. -1.
         11   -1    0    0    0    0 -0.00000000000E+00 -0.00000000000E+00 -0.45593999997E+02  0.45594000000E+02  0.51100000000E-03 0.  1.
    9900012    2    1    2    0    0  0.10042364513E+02  0.89418722768E+01  0.13033603790E+02  0.72461521619E+02  0.69999936591E+02 0.  0.
        -12    1    1    2    0    0 -0.10042364513E+02 -0.89418722768E+01 -0.13033603790E+02  0.18726478381E+02  0.00000000000E+00 0.  1.
         11    1    3    3    0    0  0.13224488079E+02  0.11816618117E+02 -0.76630644724E+01  0.19319474787E+02  0.51100000000E-03 0. -1.
        -11    1    3    3    0    0 -0.10154588682E+02  0.19219889287E+02 -0.49535055355E+00  0.21743164166E+02  0.51100000000E-03 0.  1.
         12    1    3    3    0    0  0.69724651162E+01 -0.22094635127E+02  0.21192018816E+02  0.31398882666E+02  0.00000000000E+00 0. -1.
</event>
<event>
 7    1  0.2489154E-013  0.7246157E+02  0.7816164E-02  0.1226708E+00
        -11   -1    0    0    0    0  0.00000000000E+00  0.00000000000E+00  0.45593999997E+02  0.45594000000E+02  0.51100000000E-03 0. -1.
         11   -1    0    0    0    0 -0.00000000000E+00 -0.00000000000E+00 -0.45593999997E+02  0.45594000000E+02  0.51100000000E-03 0.  1.
    9900012    2    1    2    0    0  0.16553428845E+02 -0.77034068049E+01  0.41618036442E+01  0.72461572350E+02  0.70000002678E+02 0.  0.
        -12    1    1    2    0    0 -0.16553428845E+02  0.77034068049E+01 -0.41618036442E+01  0.18726427650E+02  0.00000000000E+00 0.  1.
         11    1    3    3    0    0  0.19551332412E+02 -0.12232392264E+02  0.31007612186E+02  0.38643990909E+02  0.51100000000E-03 0. -1.
        -11    1    3    3    0    0 -0.24280430242E+01  0.11008815594E+01  0.28596185954E+01  0.39095718317E+01  0.51100000000E-03 0.  1.
        -12    1    3    3    0    0 -0.56986054283E+00  0.34281038999E+01 -0.29705427138E+02  0.29908009610E+02  0.00000000000E+00 0.  1.
</event>
<event>
 7    1  0.2489154E-013  0.7246142E+02  0.7816164E-02  0.1226708E+00
        -11   -1    0    0    0    0  0.00000000000E+00  0.00000000000E+00  0.45593999997E+02  0.45594000000E+02  0.51100000000E-03 0. -1.
         11   -1    0    0    0    0 -0.00000000000E+00 -0.00000000000E+00 -0.45593999997E+02  0.45594000000E+02  0.51100000000E-03 0.  1.
    9900012    2    1    2    0    0 -0.10827513794E+01  0.32535626447E+01  0.18409960143E+02  0.72461423887E+02  0.69999809277E+02 0.  0.
        -12    1    1    2    0    0  0.10827513794E+01 -0.32535626447E+01 -0.18409960143E+02  0.18726576113E+02  0.00000000000E+00 0.  1.
         11    1    3    3    0    0 -0.38057342501E+01 -0.15044529745E+02 -0.49892367020E+01  0.16300735307E+02  0.51100000000E-03 0. -1.
        -11    1    3    3    0    0 -0.84336815717E+01  0.11786441249E+02 -0.11785166495E+02  0.18679864340E+02  0.51100000000E-03 0.  1.
         12    1    3    3    0    0  0.11156664442E+02  0.65116511407E+01  0.35184363341E+02  0.37480824240E+02  0.00000000000E+00 0. -1.
</event>
<event>
 7    1  0.2489154E-013  0.7246156E+02  0.7816164E-02  0.1226708E+00
        -11   -1    0    0    0    0  0.00000000000E+00  0.00000000000E+00  0.45593999997E+02  0.45594000000E+02  0.51100000000E-03 0. -1.
         11   -1    0    0    0    0 -0.00000000000E+00 -0.00000000000E+00 -0.45593999997E+02  0.45594000000E+02  0.51100000000E-03 0.  1.
    9900012    2    1    2    0    0 -0.13133986958E+02  0.99097948835E+01  0.89428101644E+01  0.72461561425E+02  0.69999988447E+02 0.  0.
        -12    1    1    2    0    0  0.13133986958E+02 -0.99097948835E+01 -0.89428101644E+01  0.18726438575E+02  0.00000000000E+00 0.  1.
         11    1    3    3    0    0 -0.10094026185E+02  0.10447962915E+02 -0.10690904315E+01  0.14566820117E+02  0.51100000000E-03 0. -1.
        -11    1    3    3    0    0 -0.17344203628E+02 -0.39535094493E+01 -0.18592096745E+02  0.25731647792E+02  0.51100000000E-03 0.  1.
         12    1    3    3    0    0  0.14304242855E+02  0.34153414173E+01  0.28603997341E+02  0.32163093516E+02  0.00000000000E+00 0. -1.
</event>
<event>
 7    1  0.2489154E-013  0.7246167E+02  0.7816164E-02  0.1226708E+00
        -11   -1    0    0    0    0  0.00000000000E+00  0.00000000000E+00  0.45593999997E+02  0.45594000000E+02  0.51100000000E-03 0. -1.
         11   -1    0    0    0    0 -0.00000000000E+00 -0.00000000000E+00 -0.45593999997E+02  0.45594000000E+02  0.51100000000E-03 0.  1.
    9900012    2    1    2    0    0  0.17790871001E+02  0.44282397829E+01  0.38145673750E+01  0.72461673003E+02  0.70000133797E+02 0.  0.
        -12    1    1    2    0    0 -0.17790871001E+02 -0.44282397829E+01 -0.38145673750E+01  0.18726326997E+02  0.00000000000E+00 0.  1.
         11    1    3    3    0    0 -0.58607102988E+01 -0.55040693675E+01 -0.80442663685E+01  0.11373342801E+02  0.51100000000E-03 0. -1.
        -11    1    3    3    0    0  0.14992960650E+02 -0.20355151764E+02 -0.43652839357E+01  0.25654956178E+02  0.51100000000E-03 0.  1.
         12    1    3    3    0    0  0.86586206499E+01  0.30287460914E+02  0.16224117679E+02  0.35433374023E+02  0.00000000000E+00 0. -1.
</event>
<event>
 7    1  0.2489154E-013  0.7246160E+02  0.7816164E-02  0.1226708E+00
        -11   -1    0    0    0    0  0.00000000000E+00  0.00000000000E+00  0.45593999997E+02  0.45594000000E+02  0.51100000000E-03 0.  1.
         11   -1    0    0    0    0 -0.00000000000E+00 -0.00000000000E+00 -0.45593999997E+02  0.45594000000E+02  0.51100000000E-03 0. -1.
    9900012    2    1    2    0    0  0.16207470944E+02 -0.11940689446E+01 -0.93043170384E+01  0.72461595364E+02  0.70000032658E+02 0.  0.
        -12    1    1    2    0    0 -0.16207470944E+02  0.11940689446E+01  0.93043170384E+01  0.18726404636E+02  0.00000000000E+00 0.  1.
         11    1    3    3    0    0 -0.18806342686E+02  0.16243575407E+02 -0.19150911386E+02  0.31373391184E+02  0.51100000000E-03 0. -1.
        -11    1    3    3    0    0  0.61139485137E+01 -0.65223160084E+00 -0.31497725530E+00  0.61567023172E+01  0.51100000000E-03 0.  1.
        -12    1    3    3    0    0  0.28899865116E+02 -0.16785412750E+02  0.10161571603E+02  0.34931501863E+02  0.00000000000E+00 0.  1.
</event>
<event>
 7    1  0.2489154E-013  0.7246155E+02  0.7816164E-02  0.1226708E+00
        -11   -1    0    0    0    0  0.00000000000E+00  0.00000000000E+00  0.45593999997E+02  0.45594000000E+02  0.51100000000E-03 0. -1.
         11   -1    0    0    0    0 -0.00000000000E+00 -0.00000000000E+00 -0.45593999997E+02  0.45594000000E+02  0.51100000000E-03 0.  1.
    9900012    2    1    2    0    0  0.44360717713E+01 -0.46660868141E+01  0.17584903917E+02  0.72461549597E+02  0.69999973039E+02 0.  0.
        -12    1    1    2    0    0 -0.44360717713E+01  0.46660868141E+01 -0.17584903917E+02  0.18726450403E+02  0.00000000000E+00 0.  1.
         11    1    3    3    0    0  0.16623041111E+01  0.10562523536E+02  0.49926325461E+01  0.11800700759E+02  0.51100000000E-03 0. -1.
        -11    1    3    3    0    0 -0.15681647011E+02 -0.57144712247E+01 -0.17446551294E+02  0.24144386235E+02  0.51100000000E-03 0.  1.
         12    1    3    3    0    0  0.18455414671E+02 -0.95141391251E+01  0.30038822665E+02  0.36516462603E+02  0.00000000000E+00 0. -1.
</event>
<event>
 7    1  0.2489154E-013  0.7246164E+02  0.7816164E-02  0.1226708E+00
        -11   -1    0    0    0    0  0.00000000000E+00  0.00000000000E+00  0.45593999997E+02  0.45594000000E+02  0.51100000000E-03 0.  1.
         11   -1    0    0    0    0 -0.00000000000E+00 -0.00000000000E+00 -0.45593999997E+02  0.45594000000E+02  0.51100000000E-03 0. -1.
    9900012    2    1    2    0    0 -0.11237006090E+02  0.14800771461E+02 -0.23115991418E+01  0.72461638039E+02  0.70000088250E+02 0.  0.
        -12    1    1    2    0    0  0.11237006090E+02 -0.14800771461E+02  0.23115991418E+01  0.18726361961E+02  0.00000000000E+00 0.  1.
         11    1    3    3    0    0 -0.13864285426E+02  0.18632665893E+01 -0.26877825053E+02  0.30300291295E+02  0.51100000000E-03 0. -1.
        -11    1    3    3    0    0  0.89410651814E+01  0.34402815995E+01 -0.47586971289E+01  0.10696886589E+02  0.51100000000E-03 0.  1.
        -12    1    3    3    0    0 -0.63137858453E+01  0.94972232717E+01  0.29324923040E+02  0.31464460155E+02  0.00000000000E+00 0.  1.
</event>
<event>
 7    1  0.2489154E-013  0.7246156E+02  0.7816164E-02  0.1226708E+00
        -11   -1    0    0    0    0  0.00000000000E+00  0.00000000000E+00  0.45593999997E+02  0.45594000000E+02  0.51100000000E-03 0. -1.
         11   -1    0    0    0    0 -0.00000000000E+00 -0.00000000000E+00 -0.45593999997E+02  0.45594000000E+02  0.51100000000E-03 0.  1.
    9900012    2    1    2    0    0 -0.14992962464E+02  0.96502204184E+01  0.57239882655E+01  0.72461555617E+02  0.69999980880E+02 0.  0.
        -12    1    1    2    0    0  0.14992962464E+02 -0.96502204184E+01 -0.57239882655E+01  0.18726444383E+02  0.00000000000E+00 0.  1.
         11    1    3    3    0    0 -0.17584731454E+02  0.70318696757E+01 -0.71305356637E+01  0.20236464873E+02  0.51100000000E-03 0. -1.
        -11    1    3    3    0    0 -0.23551043030E+02  0.54942781790E+01  0.42590319110E+01  0.24555611855E+02  0.51100000000E-03 0.  1.
        -12    1    3    3    0    0  0.26142812020E+02 -0.28759274363E+01  0.85954920182E+01  0.27669478888E+02  0.00000000000E+00 0.  1.
</event>
<event>
 7    1  0.2489154E-013  0.7246157E+02  0.7816164E-02  0.1226708E+00
        -11   -1    0    0    0    0  0.00000000000E+00  0.00000000000E+00  0.45593999997E+02  0.45594000000E+02  0.51100000000E-03 0. -1.
         11   -1    0    0    0    0 -0.00000000000E+00 -0.00000000000E+00 -0.45593999997E+02  0.45594000000E+02  0.51100000000E-03 0.  1.
    9900012    2    1    2    0    0  0.11926116131E+02  0.84517140253E+01 -0.11705355219E+02  0.72461573306E+02  0.70000003923E+02 0.  0.
        -12    1    1    2    0    0 -0.11926116131E+02 -0.84517140253E+01  0.11705355219E+02  0.18726426694E+02  0.00000000000E+00 0.  1.
         11    1    3    3    0    0 -0.15513704882E+02 -0.69964453834E+01  0.18011399088E+02  0.24779745449E+02  0.51100000000E-03 0. -1.
        -11    1    3    3    0    0  0.16402153525E+02  0.16967313694E+01 -0.24050522250E+02  0.29160541119E+02  0.51100000000E-03 0.  1.
        -12    1    3    3    0    0  0.11037667488E+02  0.13751428039E+02 -0.56662320565E+01  0.18521286738E+02  0.00000000000E+00 0.  1.
</event>
<event>
 7    1  0.2489154E-013  0.7246160E+02  0.7816164E-02  0.1226708E+00
        -11   -1    0    0    0    0  0.00000000000E+00  0.00000000000E+00  0.45593999997E+02  0.45594000000E+02  0.51100000000E-03 0.  1.
         11   -1    0    0    0    0 -0.00000000000E+00 -0.00000000000E+00 -0.45593999997E+02  0.45594000000E+02  0.51100000000E-03 0. -1.
    9900012    2    1    2    0    0 -0.80201350030E+01 -0.40991788416E+01 -0.16418046493E+02  0.72461599297E+02  0.70000037781E+02 0.  0.
        -12    1    1    2    0    0  0.80201350030E+01  0.40991788416E+01  0.16418046493E+02  0.18726400703E+02  0.00000000000E+00 0.  1.
         11    1    3    3    0    0 -0.11764120044E+02 -0.14582557368E+02  0.74878118911E+01  0.20177037121E+02  0.51100000000E-03 0. -1.
        -11    1    3    3    0    0  0.80078920285E+01 -0.13332215117E+02  0.32772312919E+01  0.15893852267E+02  0.51100000000E-03 0.  1.
         12    1    3    3    0    0 -0.42639069879E+01  0.23815593644E+02 -0.27183089676E+02  0.36390709910E+02  0.00000000000E+00 0. -1.
</event>
<event>
 7    1  0.2489154E-013  0.7246161E+02  0.7816164E-02  0.1226708E+00
        -11   -1    0    0    0    0  0.00000000000E+00  0.00000000000E+00  0.45593999997E+02  0.45594000000E+02  0.51100000000E-03 0. -1.
         11   -1    0    0    0    0 -0.00000000000E+00 -0.00000000000E+00 -0.45593999997E+02  0.45594000000E+02  0.51100000000E-03 0.  1.
    9900012    2    1    2    0    0  0.73102548712E+01  0.13078568617E+02  0.11233380100E+02  0.72461611886E+02  0.70000054180E+02 0.  0.
        -12    1    1    2    0    0 -0.73102548712E+01 -0.13078568617E+02 -0.11233380100E+02  0.18726388114E+02  0.00000000000E+00 0.  1.
         11    1    3    3    0    0  0.30006224321E+01  0.36333803910E+01  0.36846166168E+01  0.59817713028E+01  0.51100000000E-03 0. -1.
        -11    1    3    3    0    0  0.32698382455E+02  0.85894615305E+01  0.15197163334E+02  0.37066384208E+02  0.51100000000E-03 0.  1.
         12    1    3    3    0    0 -0.28388750016E+02  0.85572669524E+00 -0.76483998513E+01  0.29413456375E+02  0.00000000000E+00 0. -1.
</event>
<event>
 7    1  0.2489154E-013  0.7246143E+02  0.7816164E-02  0.1226708E+00
        -11   -1    0    0    0    0  0.00000000000E+00  0.00000000000E+00  0.45593999997E+02  0.45594000000E+02  0.51100000000E-03 0.  1.
         11   -1    0    0    0    0 -0.00000000000E+00 -0.00000000000E+00 -0.45593999997E+02  0.45594000000E+02  0.51100000000E-03 0. -1.
    9900012    2    1    2    0    0  0.15214028279E+02  0.72856209616E+01 -0.81324849689E+01  0.72461434884E+02  0.69999823603E+02 0.  0.
        -12    1    1    2    0    0 -0.15214028279E+02 -0.72856209616E+01  0.81324849689E+01  0.18726565116E+02  0.00000000000E+00 0.  1.
         11    1    3    3    0    0  0.13397457229E+01  0.13700331090E+02  0.69267057899E+01  0.15410166901E+02  0.51100000000E-03 0. -1.
        -11    1    3    3    0    0 -0.19047892859E+01  0.16992689861E+02  0.95640387080E+01  0.19592104727E+02  0.51100000000E-03 0.  1.
         12    1    3    3    0    0  0.15779071842E+02 -0.23407399989E+02 -0.24623229467E+02  0.37459163256E+02  0.00000000000E+00 0. -1.
</event>
<event>
 7    1  0.2489154E-013  0.7246157E+02  0.7816164E-02  0.1226708E+00
        -11   -1    0    0    0    0  0.00000000000E+00  0.00000000000E+00  0.45593999997E+02  0.45594000000E+02  0.51100000000E-03 0.  1.
         11   -1    0    0    0    0 -0.00000000000E+00 -0.00000000000E+00 -0.45593999997E+02  0.45594000000E+02  0.51100000000E-03 0. -1.
    9900012    2    1    2    0    0 -0.12364702477E+02  0.14061216224E+02 -0.27453683229E+00  0.72461573766E+02  0.70000004522E+02 0.  0.
        -12    1    1    2    0    0  0.12364702477E+02 -0.14061216224E+02  0.27453683229E+00  0.18726426234E+02  0.00000000000E+00 0.  1.
         11    1    3    3    0    0  0.67165777566E+01  0.15762891080E+02  0.58971236259E+01  0.18120629660E+02  0.51100000000E-03 0. -1.
        -11    1    3    3    0    0  0.26529061822E+01 -0.19878115356E+02  0.92477738287E+01  0.22083901430E+02  0.51100000000E-03 0.  1.
         12    1    3    3    0    0 -0.21734186416E+02  0.18176440500E+02 -0.15419434287E+02  0.32257042675E+02  0.00000000000E+00 0. -1.
</event>
<event>
 7    1  0.2489154E-013  0.7246157E+02  0.7816164E-02  0.1226708E+00
        -11   -1    0    0    0    0  0.00000000000E+00  0.00000000000E+00  0.45593999997E+02  0.45594000000E+02  0.51100000000E-03 0. -1.
         11   -1    0    0    0    0 -0.00000000000E+00 -0.00000000000E+00 -0.45593999997E+02  0.45594000000E+02  0.51100000000E-03 0.  1.
    9900012    2    1    2    0    0 -0.66352373564E+01 -0.14399795621E+02  0.99648721340E+01  0.72461570406E+02  0.70000000145E+02 0.  0.
        -12    1    1    2    0    0  0.66352373564E+01  0.14399795621E+02 -0.99648721340E+01  0.18726429594E+02  0.00000000000E+00 0.  1.
         11    1    3    3    0    0 -0.26876193704E+02  0.49553490250E+01 -0.79375866141E+01  0.28458576097E+02  0.51100000000E-03 0. -1.
        -11    1    3    3    0    0  0.66657512352E+01 -0.33312908665E+01 -0.78161242583E+01  0.10799145200E+02  0.51100000000E-03 0.  1.
        -12    1    3    3    0    0  0.13575205112E+02 -0.16023853779E+02  0.25718583006E+02  0.33203849109E+02  0.00000000000E+00 0.  1.
</event>
<event>
 7    1  0.2489154E-013  0.7246156E+02  0.7816164E-02  0.1226708E+00
        -11   -1    0    0    0    0  0.00000000000E+00  0.00000000000E+00  0.45593999997E+02  0.45594000000E+02  0.51100000000E-03 0.  1.
         11   -1    0    0    0    0 -0.00000000000E+00 -0.00000000000E+00 -0.45593999997E+02  0.45594000000E+02  0.51100000000E-03 0. -1.
    9900012    2    1    2    0    0 -0.16518042920E+02 -0.87103959243E+01 -0.14010386913E+01  0.72461557506E+02  0.69999983341E+02 0.  0.
        -12    1    1    2    0    0  0.16518042920E+02  0.87103959243E+01  0.14010386913E+01  0.18726442494E+02  0.00000000000E+00 0.  1.
         11    1    3    3    0    0 -0.19115194384E+02  0.14527812792E+01 -0.25384858967E+02  0.31810254555E+02  0.51100000000E-03 0. -1.
        -11    1    3    3    0    0  0.15252167689E+02  0.24578433311E+00  0.61902800300E+01  0.16462338724E+02  0.51100000000E-03 0.  1.
        -12    1    3    3    0    0 -0.12655016225E+02 -0.10408961537E+02  0.17793540246E+02  0.24188964228E+02  0.00000000000E+00 0.  1.
</event>
<event>
 7    1  0.2489154E-013  0.7246158E+02  0.7816164E-02  0.1226708E+00
        -11   -1    0    0    0    0  0.00000000000E+00  0.00000000000E+00  0.45593999997E+02  0.45594000000E+02  0.51100000000E-03 0. -1.
         11   -1    0    0    0    0 -0.00000000000E+00 -0.00000000000E+00 -0.45593999997E+02  0.45594000000E+02  0.51100000000E-03 0.  1.
    9900012    2    1    2    0    0  0.18349504682E+02  0.22575324051E+01 -0.29796224436E+01  0.72461576835E+02  0.70000008521E+02 0.  0.
        -12    1    1    2    0    0 -0.18349504682E+02 -0.22575324051E+01  0.29796224436E+01  0.18726423165E+02  0.00000000000E+00 0.  1.
         11    1    3    3    0    0  0.21742110516E+02  0.30178945955E+01 -0.19709130955E+01  0.22038864675E+02  0.51100000000E-03 0. -1.
        -11    1    3    3    0    0  0.98342115698E+01  0.21950406002E+02 -0.18846895293E+01  0.24126419041E+02  0.51100000000E-03 0.  1.
         12    1    3    3    0    0 -0.13226817404E+02 -0.22710768193E+02  0.87598018129E+00  0.26296293119E+02  0.00000000000E+00 0. -1.
</event>
<event>
 7    1  0.2489154E-013  0.7246154E+02  0.7816164E-02  0.1226708E+00
        -11   -1    0    0    0    0  0.00000000000E+00  0.00000000000E+00  0.45593999997E+02  0.45594000000E+02  0.51100000000E-03 0.  1.
         11   -1    0    0    0    0 -0.00000000000E+00 -0.00000000000E+00 -0.45593999997E+02  0.45594000000E+02  0.51100000000E-03 0. -1.
    9900012    2    1    2    0    0  0.15277644742E+02  0.10786945324E+02  0.95683696448E+00  0.72461543975E+02  0.69999965714E+02 0.  0.
        -12    1    1    2    0    0 -0.15277644742E+02 -0.10786945324E+02 -0.95683696448E+00  0.18726456025E+02  0.00000000000E+00 0.  1.
         11    1    3    3    0    0 -0.20412091943E+01 -0.10458267297E+02  0.40366901283E+01  0.11394593335E+02  0.51100000000E-03 0. -1.
        -11    1    3    3    0    0 -0.84111221106E+01  0.33869963598E+01  0.20134235755E+02  0.22081806293E+02  0.51100000000E-03 0.  1.
         12    1    3    3    0    0  0.25729976047E+02  0.17858216260E+02 -0.23214088918E+02  0.38985144346E+02  0.00000000000E+00 0. -1.
</event>
<event>
 7    1  0.2489154E-013  0.7246158E+02  0.7816164E-02  0.1226708E+00
        -11   -1    0    0    0    0  0.00000000000E+00  0.00000000000E+00  0.45593999997E+02  0.45594000000E+02  0.51100000000E-03 0. -1.
         11   -1    0    0    0    0 -0.00000000000E+00 -0.00000000000E+00 -0.45593999997E+02  0.45594000000E+02  0.51100000000E-03 0.  1.
    9900012    2    1    2    0    0 -0.37990725463E+00 -0.29767162928E+01  0.18484419577E+02  0.72461576516E+02  0.70000008105E+02 0.  0.
        -12    1    1    2    0    0  0.37990725463E+00  0.29767162928E+01 -0.18484419577E+02  0.18726423484E+02  0.00000000000E+00 0.  1.
         11    1    3    3    0    0 -0.19582304895E+02  0.75987186243E+01  0.49877434105E+00  0.21010853525E+02  0.51100000000E-03 0. -1.
        -11    1    3    3    0    0 -0.67466374696E+01 -0.12859994473E+02  0.20671987120E+02  0.25263167393E+02  0.51100000000E-03 0.  1.
        -12    1    3    3    0    0  0.25949035110E+02  0.22845595556E+01 -0.26863418840E+01  0.26187555598E+02  0.00000000000E+00 0.  1.
</event>
<event>
 7    1  0.2489154E-013  0.7246143E+02  0.7816164E-02  0.1226708E+00
        -11   -1    0    0    0    0  0.00000000000E+00  0.00000000000E+00  0.45593999997E+02  0.45594000000E+02  0.51100000000E-03 0. -1.
         11   -1    0    0    0    0 -0.00000000000E+00 -0.00000000000E+00 -0.45593999997E+02  0.45594000000E+02  0.51100000000E-03 0.  1.
    9900012    2    1    2    0    0 -0.69352930351E+01 -0.12558963271E+02  0.12035714985E+02  0.72461433760E+02  0.69999822139E+02 0.  0.
        -12    1    1    2    0    0  0.69352930351E+01  0.12558963271E+02 -0.12035714985E+02  0.18726566240E+02  0.00000000000E+00 0.  1.
         11    1    3    3    0    0  0.27387837026E+02 -0.19858431630E+01  0.94311113159E+01  0.29034170403E+02  0.51100000000E-03 0. -1.
        -11    1    3    3    0    0 -0.17706076025E+02 -0.12100793780E+02 -0.88358887988E+01  0.23194983713E+02  0.51100000000E-03 0.  1.
        -12    1    3    3    0    0 -0.16617054036E+02  0.15276736721E+01  0.11440492468E+02  0.20232279644E+02  0.00000000000E+00 0.  1.
</event>
<event>
 7    1  0.2489154E-013  0.7246161E+02  0.7816164E-02  0.1226708E+00
        -11   -1    0    0    0    0  0.00000000000E+00  0.00000000000E+00  0.45593999997E+02  0.45594000000E+02  0.51100000000E-03 0.  1.
         11   -1    0    0    0    0 -0.00000000000E+00 -0.00000000000E+00 -0.45593999997E+02  0.45594000000E+02  0.51100000000E-03 0. -1.
    9900012    2    1    2    0    0  0.70809739759E+01 -0.17333395427E+02  0.30159089810E+00  0.72461608288E+02  0.70000049494E+02 0.  0.
        -12    1    1    2    0    0 -0.70809739759E+01  0.17333395427E+02 -0.30159089810E+00  0.18726391712E+02  0.00000000000E+00 0.  1.
         11    1    3    3    0    0 -0.87632538751E+01  0.13269107909E+02 -0.18287084708E+02  0.24233887648E+02  0.51100000000E-03 0. -1.
        -11    1    3    3    0    0  0.17745854192E+02 -0.91967763304E+01  0.26950710687E+00  0.19989213847E+02  0.51100000000E-03 0.  1.
        -12    1    3    3    0    0 -0.19016263414E+01 -0.21405727006E+02  0.18319168499E+02  0.28238506793E+02  0.00000000000E+00 0.  1.
</event>
<event>
 7    1  0.2489154E-013  0.7246158E+02  0.7816164E-02  0.1226708E+00
        -11   -1    0    0    0    0  0.00000000000E+00  0.00000000000E+00  0.45593999997E+02  0.45594000000E+02  0.51100000000E-03 0. -1.
         11   -1    0    0    0    0 -0.00000000000E+00 -0.00000000000E+00 -0.45593999997E+02  0.45594000000E+02  0.51100000000E-03 0.  1.
    9900012    2    1    2    0    0 -0.14040706769E+02 -0.11872642113E+01  0.12334011504E+02  0.72461577954E+02  0.70000009978E+02 0.  0.
        -12    1    1    2    0    0  0.14040706769E+02  0.11872642113E+01 -0.12334011504E+02  0.18726422046E+02  0.00000000000E+00 0.  1.
         11    1    3    3    0    0 -0.21523571111E+02 -0.14082427910E+02  0.31456156696E+02  0.40633344479E+02  0.51100000000E-03 0. -1.
        -11    1    3    3    0    0 -0.26173532901E+01 -0.15143299769E+01  0.25191378411E+01  0.39357069566E+01  0.51100000000E-03 0.  1.
        -12    1    3    3    0    0  0.10100217632E+02  0.14409493676E+02 -0.21641283033E+02  0.27892526518E+02  0.00000000000E+00 0.  1.
</event>
<event>
 7    1  0.2489154E-013  0.7246159E+02  0.7816164E-02  0.1226708E+00
        -11   -1    0    0    0    0  0.00000000000E+00  0.00000000000E+00  0.45593999997E+02  0.45594000000E+02  0.51100000000E-03 0. -1.
         11   -1    0    0    0    0 -0.00000000000E+00 -0.00000000000E+00 -0.45593999997E+02  0.45594000000E+02  0.51100000000E-03 0.  1.
    9900012    2    1    2    0    0 -0.13012728716E+02  0.12505028674E+02 -0.49971675722E+01  0.72461587249E+02  0.70000022086E+02 0.  0.
        -12    1    1    2    0    0  0.13012728716E+02 -0.12505028674E+02  0.49971675722E+01  0.18726412751E+02  0.00000000000E+00 0.  1.
         11    1    3    3    0    0  0.20666506803E+01 -0.86552287442E+01  0.36974760092E+01  0.96361485433E+01  0.51100000000E-03 0. -1.
        -11    1    3    3    0    0  0.46601866005E+01 -0.16166668311E+02  0.63746061026E+01  0.17992056765E+02  0.51100000000E-03 0.  1.
        -12    1    3    3    0    0 -0.19739565997E+02  0.37326925729E+02 -0.15069249684E+02  0.44833381940E+02  0.00000000000E+00 0.  1.
</event>
<event>
 7    1  0.2489154E-013  0.7246151E+02  0.7816164E-02  0.1226708E+00
        -11   -1    0    0    0    0  0.00000000000E+00  0.00000000000E+00  0.45593999997E+02  0.45594000000E+02  0.51100000000E-03 0. -1.
         11   -1    0    0    0    0 -0.00000000000E+00 -0.00000000000E+00 -0.45593999997E+02  0.45594000000E+02  0.51100000000E-03 0.  1.
    9900012    2    1    2    0    0 -0.65137176579E+01 -0.41464026392E+01  0.17060491979E+02  0.72461506491E+02  0.69999916885E+02 0.  0.
        -12    1    1    2    0    0  0.65137176579E+01  0.41464026392E+01 -0.17060491979E+02  0.18726493509E+02  0.00000000000E+00 0.  1.
         11    1    3    3    0    0  0.11101805876E+02 -0.26764868184E+02 -0.32422269506E+01  0.29156822503E+02  0.51100000000E-03 0. -1.
        -11    1    3    3    0    0  0.30846177014E+01  0.15398326580E+01 -0.38333106176E+01  0.51556009864E+01  0.51100000000E-03 0.  1.
        -12    1    3    3    0    0 -0.20700141236E+02  0.21078632887E+02  0.24136029547E+02  0.38149083002E+02  0.00000000000E+00 0.  1.
</event>
<event>
 7    1  0.2489154E-013  0.7246153E+02  0.7816164E-02  0.1226708E+00
        -11   -1    0    0    0    0  0.00000000000E+00  0.00000000000E+00  0.45593999997E+02  0.45594000000E+02  0.51100000000E-03 0. -1.
         11   -1    0    0    0    0 -0.00000000000E+00 -0.00000000000E+00 -0.45593999997E+02  0.45594000000E+02  0.51100000000E-03 0.  1.
    9900012    2    1    2    0    0 -0.42911968802E+01  0.11298019706E+02  0.14304578949E+02  0.72461532131E+02  0.69999950285E+02 0.  0.
        -12    1    1    2    0    0  0.42911968802E+01 -0.11298019706E+02 -0.14304578949E+02  0.18726467869E+02  0.00000000000E+00 0.  1.
         11    1    3    3    0    0 -0.11353846069E+02  0.16179141367E+02  0.25684101433E+02  0.32409065130E+02  0.51100000000E-03 0. -1.
        -11    1    3    3    0    0  0.20283685338E+02  0.24743011666E+01  0.10661506260E+01  0.20461836051E+02  0.51100000000E-03 0.  1.
         12    1    3    3    0    0 -0.13221036150E+02 -0.73554228277E+01 -0.12445673110E+02  0.19590630950E+02  0.00000000000E+00 0. -1.
</event>
<event>
 7    1  0.2489154E-013  0.7246141E+02  0.7816164E-02  0.1226708E+00
        -11   -1    0    0    0    0  0.00000000000E+00  0.00000000000E+00  0.45593999997E+02  0.45594000000E+02  0.51100000000E-03 0.  1.
         11   -1    0    0    0    0 -0.00000000000E+00 -0.00000000000E+00 -0.45593999997E+02  0.45594000000E+02  0.51100000000E-03 0. -1.
    9900012    2    1    2    0    0 -0.90727338937E+01  0.16324670185E+02  0.13695798062E+01  0.72461411795E+02  0.69999793524E+02 0.  0.
        -12    1    1    2    0    0  0.90727338937E+01 -0.16324670185E+02 -0.13695798062E+01  0.18726588205E+02  0.00000000000E+00 0.  1.
         11    1    3    3    0    0  0.30185154080E+01  0.17144135454E+02  0.53511334573E+01  0.18211739216E+02  0.51100000000E-03 0. -1.
        -11    1    3    3    0    0 -0.40873765948E+01  0.21295980945E+02  0.12961459423E+02  0.25263113080E+02  0.51100000000E-03 0.  1.
        -12    1    3    3    0    0 -0.80038727069E+01 -0.22115446214E+02 -0.16943013074E+02  0.28986559499E+02  0.00000000000E+00 0.  1.
</event>
<event>
 7    1  0.2489154E-013  0.7246155E+02  0.7816164E-02  0.1226708E+00
        -11   -1    0    0    0    0  0.00000000000E+00  0.00000000000E+00  0.45593999997E+02  0.45594000000E+02  0.51100000000E-03 0.  1.
         11   -1    0    0    0    0 -0.00000000000E+00 -0.00000000000E+00 -0.45593999997E+02  0.45594000000E+02  0.51100000000E-03 0. -1.
    9900012    2    1    2    0    0  0.10547775545E+02  0.14509679606E+02 -0.53752689444E+01  0.72461551126E+02  0.69999975029E+02 0.  0.
        -12    1    1    2    0    0 -0.10547775545E+02 -0.14509679606E+02  0.53752689444E+01  0.18726448874E+02  0.00000000000E+00 0.  1.
         11    1    3    3    0    0  0.20075566704E+02 -0.79992063580E+01  0.33801033628E+00  0.21613188846E+02  0.51100000000E-03 0. -1.
        -11    1    3    3    0    0  0.12206370718E+02  0.11508784402E+02  0.12088101404E+02  0.20677761008E+02  0.51100000000E-03 0.  1.
         12    1    3    3    0    0 -0.21734161876E+02  0.11000101562E+02 -0.17801380684E+02  0.30170601272E+02  0.00000000000E+00 0. -1.
</event>
<event>
 7    1  0.2489154E-013  0.7246157E+02  0.7816164E-02  0.1226708E+00
        -11   -1    0    0    0    0  0.00000000000E+00  0.00000000000E+00  0.45593999997E+02  0.45594000000E+02  0.51100000000E-03 0.  1.
         11   -1    0    0    0    0 -0.00000000000E+00 -0.00000000000E+00 -0.45593999997E+02  0.45594000000E+02  0.51100000000E-03 0. -1.
    9900012    2    1    2    0    0 -0.15369728917E+02  0.57160248453E+01 -0.90431107468E+01  0.72461565235E+02  0.69999993410E+02 0.  0.
        -12    1    1    2    0    0  0.15369728917E+02 -0.57160248453E+01  0.90431107468E+01  0.18726434765E+02  0.00000000000E+00 0.  1.
         11    1    3    3    0    0 -0.32053277620E+02  0.22337829576E+02 -0.44670193526E+01  0.39323599765E+02  0.51100000000E-03 0. -1.
        -11    1    3    3    0    0  0.59514707639E+01  0.54462259331E+01 -0.27807683928E+01  0.85331151570E+01  0.51100000000E-03 0.  1.
        -12    1    3    3    0    0  0.10732077939E+02 -0.22068030664E+02 -0.17953230015E+01  0.24604850313E+02  0.00000000000E+00 0.  1.
</event>
<event>
 7    1  0.2489154E-013  0.7246164E+02  0.7816164E-02  0.1226708E+00
        -11   -1    0    0    0    0  0.00000000000E+00  0.00000000000E+00  0.45593999997E+02  0.45594000000E+02  0.51100000000E-03 0. -1.
         11   -1    0    0    0    0 -0.00000000000E+00 -0.00000000000E+00 -0.45593999997E+02  0.45594000000E+02  0.51100000000E-03 0.  1.
    9900012    2    1    2    0    0 -0.13726400236E+02 -0.99776359087E+01  0.79189237330E+01  0.72461637971E+02  0.70000088161E+02 0.  0.
        -12    1    1    2    0    0  0.13726400236E+02  0.99776359087E+01 -0.79189237330E+01  0.18726362029E+02  0.00000000000E+00 0.  1.
         11    1    3    3    0    0  0.61091334588E+01  0.23271918253E+02  0.68436541289E+01  0.25014781488E+02  0.51100000000E-03 0. -1.
        -11    1    3    3    0    0 -0.10824081354E+02 -0.58117970164E+01 -0.10667933515E+02  0.16270910468E+02  0.51100000000E-03 0.  1.
        -12    1    3    3    0    0 -0.90114523405E+01 -0.27437757145E+02  0.11743203119E+02  0.31175946015E+02  0.00000000000E+00 0.  1.
</event>
<event>
 7    1  0.2489154E-013  0.7246156E+02  0.7816164E-02  0.1226708E+00
        -11   -1    0    0    0    0  0.00000000000E+00  0.00000000000E+00  0.45593999997E+02  0.45594000000E+02  0.51100000000E-03 0. -1.
         11   -1    0    0    0    0 -0.00000000000E+00 -0.00000000000E+00 -0.45593999997E+02  0.45594000000E+02  0.51100000000E-03 0.  1.
    9900012    2    1    2    0    0 -0.14110635174E+00 -0.15112948683E+02  0.11057056672E+02  0.72461557969E+02  0.69999983944E+02 0.  0.
        -12    1    1    2    0    0  0.14110635174E+00  0.15112948683E+02 -0.11057056672E+02  0.18726442031E+02  0.00000000000E+00 0.  1.
         11    1    3    3    0    0  0.12426476067E+02 -0.16032111644E+02  0.59306741813E+01  0.21133357701E+02  0.51100000000E-03 0. -1.
        -11    1    3    3    0    0 -0.48407108381E+01 -0.12033792501E+02 -0.18922297560E+02  0.22941185423E+02  0.51100000000E-03 0.  1.
         12    1    3    3    0    0 -0.77268715807E+01  0.12952955462E+02  0.24048680051E+02  0.28387014845E+02  0.00000000000E+00 0. -1.
</event>
<event>
 7    1  0.2489154E-013  0.7246157E+02  0.7816164E-02  0.1226708E+00
        -11   -1    0    0    0    0  0.00000000000E+00  0.00000000000E+00  0.45593999997E+02  0.45594000000E+02  0.51100000000E-03 0.  1.
         11   -1    0    0    0    0 -0.00000000000E+00 -0.00000000000E+00 -0.45593999997E+02  0.45594000000E+02  0.51100000000E-03 0. -1.
    9900012    2    1    2    0    0  0.13336833552E+01  0.17506582372E+02 -0.65130545774E+01  0.72461574351E+02  0.70000005285E+02 0.  0.
        -12    1    1    2    0    0 -0.13336833552E+01 -0.17506582372E+02  0.65130545774E+01  0.18726425649E+02  0.00000000000E+00 0.  1.
         11    1    3    3    0    0  0.17252963045E+02  0.59800342023E+01 -0.12085362352E+02  0.21897066615E+02  0.51100000000E-03 0. -1.
        -11    1    3    3    0    0  0.78682769974E+01  0.22553383571E+02  0.70113603265E+00  0.23896788181E+02  0.51100000000E-03 0.  1.
        -12    1    3    3    0    0 -0.23787556688E+02 -0.11026835401E+02  0.48711717418E+01  0.26667719555E+02  0.00000000000E+00 0.  1.
</event>
<event>
 7    1  0.2489154E-013  0.7246156E+02  0.7816164E-02  0.1226708E+00
        -11   -1    0    0    0    0  0.00000000000E+00  0.00000000000E+00  0.45593999997E+02  0.45594000000E+02  0.51100000000E-03 0.  1.
         11   -1    0    0    0    0 -0.00000000000E+00 -0.00000000000E+00 -0.45593999997E+02  0.45594000000E+02  0.51100000000E-03 0. -1.
    9900012    2    1    2    0    0 -0.60618560761E+01  0.14527680264E+02 -0.10142969213E+02  0.72461563676E+02  0.69999991378E+02 0.  0.
        -12    1    1    2    0    0  0.60618560761E+01 -0.14527680264E+02  0.10142969213E+02  0.18726436324E+02  0.00000000000E+00 0.  1.
         11    1    3    3    0    0 -0.63272702556E+01 -0.60062057104E+01  0.92408914777E+00  0.87728442900E+01  0.51100000000E-03 0. -1.
        -11    1    3    3    0    0  0.54891769260E+01 -0.19814737471E+02 -0.10298821057E+02  0.22996099665E+02  0.51100000000E-03 0.  1.
         12    1    3    3    0    0 -0.52237627466E+01  0.40348623446E+02 -0.76823730374E+00  0.40692619721E+02  0.00000000000E+00 0. -1.
</event>
<event>
 7    1  0.2489154E-013  0.7246149E+02  0.7816164E-02  0.1226708E+00
        -11   -1    0    0    0    0  0.00000000000E+00  0.00000000000E+00  0.45593999997E+02  0.45594000000E+02  0.51100000000E-03 0.  1.
         11   -1    0    0    0    0 -0.00000000000E+00 -0.00000000000E+00 -0.45593999997E+02  0.45594000000E+02  0.51100000000E-03 0. -1.
    9900012    2    1    2    0    0  0.12969700673E+02  0.72164879904E+01 -0.11418905911E+02  0.72461488134E+02  0.69999892971E+02 0.  0.
        -12    1    1    2    0    0 -0.12969700673E+02 -0.72164879904E+01  0.11418905911E+02  0.18726511866E+02  0.00000000000E+00 0.  1.
         11    1    3    3    0    0  0.71914957817E+01 -0.13490859050E+02  0.51389706233E+01  0.16128543295E+02  0.51100000000E-03 0. -1.
        -11    1    3    3    0    0  0.27055535130E+02  0.17642495439E+02 -0.87722743942E+01  0.33469574613E+02  0.51100000000E-03 0.  1.
         12    1    3    3    0    0 -0.21277330238E+02  0.30648516012E+01 -0.77856021399E+01  0.22863370226E+02  0.00000000000E+00 0. -1.
</event>
<event>
 7    1  0.2489154E-013  0.7246159E+02  0.7816164E-02  0.1226708E+00
        -11   -1    0    0    0    0  0.00000000000E+00  0.00000000000E+00  0.45593999997E+02  0.45594000000E+02  0.51100000000E-03 0.  1.
         11   -1    0    0    0    0 -0.00000000000E+00 -0.00000000000E+00 -0.45593999997E+02  0.45594000000E+02  0.51100000000E-03 0. -1.
    9900012    2    1    2    0    0  0.72163056513E+01 -0.62994067814E+01 -0.16091017174E+02  0.72461590127E+02  0.70000025835E+02 0.  0.
        -12    1    1    2    0    0 -0.72163056513E+01  0.62994067814E+01  0.16091017174E+02  0.18726409873E+02  0.00000000000E+00 0.  1.
         11    1    3    3    0    0  0.26570094459E+01  0.52486390737E+01 -0.20239483210E+01  0.62212762668E+01  0.51100000000E-03 0. -1.
        -11    1    3    3    0    0  0.21092381554E+02 -0.15046770770E+02 -0.32281956426E+02  0.41393460609E+02  0.51100000000E-03 0.  1.
        -12    1    3    3    0    0 -0.16533085348E+02  0.34987249148E+01  0.18214887573E+02  0.24846853251E+02  0.00000000000E+00 0.  1.
</event>
<event>
 7    1  0.2496089E-013  0.7246159E+02  0.7816164E-02  0.1226708E+00
        -11   -1    0    0    0    0  0.00000000000E+00  0.00000000000E+00  0.45593999997E+02  0.45594000000E+02  0.51100000000E-03 0.  1.
         11   -1    0    0    0    0 -0.00000000000E+00 -0.00000000000E+00 -0.45593999997E+02  0.45594000000E+02  0.51100000000E-03 0. -1.
    9900012    2    1    2    0    0 -0.15636876884E+02 -0.89034499231E+01  0.51860502754E+01  0.72461589327E+02  0.70000024794E+02 0.  0.
        -12    1    1    2    0    0  0.15636876884E+02  0.89034499231E+01 -0.51860502754E+01  0.18726410673E+02  0.00000000000E+00 0.  1.
         11    1    3    3    0    0 -0.47162037519E+01  0.10196719914E+02  0.32800468154E+01  0.11703605522E+02  0.51100000000E-03 0. -1.
        -11    1    3    3    0    0  0.21247415593E+02 -0.66590948376E+00 -0.74404353391E+01  0.22522348526E+02  0.51100000000E-03 0.  1.
         12    1    3    3    0    0 -0.32168088725E+02 -0.18434260354E+02  0.93464387991E+01  0.38235635280E+02  0.00000000000E+00 0. -1.
</event>
<event>
 7    1  0.2489154E-013  0.7246158E+02  0.7816164E-02  0.1226708E+00
        -11   -1    0    0    0    0  0.00000000000E+00  0.00000000000E+00  0.45593999997E+02  0.45594000000E+02  0.51100000000E-03 0.  1.
         11   -1    0    0    0    0 -0.00000000000E+00 -0.00000000000E+00 -0.45593999997E+02  0.45594000000E+02  0.51100000000E-03 0. -1.
    9900012    2    1    2    0    0 -0.11645053251E+02 -0.12499981093E+01 -0.14611944359E+02  0.72461583406E+02  0.70000017081E+02 0.  0.
        -12    1    1    2    0    0  0.11645053251E+02  0.12499981093E+01  0.14611944359E+02  0.18726416594E+02  0.00000000000E+00 0.  1.
         11    1    3    3    0    0 -0.16800089061E+02 -0.12970075484E+02 -0.27057015566E+02  0.34388194807E+02  0.51100000000E-03 0. -1.
        -11    1    3    3    0    0 -0.84505016453E+01 -0.19463571054E+00 -0.73925407500E+01  0.11229359738E+02  0.51100000000E-03 0.  1.
        -12    1    3    3    0    0  0.13605537455E+02  0.11914713085E+02  0.19837611957E+02  0.26844028861E+02  0.00000000000E+00 0.  1.
</event>
<event>
 7    1  0.2489154E-013  0.7246145E+02  0.7816164E-02  0.1226708E+00
        -11   -1    0    0    0    0  0.00000000000E+00  0.00000000000E+00  0.45593999997E+02  0.45594000000E+02  0.51100000000E-03 0. -1.
         11   -1    0    0    0    0 -0.00000000000E+00 -0.00000000000E+00 -0.45593999997E+02  0.45594000000E+02  0.51100000000E-03 0.  1.
    9900012    2    1    2    0    0  0.10144631908E+02  0.51713253972E+01  0.14866994294E+02  0.72461449804E+02  0.69999843038E+02 0.  0.
        -12    1    1    2    0    0 -0.10144631908E+02 -0.51713253972E+01 -0.14866994294E+02  0.18726550196E+02  0.00000000000E+00 0.  1.
         11    1    3    3    0    0  0.11430959497E+02 -0.10974761303E+02  0.15826846572E+02  0.22396457161E+02  0.51100000000E-03 0. -1.
        -11    1    3    3    0    0  0.60601862761E+01 -0.82555543997E+01 -0.17077054750E+02  0.19912454277E+02  0.51100000000E-03 0.  1.
        -12    1    3    3    0    0 -0.73465138647E+01  0.24401641100E+02  0.16117202472E+02  0.30152538365E+02  0.00000000000E+00 0.  1.
</event>
<event>
 7    1  0.2489154E-013  0.7246158E+02  0.7816164E-02  0.1226708E+00
        -11   -1    0    0    0    0  0.00000000000E+00  0.00000000000E+00  0.45593999997E+02  0.45594000000E+02  0.51100000000E-03 0.  1.
         11   -1    0    0    0    0 -0.00000000000E+00 -0.00000000000E+00 -0.45593999997E+02  0.45594000000E+02  0.51100000000E-03 0. -1.
    9900012    2    1    2    0    0  0.15695002194E+02 -0.33635904470E+01  0.96453079058E+01  0.72461580183E+02  0.70000012882E+02 0.  0.
        -12    1    1    2    0    0 -0.15695002194E+02  0.33635904470E+01 -0.96453079058E+01  0.18726419817E+02  0.00000000000E+00 0.  1.
         11    1    3    3    0    0 -0.47940913052E+01 -0.19213989218E+02 -0.34875410608E+01  0.20107800377E+02  0.51100000000E-03 0. -1.
        -11    1    3    3    0    0  0.15808265468E+02 -0.35073386611E+01 -0.12095791125E+02  0.20211651214E+02  0.51100000000E-03 0.  1.
        -12    1    3    3    0    0  0.46808280309E+01  0.19357737432E+02  0.25228640092E+02  0.32142128592E+02  0.00000000000E+00 0.  1.
</event>
<event>
 7    1  0.2489154E-013  0.7246157E+02  0.7816164E-02  0.1226708E+00
        -11   -1    0    0    0    0  0.00000000000E+00  0.00000000000E+00  0.45593999997E+02  0.45594000000E+02  0.51100000000E-03 0. -1.
         11   -1    0    0    0    0 -0.00000000000E+00 -0.00000000000E+00 -0.45593999997E+02  0.45594000000E+02  0.51100000000E-03 0.  1.
    9900012    2    1    2    0    0 -0.20382976894E+01  0.13036990516E+01  0.18569462391E+02  0.72461568888E+02  0.69999998168E+02 0.  0.
        -12    1    1    2    0    0  0.20382976894E+01 -0.13036990516E+01 -0.18569462391E+02  0.18726431112E+02  0.00000000000E+00 0.  1.
         11    1    3    3    0    0 -0.15722714522E+02 -0.14340247892E+02  0.24784302956E+02  0.32666621111E+02  0.51100000000E-03 0. -1.
        -11    1    3    3    0    0 -0.11038260602E+02  0.44429916216E+01  0.21983637807E+00  0.11900911729E+02  0.51100000000E-03 0.  1.
        -12    1    3    3    0    0  0.24722677435E+02  0.11200955322E+02 -0.64346769431E+01  0.27894036048E+02  0.00000000000E+00 0.  1.
</event>
<event>
 7    1  0.2489154E-013  0.7246150E+02  0.7816164E-02  0.1226708E+00
        -11   -1    0    0    0    0  0.00000000000E+00  0.00000000000E+00  0.45593999997E+02  0.45594000000E+02  0.51100000000E-03 0.  1.
         11   -1    0    0    0    0 -0.00000000000E+00 -0.00000000000E+00 -0.45593999997E+02  0.45594000000E+02  0.51100000000E-03 0. -1.
    9900012    2    1    2    0    0  0.81536173152E+01  0.11073719134E+02 -0.12711135812E+02  0.72461502612E+02  0.69999911832E+02 0.  0.
        -12    1    1    2    0    0 -0.81536173152E+01 -0.11073719134E+02  0.12711135812E+02  0.18726497388E+02  0.00000000000E+00 0.  1.
         11    1    3    3    0    0  0.21436069243E+01  0.38922535581E+00 -0.51409195712E+01  0.55835115584E+01  0.51100000000E-03 0. -1.
        -11    1    3    3    0    0  0.76742349971E+01 -0.17084206632E+02 -0.27061737878E+02  0.32910509815E+02  0.51100000000E-03 0.  1.
         12    1    3    3    0    0 -0.16642246062E+01  0.27768700410E+02  0.19491521637E+02  0.33967481239E+02  0.00000000000E+00 0. -1.
</event>
<event>
 7    1  0.2489154E-013  0.7246161E+02  0.7816164E-02  0.1226708E+00
        -11   -1    0    0    0    0  0.00000000000E+00  0.00000000000E+00  0.45593999997E+02  0.45594000000E+02  0.51100000000E-03 0. -1.
         11   -1    0    0    0    0 -0.00000000000E+00 -0.00000000000E+00 -0.45593999997E+02  0.45594000000E+02  0.51100000000E-03 0.  1.
    9900012    2    1    2    0    0 -0.15022622923E+02  0.10922208985E+02 -0.23882767475E+01  0.72461609146E+02  0.70000050612E+02 0.  0.
        -12    1    1    2    0    0  0.15022622923E+02 -0.10922208985E+02  0.23882767475E+01  0.18726390854E+02  0.00000000000E+00 0.  1.
         11    1    3    3    0    0 -0.26109632271E+01  0.73066805975E+01  0.97112092165E+01  0.12430297464E+02  0.51100000000E-03 0. -1.
        -11    1    3    3    0    0  0.62598262790E+01 -0.12263975602E+02  0.17069831957E+02  0.21931021087E+02  0.51100000000E-03 0.  1.
         12    1    3    3    0    0 -0.18671485975E+02  0.15879503990E+02 -0.29169317921E+02  0.38100290595E+02  0.00000000000E+00 0. -1.
</event>
<event>
 7    1  0.2489154E-013  0.7246157E+02  0.7816164E-02  0.1226708E+00
        -11   -1    0    0    0    0  0.00000000000E+00  0.00000000000E+00  0.45593999997E+02  0.45594000000E+02  0.51100000000E-03 0.  1.
         11   -1    0    0    0    0 -0.00000000000E+00 -0.00000000000E+00 -0.45593999997E+02  0.45594000000E+02  0.51100000000E-03 0. -1.
    9900012    2    1    2    0    0  0.18050335221E+02  0.49544790812E+01 -0.56364075420E+00  0.72461570670E+02  0.70000000490E+02 0.  0.
        -12    1    1    2    0    0 -0.18050335221E+02 -0.49544790812E+01  0.56364075420E+00  0.18726429330E+02  0.00000000000E+00 0.  1.
         11    1    3    3    0    0  0.33922564092E+01 -0.11095167666E+02  0.32909173690E+01  0.12059862622E+02  0.51100000000E-03 0. -1.
        -11    1    3    3    0    0  0.23565454960E+01 -0.16902232122E+02  0.12947511992E+02  0.21421410421E+02  0.51100000000E-03 0.  1.
         12    1    3    3    0    0  0.12301533315E+02  0.32951878869E+02 -0.16802070115E+02  0.38980297627E+02  0.00000000000E+00 0. -1.
</event>
<event>
 7    1  0.2489154E-013  0.7246172E+02  0.7816164E-02  0.1226708E+00
        -11   -1    0    0    0    0  0.00000000000E+00  0.00000000000E+00  0.45593999997E+02  0.45594000000E+02  0.51100000000E-03 0.  1.
         11   -1    0    0    0    0 -0.00000000000E+00 -0.00000000000E+00 -0.45593999997E+02  0.45594000000E+02  0.51100000000E-03 0. -1.
    9900012    2    1    2    0    0 -0.14500096470E+02  0.11596944704E+02  0.24355294964E+01  0.72461715583E+02  0.70000189266E+02 0.  0.
        -12    1    1    2    0    0  0.14500096470E+02 -0.11596944704E+02 -0.24355294964E+01  0.18726284417E+02  0.00000000000E+00 0.  1.
         11    1    3    3    0    0 -0.13479639713E+02  0.14949915992E+01  0.15039283455E+02  0.20251314371E+02  0.51100000000E-03 0. -1.
        -11    1    3    3    0    0 -0.13490345937E+02 -0.71990111615E+01  0.12154554255E+02  0.19533263542E+02  0.51100000000E-03 0.  1.
        -12    1    3    3    0    0  0.12469889180E+02  0.17300964266E+02 -0.24758308213E+02  0.32677137670E+02  0.00000000000E+00 0.  1.
</event>
<event>
 7    1  0.2489154E-013  0.7246155E+02  0.7816164E-02  0.1226708E+00
        -11   -1    0    0    0    0  0.00000000000E+00  0.00000000000E+00  0.45593999997E+02  0.45594000000E+02  0.51100000000E-03 0.  1.
         11   -1    0    0    0    0 -0.00000000000E+00 -0.00000000000E+00 -0.45593999997E+02  0.45594000000E+02  0.51100000000E-03 0. -1.
    9900012    2    1    2    0    0 -0.13842176499E+02 -0.10053882200E+00 -0.12612063591E+02  0.72461545282E+02  0.69999967417E+02 0.  0.
        -12    1    1    2    0    0  0.13842176499E+02  0.10053882200E+00  0.12612063591E+02  0.18726454718E+02  0.00000000000E+00 0.  1.
         11    1    3    3    0    0 -0.44470406901E+01 -0.90257890249E+01  0.27418734154E+01  0.10428753929E+02  0.51100000000E-03 0. -1.
        -11    1    3    3    0    0 -0.15251811112E+02 -0.17627586860E+02  0.95217835315E+01  0.25179633090E+02  0.51100000000E-03 0.  1.
         12    1    3    3    0    0  0.58566753030E+01  0.26552837062E+02 -0.24875720538E+02  0.36853158263E+02  0.00000000000E+00 0. -1.
</event>
<event>
 7    1  0.2489154E-013  0.7246160E+02  0.7816164E-02  0.1226708E+00
        -11   -1    0    0    0    0  0.00000000000E+00  0.00000000000E+00  0.45593999997E+02  0.45594000000E+02  0.51100000000E-03 0.  1.
         11   -1    0    0    0    0 -0.00000000000E+00 -0.00000000000E+00 -0.45593999997E+02  0.45594000000E+02  0.51100000000E-03 0. -1.
    9900012    2    1    2    0    0 -0.86018255496E+01 -0.16043712056E+02 -0.43915978184E+01  0.72461595360E+02  0.70000032653E+02 0.  0.
        -12    1    1    2    0    0  0.86018255496E+01  0.16043712056E+02  0.43915978184E+01  0.18726404640E+02  0.00000000000E+00 0.  1.
         11    1    3    3    0    0 -0.91748582074E+01 -0.65682181854E+01 -0.29292159284E+02  0.31390286859E+02  0.51100000000E-03 0. -1.
        -11    1    3    3    0    0  0.44528736391E+01  0.89095952149E+01  0.10558195133E+00  0.99609295926E+01  0.51100000000E-03 0.  1.
        -12    1    3    3    0    0 -0.38798409813E+01 -0.18385089086E+02  0.24794979515E+02  0.31110378909E+02  0.00000000000E+00 0.  1.
</event>
<event>
 7    1  0.2489154E-013  0.7246165E+02  0.7816164E-02  0.1226708E+00
        -11   -1    0    0    0    0  0.00000000000E+00  0.00000000000E+00  0.45593999997E+02  0.45594000000E+02  0.51100000000E-03 0.  1.
         11   -1    0    0    0    0 -0.00000000000E+00 -0.00000000000E+00 -0.45593999997E+02  0.45594000000E+02  0.51100000000E-03 0. -1.
    9900012    2    1    2    0    0  0.18317387751E+02  0.36857328758E+00 -0.38747439516E+01  0.72461650089E+02  0.70000103947E+02 0.  0.
        -12    1    1    2    0    0 -0.18317387751E+02 -0.36857328758E+00  0.38747439516E+01  0.18726349911E+02  0.00000000000E+00 0.  1.
         11    1    3    3    0    0 -0.42836377337E+00  0.61046555636E+00 -0.88879843992E+01  0.89192169308E+01  0.51100000000E-03 0. -1.
        -11    1    3    3    0    0  0.18436070506E+02  0.22553809902E+02 -0.15391897039E+02  0.32946525333E+02  0.51100000000E-03 0.  1.
         12    1    3    3    0    0  0.30968101841E+00 -0.22795702171E+02  0.20405137486E+02  0.30595907825E+02  0.00000000000E+00 0. -1.
</event>
<event>
 7    1  0.2489154E-013  0.7246159E+02  0.7816164E-02  0.1226708E+00
        -11   -1    0    0    0    0  0.00000000000E+00  0.00000000000E+00  0.45593999997E+02  0.45594000000E+02  0.51100000000E-03 0. -1.
         11   -1    0    0    0    0 -0.00000000000E+00 -0.00000000000E+00 -0.45593999997E+02  0.45594000000E+02  0.51100000000E-03 0.  1.
    9900012    2    1    2    0    0  0.12465641534E+02  0.28740236670E+01  0.13675758507E+02  0.72461585457E+02  0.70000019752E+02 0.  0.
        -12    1    1    2    0    0 -0.12465641534E+02 -0.28740236670E+01 -0.13675758507E+02  0.18726414543E+02  0.00000000000E+00 0.  1.
         11    1    3    3    0    0 -0.10075088814E+02 -0.12234313222E+02 -0.12698338535E+02  0.20308462187E+02  0.51100000000E-03 0. -1.
        -11    1    3    3    0    0  0.76952496731E+01  0.79077809497E+01 -0.82642650798E+01  0.13785787778E+02  0.51100000000E-03 0.  1.
        -12    1    3    3    0    0  0.14845480674E+02  0.72005559389E+01  0.34638362122E+02  0.38367335492E+02  0.00000000000E+00 0.  1.
</event>
<event>
 7    1  0.2489154E-013  0.7246156E+02  0.7816164E-02  0.1226708E+00
        -11   -1    0    0    0    0  0.00000000000E+00  0.00000000000E+00  0.45593999997E+02  0.45594000000E+02  0.51100000000E-03 0.  1.
         11   -1    0    0    0    0 -0.00000000000E+00 -0.00000000000E+00 -0.45593999997E+02  0.45594000000E+02  0.51100000000E-03 0. -1.
    9900012    2    1    2    0    0 -0.49531336189E+01 -0.13035240468E+01 -0.18012409247E+02  0.72461558948E+02  0.69999985219E+02 0.  0.
        -12    1    1    2    0    0  0.49531336189E+01  0.13035240468E+01  0.18012409247E+02  0.18726441052E+02  0.00000000000E+00 0.  1.
         11    1    3    3    0    0 -0.22038358991E+02  0.17191271093E+02 -0.20699017203E+02  0.34780431024E+02  0.51100000000E-03 0. -1.
        -11    1    3    3    0    0 -0.59001002673E+01  0.15702060257E+01 -0.27383909868E+01  0.66914509327E+01  0.51100000000E-03 0.  1.
        -12    1    3    3    0    0  0.22985325639E+02 -0.20065001165E+02  0.54249989424E+01  0.30989676991E+02  0.00000000000E+00 0.  1.
</event>
<event>
 7    1  0.2489154E-013  0.7246158E+02  0.7816164E-02  0.1226708E+00
        -11   -1    0    0    0    0  0.00000000000E+00  0.00000000000E+00  0.45593999997E+02  0.45594000000E+02  0.51100000000E-03 0. -1.
         11   -1    0    0    0    0 -0.00000000000E+00 -0.00000000000E+00 -0.45593999997E+02  0.45594000000E+02  0.51100000000E-03 0.  1.
    9900012    2    1    2    0    0  0.17845004586E+02 -0.56758630552E+01 -0.13895177870E+00  0.72461577018E+02  0.70000008759E+02 0.  0.
        -12    1    1    2    0    0 -0.17845004586E+02  0.56758630552E+01  0.13895177870E+00  0.18726422982E+02  0.00000000000E+00 0.  1.
         11    1    3    3    0    0  0.26938796790E+02 -0.16863144095E+02  0.19267821971E+02  0.37166024337E+02  0.51100000000E-03 0. -1.
        -11    1    3    3    0    0 -0.30151726918E+01 -0.83681247302E+01 -0.45152252535E+01  0.99751710368E+01  0.51100000000E-03 0.  1.
        -12    1    3    3    0    0 -0.60786195116E+01  0.19555405770E+02 -0.14891548496E+02  0.25320381644E+02  0.00000000000E+00 0.  1.
</event>
<event>
 7    1  0.2489154E-013  0.7246155E+02  0.7816164E-02  0.1226708E+00
        -11   -1    0    0    0    0  0.00000000000E+00  0.00000000000E+00  0.45593999997E+02  0.45594000000E+02  0.51100000000E-03 0.  1.
         11   -1    0    0    0    0 -0.00000000000E+00 -0.00000000000E+00 -0.45593999997E+02  0.45594000000E+02  0.51100000000E-03 0. -1.
    9900012    2    1    2    0    0 -0.62943104316E+01 -0.17353649528E+02 -0.31484009319E+01  0.72461550144E+02  0.69999973751E+02 0.  0.
        -12    1    1    2    0    0  0.62943104316E+01  0.17353649528E+02  0.31484009319E+01  0.18726449856E+02  0.00000000000E+00 0.  1.
         11    1    3    3    0    0 -0.26071185539E+02 -0.25226916254E+02 -0.15185535626E+02  0.39328164356E+02  0.51100000000E-03 0. -1.
        -11    1    3    3    0    0 -0.15027654000E+01 -0.54601277790E+01  0.32446924688E+01  0.65268161219E+01  0.51100000000E-03 0.  1.
         12    1    3    3    0    0  0.21279640507E+02  0.13333394504E+02  0.87924422257E+01  0.26606569667E+02  0.00000000000E+00 0. -1.
</event>
<event>
 7    1  0.2489154E-013  0.7246158E+02  0.7816164E-02  0.1226708E+00
        -11   -1    0    0    0    0  0.00000000000E+00  0.00000000000E+00  0.45593999997E+02  0.45594000000E+02  0.51100000000E-03 0.  1.
         11   -1    0    0    0    0 -0.00000000000E+00 -0.00000000000E+00 -0.45593999997E+02  0.45594000000E+02  0.51100000000E-03 0. -1.
    9900012    2    1    2    0    0 -0.19759886964E+01  0.17005539852E+02  0.75885402073E+01  0.72461578573E+02  0.70000010784E+02 0.  0.
        -12    1    1    2    0    0  0.19759886964E+01 -0.17005539852E+02 -0.75885402073E+01  0.18726421427E+02  0.00000000000E+00 0.  1.
         11    1    3    3    0    0  0.14051590543E+02  0.11144543986E+02  0.92060489143E+01  0.20159350047E+02  0.51100000000E-03 0. -1.
        -11    1    3    3    0    0 -0.22721791449E+02  0.15630861151E+02  0.15386091026E+02  0.31580617858E+02  0.51100000000E-03 0.  1.
        -12    1    3    3    0    0  0.66942122096E+01 -0.97698652851E+01 -0.17003599733E+02  0.20721610668E+02  0.00000000000E+00 0.  1.
</event>
<event>
 7    1  0.2489154E-013  0.7246157E+02  0.7816164E-02  0.1226708E+00
        -11   -1    0    0    0    0  0.00000000000E+00  0.00000000000E+00  0.45593999997E+02  0.45594000000E+02  0.51100000000E-03 0. -1.
         11   -1    0    0    0    0 -0.00000000000E+00 -0.00000000000E+00 -0.45593999997E+02  0.45594000000E+02  0.51100000000E-03 0.  1.
    9900012    2    1    2    0    0  0.31243964807E+01  0.12167239048E+02  0.13887973183E+02  0.72461565247E+02  0.69999993425E+02 0.  0.
        -12    1    1    2    0    0 -0.31243964807E+01 -0.12167239048E+02 -0.13887973183E+02  0.18726434753E+02  0.00000000000E+00 0.  1.
         11    1    3    3    0    0  0.22967285369E+02  0.28565548849E+01  0.53951532676E+01  0.23764759247E+02  0.51100000000E-03 0. -1.
        -11    1    3    3    0    0  0.13450932277E+02  0.48461997101E+01  0.14124999158E+01  0.14366919887E+02  0.51100000000E-03 0.  1.
         12    1    3    3    0    0 -0.33293821166E+02  0.44644844534E+01  0.70803199996E+01  0.34329886113E+02  0.00000000000E+00 0. -1.
</event>
<event>
 7    1  0.2489154E-013  0.7246159E+02  0.7816164E-02  0.1226708E+00
        -11   -1    0    0    0    0  0.00000000000E+00  0.00000000000E+00  0.45593999997E+02  0.45594000000E+02  0.51100000000E-03 0.  1.
         11   -1    0    0    0    0 -0.00000000000E+00 -0.00000000000E+00 -0.45593999997E+02  0.45594000000E+02  0.51100000000E-03 0. -1.
    9900012    2    1    2    0    0 -0.11748707854E+02 -0.13873272954E+02 -0.44920594932E+01  0.72461589848E+02  0.70000025472E+02 0.  0.
        -12    1    1    2    0    0  0.11748707854E+02  0.13873272954E+02  0.44920594932E+01  0.18726410152E+02  0.00000000000E+00 0.  1.
         11    1    3    3    0    0 -0.11014785874E+02 -0.75670904209E+01 -0.20248485240E+02  0.24260822741E+02  0.51100000000E-03 0. -1.
        -11    1    3    3    0    0  0.15116379290E+02 -0.35766464627E+00 -0.94543290442E+01  0.17833036331E+02  0.51100000000E-03 0.  1.
        -12    1    3    3    0    0 -0.15850301270E+02 -0.59485178864E+01  0.25210754791E+02  0.30367730776E+02  0.00000000000E+00 0.  1.
</event>
<event>
 7    1  0.2489154E-013  0.7246160E+02  0.7816164E-02  0.1226708E+00
        -11   -1    0    0    0    0  0.00000000000E+00  0.00000000000E+00  0.45593999997E+02  0.45594000000E+02  0.51100000000E-03 0. -1.
         11   -1    0    0    0    0 -0.00000000000E+00 -0.00000000000E+00 -0.45593999997E+02  0.45594000000E+02  0.51100000000E-03 0.  1.
    9900012    2    1    2    0    0 -0.17323505555E+02  0.51737598107E+00  0.70927225058E+01  0.72461595242E+02  0.70000032499E+02 0.  0.
        -12    1    1    2    0    0  0.17323505555E+02 -0.51737598107E+00 -0.70927225058E+01  0.18726404758E+02  0.00000000000E+00 0.  1.
         11    1    3    3    0    0  0.33460060767E+01  0.90004500916E+01  0.11818663549E+02  0.15227759746E+02  0.51100000000E-03 0. -1.
        -11    1    3    3    0    0 -0.18340668623E+02 -0.10689367226E+02 -0.27216082329E+02  0.34516051843E+02  0.51100000000E-03 0.  1.
         12    1    3    3    0    0 -0.23288430081E+01  0.22062931155E+01  0.22490141286E+02  0.22717783653E+02  0.00000000000E+00 0. -1.
</event>
<event>
 7    1  0.2489154E-013  0.7246154E+02  0.7816164E-02  0.1226708E+00
        -11   -1    0    0    0    0  0.00000000000E+00  0.00000000000E+00  0.45593999997E+02  0.45594000000E+02  0.51100000000E-03 0. -1.
         11   -1    0    0    0    0 -0.00000000000E+00 -0.00000000000E+00 -0.45593999997E+02  0.45594000000E+02  0.51100000000E-03 0.  1.
    9900012    2    1    2    0    0 -0.75766331471E+01 -0.10010820148E+02  0.13894547912E+02  0.72461538734E+02  0.69999958886E+02 0.  0.
        -12    1    1    2    0    0  0.75766331471E+01  0.10010820148E+02 -0.13894547912E+02  0.18726461266E+02  0.00000000000E+00 0.  1.
         11    1    3    3    0    0 -0.19788436010E+02  0.11206197894E+01  0.23156911404E+02  0.30480822405E+02  0.51100000000E-03 0. -1.
        -11    1    3    3    0    0  0.11765346528E+02  0.12285456260E+02 -0.71915546551E+01  0.18468196259E+02  0.51100000000E-03 0.  1.
        -12    1    3    3    0    0  0.44645633541E+00 -0.23416896198E+02 -0.20708088373E+01  0.23512520070E+02  0.00000000000E+00 0.  1.
</event>
<event>
 7    1  0.2489154E-013  0.7246155E+02  0.7816164E-02  0.1226708E+00
        -11   -1    0    0    0    0  0.00000000000E+00  0.00000000000E+00  0.45593999997E+02  0.45594000000E+02  0.51100000000E-03 0.  1.
         11   -1    0    0    0    0 -0.00000000000E+00 -0.00000000000E+00 -0.45593999997E+02  0.45594000000E+02  0.51100000000E-03 0. -1.
    9900012    2    1    2    0    0 -0.15056201358E+02  0.10620999944E+02  0.33444109542E+01  0.72461550156E+02  0.69999973766E+02 0.  0.
        -12    1    1    2    0    0  0.15056201358E+02 -0.10620999944E+02 -0.33444109542E+01  0.18726449844E+02  0.00000000000E+00 0.  1.
         11    1    3    3    0    0 -0.11471181734E+02 -0.17036628586E+02 -0.16754989182E+02  0.26505931161E+02  0.51100000000E-03 0. -1.
        -11    1    3    3    0    0  0.79088908304E+01 -0.27279647037E+01  0.70697352491E+01  0.10953241636E+02  0.51100000000E-03 0.  1.
        -12    1    3    3    0    0 -0.11493910455E+02  0.30385593233E+02  0.13029664888E+02  0.35002377359E+02  0.00000000000E+00 0.  1.
</event>
<event>
 7    1  0.2489154E-013  0.7246160E+02  0.7816164E-02  0.1226708E+00
        -11   -1    0    0    0    0  0.00000000000E+00  0.00000000000E+00  0.45593999997E+02  0.45594000000E+02  0.51100000000E-03 0. -1.
         11   -1    0    0    0    0 -0.00000000000E+00 -0.00000000000E+00 -0.45593999997E+02  0.45594000000E+02  0.51100000000E-03 0.  1.
    9900012    2    1    2    0    0  0.55479059776E+01  0.40343909833E+01  0.17424766981E+02  0.72461599500E+02  0.70000038045E+02 0.  0.
        -12    1    1    2    0    0 -0.55479059776E+01 -0.40343909833E+01 -0.17424766981E+02  0.18726400500E+02  0.00000000000E+00 0.  1.
         11    1    3    3    0    0  0.72261563509E+01 -0.26015766832E+00 -0.28770220972E+01  0.77821766897E+01  0.51100000000E-03 0. -1.
        -11    1    3    3    0    0  0.29654316048E+02  0.28059497576E+00  0.74546635544E+01  0.30578247216E+02  0.51100000000E-03 0.  1.
         12    1    3    3    0    0 -0.31332566422E+02  0.40139536758E+01  0.12847125524E+02  0.34101175594E+02  0.00000000000E+00 0. -1.
</event>
<event>
 7    1  0.2489154E-013  0.7246162E+02  0.7816164E-02  0.1226708E+00
        -11   -1    0    0    0    0  0.00000000000E+00  0.00000000000E+00  0.45593999997E+02  0.45594000000E+02  0.51100000000E-03 0.  1.
         11   -1    0    0    0    0 -0.00000000000E+00 -0.00000000000E+00 -0.45593999997E+02  0.45594000000E+02  0.51100000000E-03 0. -1.
    9900012    2    1    2    0    0  0.56465835447E+01 -0.10324103015E+02 -0.14567306077E+02  0.72461617137E+02  0.70000061021E+02 0.  0.
        -12    1    1    2    0    0 -0.56465835447E+01  0.10324103015E+02  0.14567306077E+02  0.18726382863E+02  0.00000000000E+00 0.  1.
         11    1    3    3    0    0  0.76308670926E+00 -0.72051450841E+01  0.75565562115E+01  0.10468904386E+02  0.51100000000E-03 0. -1.
        -11    1    3    3    0    0  0.65583823788E+01  0.13263583458E+02  0.15190627892E+02  0.21205900159E+02  0.51100000000E-03 0.  1.
         12    1    3    3    0    0 -0.16748855434E+01 -0.16382541389E+02 -0.37314490180E+02  0.40786812591E+02  0.00000000000E+00 0. -1.
</event>
<event>
 7    1  0.2489154E-013  0.7246161E+02  0.7816164E-02  0.1226708E+00
        -11   -1    0    0    0    0  0.00000000000E+00  0.00000000000E+00  0.45593999997E+02  0.45594000000E+02  0.51100000000E-03 0.  1.
         11   -1    0    0    0    0 -0.00000000000E+00 -0.00000000000E+00 -0.45593999997E+02  0.45594000000E+02  0.51100000000E-03 0. -1.
    9900012    2    1    2    0    0 -0.13134181848E+02  0.13347001430E+02  0.16913530676E+00  0.72461607215E+02  0.70000048096E+02 0.  0.
        -12    1    1    2    0    0  0.13134181848E+02 -0.13347001430E+02 -0.16913530676E+00  0.18726392785E+02  0.00000000000E+00 0.  1.
         11    1    3    3    0    0 -0.32649816659E+01 -0.58710766974E+01  0.56996352647E+01  0.88099653392E+01  0.51100000000E-03 0. -1.
        -11    1    3    3    0    0  0.36988888513E+01 -0.20244666416E+02  0.37078728501E+01  0.20911160139E+02  0.51100000000E-03 0.  1.
         12    1    3    3    0    0 -0.13568089033E+02  0.39462744543E+02 -0.92383728081E+01  0.42740481736E+02  0.00000000000E+00 0. -1.
</event>
<event>
 7    1  0.2489154E-013  0.7246155E+02  0.7816164E-02  0.1226708E+00
        -11   -1    0    0    0    0  0.00000000000E+00  0.00000000000E+00  0.45593999997E+02  0.45594000000E+02  0.51100000000E-03 0. -1.
         11   -1    0    0    0    0 -0.00000000000E+00 -0.00000000000E+00 -0.45593999997E+02  0.45594000000E+02  0.51100000000E-03 0.  1.
    9900012    2    1    2    0    0 -0.17032886448E+02  0.71048148829E+01 -0.31752443131E+01  0.72461553681E+02  0.69999978358E+02 0.  0.
        -12    1    1    2    0    0  0.17032886448E+02 -0.71048148829E+01  0.31752443131E+01  0.18726446319E+02  0.00000000000E+00 0.  1.
         11    1    3    3    0    0  0.16117496573E+02 -0.14483826245E+02 -0.50315715154E+01  0.22245710388E+02  0.51100000000E-03 0. -1.
        -11    1    3    3    0    0  0.43991612246E+01  0.46926199562E+01  0.60457743894E+01  0.88274962340E+01  0.51100000000E-03 0.  1.
        -12    1    3    3    0    0 -0.37549544246E+02  0.16896021172E+02 -0.41894471871E+01  0.41388347059E+02  0.00000000000E+00 0.  1.
</event>
<event>
 7    1  0.2489154E-013  0.7246158E+02  0.7816164E-02  0.1226708E+00
        -11   -1    0    0    0    0  0.00000000000E+00  0.00000000000E+00  0.45593999997E+02  0.45594000000E+02  0.51100000000E-03 0.  1.
         11   -1    0    0    0    0 -0.00000000000E+00 -0.00000000000E+00 -0.45593999997E+02  0.45594000000E+02  0.51100000000E-03 0. -1.
    9900012    2    1    2    0    0  0.85098399004E+01 -0.16238386788E+02  0.38178815516E+01  0.72461580156E+02  0.70000012847E+02 0.  0.
        -12    1    1    2    0    0 -0.85098399004E+01  0.16238386788E+02 -0.38178815516E+01  0.18726419844E+02  0.00000000000E+00 0.  1.
         11    1    3    3    0    0 -0.47327489680E+01  0.53791193054E+01  0.29884474864E+01  0.77630313626E+01  0.51100000000E-03 0. -1.
        -11    1    3    3    0    0 -0.19065003327E+02 -0.12764674495E+02  0.15952526124E+02  0.27944487056E+02  0.51100000000E-03 0.  1.
         12    1    3    3    0    0  0.32307592196E+02 -0.88528315992E+01 -0.15123092058E+02  0.36754061738E+02  0.00000000000E+00 0. -1.
</event>
<event>
 7    1  0.2489154E-013  0.7246157E+02  0.7816164E-02  0.1226708E+00
        -11   -1    0    0    0    0  0.00000000000E+00  0.00000000000E+00  0.45593999997E+02  0.45594000000E+02  0.51100000000E-03 0.  1.
         11   -1    0    0    0    0 -0.00000000000E+00 -0.00000000000E+00 -0.45593999997E+02  0.45594000000E+02  0.51100000000E-03 0. -1.
    9900012    2    1    2    0    0  0.16543156505E+02 -0.87168144945E+01  0.10100748118E+01  0.72461571264E+02  0.70000001263E+02 0.  0.
        -12    1    1    2    0    0 -0.16543156505E+02  0.87168144945E+01 -0.10100748118E+01  0.18726428736E+02  0.00000000000E+00 0.  1.
         11    1    3    3    0    0  0.22701521290E+02 -0.37115462068E+01  0.24375916358E+02  0.33515965489E+02  0.51100000000E-03 0. -1.
        -11    1    3    3    0    0 -0.32737803512E+01  0.72515498775E+01  0.39384831604E+01  0.88777397619E+01  0.51100000000E-03 0.  1.
         12    1    3    3    0    0 -0.28845844336E+01 -0.12256818165E+02 -0.27304324706E+02  0.30067866013E+02  0.00000000000E+00 0. -1.
</event>
<event>
 7    1  0.2489154E-013  0.7246154E+02  0.7816164E-02  0.1226708E+00
        -11   -1    0    0    0    0  0.00000000000E+00  0.00000000000E+00  0.45593999997E+02  0.45594000000E+02  0.51100000000E-03 0.  1.
         11   -1    0    0    0    0 -0.00000000000E+00 -0.00000000000E+00 -0.45593999997E+02  0.45594000000E+02  0.51100000000E-03 0. -1.
    9900012    2    1    2    0    0  0.78128238108E+01  0.15123246336E+02 -0.78055975204E+01  0.72461544161E+02  0.69999965957E+02 0.  0.
        -12    1    1    2    0    0 -0.78128238108E+01 -0.15123246336E+02  0.78055975204E+01  0.18726455839E+02  0.00000000000E+00 0.  1.
         11    1    3    3    0    0 -0.12789263371E+02  0.12878526287E+02 -0.17266563159E+02  0.25051065855E+02  0.51100000000E-03 0. -1.
        -11    1    3    3    0    0 -0.76675552864E+01  0.30626551713E+01 -0.10083627966E+02  0.13032682532E+02  0.51100000000E-03 0.  1.
        -12    1    3    3    0    0  0.28269642468E+02 -0.81793512210E+00  0.19544593605E+02  0.34377795774E+02  0.00000000000E+00 0.  1.
</event>
<event>
 7    1  0.2489154E-013  0.7246158E+02  0.7816164E-02  0.1226708E+00
        -11   -1    0    0    0    0  0.00000000000E+00  0.00000000000E+00  0.45593999997E+02  0.45594000000E+02  0.51100000000E-03 0.  1.
         11   -1    0    0    0    0 -0.00000000000E+00 -0.00000000000E+00 -0.45593999997E+02  0.45594000000E+02  0.51100000000E-03 0. -1.
    9900012    2    1    2    0    0  0.33855782396E+01 -0.36549362995E+01 -0.18051542496E+02  0.72461577868E+02  0.70000009866E+02 0.  0.
        -12    1    1    2    0    0 -0.33855782396E+01  0.36549362995E+01  0.18051542496E+02  0.18726422132E+02  0.00000000000E+00 0.  1.
         11    1    3    3    0    0 -0.24635504932E+02 -0.12934909147E+02  0.61217216573E+01  0.28490269465E+02  0.51100000000E-03 0. -1.
        -11    1    3    3    0    0 -0.23539167073E+01  0.12859731132E+01 -0.84119782365E+01  0.88292711378E+01  0.51100000000E-03 0.  1.
        -12    1    3    3    0    0  0.30374999879E+02  0.79939997339E+01 -0.15761285917E+02  0.35142037265E+02  0.00000000000E+00 0.  1.
</event>
<event>
 7    1  0.2489154E-013  0.7246155E+02  0.7816164E-02  0.1226708E+00
        -11   -1    0    0    0    0  0.00000000000E+00  0.00000000000E+00  0.45593999997E+02  0.45594000000E+02  0.51100000000E-03 0.  1.
         11   -1    0    0    0    0 -0.00000000000E+00 -0.00000000000E+00 -0.45593999997E+02  0.45594000000E+02  0.51100000000E-03 0. -1.
    9900012    2    1    2    0    0 -0.35118863041E+00  0.13382649044E+02 -0.13094322146E+02  0.72461550754E+02  0.69999974545E+02 0.  0.
        -12    1    1    2    0    0  0.35118863041E+00 -0.13382649044E+02  0.13094322146E+02  0.18726449246E+02  0.00000000000E+00 0.  1.
         11    1    3    3    0    0  0.36584839990E+01  0.10109677018E+02 -0.23729150519E+02  0.26051154661E+02  0.51100000000E-03 0. -1.
        -11    1    3    3    0    0  0.20408036502E+02  0.36342513993E+01  0.56678620148E+01  0.21490006914E+02  0.51100000000E-03 0.  1.
         12    1    3    3    0    0 -0.24417709131E+02 -0.36127937355E+00  0.49669663579E+01  0.24920389178E+02  0.00000000000E+00 0. -1.
</event>
<event>
 7    1  0.2489154E-013  0.7246157E+02  0.7816164E-02  0.1226708E+00
        -11   -1    0    0    0    0  0.00000000000E+00  0.00000000000E+00  0.45593999997E+02  0.45594000000E+02  0.51100000000E-03 0. -1.
         11   -1    0    0    0    0 -0.00000000000E+00 -0.00000000000E+00 -0.45593999997E+02  0.45594000000E+02  0.51100000000E-03 0.  1.
    9900012    2    1    2    0    0  0.24554295375E+01 -0.18564727837E+02  0.33253224065E-01  0.72461565218E+02  0.69999993387E+02 0.  0.
        -12    1    1    2    0    0 -0.24554295375E+01  0.18564727837E+02 -0.33253224065E-01  0.18726434782E+02  0.00000000000E+00 0.  1.
         11    1    3    3    0    0  0.18166874124E+01 -0.30791018162E+02  0.20168380001E+02  0.36853096271E+02  0.51100000000E-03 0. -1.
        -11    1    3    3    0    0 -0.13368971380E+01  0.33059013643E+01  0.65197202536E+01  0.74312199694E+01  0.51100000000E-03 0.  1.
        -12    1    3    3    0    0  0.19756392631E+01  0.89203889612E+01 -0.26654847031E+02  0.28177248978E+02  0.00000000000E+00 0.  1.
</event>
<event>
 7    1  0.2489154E-013  0.7246156E+02  0.7816164E-02  0.1226708E+00
        -11   -1    0    0    0    0  0.00000000000E+00  0.00000000000E+00  0.45593999997E+02  0.45594000000E+02  0.51100000000E-03 0.  1.
         11   -1    0    0    0    0 -0.00000000000E+00 -0.00000000000E+00 -0.45593999997E+02  0.45594000000E+02  0.51100000000E-03 0. -1.
    9900012    2    1    2    0    0  0.74997567147E+01  0.14284955463E+02 -0.95064869684E+01  0.72461558858E+02  0.69999985102E+02 0.  0.
        -12    1    1    2    0    0 -0.74997567147E+01 -0.14284955463E+02  0.95064869684E+01  0.18726441142E+02  0.00000000000E+00 0.  1.
         11    1    3    3    0    0 -0.17085886133E+01  0.37231387194E+01  0.20684276979E+02  0.21086022655E+02  0.51100000000E-03 0.  1.
        -11    1    3    3    0    0 -0.15401527382E+02  0.41954448350E+01 -0.93124553568E+01  0.18480547289E+02  0.51100000000E-03 0. -1.
         12    1    3    3    0    0  0.24609872710E+02  0.63663719088E+01 -0.20878308591E+02  0.32894988915E+02  0.00000000000E+00 0. -1.
</event>
<event>
 7    1  0.2489154E-013  0.7246156E+02  0.7816164E-02  0.1226708E+00
        -11   -1    0    0    0    0  0.00000000000E+00  0.00000000000E+00  0.45593999997E+02  0.45594000000E+02  0.51100000000E-03 0. -1.
         11   -1    0    0    0    0 -0.00000000000E+00 -0.00000000000E+00 -0.45593999997E+02  0.45594000000E+02  0.51100000000E-03 0.  1.
    9900012    2    1    2    0    0 -0.15393327642E+02  0.16998686524E+01  0.10527844817E+02  0.72461558645E+02  0.69999984824E+02 0.  0.
        -12    1    1    2    0    0  0.15393327642E+02 -0.16998686524E+01 -0.10527844817E+02  0.18726441355E+02  0.00000000000E+00 0.  1.
         11    1    3    3    0    0 -0.19412720651E+02 -0.37968346469E+01  0.81093423389E+01  0.21378285942E+02  0.51100000000E-03 0. -1.
        -11    1    3    3    0    0 -0.21493674521E+02  0.62929505002E+01  0.98962770193E+01  0.24485007036E+02  0.51100000000E-03 0.  1.
         12    1    3    3    0    0  0.25513067530E+02 -0.79624720089E+00 -0.74777745412E+01  0.26598265667E+02  0.00000000000E+00 0. -1.
</event>
<event>
 7    1  0.2489154E-013  0.7246159E+02  0.7816164E-02  0.1226708E+00
        -11   -1    0    0    0    0  0.00000000000E+00  0.00000000000E+00  0.45593999997E+02  0.45594000000E+02  0.51100000000E-03 0. -1.
         11   -1    0    0    0    0 -0.00000000000E+00 -0.00000000000E+00 -0.45593999997E+02  0.45594000000E+02  0.51100000000E-03 0.  1.
    9900012    2    1    2    0    0 -0.11791254476E+02 -0.14411614475E+02  0.19874639249E+01  0.72461592796E+02  0.70000029313E+02 0.  0.
        -12    1    1    2    0    0  0.11791254476E+02  0.14411614475E+02 -0.19874639249E+01  0.18726407204E+02  0.00000000000E+00 0.  1.
         11    1    3    3    0    0  0.17498225919E+02  0.16738970086E+01  0.70191379703E+01  0.18927708251E+02  0.51100000000E-03 0. -1.
        -11    1    3    3    0    0 -0.88949354825E+00  0.68540703638E+01 -0.14287579547E+02  0.15871496744E+02  0.51100000000E-03 0.  1.
        -12    1    3    3    0    0 -0.28399986847E+02 -0.22939581848E+02  0.92559055017E+01  0.37662387802E+02  0.00000000000E+00 0.  1.
</event>
<event>
 7    1  0.2489154E-013  0.7246155E+02  0.7816164E-02  0.1226708E+00
        -11   -1    0    0    0    0  0.00000000000E+00  0.00000000000E+00  0.45593999997E+02  0.45594000000E+02  0.51100000000E-03 0.  1.
         11   -1    0    0    0    0 -0.00000000000E+00 -0.00000000000E+00 -0.45593999997E+02  0.45594000000E+02  0.51100000000E-03 0. -1.
    9900012    2    1    2    0    0 -0.18692449287E+02  0.11159105659E+01 -0.16468625720E+00  0.72461547098E+02  0.69999969782E+02 0.  0.
        -12    1    1    2    0    0  0.18692449287E+02 -0.11159105659E+01  0.16468625720E+00  0.18726452902E+02  0.00000000000E+00 0.  1.
         11    1    3    3    0    0 -0.13468294044E+02 -0.68205889903E+01 -0.30353436734E+02  0.33900538350E+02  0.51100000000E-03 0. -1.
        -11    1    3    3    0    0 -0.44628278371E+01 -0.73559065192E+01  0.94127411533E+01  0.12752485613E+02  0.51100000000E-03 0.  1.
        -12    1    3    3    0    0 -0.76132740574E+00  0.15292406075E+02  0.20776009323E+02  0.25808523135E+02  0.00000000000E+00 0.  1.
</event>
<event>
 7    1  0.2489154E-013  0.7246158E+02  0.7816164E-02  0.1226708E+00
        -11   -1    0    0    0    0  0.00000000000E+00  0.00000000000E+00  0.45593999997E+02  0.45594000000E+02  0.51100000000E-03 0.  1.
         11   -1    0    0    0    0 -0.00000000000E+00 -0.00000000000E+00 -0.45593999997E+02  0.45594000000E+02  0.51100000000E-03 0. -1.
    9900012    2    1    2    0    0  0.12857831223E+02 -0.11721778970E+02  0.69249368975E+01  0.72461583444E+02  0.70000017130E+02 0.  0.
        -12    1    1    2    0    0 -0.12857831223E+02  0.11721778970E+02 -0.69249368975E+01  0.18726416556E+02  0.00000000000E+00 0.  1.
         11    1    3    3    0    0  0.22356271282E+02 -0.12311590047E+02  0.97583914640E+01  0.27324061180E+02  0.51100000000E-03 0. -1.
        -11    1    3    3    0    0 -0.18714361873E+01 -0.20517301309E+02  0.52882056552E+01  0.21270332525E+02  0.51100000000E-03 0.  1.
        -12    1    3    3    0    0 -0.76270038720E+01  0.21107112385E+02 -0.81216602217E+01  0.23867189740E+02  0.00000000000E+00 0.  1.
</event>
<event>
 7    1  0.2489154E-013  0.7246157E+02  0.7816164E-02  0.1226708E+00
        -11   -1    0    0    0    0  0.00000000000E+00  0.00000000000E+00  0.45593999997E+02  0.45594000000E+02  0.51100000000E-03 0. -1.
         11   -1    0    0    0    0 -0.00000000000E+00 -0.00000000000E+00 -0.45593999997E+02  0.45594000000E+02  0.51100000000E-03 0.  1.
    9900012    2    1    2    0    0  0.48321084797E+01 -0.21750102205E+01 -0.17961047354E+02  0.72461570445E+02  0.70000000196E+02 0.  0.
        -12    1    1    2    0    0 -0.48321084797E+01  0.21750102205E+01  0.17961047354E+02  0.18726429555E+02  0.00000000000E+00 0.  1.
         11    1    3    3    0    0  0.11431014000E+02 -0.26311704711E+02  0.36675359471E+01  0.28921008040E+02  0.51100000000E-03 0. -1.
        -11    1    3    3    0    0  0.27886619053E+01  0.54756207051E+00  0.56197759466E+01  0.62974869110E+01  0.51100000000E-03 0.  1.
        -12    1    3    3    0    0 -0.93875674259E+01  0.23589132420E+02 -0.27248359248E+02  0.37243075494E+02  0.00000000000E+00 0.  1.
</event>
<event>
 7    1  0.2489154E-013  0.7246152E+02  0.7816164E-02  0.1226708E+00
        -11   -1    0    0    0    0  0.00000000000E+00  0.00000000000E+00  0.45593999997E+02  0.45594000000E+02  0.51100000000E-03 0. -1.
         11   -1    0    0    0    0 -0.00000000000E+00 -0.00000000000E+00 -0.45593999997E+02  0.45594000000E+02  0.51100000000E-03 0.  1.
    9900012    2    1    2    0    0  0.18211446208E+02 -0.27652817559E+01  0.33730590104E+01  0.72461519197E+02  0.69999933436E+02 0.  0.
        -12    1    1    2    0    0 -0.18211446208E+02  0.27652817559E+01 -0.33730590104E+01  0.18726480803E+02  0.00000000000E+00 0.  1.
         11    1    3    3    0    0  0.10875252081E+02  0.71811268140E+01 -0.12355306170E+02  0.17958097921E+02  0.51100000000E-03 0. -1.
        -11    1    3    3    0    0 -0.91457784744E+01 -0.13074563077E+01 -0.15561960201E+02  0.18097770897E+02  0.51100000000E-03 0.  1.
         12    1    3    3    0    0  0.16481972602E+02 -0.86389522623E+01  0.31290325381E+02  0.36405650378E+02  0.00000000000E+00 0. -1.
</event>
<event>
 7    1  0.2489154E-013  0.7246157E+02  0.7816164E-02  0.1226708E+00
        -11   -1    0    0    0    0  0.00000000000E+00  0.00000000000E+00  0.45593999997E+02  0.45594000000E+02  0.51100000000E-03 0.  1.
         11   -1    0    0    0    0 -0.00000000000E+00 -0.00000000000E+00 -0.45593999997E+02  0.45594000000E+02  0.51100000000E-03 0. -1.
    9900012    2    1    2    0    0 -0.16926983084E+02  0.78003260452E+01 -0.18197248030E+01  0.72461568384E+02  0.69999997511E+02 0.  0.
        -12    1    1    2    0    0  0.16926983084E+02 -0.78003260452E+01  0.18197248030E+01  0.18726431616E+02  0.00000000000E+00 0.  1.
         11    1    3    3    0    0 -0.60401533804E+01  0.12341923872E+02 -0.16688757954E+02  0.21617612728E+02  0.51100000000E-03 0. -1.
        -11    1    3    3    0    0  0.11178261876E+01  0.19292555161E+02  0.14491126048E+02  0.24154605243E+02  0.51100000000E-03 0.  1.
         12    1    3    3    0    0 -0.12004655891E+02 -0.23834152988E+02  0.37790710300E+00  0.26689350413E+02  0.00000000000E+00 0. -1.
</event>
<event>
 7    1  0.2489154E-013  0.7246155E+02  0.7816164E-02  0.1226708E+00
        -11   -1    0    0    0    0  0.00000000000E+00  0.00000000000E+00  0.45593999997E+02  0.45594000000E+02  0.51100000000E-03 0. -1.
         11   -1    0    0    0    0 -0.00000000000E+00 -0.00000000000E+00 -0.45593999997E+02  0.45594000000E+02  0.51100000000E-03 0.  1.
    9900012    2    1    2    0    0 -0.18181566624E+02 -0.44637993678E+01  0.43035945655E+00  0.72461546013E+02  0.69999968368E+02 0.  0.
        -12    1    1    2    0    0  0.18181566624E+02  0.44637993678E+01 -0.43035945655E+00  0.18726453987E+02  0.00000000000E+00 0.  1.
         11    1    3    3    0    0 -0.16257907598E+02 -0.38320697084E+01 -0.47067754556E+01  0.17353905991E+02  0.51100000000E-03 0. -1.
        -11    1    3    3    0    0  0.33412818184E+01 -0.64186189081E+01 -0.23933063371E+02  0.25003086919E+02  0.51100000000E-03 0.  1.
         12    1    3    3    0    0 -0.52649408443E+01  0.57868892486E+01  0.29070198283E+02  0.30104553102E+02  0.00000000000E+00 0. -1.
</event>
<event>
 7    1  0.2489154E-013  0.7246157E+02  0.7816164E-02  0.1226708E+00
        -11   -1    0    0    0    0  0.00000000000E+00  0.00000000000E+00  0.45593999997E+02  0.45594000000E+02  0.51100000000E-03 0.  1.
         11   -1    0    0    0    0 -0.00000000000E+00 -0.00000000000E+00 -0.45593999997E+02  0.45594000000E+02  0.51100000000E-03 0. -1.
    9900012    2    1    2    0    0  0.21213292165E+01  0.18468749421E+02 -0.22548847564E+01  0.72461568196E+02  0.69999997267E+02 0.  0.
        -12    1    1    2    0    0 -0.21213292165E+01 -0.18468749421E+02  0.22548847564E+01  0.18726431804E+02  0.00000000000E+00 0.  1.
         11    1    3    3    0    0  0.74023540336E+01  0.13451836932E+02 -0.13294141994E+02  0.20309627611E+02  0.51100000000E-03 0. -1.
        -11    1    3    3    0    0 -0.95357055359E+00  0.16610615024E+02 -0.15581859093E+02  0.22795090729E+02  0.51100000000E-03 0.  1.
        -12    1    3    3    0    0 -0.43274542635E+01 -0.11593702535E+02  0.26621116330E+02  0.29356849857E+02  0.00000000000E+00 0.  1.
</event>
<event>
 7    1  0.2489154E-013  0.7246156E+02  0.7816164E-02  0.1226708E+00
        -11   -1    0    0    0    0  0.00000000000E+00  0.00000000000E+00  0.45593999997E+02  0.45594000000E+02  0.51100000000E-03 0.  1.
         11   -1    0    0    0    0 -0.00000000000E+00 -0.00000000000E+00 -0.45593999997E+02  0.45594000000E+02  0.51100000000E-03 0. -1.
    9900012    2    1    2    0    0  0.28930909568E+01  0.18277850176E+02  0.28687513203E+01  0.72461561031E+02  0.69999987932E+02 0.  0.
        -12    1    1    2    0    0 -0.28930909568E+01 -0.18277850176E+02 -0.28687513203E+01  0.18726438969E+02  0.00000000000E+00 0.  1.
         11    1    3    3    0    0  0.19058310619E+01  0.86835302750E+01 -0.16305284600E+02  0.18571434953E+02  0.51100000000E-03 0. -1.
        -11    1    3    3    0    0  0.64409443066E+01  0.35918145169E+01 -0.16093160975E+02  0.17702449704E+02  0.51100000000E-03 0.  1.
        -12    1    3    3    0    0 -0.54536844117E+01  0.60025053839E+01  0.35267196895E+02  0.36187676374E+02  0.00000000000E+00 0.  1.
</event>
<event>
 7    1  0.2489154E-013  0.7246156E+02  0.7816164E-02  0.1226708E+00
        -11   -1    0    0    0    0  0.00000000000E+00  0.00000000000E+00  0.45593999997E+02  0.45594000000E+02  0.51100000000E-03 0.  1.
         11   -1    0    0    0    0 -0.00000000000E+00 -0.00000000000E+00 -0.45593999997E+02  0.45594000000E+02  0.51100000000E-03 0. -1.
    9900012    2    1    2    0    0 -0.10957529134E+02 -0.66008198977E+01 -0.13676302117E+02  0.72461561267E+02  0.69999988240E+02 0.  0.
        -12    1    1    2    0    0  0.10957529134E+02  0.66008198977E+01  0.13676302117E+02  0.18726438733E+02  0.00000000000E+00 0.  1.
         11    1    3    3    0    0  0.46889484656E+01 -0.22868226674E+01  0.69206702652E+01  0.86666875337E+01  0.51100000000E-03 0. -1.
        -11    1    3    3    0    0 -0.13412552180E+02  0.15365144688E+01  0.19220472014E+02  0.23487953879E+02  0.51100000000E-03 0.  1.
         12    1    3    3    0    0 -0.22339254194E+01 -0.58505116991E+01 -0.39817444396E+02  0.40306919855E+02  0.00000000000E+00 0. -1.
</event>
<event>
 7    1  0.2489154E-013  0.7246158E+02  0.7816164E-02  0.1226708E+00
        -11   -1    0    0    0    0  0.00000000000E+00  0.00000000000E+00  0.45593999997E+02  0.45594000000E+02  0.51100000000E-03 0.  1.
         11   -1    0    0    0    0 -0.00000000000E+00 -0.00000000000E+00 -0.45593999997E+02  0.45594000000E+02  0.51100000000E-03 0. -1.
    9900012    2    1    2    0    0  0.25979847689E+01 -0.67789179199E+01 -0.17261966511E+02  0.72461581740E+02  0.70000014910E+02 0.  0.
        -12    1    1    2    0    0 -0.25979847689E+01  0.67789179199E+01  0.17261966511E+02  0.18726418260E+02  0.00000000000E+00 0.  1.
         11    1    3    3    0    0  0.67768399639E+01 -0.14349036059E+01  0.25053038867E+01  0.73662104287E+01  0.51100000000E-03 0. -1.
        -11    1    3    3    0    0  0.12052983879E+02  0.17985342683E+02  0.10079417640E+02  0.23881826397E+02  0.51100000000E-03 0.  1.
        -12    1    3    3    0    0 -0.16231839074E+02 -0.23329356997E+02 -0.29846688037E+02  0.41213544915E+02  0.00000000000E+00 0.  1.
</event>
<event>
 7    1  0.2489154E-013  0.7246146E+02  0.7816164E-02  0.1226708E+00
        -11   -1    0    0    0    0  0.00000000000E+00  0.00000000000E+00  0.45593999997E+02  0.45594000000E+02  0.51100000000E-03 0.  1.
         11   -1    0    0    0    0 -0.00000000000E+00 -0.00000000000E+00 -0.45593999997E+02  0.45594000000E+02  0.51100000000E-03 0. -1.
    9900012    2    1    2    0    0  0.48082070882E+01 -0.17987964185E+02  0.19993592805E+01  0.72461464056E+02  0.69999861605E+02 0.  0.
        -12    1    1    2    0    0 -0.48082070882E+01  0.17987964185E+02 -0.19993592805E+01  0.18726535944E+02  0.00000000000E+00 0.  1.
         11    1    3    3    0    0 -0.48243202370E+01 -0.87895021484E+01 -0.11532848961E+02  0.15281885328E+02  0.51100000000E-03 0. -1.
        -11    1    3    3    0    0 -0.19549975207E+02 -0.15552000441E+02  0.10710230585E+02  0.27180421037E+02  0.51100000000E-03 0.  1.
         12    1    3    3    0    0  0.29182502532E+02  0.63535384052E+01  0.28219776567E+01  0.29999157691E+02  0.00000000000E+00 0. -1.
</event>
<event>
 7    1  0.2489154E-013  0.7246156E+02  0.7816164E-02  0.1226708E+00
        -11   -1    0    0    0    0  0.00000000000E+00  0.00000000000E+00  0.45593999997E+02  0.45594000000E+02  0.51100000000E-03 0. -1.
         11   -1    0    0    0    0 -0.00000000000E+00 -0.00000000000E+00 -0.45593999997E+02  0.45594000000E+02  0.51100000000E-03 0.  1.
    9900012    2    1    2    0    0 -0.10829527293E+01  0.86596534619E+01  0.16568561881E+02  0.72461558066E+02  0.69999984070E+02 0.  0.
        -12    1    1    2    0    0  0.10829527293E+01 -0.86596534619E+01 -0.16568561881E+02  0.18726441934E+02  0.00000000000E+00 0.  1.
         11    1    3    3    0    0 -0.36721188942E+01 -0.18139900250E+01  0.49212012267E+01  0.64025962514E+01  0.51100000000E-03 0. -1.
        -11    1    3    3    0    0 -0.23710755366E+02 -0.15259857587E+02  0.40300620441E+01  0.28483408749E+02  0.51100000000E-03 0.  1.
        -12    1    3    3    0    0  0.26299921531E+02  0.25733501074E+02  0.76172986106E+01  0.37575553066E+02  0.00000000000E+00 0.  1.
</event>
<event>
 7    1  0.2489154E-013  0.7246145E+02  0.7816164E-02  0.1226708E+00
        -11   -1    0    0    0    0  0.00000000000E+00  0.00000000000E+00  0.45593999997E+02  0.45594000000E+02  0.51100000000E-03 0.  1.
         11   -1    0    0    0    0 -0.00000000000E+00 -0.00000000000E+00 -0.45593999997E+02  0.45594000000E+02  0.51100000000E-03 0. -1.
    9900012    2    1    2    0    0 -0.16169065536E+02 -0.89076682780E+01 -0.31461923171E+01  0.72461447713E+02  0.69999840315E+02 0.  0.
        -12    1    1    2    0    0  0.16169065536E+02  0.89076682780E+01  0.31461923171E+01  0.18726552287E+02  0.00000000000E+00 0.  1.
         11    1    3    3    0    0 -0.11265841208E+02 -0.90015250168E+01 -0.99829803690E+01  0.17538715120E+02  0.51100000000E-03 0. -1.
        -11    1    3    3    0    0 -0.22778450248E+02 -0.14210592963E+02 -0.75430242438E+01  0.27887200703E+02  0.51100000000E-03 0.  1.
         12    1    3    3    0    0  0.17875225920E+02  0.14304449702E+02  0.14379812296E+02  0.27035531891E+02  0.00000000000E+00 0. -1.
</event>
<event>
 7    1  0.2489154E-013  0.7246129E+02  0.7816164E-02  0.1226709E+00
        -11   -1    0    0    0    0  0.00000000000E+00  0.00000000000E+00  0.45593999997E+02  0.45594000000E+02  0.51100000000E-03 0. -1.
         11   -1    0    0    0    0 -0.00000000000E+00 -0.00000000000E+00 -0.45593999997E+02  0.45594000000E+02  0.51100000000E-03 0.  1.
    9900012    2    1    2    0    0 -0.26866009456E+01 -0.16173619756E+02  0.90490772317E+01  0.72461291817E+02  0.69999637230E+02 0.  0.
        -12    1    1    2    0    0  0.26866009456E+01  0.16173619756E+02 -0.90490772317E+01  0.18726708183E+02  0.00000000000E+00 0.  1.
         11    1    3    3    0    0 -0.97416172909E+01 -0.25054936151E+01  0.72368617995E+01  0.12391479922E+02  0.51100000000E-03 0. -1.
        -11    1    3    3    0    0 -0.21711819660E+02 -0.18596659825E+02 -0.72811092970E+01  0.29500058008E+02  0.51100000000E-03 0.  1.
         12    1    3    3    0    0  0.28766836006E+02  0.49285336845E+01  0.90933247292E+01  0.30569753886E+02  0.00000000000E+00 0. -1.
</event>
<event>
 7    1  0.2489154E-013  0.7246154E+02  0.7816164E-02  0.1226708E+00
        -11   -1    0    0    0    0  0.00000000000E+00  0.00000000000E+00  0.45593999997E+02  0.45594000000E+02  0.51100000000E-03 0.  1.
         11   -1    0    0    0    0 -0.00000000000E+00 -0.00000000000E+00 -0.45593999997E+02  0.45594000000E+02  0.51100000000E-03 0. -1.
    9900012    2    1    2    0    0  0.14678759717E+02 -0.26812222831E+01 -0.11314822292E+02  0.72461544296E+02  0.69999966132E+02 0.  0.
        -12    1    1    2    0    0 -0.14678759717E+02  0.26812222831E+01  0.11314822292E+02  0.18726455704E+02  0.00000000000E+00 0.  1.
         11    1    3    3    0    0  0.23469348234E+02  0.67935493879E+01 -0.28793713572E+02  0.37762952233E+02  0.51100000000E-03 0. -1.
        -11    1    3    3    0    0 -0.22163079551E+01  0.91572487691E+01  0.20796141227E+01  0.96484206547E+01  0.51100000000E-03 0.  1.
        -12    1    3    3    0    0 -0.65742805618E+01 -0.18632020440E+02  0.15399277158E+02  0.25050171408E+02  0.00000000000E+00 0.  1.
</event>
<event>
 7    1  0.2489154E-013  0.7246161E+02  0.7816164E-02  0.1226708E+00
        -11   -1    0    0    0    0  0.00000000000E+00  0.00000000000E+00  0.45593999997E+02  0.45594000000E+02  0.51100000000E-03 0. -1.
         11   -1    0    0    0    0 -0.00000000000E+00 -0.00000000000E+00 -0.45593999997E+02  0.45594000000E+02  0.51100000000E-03 0.  1.
    9900012    2    1    2    0    0 -0.10375761034E+02 -0.20105614059E+01  0.15458939702E+02  0.72461612444E+02  0.70000054908E+02 0.  0.
        -12    1    1    2    0    0  0.10375761034E+02  0.20105614059E+01 -0.15458939702E+02  0.18726387556E+02  0.00000000000E+00 0.  1.
         11    1    3    3    0    0 -0.64562612954E+01  0.37554696370E+01  0.50465530312E+01  0.90141311210E+01  0.51100000000E-03 0. -1.
        -11    1    3    3    0    0 -0.17536905276E+02  0.21330795938E+02  0.16981779726E+02  0.32418000323E+02  0.51100000000E-03 0.  1.
         12    1    3    3    0    0  0.13617405538E+02 -0.27096826981E+02 -0.65693930557E+01  0.31029481000E+02  0.00000000000E+00 0. -1.
</event>
<event>
 7    1  0.2489154E-013  0.7246162E+02  0.7816164E-02  0.1226708E+00
        -11   -1    0    0    0    0  0.00000000000E+00  0.00000000000E+00  0.45593999997E+02  0.45594000000E+02  0.51100000000E-03 0. -1.
         11   -1    0    0    0    0 -0.00000000000E+00 -0.00000000000E+00 -0.45593999997E+02  0.45594000000E+02  0.51100000000E-03 0.  1.
    9900012    2    1    2    0    0 -0.15041443376E+02 -0.60248378568E+01  0.93879550349E+01  0.72461617814E+02  0.70000061903E+02 0.  0.
        -12    1    1    2    0    0  0.15041443376E+02  0.60248378568E+01 -0.93879550349E+01  0.18726382186E+02  0.00000000000E+00 0.  1.
         11    1    3    3    0    0 -0.57455566829E+01 -0.11053115155E+02  0.77851532947E+01  0.14689839629E+02  0.51100000000E-03 0. -1.
        -11    1    3    3    0    0 -0.17377137439E+02 -0.22545874832E+02 -0.31798869712E+01  0.28642504411E+02  0.51100000000E-03 0.  1.
         12    1    3    3    0    0  0.80812507451E+01  0.27574152131E+02  0.47826887115E+01  0.29129273775E+02  0.00000000000E+00 0. -1.
</event>
<event>
 7    1  0.2489154E-013  0.7246154E+02  0.7816164E-02  0.1226708E+00
        -11   -1    0    0    0    0  0.00000000000E+00  0.00000000000E+00  0.45593999997E+02  0.45594000000E+02  0.51100000000E-03 0.  1.
         11   -1    0    0    0    0 -0.00000000000E+00 -0.00000000000E+00 -0.45593999997E+02  0.45594000000E+02  0.51100000000E-03 0. -1.
    9900012    2    1    2    0    0 -0.14489128387E+02 -0.42753929803E+01 -0.11066459146E+02  0.72461538920E+02  0.69999959129E+02 0.  0.
        -12    1    1    2    0    0  0.14489128387E+02  0.42753929803E+01  0.11066459146E+02  0.18726461080E+02  0.00000000000E+00 0.  1.
         11    1    3    3    0    0  0.91204524296E+01 -0.47157602106E+01 -0.10342725569E+02  0.14573709869E+02  0.51100000000E-03 0. -1.
        -11    1    3    3    0    0  0.31350354696E+01 -0.20093001319E+01  0.22241589206E+02  0.22551142434E+02  0.51100000000E-03 0.  1.
         12    1    3    3    0    0 -0.26744616287E+02  0.24496673622E+01 -0.22965322784E+02  0.35336686617E+02  0.00000000000E+00 0. -1.
</event>
<event>
 7    1  0.2489154E-013  0.7246159E+02  0.7816164E-02  0.1226708E+00
        -11   -1    0    0    0    0  0.00000000000E+00  0.00000000000E+00  0.45593999997E+02  0.45594000000E+02  0.51100000000E-03 0. -1.
         11   -1    0    0    0    0 -0.00000000000E+00 -0.00000000000E+00 -0.45593999997E+02  0.45594000000E+02  0.51100000000E-03 0.  1.
    9900012    2    1    2    0    0  0.17662911987E+02 -0.50980538298E+01  0.35651004766E+01  0.72461586725E+02  0.70000021404E+02 0.  0.
        -12    1    1    2    0    0 -0.17662911987E+02  0.50980538298E+01 -0.35651004766E+01  0.18726413275E+02  0.00000000000E+00 0.  1.
         11    1    3    3    0    0  0.16103188716E+02 -0.21447911268E+02  0.22070280975E+02  0.34733598822E+02  0.51100000000E-03 0. -1.
        -11    1    3    3    0    0  0.11388907219E+02 -0.20276657981E+01 -0.97260930687E+01  0.15113421945E+02  0.51100000000E-03 0.  1.
        -12    1    3    3    0    0 -0.98291839482E+01  0.18377523236E+02 -0.87790874294E+01  0.22614565958E+02  0.00000000000E+00 0.  1.
</event>
<event>
 7    1  0.2489154E-013  0.7246159E+02  0.7816164E-02  0.1226708E+00
        -11   -1    0    0    0    0  0.00000000000E+00  0.00000000000E+00  0.45593999997E+02  0.45594000000E+02  0.51100000000E-03 0.  1.
         11   -1    0    0    0    0 -0.00000000000E+00 -0.00000000000E+00 -0.45593999997E+02  0.45594000000E+02  0.51100000000E-03 0. -1.
    9900012    2    1    2    0    0  0.96672719635E+01  0.24920311349E+01  0.15843356533E+02  0.72461593173E+02  0.70000029804E+02 0.  0.
        -12    1    1    2    0    0 -0.96672719635E+01 -0.24920311349E+01 -0.15843356533E+02  0.18726406827E+02  0.00000000000E+00 0.  1.
         11    1    3    3    0    0  0.83082744264E+00  0.20448887965E+02 -0.12097347518E+02  0.23773790410E+02  0.51100000000E-03 0. -1.
        -11    1    3    3    0    0 -0.32534308080E+01  0.67121077438E+01 -0.23251708721E+01  0.78130418041E+01  0.51100000000E-03 0.  1.
        -12    1    3    3    0    0  0.12089875329E+02 -0.24668964574E+02  0.30265874923E+02  0.40874760959E+02  0.00000000000E+00 0.  1.
</event>
<event>
 7    1  0.2489154E-013  0.7246151E+02  0.7816164E-02  0.1226708E+00
        -11   -1    0    0    0    0  0.00000000000E+00  0.00000000000E+00  0.45593999997E+02  0.45594000000E+02  0.51100000000E-03 0. -1.
         11   -1    0    0    0    0 -0.00000000000E+00 -0.00000000000E+00 -0.45593999997E+02  0.45594000000E+02  0.51100000000E-03 0.  1.
    9900012    2    1    2    0    0  0.68042548266E+01  0.15899974412E+02  0.71815220106E+01  0.72461512651E+02  0.69999924908E+02 0.  0.
        -12    1    1    2    0    0 -0.68042548266E+01 -0.15899974412E+02 -0.71815220106E+01  0.18726487349E+02  0.00000000000E+00 0.  1.
         11    1    3    3    0    0  0.14044429539E+01  0.16535123053E+01  0.31186319730E+00  0.21917622748E+01  0.51100000000E-03 0. -1.
        -11    1    3    3    0    0  0.16726155009E+01  0.25645827255E+02 -0.25222713018E+02  0.36009600809E+02  0.51100000000E-03 0.  1.
         12    1    3    3    0    0  0.37271963718E+01 -0.11399365148E+02  0.32092371831E+02  0.34260149567E+02  0.00000000000E+00 0. -1.
</event>
<event>
 7    1  0.2489154E-013  0.7246161E+02  0.7816164E-02  0.1226708E+00
        -11   -1    0    0    0    0  0.00000000000E+00  0.00000000000E+00  0.45593999997E+02  0.45594000000E+02  0.51100000000E-03 0.  1.
         11   -1    0    0    0    0 -0.00000000000E+00 -0.00000000000E+00 -0.45593999997E+02  0.45594000000E+02  0.51100000000E-03 0. -1.
    9900012    2    1    2    0    0  0.17606297146E+01 -0.99804601885E+01 -0.15747010051E+02  0.72461608780E+02  0.70000050135E+02 0.  0.
        -12    1    1    2    0    0 -0.17606297146E+01  0.99804601885E+01  0.15747010051E+02  0.18726391220E+02  0.00000000000E+00 0.  1.
         11    1    3    3    0    0 -0.26567046919E+02 -0.13718488644E+02 -0.43236344656E+01  0.30210904123E+02  0.51100000000E-03 0. -1.
        -11    1    3    3    0    0 -0.27777952430E+01  0.82353462268E+01  0.32621695195E+00  0.86973266955E+01  0.51100000000E-03 0.  1.
        -12    1    3    3    0    0  0.31105471877E+02 -0.44973177708E+01 -0.11749592538E+02  0.33553377961E+02  0.00000000000E+00 0.  1.
</event>
<event>
 7    1  0.2489154E-013  0.7246158E+02  0.7816164E-02  0.1226708E+00
        -11   -1    0    0    0    0  0.00000000000E+00  0.00000000000E+00  0.45593999997E+02  0.45594000000E+02  0.51100000000E-03 0. -1.
         11   -1    0    0    0    0 -0.00000000000E+00 -0.00000000000E+00 -0.45593999997E+02  0.45594000000E+02  0.51100000000E-03 0.  1.
    9900012    2    1    2    0    0  0.90625487984E+01 -0.15702856552E+02  0.46871441108E+01  0.72461579772E+02  0.70000012347E+02 0.  0.
        -12    1    1    2    0    0 -0.90625487984E+01  0.15702856552E+02 -0.46871441108E+01  0.18726420228E+02  0.00000000000E+00 0.  1.
         11    1    3    3    0    0  0.17873096549E+02  0.12003349281E+02  0.14508315253E+02  0.25961879476E+02  0.51100000000E-03 0. -1.
        -11    1    3    3    0    0  0.23689382195E+01  0.73486000556E+01  0.17729394904E+01  0.79219382580E+01  0.51100000000E-03 0.  1.
        -12    1    3    3    0    0 -0.11179485970E+02 -0.35054805889E+02 -0.11594110632E+02  0.38577762038E+02  0.00000000000E+00 0.  1.
</event>
<event>
 7    1  0.2489154E-013  0.7246154E+02  0.7816164E-02  0.1226708E+00
        -11   -1    0    0    0    0  0.00000000000E+00  0.00000000000E+00  0.45593999997E+02  0.45594000000E+02  0.51100000000E-03 0.  1.
         11   -1    0    0    0    0 -0.00000000000E+00 -0.00000000000E+00 -0.45593999997E+02  0.45594000000E+02  0.51100000000E-03 0. -1.
    9900012    2    1    2    0    0  0.15537098921E+02 -0.99094969396E-01 -0.10453190703E+02  0.72461535877E+02  0.69999955165E+02 0.  0.
        -12    1    1    2    0    0 -0.15537098921E+02  0.99094969396E-01  0.10453190703E+02  0.18726464123E+02  0.00000000000E+00 0.  1.
         11    1    3    3    0    0 -0.88418454555E+01  0.45748733230E+01 -0.89906547038E+01  0.13414155555E+02  0.51100000000E-03 0. -1.
        -11    1    3    3    0    0  0.19357639442E+02  0.21414919335E+02 -0.10895187521E+02  0.30854855149E+02  0.51100000000E-03 0.  1.
        -12    1    3    3    0    0  0.50213049340E+01 -0.26088887627E+02  0.94326515221E+01  0.28192525173E+02  0.00000000000E+00 0.  1.
</event>
<event>
 7    1  0.2489154E-013  0.7246161E+02  0.7816164E-02  0.1226708E+00
        -11   -1    0    0    0    0  0.00000000000E+00  0.00000000000E+00  0.45593999997E+02  0.45594000000E+02  0.51100000000E-03 0.  1.
         11   -1    0    0    0    0 -0.00000000000E+00 -0.00000000000E+00 -0.45593999997E+02  0.45594000000E+02  0.51100000000E-03 0. -1.
    9900012    2    1    2    0    0  0.13075117777E+02 -0.28263720663E+01 -0.13104605161E+02  0.72461607919E+02  0.70000049013E+02 0.  0.
        -12    1    1    2    0    0 -0.13075117777E+02  0.28263720663E+01  0.13104605161E+02  0.18726392081E+02  0.00000000000E+00 0.  1.
         11    1    3    3    0    0  0.24099766725E+01  0.55017916445E+01  0.11490246876E+02  0.12965472317E+02  0.51100000000E-03 0.  1.
        -11    1    3    3    0    0 -0.19120467163E+02  0.24719475131E+01  0.17372304052E+00  0.19280377823E+02  0.51100000000E-03 0. -1.
        -12    1    3    3    0    0  0.29785608268E+02 -0.10800111224E+02 -0.24768575078E+02  0.40215757779E+02  0.00000000000E+00 0.  1.
</event>
<event>
 7    1  0.2489154E-013  0.7246161E+02  0.7816164E-02  0.1226708E+00
        -11   -1    0    0    0    0  0.00000000000E+00  0.00000000000E+00  0.45593999997E+02  0.45594000000E+02  0.51100000000E-03 0.  1.
         11   -1    0    0    0    0 -0.00000000000E+00 -0.00000000000E+00 -0.45593999997E+02  0.45594000000E+02  0.51100000000E-03 0. -1.
    9900012    2    1    2    0    0 -0.54289855769E+01 -0.17490460164E+02 -0.39099127596E+01  0.72461614899E+02  0.70000058106E+02 0.  0.
        -12    1    1    2    0    0  0.54289855769E+01  0.17490460164E+02  0.39099127596E+01  0.18726385101E+02  0.00000000000E+00 0.  1.
         11    1    3    3    0    0 -0.15048460129E+02  0.21841172385E+00 -0.55954047377E+01  0.16056537932E+02  0.51100000000E-03 0. -1.
        -11    1    3    3    0    0 -0.12461721775E+02  0.63122712774E+01 -0.14369794742E+02  0.20040715542E+02  0.51100000000E-03 0.  1.
        -12    1    3    3    0    0  0.22081196326E+02 -0.24021143165E+02  0.16055286720E+02  0.36364361425E+02  0.00000000000E+00 0.  1.
</event>
<event>
 7    1  0.2489154E-013  0.7246155E+02  0.7816164E-02  0.1226708E+00
        -11   -1    0    0    0    0  0.00000000000E+00  0.00000000000E+00  0.45593999997E+02  0.45594000000E+02  0.51100000000E-03 0.  1.
         11   -1    0    0    0    0 -0.00000000000E+00 -0.00000000000E+00 -0.45593999997E+02  0.45594000000E+02  0.51100000000E-03 0. -1.
    9900012    2    1    2    0    0  0.10617279510E+02 -0.67009226306E+01 -0.13894282333E+02  0.72461546256E+02  0.69999968685E+02 0.  0.
        -12    1    1    2    0    0 -0.10617279510E+02  0.67009226306E+01  0.13894282333E+02  0.18726453744E+02  0.00000000000E+00 0.  1.
         11    1    3    3    0    0 -0.19091632849E+01  0.62868176791E+01 -0.27934832361E+01  0.71395048729E+01  0.51100000000E-03 0. -1.
        -11    1    3    3    0    0 -0.20043489633E+02 -0.12013615719E+02  0.11123061873E+02  0.25880319647E+02  0.51100000000E-03 0.  1.
         12    1    3    3    0    0  0.32569932428E+02 -0.97412459099E+00 -0.22223860970E+02  0.39441721736E+02  0.00000000000E+00 0. -1.
</event>
<event>
 7    1  0.2489154E-013  0.7246222E+02  0.7816164E-02  0.1226706E+00
        -11   -1    0    0    0    0  0.00000000000E+00  0.00000000000E+00  0.45593999997E+02  0.45594000000E+02  0.51100000000E-03 0.  1.
         11   -1    0    0    0    0 -0.00000000000E+00 -0.00000000000E+00 -0.45593999997E+02  0.45594000000E+02  0.51100000000E-03 0. -1.
    9900012    2    1    2    0    0  0.89330666794E+01 -0.16278433659E+02 -0.24223215173E+01  0.72462223001E+02  0.70000850266E+02 0.  0.
        -12    1    1    2    0    0 -0.89330666794E+01  0.16278433659E+02  0.24223215173E+01  0.18725776999E+02  0.00000000000E+00 0.  1.
         11    1    3    3    0    0 -0.42589197021E+00 -0.43647107808E+01  0.97834590095E+01  0.10721387719E+02  0.51100000000E-03 0. -1.
        -11    1    3    3    0    0 -0.67884966864E+01 -0.76263975516E+01  0.21678016479E+02  0.23962095601E+02  0.51100000000E-03 0.  1.
         12    1    3    3    0    0  0.16147455336E+02 -0.42873253269E+01 -0.33883797006E+02  0.37778739680E+02  0.00000000000E+00 0. -1.
</event>
<event>
 7    1  0.2489154E-013  0.7246155E+02  0.7816164E-02  0.1226708E+00
        -11   -1    0    0    0    0  0.00000000000E+00  0.00000000000E+00  0.45593999997E+02  0.45594000000E+02  0.51100000000E-03 0.  1.
         11   -1    0    0    0    0 -0.00000000000E+00 -0.00000000000E+00 -0.45593999997E+02  0.45594000000E+02  0.51100000000E-03 0. -1.
    9900012    2    1    2    0    0 -0.17984314085E+02  0.51998302639E+01 -0.45393004525E+00  0.72461552383E+02  0.69999976667E+02 0.  0.
        -12    1    1    2    0    0  0.17984314085E+02 -0.51998302639E+01  0.45393004525E+00  0.18726447617E+02  0.00000000000E+00 0.  1.
         11    1    3    3    0    0 -0.36965260779E+01  0.55645140759E+01 -0.85338885185E+01  0.10837683122E+02  0.51100000000E-03 0. -1.
        -11    1    3    3    0    0 -0.33267829857E+02  0.14921487348E+02  0.20489723310E+01  0.36518455279E+02  0.51100000000E-03 0.  1.
         12    1    3    3    0    0  0.18980041850E+02 -0.15286171160E+02  0.60309861422E+01  0.25105413982E+02  0.00000000000E+00 0. -1.
</event>
<event>
 7    1  0.2489154E-013  0.7246155E+02  0.7816164E-02  0.1226708E+00
        -11   -1    0    0    0    0  0.00000000000E+00  0.00000000000E+00  0.45593999997E+02  0.45594000000E+02  0.51100000000E-03 0.  1.
         11   -1    0    0    0    0 -0.00000000000E+00 -0.00000000000E+00 -0.45593999997E+02  0.45594000000E+02  0.51100000000E-03 0. -1.
    9900012    2    1    2    0    0  0.85354719592E+01  0.71688175120E+01 -0.15047711076E+02  0.72461552533E+02  0.69999976863E+02 0.  0.
        -12    1    1    2    0    0 -0.85354719592E+01 -0.71688175120E+01  0.15047711076E+02  0.18726447467E+02  0.00000000000E+00 0.  1.
         11    1    3    3    0    0  0.46018075087E+01 -0.55873783743E+00  0.10859321196E+01  0.47610995734E+01  0.51100000000E-03 0. -1.
        -11    1    3    3    0    0 -0.55812665527E+01 -0.20151165629E+02  0.14310324891E+02  0.25337825702E+02  0.51100000000E-03 0.  1.
         12    1    3    3    0    0  0.95149310032E+01  0.27878720978E+02 -0.30443968087E+02  0.42362627259E+02  0.00000000000E+00 0. -1.
</event>
<event>
 7    1  0.2489154E-013  0.7246158E+02  0.7816164E-02  0.1226708E+00
        -11   -1    0    0    0    0  0.00000000000E+00  0.00000000000E+00  0.45593999997E+02  0.45594000000E+02  0.51100000000E-03 0.  1.
         11   -1    0    0    0    0 -0.00000000000E+00 -0.00000000000E+00 -0.45593999997E+02  0.45594000000E+02  0.51100000000E-03 0. -1.
    9900012    2    1    2    0    0 -0.15867496930E+02 -0.12941242546E+01 -0.98603520936E+01  0.72461581233E+02  0.70000014250E+02 0.  0.
        -12    1    1    2    0    0  0.15867496930E+02  0.12941242546E+01  0.98603520936E+01  0.18726418767E+02  0.00000000000E+00 0.  1.
         11    1    3    3    0    0 -0.76366334780E+01 -0.61916496459E+01 -0.29458715398E+02  0.31055927122E+02  0.51100000000E-03 0. -1.
        -11    1    3    3    0    0  0.44182442105E+01 -0.13286018306E+02  0.49540778829E+01  0.14852004992E+02  0.51100000000E-03 0.  1.
         12    1    3    3    0    0 -0.12649107663E+02  0.18183543698E+02  0.14644285422E+02  0.26553649120E+02  0.00000000000E+00 0. -1.
</event>
<event>
 7    1  0.2489154E-013  0.7246166E+02  0.7816164E-02  0.1226708E+00
        -11   -1    0    0    0    0  0.00000000000E+00  0.00000000000E+00  0.45593999997E+02  0.45594000000E+02  0.51100000000E-03 0. -1.
         11   -1    0    0    0    0 -0.00000000000E+00 -0.00000000000E+00 -0.45593999997E+02  0.45594000000E+02  0.51100000000E-03 0.  1.
    9900012    2    1    2    0    0 -0.44020231626E+01  0.12092745321E+02  0.13603805893E+02  0.72461659404E+02  0.70000116082E+02 0.  0.
        -12    1    1    2    0    0  0.44020231626E+01 -0.12092745321E+02 -0.13603805893E+02  0.18726340596E+02  0.00000000000E+00 0.  1.
         11    1    3    3    0    0 -0.18080805880E+02 -0.23235099923E+02  0.72103053003E+01  0.30311283584E+02  0.51100000000E-03 0. -1.
        -11    1    3    3    0    0  0.69078896398E+00  0.84236126924E+01  0.87713026305E+01  0.12180730285E+02  0.51100000000E-03 0.  1.
        -12    1    3    3    0    0  0.12987993754E+02  0.26904232552E+02 -0.23778020375E+01  0.29969645535E+02  0.00000000000E+00 0.  1.
</event>
<event>
 7    1  0.2489154E-013  0.7246156E+02  0.7816164E-02  0.1226708E+00
        -11   -1    0    0    0    0  0.00000000000E+00  0.00000000000E+00  0.45593999997E+02  0.45594000000E+02  0.51100000000E-03 0.  1.
         11   -1    0    0    0    0 -0.00000000000E+00 -0.00000000000E+00 -0.45593999997E+02  0.45594000000E+02  0.51100000000E-03 0. -1.
    9900012    2    1    2    0    0  0.25396300498E+01  0.18439504588E+02 -0.20529059840E+01  0.72461562185E+02  0.69999989437E+02 0.  0.
        -12    1    1    2    0    0 -0.25396300498E+01 -0.18439504588E+02  0.20529059840E+01  0.18726437815E+02  0.00000000000E+00 0.  1.
         11    1    3    3    0    0 -0.21178664342E+02  0.33381709657E+02  0.10967545495E+02  0.41026350281E+02  0.51100000000E-03 0.  1.
        -11    1    3    3    0    0  0.20194178407E+01 -0.29094366381E+01 -0.30444539105E+00  0.35546528978E+01  0.51100000000E-03 0. -1.
        -12    1    3    3    0    0  0.21698876551E+02 -0.12032768431E+02 -0.12716006088E+02  0.27880559006E+02  0.00000000000E+00 0.  1.
</event>
<event>
 7    1  0.2489154E-013  0.7246140E+02  0.7816164E-02  0.1226708E+00
        -11   -1    0    0    0    0  0.00000000000E+00  0.00000000000E+00  0.45593999997E+02  0.45594000000E+02  0.51100000000E-03 0.  1.
         11   -1    0    0    0    0 -0.00000000000E+00 -0.00000000000E+00 -0.45593999997E+02  0.45594000000E+02  0.51100000000E-03 0. -1.
    9900012    2    1    2    0    0  0.12272969044E+02 -0.13608173183E+02 -0.38571342718E+01  0.72461397763E+02  0.69999775246E+02 0.  0.
        -12    1    1    2    0    0 -0.12272969044E+02  0.13608173183E+02  0.38571342718E+01  0.18726602237E+02  0.00000000000E+00 0.  1.
         11    1    3    3    0    0  0.17080535869E+02 -0.20600604110E+02  0.31471093667E+00  0.26762448290E+02  0.51100000000E-03 0. -1.
        -11    1    3    3    0    0 -0.11677638385E+02 -0.15057405847E+02  0.66657582969E+01  0.20187249516E+02  0.51100000000E-03 0.  1.
        -12    1    3    3    0    0  0.68700715601E+01  0.22049836773E+02 -0.10837603505E+02  0.25511699957E+02  0.00000000000E+00 0.  1.
</event>
<event>
 7    1  0.2489154E-013  0.7246153E+02  0.7816164E-02  0.1226708E+00
        -11   -1    0    0    0    0  0.00000000000E+00  0.00000000000E+00  0.45593999997E+02  0.45594000000E+02  0.51100000000E-03 0. -1.
         11   -1    0    0    0    0 -0.00000000000E+00 -0.00000000000E+00 -0.45593999997E+02  0.45594000000E+02  0.51100000000E-03 0.  1.
    9900012    2    1    2    0    0  0.11826740993E+02 -0.82948729268E+01  0.11916534821E+02  0.72461534195E+02  0.69999952974E+02 0.  0.
        -12    1    1    2    0    0 -0.11826740993E+02  0.82948729268E+01 -0.11916534821E+02  0.18726465805E+02  0.00000000000E+00 0.  1.
         11    1    3    3    0    0 -0.82769792017E+01 -0.10178457442E+02 -0.13022896800E+02  0.18485270405E+02  0.51100000000E-03 0. -1.
        -11    1    3    3    0    0  0.18098387123E+02  0.96544759201E+01 -0.65086504125E+01  0.21520293961E+02  0.51100000000E-03 0.  1.
         12    1    3    3    0    0  0.20053330722E+01 -0.77708914049E+01  0.31448082034E+02  0.32455969829E+02  0.00000000000E+00 0. -1.
</event>
<event>
 7    1  0.2489154E-013  0.7246157E+02  0.7816164E-02  0.1226708E+00
        -11   -1    0    0    0    0  0.00000000000E+00  0.00000000000E+00  0.45593999997E+02  0.45594000000E+02  0.51100000000E-03 0. -1.
         11   -1    0    0    0    0 -0.00000000000E+00 -0.00000000000E+00 -0.45593999997E+02  0.45594000000E+02  0.51100000000E-03 0.  1.
    9900012    2    1    2    0    0 -0.96542597760E+01 -0.76992409767E+01  0.14078214819E+02  0.72461570123E+02  0.69999999777E+02 0.  0.
        -12    1    1    2    0    0  0.96542597760E+01  0.76992409767E+01 -0.14078214819E+02  0.18726429877E+02  0.00000000000E+00 0.  1.
         11    1    3    3    0    0  0.41327730874E-01 -0.12764261995E+02  0.14335253680E+02  0.19194467708E+02  0.51100000000E-03 0. -1.
        -11    1    3    3    0    0 -0.15302857762E+02 -0.17635285603E+00  0.23643557219E+02  0.28164274432E+02  0.51100000000E-03 0.  1.
        -12    1    3    3    0    0  0.56072702551E+01  0.52413738744E+01 -0.23900596080E+02  0.25102827984E+02  0.00000000000E+00 0.  1.
</event>
<event>
 7    1  0.2489154E-013  0.7246155E+02  0.7816164E-02  0.1226708E+00
        -11   -1    0    0    0    0  0.00000000000E+00  0.00000000000E+00  0.45593999997E+02  0.45594000000E+02  0.51100000000E-03 0.  1.
         11   -1    0    0    0    0 -0.00000000000E+00 -0.00000000000E+00 -0.45593999997E+02  0.45594000000E+02  0.51100000000E-03 0. -1.
    9900012    2    1    2    0    0 -0.18060732276E+01  0.18613001966E+02 -0.98699596963E+00  0.72461550691E+02  0.69999974463E+02 0.  0.
        -12    1    1    2    0    0  0.18060732276E+01 -0.18613001966E+02  0.98699596963E+00  0.18726449309E+02  0.00000000000E+00 0.  1.
         11    1    3    3    0    0  0.21233946185E+01  0.32228359813E+02 -0.48097822011E+01  0.32654402246E+02  0.51100000000E-03 0. -1.
        -11    1    3    3    0    0  0.12847932929E+02  0.49211129027E+01 -0.25816194826E+01  0.13998267470E+02  0.51100000000E-03 0.  1.
        -12    1    3    3    0    0 -0.16777400775E+02 -0.18536470750E+02  0.64044057142E+01  0.25808880975E+02  0.00000000000E+00 0.  1.
</event>
<event>
 7    1  0.2489154E-013  0.7246167E+02  0.7816164E-02  0.1226708E+00
        -11   -1    0    0    0    0  0.00000000000E+00  0.00000000000E+00  0.45593999997E+02  0.45594000000E+02  0.51100000000E-03 0.  1.
         11   -1    0    0    0    0 -0.00000000000E+00 -0.00000000000E+00 -0.45593999997E+02  0.45594000000E+02  0.51100000000E-03 0. -1.
    9900012    2    1    2    0    0 -0.91286241050E+01 -0.48156331074E+01 -0.15625408684E+02  0.72461668357E+02  0.70000127744E+02 0.  0.
        -12    1    1    2    0    0  0.91286241050E+01  0.48156331074E+01  0.15625408684E+02  0.18726331643E+02  0.00000000000E+00 0.  1.
         11    1    3    3    0    0 -0.10263605139E+02 -0.18434163395E+02 -0.72993423125E+01  0.22325778127E+02  0.51100000000E-03 0.  1.
        -11    1    3    3    0    0  0.83391556366E+01 -0.14143471598E+02  0.67277898273E+01  0.17743800658E+02  0.51100000000E-03 0. -1.
        -12    1    3    3    0    0 -0.72041746025E+01  0.27762001885E+02 -0.15053856199E+02  0.32392089572E+02  0.00000000000E+00 0.  1.
</event>
<event>
 7    1  0.2489154E-013  0.7246157E+02  0.7816164E-02  0.1226708E+00
        -11   -1    0    0    0    0  0.00000000000E+00  0.00000000000E+00  0.45593999997E+02  0.45594000000E+02  0.51100000000E-03 0. -1.
         11   -1    0    0    0    0 -0.00000000000E+00 -0.00000000000E+00 -0.45593999997E+02  0.45594000000E+02  0.51100000000E-03 0.  1.
    9900012    2    1    2    0    0  0.84462449591E+01 -0.11364288929E+02  0.12255333602E+02  0.72461566317E+02  0.69999994819E+02 0.  0.
        -12    1    1    2    0    0 -0.84462449591E+01  0.11364288929E+02 -0.12255333602E+02  0.18726433683E+02  0.00000000000E+00 0.  1.
         11    1    3    3    0    0 -0.16578206485E+02 -0.24772170435E+02 -0.20811085322E+01  0.29880233789E+02  0.51100000000E-03 0. -1.
        -11    1    3    3    0    0  0.58843804328E+01 -0.88443347632E+01  0.52912454054E+01  0.11867833361E+02  0.51100000000E-03 0.  1.
        -12    1    3    3    0    0  0.19140071012E+02  0.22252216269E+02  0.90451967292E+01  0.30713499167E+02  0.00000000000E+00 0.  1.
</event>
<event>
 7    1  0.2489154E-013  0.7246158E+02  0.7816164E-02  0.1226708E+00
        -11   -1    0    0    0    0  0.00000000000E+00  0.00000000000E+00  0.45593999997E+02  0.45594000000E+02  0.51100000000E-03 0.  1.
         11   -1    0    0    0    0 -0.00000000000E+00 -0.00000000000E+00 -0.45593999997E+02  0.45594000000E+02  0.51100000000E-03 0. -1.
    9900012    2    1    2    0    0 -0.82348052062E+01  0.16054797951E+02  0.50110059010E+01  0.72461581918E+02  0.70000015142E+02 0.  0.
        -12    1    1    2    0    0  0.82348052062E+01 -0.16054797951E+02 -0.50110059010E+01  0.18726418082E+02  0.00000000000E+00 0.  1.
         11    1    3    3    0    0  0.22490572236E+02 -0.75297709425E+01  0.58547922765E+01  0.24429528911E+02  0.51100000000E-03 0. -1.
        -11    1    3    3    0    0 -0.82183429284E+01 -0.63194721404E+01  0.17542638887E+01  0.10514481950E+02  0.51100000000E-03 0.  1.
        -12    1    3    3    0    0 -0.22507034514E+02  0.29904041034E+02 -0.25980502642E+01  0.37517571057E+02  0.00000000000E+00 0.  1.
</event>
<event>
 7    1  0.2489154E-013  0.7246155E+02  0.7816164E-02  0.1226708E+00
        -11   -1    0    0    0    0  0.00000000000E+00  0.00000000000E+00  0.45593999997E+02  0.45594000000E+02  0.51100000000E-03 0.  1.
         11   -1    0    0    0    0 -0.00000000000E+00 -0.00000000000E+00 -0.45593999997E+02  0.45594000000E+02  0.51100000000E-03 0. -1.
    9900012    2    1    2    0    0  0.65229228723E+01 -0.16738114184E+01 -0.17473690567E+02  0.72461547333E+02  0.69999970089E+02 0.  0.
        -12    1    1    2    0    0 -0.65229228723E+01  0.16738114184E+01  0.17473690567E+02  0.18726452667E+02  0.00000000000E+00 0.  1.
         11    1    3    3    0    0  0.13236984273E+01  0.11858827179E+02 -0.38062805150E+01  0.12524844559E+02  0.51100000000E-03 0. -1.
        -11    1    3    3    0    0 -0.20325313784E+02 -0.15712139757E+02  0.74375965067E+01  0.26745234308E+02  0.51100000000E-03 0.  1.
         12    1    3    3    0    0  0.25524538229E+02  0.21795011586E+01 -0.21105006559E+02  0.33191468466E+02  0.00000000000E+00 0. -1.
</event>
<event>
 7    1  0.2489154E-013  0.7246157E+02  0.7816164E-02  0.1226708E+00
        -11   -1    0    0    0    0  0.00000000000E+00  0.00000000000E+00  0.45593999997E+02  0.45594000000E+02  0.51100000000E-03 0. -1.
         11   -1    0    0    0    0 -0.00000000000E+00 -0.00000000000E+00 -0.45593999997E+02  0.45594000000E+02  0.51100000000E-03 0.  1.
    9900012    2    1    2    0    0 -0.56869958719E+01 -0.71443671591E+01  0.16349169953E+02  0.72461567817E+02  0.69999996773E+02 0.  0.
        -12    1    1    2    0    0  0.56869958719E+01  0.71443671591E+01 -0.16349169953E+02  0.18726432183E+02  0.00000000000E+00 0.  1.
         11    1    3    3    0    0 -0.30888693491E+01  0.18065594828E+02  0.49918128411E+01  0.18995394864E+02  0.51100000000E-03 0. -1.
        -11    1    3    3    0    0 -0.22234610881E+02 -0.27379441524E+01  0.47247387532E+01  0.22895357952E+02  0.51100000000E-03 0.  1.
         12    1    3    3    0    0  0.19636484358E+02 -0.22472017835E+02  0.66326183584E+01  0.30570815001E+02  0.00000000000E+00 0. -1.
</event>
<event>
 7    1  0.2489154E-013  0.7246152E+02  0.7816164E-02  0.1226708E+00
        -11   -1    0    0    0    0  0.00000000000E+00  0.00000000000E+00  0.45593999997E+02  0.45594000000E+02  0.51100000000E-03 0.  1.
         11   -1    0    0    0    0 -0.00000000000E+00 -0.00000000000E+00 -0.45593999997E+02  0.45594000000E+02  0.51100000000E-03 0. -1.
    9900012    2    1    2    0    0  0.13811387061E+02  0.10888213380E+02 -0.64322154485E+01  0.72461521454E+02  0.69999936377E+02 0.  0.
        -12    1    1    2    0    0 -0.13811387061E+02 -0.10888213380E+02  0.64322154485E+01  0.18726478546E+02  0.00000000000E+00 0.  1.
         11    1    3    3    0    0 -0.33546094199E+01 -0.86544476181E+01  0.53353056198E+01  0.10705996182E+02  0.51100000000E-03 0. -1.
        -11    1    3    3    0    0 -0.19668296118E+02  0.57703325744E+01  0.67743933836E+00  0.20508474700E+02  0.51100000000E-03 0.  1.
         12    1    3    3    0    0  0.36834292598E+02  0.13772328423E+02 -0.12444960407E+02  0.41247050573E+02  0.00000000000E+00 0. -1.
</event>
<event>
 7    1  0.2489154E-013  0.7246154E+02  0.7816164E-02  0.1226708E+00
        -11   -1    0    0    0    0  0.00000000000E+00  0.00000000000E+00  0.45593999997E+02  0.45594000000E+02  0.51100000000E-03 0. -1.
         11   -1    0    0    0    0 -0.00000000000E+00 -0.00000000000E+00 -0.45593999997E+02  0.45594000000E+02  0.51100000000E-03 0.  1.
    9900012    2    1    2    0    0 -0.16237738302E+02  0.54482321091E+01  0.75718526390E+01  0.72461539291E+02  0.69999959613E+02 0.  0.
        -12    1    1    2    0    0  0.16237738302E+02 -0.54482321091E+01 -0.75718526390E+01  0.18726460709E+02  0.00000000000E+00 0.  1.
         11    1    3    3    0    0  0.68684336375E+01 -0.71612053648E+01 -0.34579988694E+01  0.10507901758E+02  0.51100000000E-03 0. -1.
        -11    1    3    3    0    0  0.79629524596E+01 -0.59105309981E+01 -0.14581469606E+02  0.17634121602E+02  0.51100000000E-03 0.  1.
        -12    1    3    3    0    0 -0.31069124400E+02  0.18519968472E+02  0.25611321114E+02  0.44319515931E+02  0.00000000000E+00 0.  1.
</event>
<event>
 7    1  0.2489154E-013  0.7246156E+02  0.7816164E-02  0.1226708E+00
        -11   -1    0    0    0    0  0.00000000000E+00  0.00000000000E+00  0.45593999997E+02  0.45594000000E+02  0.51100000000E-03 0.  1.
         11   -1    0    0    0    0 -0.00000000000E+00 -0.00000000000E+00 -0.45593999997E+02  0.45594000000E+02  0.51100000000E-03 0. -1.
    9900012    2    1    2    0    0 -0.10982576319E+02 -0.10120088073E+02 -0.11298077879E+02  0.72461555357E+02  0.69999980541E+02 0.  0.
        -12    1    1    2    0    0  0.10982576319E+02  0.10120088073E+02  0.11298077879E+02  0.18726444643E+02  0.00000000000E+00 0.  1.
         11    1    3    3    0    0  0.10497212538E+02 -0.13045126950E+01 -0.16012519978E+01  0.10698468706E+02  0.51100000000E-03 0. -1.
        -11    1    3    3    0    0  0.15614581578E+01  0.15069673377E+02  0.14280815232E+02  0.20820059827E+02  0.51100000000E-03 0.  1.
        -12    1    3    3    0    0 -0.23041247015E+02 -0.23885248755E+02 -0.23977641113E+02  0.40943026823E+02  0.00000000000E+00 0.  1.
</event>
<event>
 7    1  0.2489154E-013  0.7246204E+02  0.7816164E-02  0.1226707E+00
        -11   -1    0    0    0    0  0.00000000000E+00  0.00000000000E+00  0.45593999997E+02  0.45594000000E+02  0.51100000000E-03 0. -1.
         11   -1    0    0    0    0 -0.00000000000E+00 -0.00000000000E+00 -0.45593999997E+02  0.45594000000E+02  0.51100000000E-03 0.  1.
    9900012    2    1    2    0    0 -0.10942418479E+02 -0.17106351785E+01  0.15099622485E+02  0.72462044909E+02  0.70000618271E+02 0.  0.
        -12    1    1    2    0    0  0.10942418479E+02  0.17106351785E+01 -0.15099622485E+02  0.18725955091E+02  0.00000000000E+00 0.  1.
         11    1    3    3    0    0 -0.33185047661E+01 -0.33391457085E+00  0.14161325112E+02  0.14548783524E+02  0.51100000000E-03 0. -1.
        -11    1    3    3    0    0 -0.24615682525E+02 -0.20681138647E+02  0.15642033351E+01  0.32188321706E+02  0.51100000000E-03 0.  1.
        -12    1    3    3    0    0  0.16991768812E+02  0.19304418040E+02 -0.62590596284E+00  0.25724939679E+02  0.00000000000E+00 0.  1.
</event>
<event>
 7    1  0.2489154E-013  0.7246159E+02  0.7816164E-02  0.1226708E+00
        -11   -1    0    0    0    0  0.00000000000E+00  0.00000000000E+00  0.45593999997E+02  0.45594000000E+02  0.51100000000E-03 0.  1.
         11   -1    0    0    0    0 -0.00000000000E+00 -0.00000000000E+00 -0.45593999997E+02  0.45594000000E+02  0.51100000000E-03 0. -1.
    9900012    2    1    2    0    0  0.14494429138E+02 -0.63456668491E+01 -0.10016115297E+02  0.72461587385E+02  0.70000022263E+02 0.  0.
        -12    1    1    2    0    0 -0.14494429138E+02  0.63456668491E+01  0.10016115297E+02  0.18726412615E+02  0.00000000000E+00 0.  1.
         11    1    3    3    0    0 -0.10803292423E+02  0.12802333699E+01 -0.16502848239E+02  0.19765984036E+02  0.51100000000E-03 0. -1.
        -11    1    3    3    0    0  0.36762134670E+02  0.17928739786E+01  0.82594597800E+00  0.36815093774E+02  0.51100000000E-03 0.  1.
         12    1    3    3    0    0 -0.11464413109E+02 -0.94187741976E+01  0.56607869635E+01  0.15880509575E+02  0.00000000000E+00 0. -1.
</event>
<event>
 7    1  0.2489154E-013  0.7246158E+02  0.7816164E-02  0.1226708E+00
        -11   -1    0    0    0    0  0.00000000000E+00  0.00000000000E+00  0.45593999997E+02  0.45594000000E+02  0.51100000000E-03 0.  1.
         11   -1    0    0    0    0 -0.00000000000E+00 -0.00000000000E+00 -0.45593999997E+02  0.45594000000E+02  0.51100000000E-03 0. -1.
    9900012    2    1    2    0    0 -0.41562616488E+01  0.17553664378E+02  0.50272260781E+01  0.72461584272E+02  0.70000018208E+02 0.  0.
        -12    1    1    2    0    0  0.41562616488E+01 -0.17553664378E+02 -0.50272260781E+01  0.18726415728E+02  0.00000000000E+00 0.  1.
         11    1    3    3    0    0  0.20989476339E+01 -0.35175977213E+01 -0.15280396359E+01  0.43719538297E+01  0.51100000000E-03 0. -1.
        -11    1    3    3    0    0  0.26438710893E+02 -0.68435432811E+00 -0.54933372473E+01  0.27012044146E+02  0.51100000000E-03 0.  1.
         12    1    3    3    0    0 -0.32693920176E+02  0.21755616427E+02  0.12048602961E+02  0.41077586296E+02  0.00000000000E+00 0. -1.
</event>
<event>
 7    1  0.2489154E-013  0.7246153E+02  0.7816164E-02  0.1226708E+00
        -11   -1    0    0    0    0  0.00000000000E+00  0.00000000000E+00  0.45593999997E+02  0.45594000000E+02  0.51100000000E-03 0.  1.
         11   -1    0    0    0    0 -0.00000000000E+00 -0.00000000000E+00 -0.45593999997E+02  0.45594000000E+02  0.51100000000E-03 0. -1.
    9900012    2    1    2    0    0  0.17509058455E+02 -0.59989678282E+01 -0.28506014068E+01  0.72461530195E+02  0.69999947763E+02 0.  0.
        -12    1    1    2    0    0 -0.17509058455E+02  0.59989678282E+01  0.28506014068E+01  0.18726469805E+02  0.00000000000E+00 0.  1.
         11    1    3    3    0    0 -0.43217456829E+01 -0.69769806246E+01  0.13931361295E+02  0.16169062192E+02  0.51100000000E-03 0. -1.
        -11    1    3    3    0    0 -0.78359991247E+01 -0.34704772444E+01  0.11982359229E+02  0.14731735388E+02  0.51100000000E-03 0.  1.
         12    1    3    3    0    0  0.29666803262E+02  0.44484900407E+01 -0.28764321930E+02  0.41560732616E+02  0.00000000000E+00 0. -1.
</event>
<event>
 7    1  0.2489154E-013  0.7246158E+02  0.7816164E-02  0.1226708E+00
        -11   -1    0    0    0    0  0.00000000000E+00  0.00000000000E+00  0.45593999997E+02  0.45594000000E+02  0.51100000000E-03 0.  1.
         11   -1    0    0    0    0 -0.00000000000E+00 -0.00000000000E+00 -0.45593999997E+02  0.45594000000E+02  0.51100000000E-03 0. -1.
    9900012    2    1    2    0    0  0.28414525284E+01  0.18509272435E+02 -0.10880142597E+00  0.72461578658E+02  0.70000010895E+02 0.  0.
        -12    1    1    2    0    0 -0.28414525284E+01 -0.18509272435E+02  0.10880142597E+00  0.18726421342E+02  0.00000000000E+00 0.  1.
         11    1    3    3    0    0 -0.79390991999E+01 -0.10071415761E+02  0.91619694144E+01  0.15760850083E+02  0.51100000000E-03 0. -1.
        -11    1    3    3    0    0 -0.87534390357E+01  0.12904211171E+02  0.15134534745E+02  0.21730059897E+02  0.51100000000E-03 0.  1.
         12    1    3    3    0    0  0.19533990764E+02  0.15676477024E+02 -0.24405305586E+02  0.34970668678E+02  0.00000000000E+00 0. -1.
</event>
<event>
 7    1  0.2489154E-013  0.7246156E+02  0.7816164E-02  0.1226708E+00
        -11   -1    0    0    0    0  0.00000000000E+00  0.00000000000E+00  0.45593999997E+02  0.45594000000E+02  0.51100000000E-03 0.  1.
         11   -1    0    0    0    0 -0.00000000000E+00 -0.00000000000E+00 -0.45593999997E+02  0.45594000000E+02  0.51100000000E-03 0. -1.
    9900012    2    1    2    0    0  0.97617657336E+01  0.53908963157E+01 -0.15044126514E+02  0.72461559444E+02  0.69999985865E+02 0.  0.
        -12    1    1    2    0    0 -0.97617657336E+01 -0.53908963157E+01  0.15044126514E+02  0.18726440556E+02  0.00000000000E+00 0.  1.
         11    1    3    3    0    0  0.24280666135E+02 -0.18129678206E+02  0.37502674112E+01  0.30533596018E+02  0.51100000000E-03 0. -1.
        -11    1    3    3    0    0  0.72320617697E+01  0.42186974128E+01 -0.35491083598E+01  0.90937503657E+01  0.51100000000E-03 0.  1.
        -12    1    3    3    0    0 -0.21750962172E+02  0.19301877109E+02 -0.15245285566E+02  0.32834213061E+02  0.00000000000E+00 0.  1.
</event>
<event>
 7    1  0.2489154E-013  0.7246156E+02  0.7816164E-02  0.1226708E+00
        -11   -1    0    0    0    0  0.00000000000E+00  0.00000000000E+00  0.45593999997E+02  0.45594000000E+02  0.51100000000E-03 0. -1.
         11   -1    0    0    0    0 -0.00000000000E+00 -0.00000000000E+00 -0.45593999997E+02  0.45594000000E+02  0.51100000000E-03 0.  1.
    9900012    2    1    2    0    0  0.11530300304E+02 -0.39442350128E+01  0.14218818171E+02  0.72461558664E+02  0.69999984849E+02 0.  0.
        -12    1    1    2    0    0 -0.11530300304E+02  0.39442350128E+01 -0.14218818171E+02  0.18726441336E+02  0.00000000000E+00 0.  1.
         11    1    3    3    0    0  0.85666030535E+01 -0.28686160190E+01  0.87849407334E-01  0.90345649325E+01  0.51100000000E-03 0. -1.
        -11    1    3    3    0    0 -0.10213280543E+02 -0.23445078785E+02 -0.10495526523E+02  0.27643062348E+02  0.51100000000E-03 0.  1.
         12    1    3    3    0    0  0.13176977793E+02  0.22369459792E+02  0.24626495287E+02  0.35783931383E+02  0.00000000000E+00 0. -1.
</event>
<event>
 7    1  0.2489154E-013  0.7246160E+02  0.7816164E-02  0.1226708E+00
        -11   -1    0    0    0    0  0.00000000000E+00  0.00000000000E+00  0.45593999997E+02  0.45594000000E+02  0.51100000000E-03 0. -1.
         11   -1    0    0    0    0 -0.00000000000E+00 -0.00000000000E+00 -0.45593999997E+02  0.45594000000E+02  0.51100000000E-03 0.  1.
    9900012    2    1    2    0    0  0.15741453569E+02  0.25324379323E+01  0.98219813655E+01  0.72461603649E+02  0.70000043450E+02 0.  0.
        -12    1    1    2    0    0 -0.15741453569E+02 -0.25324379323E+01 -0.98219813655E+01  0.18726396351E+02  0.00000000000E+00 0.  1.
         11    1    3    3    0    0  0.67213631405E+01  0.16998138571E+01  0.52195630251E+00  0.69525914779E+01  0.51100000000E-03 0. -1.
        -11    1    3    3    0    0 -0.23326973484E+02  0.79750062855E+01 -0.10633153824E+02  0.26847949227E+02  0.51100000000E-03 0.  1.
         12    1    3    3    0    0  0.32347063913E+02 -0.71423822103E+01  0.19933178887E+02  0.38661062944E+02  0.00000000000E+00 0. -1.
</event>
<event>
 7    1  0.2489154E-013  0.7246155E+02  0.7816164E-02  0.1226708E+00
        -11   -1    0    0    0    0  0.00000000000E+00  0.00000000000E+00  0.45593999997E+02  0.45594000000E+02  0.51100000000E-03 0. -1.
         11   -1    0    0    0    0 -0.00000000000E+00 -0.00000000000E+00 -0.45593999997E+02  0.45594000000E+02  0.51100000000E-03 0.  1.
    9900012    2    1    2    0    0 -0.16025888850E+02 -0.66801313271E+01 -0.70161795131E+01  0.72461546974E+02  0.69999969620E+02 0.  0.
        -12    1    1    2    0    0  0.16025888850E+02  0.66801313271E+01  0.70161795131E+01  0.18726453026E+02  0.00000000000E+00 0.  1.
         11    1    3    3    0    0 -0.12534447061E+02  0.13034474992E+02  0.17440364646E+02  0.25123220747E+02  0.51100000000E-03 0. -1.
        -11    1    3    3    0    0 -0.10691115903E+02  0.70554193592E+01 -0.78668336296E+01  0.15032164621E+02  0.51100000000E-03 0.  1.
        -12    1    3    3    0    0  0.71996741140E+01 -0.26770025679E+02 -0.16589710530E+02  0.32306161605E+02  0.00000000000E+00 0.  1.
</event>
<event>
 7    1  0.2489154E-013  0.7246170E+02  0.7816164E-02  0.1226708E+00
        -11   -1    0    0    0    0  0.00000000000E+00  0.00000000000E+00  0.45593999997E+02  0.45594000000E+02  0.51100000000E-03 0.  1.
         11   -1    0    0    0    0 -0.00000000000E+00 -0.00000000000E+00 -0.45593999997E+02  0.45594000000E+02  0.51100000000E-03 0. -1.
    9900012    2    1    2    0    0 -0.15655284894E+02 -0.10270503130E+02  0.32123288014E+00  0.72461698437E+02  0.70000166930E+02 0.  0.
        -12    1    1    2    0    0  0.15655284894E+02  0.10270503130E+02 -0.32123288014E+00  0.18726301563E+02  0.00000000000E+00 0.  1.
         11    1    3    3    0    0 -0.90977101261E+00 -0.13271911400E+02  0.54921746073E+00  0.13314389043E+02  0.51100000000E-03 0. -1.
        -11    1    3    3    0    0 -0.26755745202E+02 -0.19381135452E+02  0.43947082387E+01  0.33328842966E+02  0.51100000000E-03 0.  1.
         12    1    3    3    0    0  0.12010231321E+02  0.22382543721E+02 -0.46226928193E+01  0.25818466428E+02  0.00000000000E+00 0. -1.
</event>
<event>
 7    1  0.2489154E-013  0.7246160E+02  0.7816164E-02  0.1226708E+00
        -11   -1    0    0    0    0  0.00000000000E+00  0.00000000000E+00  0.45593999997E+02  0.45594000000E+02  0.51100000000E-03 0.  1.
         11   -1    0    0    0    0 -0.00000000000E+00 -0.00000000000E+00 -0.45593999997E+02  0.45594000000E+02  0.51100000000E-03 0. -1.
    9900012    2    1    2    0    0 -0.83606257213E+01  0.15947325046E+02 -0.51440256523E+01  0.72461595153E+02  0.70000032383E+02 0.  0.
        -12    1    1    2    0    0  0.83606257213E+01 -0.15947325046E+02  0.51440256523E+01  0.18726404847E+02  0.00000000000E+00 0.  1.
         11    1    3    3    0    0 -0.13046642958E+02  0.16005001362E+02 -0.46851052745E+01  0.21173690580E+02  0.51100000000E-03 0. -1.
        -11    1    3    3    0    0 -0.10177761567E+02  0.22191028735E+02 -0.19347455848E+01  0.24490239435E+02  0.51100000000E-03 0.  1.
        -12    1    3    3    0    0  0.14863778804E+02 -0.22248705052E+02  0.14758252069E+01  0.26797665138E+02  0.00000000000E+00 0.  1.
</event>
<event>
 7    1  0.2489154E-013  0.7246150E+02  0.7816164E-02  0.1226708E+00
        -11   -1    0    0    0    0  0.00000000000E+00  0.00000000000E+00  0.45593999997E+02  0.45594000000E+02  0.51100000000E-03 0.  1.
         11   -1    0    0    0    0 -0.00000000000E+00 -0.00000000000E+00 -0.45593999997E+02  0.45594000000E+02  0.51100000000E-03 0. -1.
    9900012    2    1    2    0    0 -0.12990953177E+02 -0.11995633975E+02 -0.61661619562E+01  0.72461504007E+02  0.69999913648E+02 0.  0.
        -12    1    1    2    0    0  0.12990953177E+02  0.11995633975E+02  0.61661619562E+01  0.18726495993E+02  0.00000000000E+00 0.  1.
         11    1    3    3    0    0 -0.98614715635E+01 -0.17305973025E+02  0.74368009993E+01  0.21261498844E+02  0.51100000000E-03 0. -1.
        -11    1    3    3    0    0  0.10236783841E+02  0.23846404798E+02 -0.33978502099E+01  0.26172278302E+02  0.51100000000E-03 0.  1.
         12    1    3    3    0    0 -0.13366265455E+02 -0.18536065749E+02 -0.10205112746E+02  0.25027726861E+02  0.00000000000E+00 0. -1.
</event>
<event>
 7    1  0.2489154E-013  0.7246160E+02  0.7816164E-02  0.1226708E+00
        -11   -1    0    0    0    0  0.00000000000E+00  0.00000000000E+00  0.45593999997E+02  0.45594000000E+02  0.51100000000E-03 0.  1.
         11   -1    0    0    0    0 -0.00000000000E+00 -0.00000000000E+00 -0.45593999997E+02  0.45594000000E+02  0.51100000000E-03 0. -1.
    9900012    2    1    2    0    0 -0.59923897354E+00  0.13761056687E+02  0.12686690483E+02  0.72461604621E+02  0.70000044717E+02 0.  0.
        -12    1    1    2    0    0  0.59923897354E+00 -0.13761056687E+02 -0.12686690483E+02  0.18726395379E+02  0.00000000000E+00 0.  1.
         11    1    3    3    0    0  0.24906153203E+02  0.93964646886E+01  0.58697415367E+01  0.27259198117E+02  0.51100000000E-03 0. -1.
        -11    1    3    3    0    0  0.19953498124E+01  0.12025554041E+02 -0.63722709489E+01  0.13755043009E+02  0.51100000000E-03 0.  1.
        -12    1    3    3    0    0 -0.27500741989E+02 -0.76609620433E+01  0.13189219895E+02  0.31447363495E+02  0.00000000000E+00 0.  1.
</event>
<event>
 7    1  0.2489154E-013  0.7246160E+02  0.7816164E-02  0.1226708E+00
        -11   -1    0    0    0    0  0.00000000000E+00  0.00000000000E+00  0.45593999997E+02  0.45594000000E+02  0.51100000000E-03 0.  1.
         11   -1    0    0    0    0 -0.00000000000E+00 -0.00000000000E+00 -0.45593999997E+02  0.45594000000E+02  0.51100000000E-03 0. -1.
    9900012    2    1    2    0    0  0.27747094440E+01  0.13541297084E+02 -0.12633773049E+02  0.72461602571E+02  0.70000042047E+02 0.  0.
        -12    1    1    2    0    0 -0.27747094440E+01 -0.13541297084E+02  0.12633773049E+02  0.18726397429E+02  0.00000000000E+00 0.  1.
         11    1    3    3    0    0  0.44105812179E+00  0.26627926785E+02 -0.31707320717E+02  0.41407670840E+02  0.51100000000E-03 0. -1.
        -11    1    3    3    0    0 -0.12609563493E+01 -0.38420185007E+01 -0.41540303961E+01  0.57971618804E+01  0.51100000000E-03 0.  1.
        -12    1    3    3    0    0  0.35946076715E+01 -0.92446112007E+01  0.23227578064E+02  0.25256769850E+02  0.00000000000E+00 0.  1.
</event>
<event>
 7    1  0.2489154E-013  0.7246158E+02  0.7816164E-02  0.1226708E+00
        -11   -1    0    0    0    0  0.00000000000E+00  0.00000000000E+00  0.45593999997E+02  0.45594000000E+02  0.51100000000E-03 0. -1.
         11   -1    0    0    0    0 -0.00000000000E+00 -0.00000000000E+00 -0.45593999997E+02  0.45594000000E+02  0.51100000000E-03 0.  1.
    9900012    2    1    2    0    0  0.71524401418E+01 -0.14727409736E+02  0.90898279949E+01  0.72461575609E+02  0.70000006923E+02 0.  0.
        -12    1    1    2    0    0 -0.71524401418E+01  0.14727409736E+02 -0.90898279949E+01  0.18726424391E+02  0.00000000000E+00 0.  1.
         11    1    3    3    0    0  0.78616920579E+01 -0.16381688438E+01 -0.75183402299E+01  0.11000692671E+02  0.51100000000E-03 0. -1.
        -11    1    3    3    0    0  0.86650355613E+01  0.83733201845E+01 -0.16791763551E+02  0.20667816905E+02  0.51100000000E-03 0.  1.
         12    1    3    3    0    0 -0.93742874774E+01 -0.21462561076E+02  0.33399931776E+02  0.40793066032E+02  0.00000000000E+00 0. -1.
</event>
<event>
 7    1  0.2489154E-013  0.7246160E+02  0.7816164E-02  0.1226708E+00
        -11   -1    0    0    0    0  0.00000000000E+00  0.00000000000E+00  0.45593999997E+02  0.45594000000E+02  0.51100000000E-03 0.  1.
         11   -1    0    0    0    0 -0.00000000000E+00 -0.00000000000E+00 -0.45593999997E+02  0.45594000000E+02  0.51100000000E-03 0. -1.
    9900012    2    1    2    0    0 -0.49215789372E+01  0.14531453857E+02 -0.10737460642E+02  0.72461597476E+02  0.70000035409E+02 0.  0.
        -12    1    1    2    0    0  0.49215789372E+01 -0.14531453857E+02  0.10737460642E+02  0.18726402524E+02  0.00000000000E+00 0.  1.
         11    1    3    3    0    0  0.72008106013E+01 -0.46038985222E+01 -0.38604897000E+01  0.93782160299E+01  0.51100000000E-03 0. -1.
        -11    1    3    3    0    0  0.70198255058E+01  0.35088842532E+02  0.37766168192E+01  0.35982880030E+02  0.51100000000E-03 0.  1.
         12    1    3    3    0    0 -0.19142215044E+02 -0.15953490153E+02 -0.10653587762E+02  0.27100501417E+02  0.00000000000E+00 0. -1.
</event>
<event>
 7    1  0.2489154E-013  0.7246157E+02  0.7816164E-02  0.1226708E+00
        -11   -1    0    0    0    0  0.00000000000E+00  0.00000000000E+00  0.45593999997E+02  0.45594000000E+02  0.51100000000E-03 0. -1.
         11   -1    0    0    0    0 -0.00000000000E+00 -0.00000000000E+00 -0.45593999997E+02  0.45594000000E+02  0.51100000000E-03 0.  1.
    9900012    2    1    2    0    0  0.13983220447E+01 -0.62479185509E+01  0.17597935606E+02  0.72461571394E+02  0.70000001432E+02 0.  0.
        -12    1    1    2    0    0 -0.13983220447E+01  0.62479185509E+01 -0.17597935606E+02  0.18726428606E+02  0.00000000000E+00 0.  1.
         11    1    3    3    0    0 -0.62425448958E+01 -0.13054056168E+02  0.15867035155E+01  0.14556626584E+02  0.51100000000E-03 0. -1.
        -11    1    3    3    0    0  0.18475274798E+02 -0.16565405230E+02 -0.41932210300E+01  0.25166078999E+02  0.51100000000E-03 0.  1.
         12    1    3    3    0    0 -0.10834407857E+02  0.23371542847E+02  0.20204453120E+02  0.32738865811E+02  0.00000000000E+00 0. -1.
</event>
<event>
 7    1  0.2489154E-013  0.7246171E+02  0.7816164E-02  0.1226708E+00
        -11   -1    0    0    0    0  0.00000000000E+00  0.00000000000E+00  0.45593999997E+02  0.45594000000E+02  0.51100000000E-03 0.  1.
         11   -1    0    0    0    0 -0.00000000000E+00 -0.00000000000E+00 -0.45593999997E+02  0.45594000000E+02  0.51100000000E-03 0. -1.
    9900012    2    1    2    0    0 -0.96645797749E+01 -0.14340156732E+02  0.71853773625E+01  0.72461712456E+02  0.70000185192E+02 0.  0.
        -12    1    1    2    0    0  0.96645797749E+01  0.14340156732E+02 -0.71853773625E+01  0.18726287544E+02  0.00000000000E+00 0.  1.
         11    1    3    3    0    0 -0.12365933715E+02  0.15485702231E+02 -0.66478787598E+01  0.20902573585E+02  0.51100000000E-03 0. -1.
        -11    1    3    3    0    0 -0.17177601682E+02 -0.92609310507E+01 -0.59443679874E+00  0.19524041560E+02  0.51100000000E-03 0.  1.
        -12    1    3    3    0    0  0.19878955622E+02 -0.20564927913E+02  0.14427692921E+02  0.32035097311E+02  0.00000000000E+00 0.  1.
</event>
<event>
 7    1  0.2489154E-013  0.7246156E+02  0.7816164E-02  0.1226708E+00
        -11   -1    0    0    0    0  0.00000000000E+00  0.00000000000E+00  0.45593999997E+02  0.45594000000E+02  0.51100000000E-03 0.  1.
         11   -1    0    0    0    0 -0.00000000000E+00 -0.00000000000E+00 -0.45593999997E+02  0.45594000000E+02  0.51100000000E-03 0. -1.
    9900012    2    1    2    0    0  0.10119907612E+02 -0.36851337421E+00 -0.15752180399E+02  0.72461560950E+02  0.69999987827E+02 0.  0.
        -12    1    1    2    0    0 -0.10119907612E+02  0.36851337421E+00  0.15752180399E+02  0.18726439050E+02  0.00000000000E+00 0.  1.
         11    1    3    3    0    0 -0.11457101805E+02 -0.18762256600E+02 -0.45725809386E+01  0.22454308077E+02  0.51100000000E-03 0. -1.
        -11    1    3    3    0    0  0.10702264331E+02 -0.61828300646E+01  0.99125258048E+01  0.15843737486E+02  0.51100000000E-03 0.  1.
         12    1    3    3    0    0  0.10874745086E+02  0.24576573291E+02 -0.21092125265E+02  0.34163515387E+02  0.00000000000E+00 0. -1.
</event>
<event>
 7    1  0.2489154E-013  0.7246155E+02  0.7816164E-02  0.1226708E+00
        -11   -1    0    0    0    0  0.00000000000E+00  0.00000000000E+00  0.45593999997E+02  0.45594000000E+02  0.51100000000E-03 0.  1.
         11   -1    0    0    0    0 -0.00000000000E+00 -0.00000000000E+00 -0.45593999997E+02  0.45594000000E+02  0.51100000000E-03 0. -1.
    9900012    2    1    2    0    0  0.48396415517E+01  0.75514366798E+01 -0.16438781211E+02  0.72461552019E+02  0.69999976194E+02 0.  0.
        -12    1    1    2    0    0 -0.48396415517E+01 -0.75514366798E+01  0.16438781211E+02  0.18726447981E+02  0.00000000000E+00 0.  1.
         11    1    3    3    0    0 -0.23698262561E+01 -0.32467357271E+01  0.55836726952E+00  0.40582192689E+01  0.51100000000E-03 0. -1.
        -11    1    3    3    0    0  0.17211541708E+02 -0.16472778401E+02  0.12585385905E+02  0.26944044516E+02  0.51100000000E-03 0.  1.
         12    1    3    3    0    0 -0.10002073900E+02  0.27270950808E+02 -0.29582534385E+02  0.41459288235E+02  0.00000000000E+00 0. -1.
</event>
<event>
 7    1  0.2489154E-013  0.7246157E+02  0.7816164E-02  0.1226708E+00
        -11   -1    0    0    0    0  0.00000000000E+00  0.00000000000E+00  0.45593999997E+02  0.45594000000E+02  0.51100000000E-03 0.  1.
         11   -1    0    0    0    0 -0.00000000000E+00 -0.00000000000E+00 -0.45593999997E+02  0.45594000000E+02  0.51100000000E-03 0. -1.
    9900012    2    1    2    0    0  0.32618294860E+00 -0.16774501851E+02  0.83179746181E+01  0.72461574569E+02  0.70000005569E+02 0.  0.
        -12    1    1    2    0    0 -0.32618294860E+00  0.16774501851E+02 -0.83179746181E+01  0.18726425431E+02  0.00000000000E+00 0.  1.
         11    1    3    3    0    0 -0.10190821314E+02 -0.29953181252E+01  0.23512283496E+01  0.10879018556E+02  0.51100000000E-03 0. -1.
        -11    1    3    3    0    0 -0.35577099990E+01 -0.31314179289E+02  0.17777997413E+02  0.36184144556E+02  0.51100000000E-03 0.  1.
         12    1    3    3    0    0  0.14074714261E+02  0.17534995564E+02 -0.11811251144E+02  0.25398411457E+02  0.00000000000E+00 0. -1.
</event>
<event>
 7    1  0.2489154E-013  0.7246178E+02  0.7816164E-02  0.1226707E+00
        -11   -1    0    0    0    0  0.00000000000E+00  0.00000000000E+00  0.45593999997E+02  0.45594000000E+02  0.51100000000E-03 0.  1.
         11   -1    0    0    0    0 -0.00000000000E+00 -0.00000000000E+00 -0.45593999997E+02  0.45594000000E+02  0.51100000000E-03 0. -1.
    9900012    2    1    2    0    0 -0.33234113249E+01  0.10868130138E+02 -0.14883212756E+02  0.72461779413E+02  0.70000272416E+02 0.  0.
        -12    1    1    2    0    0  0.33234113249E+01 -0.10868130138E+02  0.14883212756E+02  0.18726220587E+02  0.00000000000E+00 0.  1.
         11    1    3    3    0    0  0.90122249863E+01 -0.12939760827E+02 -0.75030738913E+01  0.17462924370E+02  0.51100000000E-03 0. -1.
        -11    1    3    3    0    0  0.50026291749E+01 -0.12893252964E+02 -0.57388421139E+00  0.13841662256E+02  0.51100000000E-03 0.  1.
        -12    1    3    3    0    0 -0.17338265486E+02  0.36701143929E+02 -0.68062546529E+01  0.41157192788E+02  0.00000000000E+00 0.  1.
</event>
<event>
 7    1  0.2489154E-013  0.7246163E+02  0.7816164E-02  0.1226708E+00
        -11   -1    0    0    0    0  0.00000000000E+00  0.00000000000E+00  0.45593999997E+02  0.45594000000E+02  0.51100000000E-03 0.  1.
         11   -1    0    0    0    0 -0.00000000000E+00 -0.00000000000E+00 -0.45593999997E+02  0.45594000000E+02  0.51100000000E-03 0. -1.
    9900012    2    1    2    0    0 -0.10057940577E+02 -0.91694208665E+01 -0.12862214238E+02  0.72461628147E+02  0.70000075363E+02 0.  0.
        -12    1    1    2    0    0  0.10057940577E+02  0.91694208665E+01  0.12862214238E+02  0.18726371853E+02  0.00000000000E+00 0.  1.
         11    1    3    3    0    0  0.10466108443E+01 -0.34229567485E-01 -0.26576176510E+02  0.26596799132E+02  0.51100000000E-03 0. -1.
        -11    1    3    3    0    0 -0.68175287581E+01 -0.18362982580E+02 -0.85603425102E+01  0.21376559399E+02  0.51100000000E-03 0.  1.
        -12    1    3    3    0    0 -0.42870226635E+01  0.92277912809E+01  0.22274304782E+02  0.24488269615E+02  0.00000000000E+00 0.  1.
</event>
<event>
 7    1  0.2489154E-013  0.7246165E+02  0.7816164E-02  0.1226708E+00
        -11   -1    0    0    0    0  0.00000000000E+00  0.00000000000E+00  0.45593999997E+02  0.45594000000E+02  0.51100000000E-03 0.  1.
         11   -1    0    0    0    0 -0.00000000000E+00 -0.00000000000E+00 -0.45593999997E+02  0.45594000000E+02  0.51100000000E-03 0. -1.
    9900012    2    1    2    0    0 -0.10140836337E+02  0.10483840405E+02 -0.11744307411E+02  0.72461648839E+02  0.70000102318E+02 0.  0.
        -12    1    1    2    0    0  0.10140836337E+02 -0.10483840405E+02  0.11744307411E+02  0.18726351161E+02  0.00000000000E+00 0.  1.
         11    1    3    3    0    0 -0.24590316760E+02  0.44554161464E+01  0.71290101463E+01  0.25987635470E+02  0.51100000000E-03 0. -1.
        -11    1    3    3    0    0 -0.10099070735E+02 -0.41147995885E+01  0.38030883155E+01  0.11549298090E+02  0.51100000000E-03 0.  1.
        -12    1    3    3    0    0  0.24548551158E+02  0.10143223847E+02 -0.22676405873E+02  0.34924715279E+02  0.00000000000E+00 0.  1.
</event>
<event>
 7    1  0.2489154E-013  0.7246177E+02  0.7816164E-02  0.1226707E+00
        -11   -1    0    0    0    0  0.00000000000E+00  0.00000000000E+00  0.45593999997E+02  0.45594000000E+02  0.51100000000E-03 0. -1.
         11   -1    0    0    0    0 -0.00000000000E+00 -0.00000000000E+00 -0.45593999997E+02  0.45594000000E+02  0.51100000000E-03 0.  1.
    9900012    2    1    2    0    0  0.44120917960E+01  0.15265270694E+02  0.99084141727E+01  0.72461769338E+02  0.70000259291E+02 0.  0.
        -12    1    1    2    0    0 -0.44120917960E+01 -0.15265270694E+02 -0.99084141727E+01  0.18726230662E+02  0.00000000000E+00 0.  1.
         11    1    3    3    0    0  0.61837108087E+01 -0.87419493152E+01  0.16675441483E+02  0.19817424306E+02  0.51100000000E-03 0. -1.
        -11    1    3    3    0    0  0.27384095573E+01  0.16525231778E+01  0.18403430571E+02  0.18679292727E+02  0.51100000000E-03 0.  1.
        -12    1    3    3    0    0 -0.45100285700E+01  0.22354696832E+02 -0.25170457881E+02  0.33965052305E+02  0.00000000000E+00 0.  1.
</event>
<event>
 7    1  0.2489154E-013  0.7246161E+02  0.7816164E-02  0.1226708E+00
        -11   -1    0    0    0    0  0.00000000000E+00  0.00000000000E+00  0.45593999997E+02  0.45594000000E+02  0.51100000000E-03 0.  1.
         11   -1    0    0    0    0 -0.00000000000E+00 -0.00000000000E+00 -0.45593999997E+02  0.45594000000E+02  0.51100000000E-03 0. -1.
    9900012    2    1    2    0    0  0.17639097333E+02 -0.24542586967E+01 -0.57893368692E+01  0.72461613219E+02  0.70000055918E+02 0.  0.
        -12    1    1    2    0    0 -0.17639097333E+02  0.24542586967E+01  0.57893368692E+01  0.18726386781E+02  0.00000000000E+00 0.  1.
         11    1    3    3    0    0 -0.21313799328E+01  0.11624453095E+02 -0.17369045314E+02  0.21008437009E+02  0.51100000000E-03 0. -1.
        -11    1    3    3    0    0 -0.12934756022E+02 -0.10478819481E+02  0.76372872511E+01  0.18315068329E+02  0.51100000000E-03 0.  1.
        -12    1    3    3    0    0  0.32705233288E+02 -0.35998923111E+01  0.39424211937E+01  0.33138107882E+02  0.00000000000E+00 0.  1.
</event>
<event>
 7    1  0.2489154E-013  0.7246163E+02  0.7816164E-02  0.1226708E+00
        -11   -1    0    0    0    0  0.00000000000E+00  0.00000000000E+00  0.45593999997E+02  0.45594000000E+02  0.51100000000E-03 0. -1.
         11   -1    0    0    0    0 -0.00000000000E+00 -0.00000000000E+00 -0.45593999997E+02  0.45594000000E+02  0.51100000000E-03 0.  1.
    9900012    2    1    2    0    0  0.28174556580E+01  0.13659241078E+02  0.12496561129E+02  0.72461629203E+02  0.70000076739E+02 0.  0.
        -12    1    1    2    0    0 -0.28174556580E+01 -0.13659241078E+02 -0.12496561129E+02  0.18726370797E+02  0.00000000000E+00 0.  1.
         11    1    3    3    0    0  0.27088082824E+02 -0.56314300038E+01 -0.15120970546E+01  0.27708548730E+02  0.51100000000E-03 0. -1.
        -11    1    3    3    0    0  0.59267463826E+01 -0.80417945902E+00  0.33979845626E+00  0.59907003378E+01  0.51100000000E-03 0.  1.
        -12    1    3    3    0    0 -0.30197373549E+02  0.20094850540E+02  0.13668859727E+02  0.38762380135E+02  0.00000000000E+00 0.  1.
</event>
<event>
 7    1  0.2489154E-013  0.7246150E+02  0.7816164E-02  0.1226708E+00
        -11   -1    0    0    0    0  0.00000000000E+00  0.00000000000E+00  0.45593999997E+02  0.45594000000E+02  0.51100000000E-03 0.  1.
         11   -1    0    0    0    0 -0.00000000000E+00 -0.00000000000E+00 -0.45593999997E+02  0.45594000000E+02  0.51100000000E-03 0. -1.
    9900012    2    1    2    0    0  0.63071696810E+01  0.27117954792E+01 -0.17422616316E+02  0.72461500503E+02  0.69999909084E+02 0.  0.
        -12    1    1    2    0    0 -0.63071696810E+01 -0.27117954792E+01  0.17422616316E+02  0.18726499497E+02  0.00000000000E+00 0.  1.
         11    1    3    3    0    0  0.11345717297E+02  0.12781569781E+02 -0.76350871070E+01  0.18718664014E+02  0.51100000000E-03 0. -1.
        -11    1    3    3    0    0  0.66253434774E+01  0.17044399233E+02 -0.15145054494E+02  0.23744039195E+02  0.51100000000E-03 0.  1.
        -12    1    3    3    0    0 -0.11663891093E+02 -0.27114173535E+02  0.53575252845E+01  0.29998797294E+02  0.00000000000E+00 0.  1.
</event>
<event>
 7    1  0.2489154E-013  0.7246155E+02  0.7816164E-02  0.1226708E+00
        -11   -1    0    0    0    0  0.00000000000E+00  0.00000000000E+00  0.45593999997E+02  0.45594000000E+02  0.51100000000E-03 0.  1.
         11   -1    0    0    0    0 -0.00000000000E+00 -0.00000000000E+00 -0.45593999997E+02  0.45594000000E+02  0.51100000000E-03 0. -1.
    9900012    2    1    2    0    0  0.50240292888E+01 -0.13440622543E+01 -0.17989794002E+02  0.72461546468E+02  0.69999968962E+02 0.  0.
        -12    1    1    2    0    0 -0.50240292888E+01  0.13440622543E+01  0.17989794002E+02  0.18726453532E+02  0.00000000000E+00 0.  1.
         11    1    3    3    0    0 -0.12214771641E+02 -0.15561193765E+02 -0.77151336409E-01  0.19782753859E+02  0.51100000000E-03 0. -1.
        -11    1    3    3    0    0  0.65255848267E+01 -0.11510905390E+02 -0.20808589199E+02  0.24659310309E+02  0.51100000000E-03 0.  1.
        -12    1    3    3    0    0  0.10713216104E+02  0.25728036901E+02  0.28959465327E+01  0.28019482300E+02  0.00000000000E+00 0.  1.
</event>
<event>
 7    1  0.2489154E-013  0.7246154E+02  0.7816164E-02  0.1226708E+00
        -11   -1    0    0    0    0  0.00000000000E+00  0.00000000000E+00  0.45593999997E+02  0.45594000000E+02  0.51100000000E-03 0.  1.
         11   -1    0    0    0    0 -0.00000000000E+00 -0.00000000000E+00 -0.45593999997E+02  0.45594000000E+02  0.51100000000E-03 0. -1.
    9900012    2    1    2    0    0 -0.16532085915E+01 -0.81584067788E+01 -0.16774617258E+02  0.72461535198E+02  0.69999954280E+02 0.  0.
        -12    1    1    2    0    0  0.16532085915E+01  0.81584067788E+01  0.16774617258E+02  0.18726464802E+02  0.00000000000E+00 0.  1.
         11    1    3    3    0    0 -0.18464772826E+01 -0.58555121374E+01 -0.70347566095E+01  0.93372534271E+01  0.51100000000E-03 0. -1.
        -11    1    3    3    0    0  0.21485925335E+02  0.12201200971E+02 -0.23342076944E+02  0.33990687680E+02  0.51100000000E-03 0.  1.
        -12    1    3    3    0    0 -0.21292656644E+02 -0.14504095612E+02  0.13602216295E+02  0.29133594091E+02  0.00000000000E+00 0.  1.
</event>
<event>
 7    1  0.2489154E-013  0.7246159E+02  0.7816164E-02  0.1226708E+00
        -11   -1    0    0    0    0  0.00000000000E+00  0.00000000000E+00  0.45593999997E+02  0.45594000000E+02  0.51100000000E-03 0.  1.
         11   -1    0    0    0    0 -0.00000000000E+00 -0.00000000000E+00 -0.45593999997E+02  0.45594000000E+02  0.51100000000E-03 0. -1.
    9900012    2    1    2    0    0  0.10032073037E+02 -0.14168104659E+02  0.70214472937E+01  0.72461590810E+02  0.70000026726E+02 0.  0.
        -12    1    1    2    0    0 -0.10032073037E+02  0.14168104659E+02 -0.70214472937E+01  0.18726409190E+02  0.00000000000E+00 0.  1.
         11    1    3    3    0    0 -0.10076177557E+02 -0.36145233983E+02 -0.47828382021E+01  0.37827011980E+02  0.51100000000E-03 0. -1.
        -11    1    3    3    0    0  0.11513698467E+02  0.44405295197E+01  0.11651590807E+01  0.12395206765E+02  0.51100000000E-03 0.  1.
        -12    1    3    3    0    0  0.85945521269E+01  0.17536599804E+02  0.10639126415E+02  0.22239372064E+02  0.00000000000E+00 0.  1.
</event>
<event>
 7    1  0.2657488E-013  0.7246157E+02  0.7816164E-02  0.1226708E+00
        -11   -1    0    0    0    0  0.00000000000E+00  0.00000000000E+00  0.45593999997E+02  0.45594000000E+02  0.51100000000E-03 0. -1.
         11   -1    0    0    0    0 -0.00000000000E+00 -0.00000000000E+00 -0.45593999997E+02  0.45594000000E+02  0.51100000000E-03 0.  1.
    9900012    2    1    2    0    0 -0.17178572248E+02 -0.18133144282E+01  0.72310248493E+01  0.72461570173E+02  0.69999999842E+02 0.  0.
        -12    1    1    2    0    0  0.17178572248E+02  0.18133144282E+01 -0.72310248493E+01  0.18726429827E+02  0.00000000000E+00 0.  1.
         11    1    3    3    0    0 -0.62378541732E+01  0.10959133042E+02 -0.25658151779E+01  0.12868443166E+02  0.51100000000E-03 0. -1.
        -11    1    3    3    0    0  0.18576675677E+02 -0.67793994588E+00 -0.10917985081E+02  0.21558174326E+02  0.51100000000E-03 0.  1.
         12    1    3    3    0    0 -0.29517393752E+02 -0.12094507524E+02  0.20714825109E+02  0.38034952681E+02  0.00000000000E+00 0. -1.
</event>
<event>
 7    1  0.2489154E-013  0.7246161E+02  0.7816164E-02  0.1226708E+00
        -11   -1    0    0    0    0  0.00000000000E+00  0.00000000000E+00  0.45593999997E+02  0.45594000000E+02  0.51100000000E-03 0. -1.
         11   -1    0    0    0    0 -0.00000000000E+00 -0.00000000000E+00 -0.45593999997E+02  0.45594000000E+02  0.51100000000E-03 0.  1.
    9900012    2    1    2    0    0  0.74829964139E+01 -0.12437120092E+02  0.11832178299E+02  0.72461611272E+02  0.70000053381E+02 0.  0.
        -12    1    1    2    0    0 -0.74829964139E+01  0.12437120092E+02 -0.11832178299E+02  0.18726388728E+02  0.00000000000E+00 0.  1.
         11    1    3    3    0    0  0.39567612933E+01  0.18261261012E+02 -0.66469001035E+01  0.19832067339E+02  0.51100000000E-03 0. -1.
        -11    1    3    3    0    0 -0.17343291554E+02 -0.14005646060E+02  0.11112783942E+02  0.24908670192E+02  0.51100000000E-03 0.  1.
        -12    1    3    3    0    0  0.20869526675E+02 -0.16692735044E+02  0.73662944597E+01  0.27720873741E+02  0.00000000000E+00 0.  1.
</event>
<event>
 7    1  0.2489154E-013  0.7246153E+02  0.7816164E-02  0.1226708E+00
        -11   -1    0    0    0    0  0.00000000000E+00  0.00000000000E+00  0.45593999997E+02  0.45594000000E+02  0.51100000000E-03 0.  1.
         11   -1    0    0    0    0 -0.00000000000E+00 -0.00000000000E+00 -0.45593999997E+02  0.45594000000E+02  0.51100000000E-03 0. -1.
    9900012    2    1    2    0    0  0.46759995431E+01 -0.69139149175E+01 -0.16763456551E+02  0.72461530318E+02  0.69999947923E+02 0.  0.
        -12    1    1    2    0    0 -0.46759995431E+01  0.69139149175E+01  0.16763456551E+02  0.18726469682E+02  0.00000000000E+00 0.  1.
         11    1    3    3    0    0  0.85523457247E+00  0.17597122920E+02  0.81085500303E+01  0.19394296715E+02  0.51100000000E-03 0. -1.
        -11    1    3    3    0    0 -0.65458265284E+01 -0.23799233037E+02  0.14933270603E+01  0.24728149224E+02  0.51100000000E-03 0.  1.
        -12    1    3    3    0    0  0.10366591499E+02 -0.71180480022E+00 -0.26365333642E+02  0.28339084379E+02  0.00000000000E+00 0.  1.
</event>
<event>
 7    1  0.2489154E-013  0.7246159E+02  0.7816164E-02  0.1226708E+00
        -11   -1    0    0    0    0  0.00000000000E+00  0.00000000000E+00  0.45593999997E+02  0.45594000000E+02  0.51100000000E-03 0.  1.
         11   -1    0    0    0    0 -0.00000000000E+00 -0.00000000000E+00 -0.45593999997E+02  0.45594000000E+02  0.51100000000E-03 0. -1.
    9900012    2    1    2    0    0  0.79700212258E+01 -0.97153448647E+01 -0.13884134877E+02  0.72461591763E+02  0.70000027966E+02 0.  0.
        -12    1    1    2    0    0 -0.79700212258E+01  0.97153448647E+01  0.13884134877E+02  0.18726408237E+02  0.00000000000E+00 0.  1.
         11    1    3    3    0    0 -0.16416227693E+02 -0.13314407353E+02 -0.30045859139E+02  0.36735808505E+02  0.51100000000E-03 0. -1.
        -11    1    3    3    0    0 -0.19665679560E+01  0.28130198923E+01  0.70325347215E+01  0.78254083159E+01  0.51100000000E-03 0.  1.
        -12    1    3    3    0    0  0.26352816875E+02  0.78604259644E+00  0.91291895405E+01  0.27900374941E+02  0.00000000000E+00 0.  1.
</event>
<event>
 7    1  0.2489154E-013  0.7246152E+02  0.7816164E-02  0.1226708E+00
        -11   -1    0    0    0    0  0.00000000000E+00  0.00000000000E+00  0.45593999997E+02  0.45594000000E+02  0.51100000000E-03 0. -1.
         11   -1    0    0    0    0 -0.00000000000E+00 -0.00000000000E+00 -0.45593999997E+02  0.45594000000E+02  0.51100000000E-03 0.  1.
    9900012    2    1    2    0    0 -0.11596732265E+02  0.68242946388E+01  0.13024046814E+02  0.72461521634E+02  0.69999936611E+02 0.  0.
        -12    1    1    2    0    0  0.11596732265E+02 -0.68242946388E+01 -0.13024046814E+02  0.18726478366E+02  0.00000000000E+00 0.  1.
         11    1    3    3    0    0 -0.27183944460E+02  0.68528623690E+01  0.27461961504E+01  0.28168602248E+02  0.51100000000E-03 0. -1.
        -11    1    3    3    0    0  0.22075787708E+01 -0.18169396100E+02  0.11673184073E+02  0.21708606250E+02  0.51100000000E-03 0.  1.
        -12    1    3    3    0    0  0.13379633424E+02  0.18140828370E+02 -0.13953334087E+01  0.22584313136E+02  0.00000000000E+00 0.  1.
</event>
<event>
 7    1  0.2489154E-013  0.7246152E+02  0.7816164E-02  0.1226708E+00
        -11   -1    0    0    0    0  0.00000000000E+00  0.00000000000E+00  0.45593999997E+02  0.45594000000E+02  0.51100000000E-03 0. -1.
         11   -1    0    0    0    0 -0.00000000000E+00 -0.00000000000E+00 -0.45593999997E+02  0.45594000000E+02  0.51100000000E-03 0.  1.
    9900012    2    1    2    0    0 -0.78711136147E+01 -0.16695651859E+02 -0.31594093908E+01  0.72461519065E+02  0.69999933264E+02 0.  0.
        -12    1    1    2    0    0  0.78711136147E+01  0.16695651859E+02  0.31594093908E+01  0.18726480935E+02  0.00000000000E+00 0.  1.
         11    1    3    3    0    0 -0.24328054814E+02 -0.57430484613E+01 -0.31754444457E+01  0.25197624974E+02  0.51100000000E-03 0. -1.
        -11    1    3    3    0    0 -0.65506601064E+01 -0.20895108839E+02 -0.26539193311E+01  0.22058105297E+02  0.51100000000E-03 0.  1.
        -12    1    3    3    0    0  0.23007601305E+02  0.99425054419E+01  0.26699543861E+01  0.25205788794E+02  0.00000000000E+00 0.  1.
</event>
<event>
 7    1  0.2489154E-013  0.7246154E+02  0.7816164E-02  0.1226708E+00
        -11   -1    0    0    0    0  0.00000000000E+00  0.00000000000E+00  0.45593999997E+02  0.45594000000E+02  0.51100000000E-03 0. -1.
         11   -1    0    0    0    0 -0.00000000000E+00 -0.00000000000E+00 -0.45593999997E+02  0.45594000000E+02  0.51100000000E-03 0.  1.
    9900012    2    1    2    0    0  0.10972607692E+02 -0.55504484645E+01  0.14123557989E+02  0.72461535091E+02  0.69999954141E+02 0.  0.
        -12    1    1    2    0    0 -0.10972607692E+02  0.55504484645E+01 -0.14123557989E+02  0.18726464909E+02  0.00000000000E+00 0.  1.
         11    1    3    3    0    0  0.68873348838E+01  0.15301804200E+01  0.18032039140E+02  0.19363142042E+02  0.51100000000E-03 0. -1.
        -11    1    3    3    0    0  0.12734946285E+02  0.36652817835E+01  0.20879883838E+02  0.24730198074E+02  0.51100000000E-03 0.  1.
        -12    1    3    3    0    0 -0.86496734766E+01 -0.10745910668E+02 -0.24788364989E+02  0.28368194975E+02  0.00000000000E+00 0.  1.
</event>
<event>
 7    1  0.2489154E-013  0.7246162E+02  0.7816164E-02  0.1226708E+00
        -11   -1    0    0    0    0  0.00000000000E+00  0.00000000000E+00  0.45593999997E+02  0.45594000000E+02  0.51100000000E-03 0.  1.
         11   -1    0    0    0    0 -0.00000000000E+00 -0.00000000000E+00 -0.45593999997E+02  0.45594000000E+02  0.51100000000E-03 0. -1.
    9900012    2    1    2    0    0 -0.48818384719E+01 -0.12187543537E+02 -0.13353222957E+02  0.72461624812E+02  0.70000071020E+02 0.  0.
        -12    1    1    2    0    0  0.48818384719E+01  0.12187543537E+02  0.13353222957E+02  0.18726375188E+02  0.00000000000E+00 0.  1.
         11    1    3    3    0    0  0.36311802217E+01  0.36820292095E+01  0.48683490857E+01  0.71023680546E+01  0.51100000000E-03 0. -1.
        -11    1    3    3    0    0 -0.29317917640E+02 -0.82983140000E+00  0.61431208537E+01  0.29966094991E+02  0.51100000000E-03 0.  1.
         12    1    3    3    0    0  0.20804898947E+02 -0.15039741346E+02 -0.24364692896E+02  0.35393161767E+02  0.00000000000E+00 0. -1.
</event>
<event>
 7    1  0.2489154E-013  0.7246162E+02  0.7816164E-02  0.1226708E+00
        -11   -1    0    0    0    0  0.00000000000E+00  0.00000000000E+00  0.45593999997E+02  0.45594000000E+02  0.51100000000E-03 0.  1.
         11   -1    0    0    0    0 -0.00000000000E+00 -0.00000000000E+00 -0.45593999997E+02  0.45594000000E+02  0.51100000000E-03 0. -1.
    9900012    2    1    2    0    0 -0.13930511740E+02 -0.43010270929E+01 -0.11752422188E+02  0.72461617042E+02  0.70000060898E+02 0.  0.
        -12    1    1    2    0    0  0.13930511740E+02  0.43010270929E+01  0.11752422188E+02  0.18726382958E+02  0.00000000000E+00 0.  1.
         11    1    3    3    0    0 -0.13215207899E+02  0.37203797442E+00  0.18987262321E+02  0.23136470405E+02  0.51100000000E-03 0. -1.
        -11    1    3    3    0    0  0.10803205159E+01  0.14466656419E+02 -0.18505477302E+01  0.14624492043E+02  0.51100000000E-03 0.  1.
         12    1    3    3    0    0 -0.17956243569E+01 -0.19139721486E+02 -0.28889136780E+02  0.34700654594E+02  0.00000000000E+00 0. -1.
</event>
<event>
 7    1  0.2489154E-013  0.7246159E+02  0.7816164E-02  0.1226708E+00
        -11   -1    0    0    0    0  0.00000000000E+00  0.00000000000E+00  0.45593999997E+02  0.45594000000E+02  0.51100000000E-03 0. -1.
         11   -1    0    0    0    0 -0.00000000000E+00 -0.00000000000E+00 -0.45593999997E+02  0.45594000000E+02  0.51100000000E-03 0.  1.
    9900012    2    1    2    0    0 -0.15826896841E+02  0.61208348065E+01  0.79197968708E+01  0.72461589110E+02  0.70000024511E+02 0.  0.
        -12    1    1    2    0    0  0.15826896841E+02 -0.61208348065E+01 -0.79197968708E+01  0.18726410890E+02  0.00000000000E+00 0.  1.
         11    1    3    3    0    0  0.23084469325E+02  0.46268585428E+01  0.89004628082E+01  0.25169799015E+02  0.51100000000E-03 0. -1.
        -11    1    3    3    0    0  0.77297404141E+00 -0.53185895360E+01 -0.43104798707E+01  0.68894934863E+01  0.51100000000E-03 0.  1.
         12    1    3    3    0    0 -0.39684340207E+02  0.68125657997E+01  0.33298139334E+01  0.40402296609E+02  0.00000000000E+00 0. -1.
</event>
<event>
 7    1  0.2489154E-013  0.7246150E+02  0.7816164E-02  0.1226708E+00
        -11   -1    0    0    0    0  0.00000000000E+00  0.00000000000E+00  0.45593999997E+02  0.45594000000E+02  0.51100000000E-03 0.  1.
         11   -1    0    0    0    0 -0.00000000000E+00 -0.00000000000E+00 -0.45593999997E+02  0.45594000000E+02  0.51100000000E-03 0. -1.
    9900012    2    1    2    0    0 -0.16712267494E+02  0.69974119701E+01 -0.47347645591E+01  0.72461503945E+02  0.69999913567E+02 0.  0.
        -12    1    1    2    0    0  0.16712267494E+02 -0.69974119701E+01  0.47347645591E+01  0.18726496055E+02  0.00000000000E+00 0.  1.
         11    1    3    3    0    0  0.22424807852E+01 -0.22466925881E+02  0.10550601014E+02  0.24922011569E+02  0.51100000000E-03 0. -1.
        -11    1    3    3    0    0 -0.24774922349E+01 -0.36554875226E+01  0.38791110729E+01  0.58777597585E+01  0.51100000000E-03 0.  1.
         12    1    3    3    0    0 -0.16477256045E+02  0.33119825374E+02 -0.19164476646E+02  0.41661732617E+02  0.00000000000E+00 0. -1.
</event>
<event>
 7    1  0.2489154E-013  0.7246156E+02  0.7816164E-02  0.1226708E+00
        -11   -1    0    0    0    0  0.00000000000E+00  0.00000000000E+00  0.45593999997E+02  0.45594000000E+02  0.51100000000E-03 0.  1.
         11   -1    0    0    0    0 -0.00000000000E+00 -0.00000000000E+00 -0.45593999997E+02  0.45594000000E+02  0.51100000000E-03 0. -1.
    9900012    2    1    2    0    0 -0.15811506925E+02  0.98801765757E+01  0.17487195868E+01  0.72461557182E+02  0.69999982919E+02 0.  0.
        -12    1    1    2    0    0  0.15811506925E+02 -0.98801765757E+01 -0.17487195868E+01  0.18726442818E+02  0.00000000000E+00 0.  1.
         11    1    3    3    0    0  0.92665276719E+01 -0.93750212384E+01 -0.19199316364E+02  0.23288909537E+02  0.51100000000E-03 0. -1.
        -11    1    3    3    0    0  0.41382002095E+01 -0.38003082669E+01 -0.13610266828E+01  0.57809547473E+01  0.51100000000E-03 0.  1.
        -12    1    3    3    0    0 -0.29216234807E+02  0.23055506081E+02  0.22309062634E+02  0.43391692898E+02  0.00000000000E+00 0.  1.
</event>
<event>
 7    1  0.2489154E-013  0.7246157E+02  0.7816164E-02  0.1226708E+00
        -11   -1    0    0    0    0  0.00000000000E+00  0.00000000000E+00  0.45593999997E+02  0.45594000000E+02  0.51100000000E-03 0.  1.
         11   -1    0    0    0    0 -0.00000000000E+00 -0.00000000000E+00 -0.45593999997E+02  0.45594000000E+02  0.51100000000E-03 0. -1.
    9900012    2    1    2    0    0  0.71901193113E+01 -0.12663400334E+02 -0.11773688249E+02  0.72461567913E+02  0.69999996898E+02 0.  0.
        -12    1    1    2    0    0 -0.71901193113E+01  0.12663400334E+02  0.11773688249E+02  0.18726432087E+02  0.00000000000E+00 0.  1.
         11    1    3    3    0    0 -0.19453048669E+02  0.67626659187E+01 -0.56048176698E+01  0.21344056180E+02  0.51100000000E-03 0.  1.
        -11    1    3    3    0    0  0.48275180101E+01 -0.33895994722E+01 -0.19902301432E+02  0.20758032597E+02  0.51100000000E-03 0. -1.
        -12    1    3    3    0    0  0.21815649970E+02 -0.16036466780E+02  0.13733430853E+02  0.30359479136E+02  0.00000000000E+00 0.  1.
</event>
<event>
 7    1  0.2489154E-013  0.7246126E+02  0.7816164E-02  0.1226709E+00
        -11   -1    0    0    0    0  0.00000000000E+00  0.00000000000E+00  0.45593999997E+02  0.45594000000E+02  0.51100000000E-03 0. -1.
         11   -1    0    0    0    0 -0.00000000000E+00 -0.00000000000E+00 -0.45593999997E+02  0.45594000000E+02  0.51100000000E-03 0.  1.
    9900012    2    1    2    0    0 -0.70224277682E+01 -0.41641645297E+01  0.16853371628E+02  0.72461257272E+02  0.69999592229E+02 0.  0.
        -12    1    1    2    0    0  0.70224277682E+01  0.41641645297E+01 -0.16853371628E+02  0.18726742728E+02  0.00000000000E+00 0.  1.
         11    1    3    3    0    0 -0.97475174048E+01 -0.30724562742E+01  0.11738858726E+02  0.15564539426E+02  0.51100000000E-03 0. -1.
        -11    1    3    3    0    0  0.12570861034E+02 -0.26402440637E+02 -0.99124618473E-01  0.29242524595E+02  0.51100000000E-03 0.  1.
         12    1    3    3    0    0 -0.98457713978E+01  0.25310732382E+02  0.52136375206E+01  0.27654193250E+02  0.00000000000E+00 0. -1.
</event>
<event>
 7    1  0.2489154E-013  0.7246140E+02  0.7816164E-02  0.1226708E+00
        -11   -1    0    0    0    0  0.00000000000E+00  0.00000000000E+00  0.45593999997E+02  0.45594000000E+02  0.51100000000E-03 0. -1.
         11   -1    0    0    0    0 -0.00000000000E+00 -0.00000000000E+00 -0.45593999997E+02  0.45594000000E+02  0.51100000000E-03 0.  1.
    9900012    2    1    2    0    0 -0.37696880305E+01 -0.15630378839E+02  0.96003292276E+01  0.72461398286E+02  0.69999775926E+02 0.  0.
        -12    1    1    2    0    0  0.37696880305E+01  0.15630378839E+02 -0.96003292276E+01  0.18726601714E+02  0.00000000000E+00 0.  1.
         11    1    3    3    0    0 -0.31965147226E+01 -0.48051972338E+01 -0.12993677050E+02  0.14217709744E+02  0.51100000000E-03 0. -1.
        -11    1    3    3    0    0 -0.42824250327E+00  0.20412543089E+01 -0.16734395728E+02  0.16863870002E+02  0.51100000000E-03 0.  1.
         12    1    3    3    0    0 -0.14493080462E+00 -0.12866435914E+02  0.39328402006E+02  0.41379818540E+02  0.00000000000E+00 0. -1.
</event>
<event>
 7    1  0.2489154E-013  0.7246160E+02  0.7816164E-02  0.1226708E+00
        -11   -1    0    0    0    0  0.00000000000E+00  0.00000000000E+00  0.45593999997E+02  0.45594000000E+02  0.51100000000E-03 0.  1.
         11   -1    0    0    0    0 -0.00000000000E+00 -0.00000000000E+00 -0.45593999997E+02  0.45594000000E+02  0.51100000000E-03 0. -1.
    9900012    2    1    2    0    0 -0.17884004285E+02  0.36117243440E+01 -0.42185315795E+01  0.72461596963E+02  0.70000034741E+02 0.  0.
        -12    1    1    2    0    0  0.17884004285E+02 -0.36117243440E+01  0.42185315795E+01  0.18726403037E+02  0.00000000000E+00 0.  1.
         11    1    3    3    0    0 -0.30011015379E+02 -0.21104729503E+01 -0.14578565741E+02  0.33431268589E+02  0.51100000000E-03 0. -1.
        -11    1    3    3    0    0 -0.10762966501E+02 -0.27617361769E+01 -0.25711998197E+01  0.11405248940E+02  0.51100000000E-03 0.  1.
        -12    1    3    3    0    0  0.22889977595E+02  0.84839334712E+01  0.12931233981E+02  0.27625079433E+02  0.00000000000E+00 0.  1.
</event>
<event>
 7    1  0.2489154E-013  0.7246212E+02  0.7816164E-02  0.1226707E+00
        -11   -1    0    0    0    0  0.00000000000E+00  0.00000000000E+00  0.45593999997E+02  0.45594000000E+02  0.51100000000E-03 0.  1.
         11   -1    0    0    0    0 -0.00000000000E+00 -0.00000000000E+00 -0.45593999997E+02  0.45594000000E+02  0.51100000000E-03 0. -1.
    9900012    2    1    2    0    0 -0.13004450943E+01  0.10206704938E+02 -0.15645780025E+02  0.72462124433E+02  0.70000721865E+02 0.  0.
        -12    1    1    2    0    0  0.13004450943E+01 -0.10206704938E+02  0.15645780025E+02  0.18725875567E+02  0.00000000000E+00 0.  1.
         11    1    3    3    0    0  0.75371624603E+01 -0.12172242878E+02  0.12402650473E+02  0.18941965412E+02  0.51100000000E-03 0. -1.
        -11    1    3    3    0    0 -0.16731618990E+02  0.57169196120E+00  0.48725120286E+00  0.16748472161E+02  0.51100000000E-03 0.  1.
         12    1    3    3    0    0  0.78940114352E+01  0.21807255855E+02 -0.28535681701E+02  0.36771686861E+02  0.00000000000E+00 0. -1.
</event>
<event>
 7    1  0.2489154E-013  0.7246156E+02  0.7816164E-02  0.1226708E+00
        -11   -1    0    0    0    0  0.00000000000E+00  0.00000000000E+00  0.45593999997E+02  0.45594000000E+02  0.51100000000E-03 0. -1.
         11   -1    0    0    0    0 -0.00000000000E+00 -0.00000000000E+00 -0.45593999997E+02  0.45594000000E+02  0.51100000000E-03 0.  1.
    9900012    2    1    2    0    0  0.40330096589E+01 -0.60579417661E+01  0.17254444455E+02  0.72461556696E+02  0.69999982286E+02 0.  0.
        -12    1    1    2    0    0 -0.40330096589E+01  0.60579417661E+01 -0.17254444455E+02  0.18726443304E+02  0.00000000000E+00 0.  1.
         11    1    3    3    0    0  0.48780821159E+01 -0.18750503538E+01  0.40305411911E+01  0.65997546555E+01  0.51100000000E-03 0. -1.
        -11    1    3    3    0    0  0.31618657576E+02  0.86736841891E+00  0.53896253742E+01  0.32086444129E+02  0.51100000000E-03 0.  1.
         12    1    3    3    0    0 -0.32463730033E+02 -0.50502598312E+01  0.78342778897E+01  0.33775357912E+02  0.00000000000E+00 0. -1.
</event>
<event>
 7    1  0.2489154E-013  0.7246156E+02  0.7816164E-02  0.1226708E+00
        -11   -1    0    0    0    0  0.00000000000E+00  0.00000000000E+00  0.45593999997E+02  0.45594000000E+02  0.51100000000E-03 0.  1.
         11   -1    0    0    0    0 -0.00000000000E+00 -0.00000000000E+00 -0.45593999997E+02  0.45594000000E+02  0.51100000000E-03 0. -1.
    9900012    2    1    2    0    0  0.15929243123E+01  0.48810548416E+01 -0.18008820750E+02  0.72461555355E+02  0.69999980539E+02 0.  0.
        -12    1    1    2    0    0 -0.15929243123E+01 -0.48810548416E+01  0.18008820750E+02  0.18726444645E+02  0.00000000000E+00 0.  1.
         11    1    3    3    0    0 -0.30296936872E+01  0.10718403390E+02  0.39422178603E+01  0.11815426229E+02  0.51100000000E-03 0. -1.
        -11    1    3    3    0    0 -0.21556645208E+02  0.81079940639E+01 -0.20686391118E+02  0.30957314129E+02  0.51100000000E-03 0.  1.
         12    1    3    3    0    0  0.26179263207E+02 -0.13945342612E+02 -0.12646474927E+01  0.29688814997E+02  0.00000000000E+00 0. -1.
</event>
<event>
 7    1  0.2489154E-013  0.7246160E+02  0.7816164E-02  0.1226708E+00
        -11   -1    0    0    0    0  0.00000000000E+00  0.00000000000E+00  0.45593999997E+02  0.45594000000E+02  0.51100000000E-03 0.  1.
         11   -1    0    0    0    0 -0.00000000000E+00 -0.00000000000E+00 -0.45593999997E+02  0.45594000000E+02  0.51100000000E-03 0. -1.
    9900012    2    1    2    0    0  0.98394520198E+01  0.15732981217E+02  0.25172801997E+01  0.72461595817E+02  0.70000033248E+02 0.  0.
        -12    1    1    2    0    0 -0.98394520198E+01 -0.15732981217E+02 -0.25172801997E+01  0.18726404183E+02  0.00000000000E+00 0.  1.
         11    1    3    3    0    0  0.20484041535E+02  0.28382751337E+02 -0.19739536559E+02  0.40184895606E+02  0.51100000000E-03 0. -1.
        -11    1    3    3    0    0 -0.24981606349E+01  0.35414353938E+01  0.12071411119E+01  0.44988622041E+01  0.51100000000E-03 0.  1.
        -12    1    3    3    0    0 -0.81464288808E+01 -0.16191205514E+02  0.21049675646E+02  0.27777838006E+02  0.00000000000E+00 0.  1.
</event>
<event>
 7    1  0.2489154E-013  0.7246156E+02  0.7816164E-02  0.1226708E+00
        -11   -1    0    0    0    0  0.00000000000E+00  0.00000000000E+00  0.45593999997E+02  0.45594000000E+02  0.51100000000E-03 0.  1.
         11   -1    0    0    0    0 -0.00000000000E+00 -0.00000000000E+00 -0.45593999997E+02  0.45594000000E+02  0.51100000000E-03 0. -1.
    9900012    2    1    2    0    0 -0.95816813827E+01  0.41491689420E+01 -0.15545263247E+02  0.72461563328E+02  0.69999990925E+02 0.  0.
        -12    1    1    2    0    0  0.95816813827E+01 -0.41491689420E+01  0.15545263247E+02  0.18726436672E+02  0.00000000000E+00 0.  1.
         11    1    3    3    0    0 -0.26830811938E+02  0.14113528862E+02 -0.92379160842E+01  0.31692637316E+02  0.51100000000E-03 0. -1.
        -11    1    3    3    0    0  0.37611765513E+01  0.12276333577E+02  0.29240799976E+01  0.13168335477E+02  0.51100000000E-03 0.  1.
        -12    1    3    3    0    0  0.13487954004E+02 -0.22240693498E+02 -0.92314271601E+01  0.27600590535E+02  0.00000000000E+00 0.  1.
</event>
<event>
 7    1  0.2489154E-013  0.7246157E+02  0.7816164E-02  0.1226708E+00
        -11   -1    0    0    0    0  0.00000000000E+00  0.00000000000E+00  0.45593999997E+02  0.45594000000E+02  0.51100000000E-03 0. -1.
         11   -1    0    0    0    0 -0.00000000000E+00 -0.00000000000E+00 -0.45593999997E+02  0.45594000000E+02  0.51100000000E-03 0.  1.
    9900012    2    1    2    0    0  0.12474990122E+01  0.47403642642E+01  0.18073513805E+02  0.72461569256E+02  0.69999998648E+02 0.  0.
        -12    1    1    2    0    0 -0.12474990122E+01 -0.47403642642E+01 -0.18073513805E+02  0.18726430744E+02  0.00000000000E+00 0.  1.
         11    1    3    3    0    0  0.11187208331E+02 -0.27510144878E+02  0.10447701917E+02  0.31481997666E+02  0.51100000000E-03 0. -1.
        -11    1    3    3    0    0 -0.10873127046E+02  0.42612504021E+01  0.54584833324E+01  0.12891011881E+02  0.51100000000E-03 0.  1.
        -12    1    3    3    0    0  0.93341772769E+00  0.27989258740E+02  0.21673285552E+01  0.28088559709E+02  0.00000000000E+00 0.  1.
</event>
<event>
 7    1  0.2489154E-013  0.7246156E+02  0.7816164E-02  0.1226708E+00
        -11   -1    0    0    0    0  0.00000000000E+00  0.00000000000E+00  0.45593999997E+02  0.45594000000E+02  0.51100000000E-03 0. -1.
         11   -1    0    0    0    0 -0.00000000000E+00 -0.00000000000E+00 -0.45593999997E+02  0.45594000000E+02  0.51100000000E-03 0.  1.
    9900012    2    1    2    0    0  0.76417381525E+01 -0.48678434097E+01  0.16388636790E+02  0.72461562077E+02  0.69999989296E+02 0.  0.
        -12    1    1    2    0    0 -0.76417381525E+01  0.48678434097E+01 -0.16388636790E+02  0.18726437923E+02  0.00000000000E+00 0.  1.
         11    1    3    3    0    0 -0.15573562586E+02 -0.80925142996E+00  0.96120998299E+01  0.18318930179E+02  0.51100000000E-03 0. -1.
        -11    1    3    3    0    0 -0.15383419085E+01 -0.20781364541E+02 -0.59510486189E+01  0.21671331014E+02  0.51100000000E-03 0.  1.
        -12    1    3    3    0    0  0.24753642647E+02  0.16722772561E+02  0.12727585579E+02  0.32471300884E+02  0.00000000000E+00 0.  1.
</event>
<event>
 7    1  0.2489154E-013  0.7246145E+02  0.7816164E-02  0.1226708E+00
        -11   -1    0    0    0    0  0.00000000000E+00  0.00000000000E+00  0.45593999997E+02  0.45594000000E+02  0.51100000000E-03 0.  1.
         11   -1    0    0    0    0 -0.00000000000E+00 -0.00000000000E+00 -0.45593999997E+02  0.45594000000E+02  0.51100000000E-03 0. -1.
    9900012    2    1    2    0    0  0.23056337824E+01 -0.17008103352E+02 -0.74894672806E+01  0.72461450747E+02  0.69999844267E+02 0.  0.
        -12    1    1    2    0    0 -0.23056337824E+01  0.17008103352E+02  0.74894672806E+01  0.18726549253E+02  0.00000000000E+00 0.  1.
         11    1    3    3    0    0  0.17681989406E+02 -0.26991007556E+02  0.93872236075E+01  0.33604868777E+02  0.51100000000E-03 0. -1.
        -11    1    3    3    0    0 -0.72674459680E+01 -0.53484054726E+01  0.54832062126E+01  0.10558729215E+02  0.51100000000E-03 0.  1.
        -12    1    3    3    0    0 -0.81089096558E+01  0.15331309676E+02 -0.22359897101E+02  0.28297852755E+02  0.00000000000E+00 0.  1.
</event>
<event>
 7    1  0.2489154E-013  0.7246148E+02  0.7816164E-02  0.1226708E+00
        -11   -1    0    0    0    0  0.00000000000E+00  0.00000000000E+00  0.45593999997E+02  0.45594000000E+02  0.51100000000E-03 0. -1.
         11   -1    0    0    0    0 -0.00000000000E+00 -0.00000000000E+00 -0.45593999997E+02  0.45594000000E+02  0.51100000000E-03 0.  1.
    9900012    2    1    2    0    0  0.88589908368E-01 -0.37789935579E+01  0.18341039918E+02  0.72461484421E+02  0.69999888134E+02 0.  0.
        -12    1    1    2    0    0 -0.88589908368E-01  0.37789935579E+01 -0.18341039918E+02  0.18726515579E+02  0.00000000000E+00 0.  1.
         11    1    3    3    0    0 -0.46018429377E+00 -0.21385887018E+02  0.88636048404E+01  0.23154511961E+02  0.51100000000E-03 0. -1.
        -11    1    3    3    0    0 -0.14506605890E+02 -0.73094862192E+01  0.11837662186E+02  0.20099762424E+02  0.51100000000E-03 0.  1.
        -12    1    3    3    0    0  0.15055380092E+02  0.24916379679E+02 -0.23602271083E+01  0.29207210035E+02  0.00000000000E+00 0.  1.
</event>
<event>
 7    1  0.2489154E-013  0.7246155E+02  0.7816164E-02  0.1226708E+00
        -11   -1    0    0    0    0  0.00000000000E+00  0.00000000000E+00  0.45593999997E+02  0.45594000000E+02  0.51100000000E-03 0. -1.
         11   -1    0    0    0    0 -0.00000000000E+00 -0.00000000000E+00 -0.45593999997E+02  0.45594000000E+02  0.51100000000E-03 0.  1.
    9900012    2    1    2    0    0  0.38229905723E+01 -0.11866141188E+02  0.13973528877E+02  0.72461546175E+02  0.69999968580E+02 0.  0.
        -12    1    1    2    0    0 -0.38229905723E+01  0.11866141188E+02 -0.13973528877E+02  0.18726453825E+02  0.00000000000E+00 0.  1.
         11    1    3    3    0    0  0.84978913920E+01 -0.59441059359E+00 -0.13123724988E+01  0.86191533170E+01  0.51100000000E-03 0. -1.
        -11    1    3    3    0    0  0.16248658784E+01 -0.32145585293E+02 -0.67017221402E+01  0.32876920824E+02  0.51100000000E-03 0.  1.
         12    1    3    3    0    0 -0.62997666981E+01  0.20873854699E+02  0.21987623516E+02  0.30965472034E+02  0.00000000000E+00 0. -1.
</event>
<event>
 7    1  0.2489154E-013  0.7246159E+02  0.7816164E-02  0.1226708E+00
        -11   -1    0    0    0    0  0.00000000000E+00  0.00000000000E+00  0.45593999997E+02  0.45594000000E+02  0.51100000000E-03 0.  1.
         11   -1    0    0    0    0 -0.00000000000E+00 -0.00000000000E+00 -0.45593999997E+02  0.45594000000E+02  0.51100000000E-03 0. -1.
    9900012    2    1    2    0    0  0.44794870868E+01 -0.39523589579E+01 -0.17747999571E+02  0.72461589915E+02  0.70000025560E+02 0.  0.
        -12    1    1    2    0    0 -0.44794870868E+01  0.39523589579E+01  0.17747999571E+02  0.18726410085E+02  0.00000000000E+00 0.  1.
         11    1    3    3    0    0 -0.14577616125E+00  0.28084208095E+01 -0.69567920954E+00  0.28969722049E+01  0.51100000000E-03 0. -1.
        -11    1    3    3    0    0 -0.31972604158E+01  0.27397341346E+02  0.51789323675E+01  0.28065247687E+02  0.51100000000E-03 0.  1.
         12    1    3    3    0    0  0.78225236639E+01 -0.34158121113E+02 -0.22231252729E+02  0.41499370024E+02  0.00000000000E+00 0. -1.
</event>
<event>
 7    1  0.2489154E-013  0.7246161E+02  0.7816164E-02  0.1226708E+00
        -11   -1    0    0    0    0  0.00000000000E+00  0.00000000000E+00  0.45593999997E+02  0.45594000000E+02  0.51100000000E-03 0.  1.
         11   -1    0    0    0    0 -0.00000000000E+00 -0.00000000000E+00 -0.45593999997E+02  0.45594000000E+02  0.51100000000E-03 0. -1.
    9900012    2    1    2    0    0  0.11668855277E+02 -0.13098599394E+02 -0.65530159254E+01  0.72461614677E+02  0.70000057816E+02 0.  0.
        -12    1    1    2    0    0 -0.11668855277E+02  0.13098599394E+02  0.65530159254E+01  0.18726385323E+02  0.00000000000E+00 0.  1.
         11    1    3    3    0    0  0.37202637381E+02 -0.73624925172E+01  0.51556417451E-01  0.37924203122E+02  0.51100000000E-03 0. -1.
        -11    1    3    3    0    0  0.25882990105E+01  0.17602499956E+01 -0.43323029985E+01  0.53447751447E+01  0.51100000000E-03 0.  1.
        -12    1    3    3    0    0 -0.28122081114E+02 -0.74963568727E+01 -0.22722693443E+01  0.29192636409E+02  0.00000000000E+00 0.  1.
</event>
<event>
 7    1  0.2489154E-013  0.7246155E+02  0.7816164E-02  0.1226708E+00
        -11   -1    0    0    0    0  0.00000000000E+00  0.00000000000E+00  0.45593999997E+02  0.45594000000E+02  0.51100000000E-03 0.  1.
         11   -1    0    0    0    0 -0.00000000000E+00 -0.00000000000E+00 -0.45593999997E+02  0.45594000000E+02  0.51100000000E-03 0. -1.
    9900012    2    1    2    0    0  0.17694948346E+01 -0.15114727864E+02 -0.10913005140E+02  0.72461553686E+02  0.69999978364E+02 0.  0.
        -12    1    1    2    0    0 -0.17694948346E+01  0.15114727864E+02  0.10913005140E+02  0.18726446314E+02  0.00000000000E+00 0.  1.
         11    1    3    3    0    0  0.33634376680E+01  0.14964687995E+02 -0.20014397202E+02  0.25215683519E+02  0.51100000000E-03 0. -1.
        -11    1    3    3    0    0  0.98575509793E+01 -0.15571087219E+02 -0.97464183957E+01  0.20847607544E+02  0.51100000000E-03 0.  1.
        -12    1    3    3    0    0 -0.11451493813E+02 -0.14508328640E+02  0.18847810457E+02  0.26398262623E+02  0.00000000000E+00 0.  1.
</event>
<event>
 7    1  0.2489154E-013  0.7246153E+02  0.7816164E-02  0.1226708E+00
        -11   -1    0    0    0    0  0.00000000000E+00  0.00000000000E+00  0.45593999997E+02  0.45594000000E+02  0.51100000000E-03 0.  1.
         11   -1    0    0    0    0 -0.00000000000E+00 -0.00000000000E+00 -0.45593999997E+02  0.45594000000E+02  0.51100000000E-03 0. -1.
    9900012    2    1    2    0    0 -0.75521226964E+00 -0.10243877971E+02 -0.15658006264E+02  0.72461533659E+02  0.69999952276E+02 0.  0.
        -12    1    1    2    0    0  0.75521226964E+00  0.10243877971E+02  0.15658006264E+02  0.18726466341E+02  0.00000000000E+00 0.  1.
         11    1    3    3    0    0 -0.30885310524E+01 -0.20538393708E+02  0.47568789380E+01  0.21307100640E+02  0.51100000000E-03 0. -1.
        -11    1    3    3    0    0 -0.18636403938E+02 -0.10269118043E+01 -0.19949074255E+02  0.27319144634E+02  0.51100000000E-03 0.  1.
        -12    1    3    3    0    0  0.20969722721E+02  0.11321427542E+02 -0.46581094683E+00  0.23835288386E+02  0.00000000000E+00 0.  1.
</event>
<event>
 7    1  0.2489154E-013  0.7246158E+02  0.7816164E-02  0.1226708E+00
        -11   -1    0    0    0    0  0.00000000000E+00  0.00000000000E+00  0.45593999997E+02  0.45594000000E+02  0.51100000000E-03 0.  1.
         11   -1    0    0    0    0 -0.00000000000E+00 -0.00000000000E+00 -0.45593999997E+02  0.45594000000E+02  0.51100000000E-03 0. -1.
    9900012    2    1    2    0    0 -0.62485625503E+01 -0.15934056314E+02  0.75987041629E+01  0.72461575100E+02  0.70000006261E+02 0.  0.
        -12    1    1    2    0    0  0.62485625503E+01  0.15934056314E+02 -0.75987041629E+01  0.18726424900E+02  0.00000000000E+00 0.  1.
         11    1    3    3    0    0 -0.35493473189E+01 -0.14597598976E+02 -0.20527717984E+02  0.25437668292E+02  0.51100000000E-03 0. -1.
        -11    1    3    3    0    0 -0.16492071396E+02  0.99640212295E+01  0.10465600500E+02  0.21927127767E+02  0.51100000000E-03 0.  1.
         12    1    3    3    0    0  0.13792856165E+02 -0.11300478568E+02  0.17660821646E+02  0.25096779042E+02  0.00000000000E+00 0. -1.
</event>
<event>
 7    1  0.2489154E-013  0.7246157E+02  0.7816164E-02  0.1226708E+00
        -11   -1    0    0    0    0  0.00000000000E+00  0.00000000000E+00  0.45593999997E+02  0.45594000000E+02  0.51100000000E-03 0.  1.
         11   -1    0    0    0    0 -0.00000000000E+00 -0.00000000000E+00 -0.45593999997E+02  0.45594000000E+02  0.51100000000E-03 0. -1.
    9900012    2    1    2    0    0 -0.43965732474E+01 -0.41219417089E+01 -0.17730169347E+02  0.72461570419E+02  0.70000000163E+02 0.  0.
        -12    1    1    2    0    0  0.43965732474E+01  0.41219417089E+01  0.17730169347E+02  0.18726429581E+02  0.00000000000E+00 0.  1.
         11    1    3    3    0    0  0.76667519225E+01 -0.10837438748E+02 -0.59225193887E+01  0.14536347541E+02  0.51100000000E-03 0. -1.
        -11    1    3    3    0    0  0.18932348602E+02 -0.96029428400E+01 -0.94042261192E+00  0.21249346572E+02  0.51100000000E-03 0.  1.
         12    1    3    3    0    0 -0.30995673772E+02  0.16318439879E+02 -0.10867227346E+02  0.36675876307E+02  0.00000000000E+00 0. -1.
</event>
<event>
 7    1  0.2489154E-013  0.7246158E+02  0.7816164E-02  0.1226708E+00
        -11   -1    0    0    0    0  0.00000000000E+00  0.00000000000E+00  0.45593999997E+02  0.45594000000E+02  0.51100000000E-03 0. -1.
         11   -1    0    0    0    0 -0.00000000000E+00 -0.00000000000E+00 -0.45593999997E+02  0.45594000000E+02  0.51100000000E-03 0.  1.
    9900012    2    1    2    0    0 -0.17606319043E+02  0.46952602289E+01  0.43186826049E+01  0.72461575934E+02  0.70000007346E+02 0.  0.
        -12    1    1    2    0    0  0.17606319043E+02 -0.46952602289E+01 -0.43186826049E+01  0.18726424066E+02  0.00000000000E+00 0.  1.
         11    1    3    3    0    0 -0.10534302924E+01 -0.53356821981E+01  0.36269914163E+01  0.65371466937E+01  0.51100000000E-03 0. -1.
        -11    1    3    3    0    0 -0.18284301166E+02 -0.19062617209E+02 -0.17391384033E+02  0.31625294984E+02  0.51100000000E-03 0.  1.
         12    1    3    3    0    0  0.17314124151E+01  0.29093559636E+02  0.18083075222E+02  0.34299134256E+02  0.00000000000E+00 0. -1.
</event>
<event>
 7    1  0.2489154E-013  0.7246156E+02  0.7816164E-02  0.1226708E+00
        -11   -1    0    0    0    0  0.00000000000E+00  0.00000000000E+00  0.45593999997E+02  0.45594000000E+02  0.51100000000E-03 0.  1.
         11   -1    0    0    0    0 -0.00000000000E+00 -0.00000000000E+00 -0.45593999997E+02  0.45594000000E+02  0.51100000000E-03 0. -1.
    9900012    2    1    2    0    0 -0.67328013613E+01  0.10822539955E+02 -0.13719381236E+02  0.72461563960E+02  0.69999991749E+02 0.  0.
        -12    1    1    2    0    0  0.67328013613E+01 -0.10822539955E+02  0.13719381236E+02  0.18726436040E+02  0.00000000000E+00 0.  1.
         11    1    3    3    0    0 -0.11391570343E+02  0.65005763000E+01  0.99054193870E+01  0.16436018393E+02  0.51100000000E-03 0. -1.
        -11    1    3    3    0    0 -0.80286760234E+01  0.72506282532E+01  0.13141568041E+02  0.17021517547E+02  0.51100000000E-03 0.  1.
         12    1    3    3    0    0  0.12687445005E+02 -0.29286645984E+01 -0.36766368664E+02  0.39004028021E+02  0.00000000000E+00 0. -1.
</event>
<event>
 7    1  0.2489154E-013  0.7246157E+02  0.7816164E-02  0.1226708E+00
        -11   -1    0    0    0    0  0.00000000000E+00  0.00000000000E+00  0.45593999997E+02  0.45594000000E+02  0.51100000000E-03 0.  1.
         11   -1    0    0    0    0 -0.00000000000E+00 -0.00000000000E+00 -0.45593999997E+02  0.45594000000E+02  0.51100000000E-03 0. -1.
    9900012    2    1    2    0    0 -0.37530305456E+01  0.18158195932E+02 -0.26218111001E+01  0.72461569181E+02  0.69999998550E+02 0.  0.
        -12    1    1    2    0    0  0.37530305456E+01 -0.18158195932E+02  0.26218111001E+01  0.18726430819E+02  0.00000000000E+00 0.  1.
         11    1    3    3    0    0 -0.13625875207E+02  0.31562355782E+02  0.82143507844E+01  0.35345754154E+02  0.51100000000E-03 0. -1.
        -11    1    3    3    0    0 -0.18583599998E+01  0.66461301244E+01  0.54096683856E+01  0.87686407056E+01  0.51100000000E-03 0.  1.
        -12    1    3    3    0    0  0.11731204661E+02 -0.20050289974E+02 -0.16245830270E+02  0.28347174322E+02  0.00000000000E+00 0.  1.
</event>
<event>
 7    1  0.2489154E-013  0.7246160E+02  0.7816164E-02  0.1226708E+00
        -11   -1    0    0    0    0  0.00000000000E+00  0.00000000000E+00  0.45593999997E+02  0.45594000000E+02  0.51100000000E-03 0.  1.
         11   -1    0    0    0    0 -0.00000000000E+00 -0.00000000000E+00 -0.45593999997E+02  0.45594000000E+02  0.51100000000E-03 0. -1.
    9900012    2    1    2    0    0  0.42434189175E+01  0.15295910351E+02 -0.99351135733E+01  0.72461602608E+02  0.70000042094E+02 0.  0.
        -12    1    1    2    0    0 -0.42434189175E+01 -0.15295910351E+02  0.99351135733E+01  0.18726397392E+02  0.00000000000E+00 0.  1.
         11    1    3    3    0    0  0.10428817272E+02 -0.42965279598E+01  0.19820678003E+02  0.22805255074E+02  0.51100000000E-03 0. -1.
        -11    1    3    3    0    0  0.13049804973E+01 -0.58382435634E+01  0.36510645117E+01  0.70084473554E+01  0.51100000000E-03 0.  1.
         12    1    3    3    0    0 -0.74903788523E+01  0.25430681874E+02 -0.33406856088E+02  0.42647900179E+02  0.00000000000E+00 0. -1.
</event>
<event>
 7    1  0.2489154E-013  0.7246158E+02  0.7816164E-02  0.1226708E+00
        -11   -1    0    0    0    0  0.00000000000E+00  0.00000000000E+00  0.45593999997E+02  0.45594000000E+02  0.51100000000E-03 0.  1.
         11   -1    0    0    0    0 -0.00000000000E+00 -0.00000000000E+00 -0.45593999997E+02  0.45594000000E+02  0.51100000000E-03 0. -1.
    9900012    2    1    2    0    0 -0.42394039191E+01  0.14878358530E+02 -0.10551810575E+02  0.72461580039E+02  0.70000012694E+02 0.  0.
        -12    1    1    2    0    0  0.42394039191E+01 -0.14878358530E+02  0.10551810575E+02  0.18726419961E+02  0.00000000000E+00 0.  1.
         11    1    3    3    0    0 -0.62105359593E+01 -0.60793682955E+01  0.10591644867E+01  0.87550731262E+01  0.51100000000E-03 0. -1.
        -11    1    3    3    0    0 -0.23679320211E+02 -0.68704998282E+01 -0.25266348294E+01  0.24785032931E+02  0.51100000000E-03 0.  1.
        -12    1    3    3    0    0  0.25650452252E+02  0.27828226654E+02 -0.90843402325E+01  0.38921473982E+02  0.00000000000E+00 0.  1.
</event>
<event>
 7    1  0.3419685E-013  0.7246156E+02  0.7816164E-02  0.1226708E+00
        -11   -1    0    0    0    0  0.00000000000E+00  0.00000000000E+00  0.45593999997E+02  0.45594000000E+02  0.51100000000E-03 0. -1.
         11   -1    0    0    0    0 -0.00000000000E+00 -0.00000000000E+00 -0.45593999997E+02  0.45594000000E+02  0.51100000000E-03 0.  1.
    9900012    2    1    2    0    0 -0.13596157491E+02  0.18168152421E+01  0.12748460031E+02  0.72461560154E+02  0.69999986791E+02 0.  0.
        -12    1    1    2    0    0  0.13596157491E+02 -0.18168152421E+01 -0.12748460031E+02  0.18726439846E+02  0.00000000000E+00 0.  1.
         11    1    3    3    0    0  0.74708242947E+01 -0.11036305012E+02  0.23972421941E+00  0.13329317759E+02  0.51100000000E-03 0. -1.
        -11    1    3    3    0    0 -0.75063799605E+01  0.16302770355E+02 -0.18091935547E+02  0.25484194974E+02  0.51100000000E-03 0.  1.
         12    1    3    3    0    0 -0.13560601825E+02 -0.34496501002E+01  0.30600671359E+02  0.33648047421E+02  0.00000000000E+00 0. -1.
</event>
<event>
 7    1  0.2489154E-013  0.7246160E+02  0.7816164E-02  0.1226708E+00
        -11   -1    0    0    0    0  0.00000000000E+00  0.00000000000E+00  0.45593999997E+02  0.45594000000E+02  0.51100000000E-03 0.  1.
         11   -1    0    0    0    0 -0.00000000000E+00 -0.00000000000E+00 -0.45593999997E+02  0.45594000000E+02  0.51100000000E-03 0. -1.
    9900012    2    1    2    0    0  0.97595780908E+01 -0.70339141696E+01 -0.14351050332E+02  0.72461602624E+02  0.70000042115E+02 0.  0.
        -12    1    1    2    0    0 -0.97595780908E+01  0.70339141696E+01  0.14351050332E+02  0.18726397376E+02  0.00000000000E+00 0.  1.
         11    1    3    3    0    0  0.87454893904E+01  0.19383293280E+02  0.17018377660E+02  0.27236387820E+02  0.51100000000E-03 0. -1.
        -11    1    3    3    0    0  0.27372074914E+01  0.52285013039E+00  0.11032478054E+01  0.29971374829E+01  0.51100000000E-03 0.  1.
        -12    1    3    3    0    0 -0.17231187910E+01 -0.26940057580E+02 -0.32472675798E+02  0.42228077321E+02  0.00000000000E+00 0.  1.
</event>
<event>
 7    1  0.2489154E-013  0.7246161E+02  0.7816164E-02  0.1226708E+00
        -11   -1    0    0    0    0  0.00000000000E+00  0.00000000000E+00  0.45593999997E+02  0.45594000000E+02  0.51100000000E-03 0. -1.
         11   -1    0    0    0    0 -0.00000000000E+00 -0.00000000000E+00 -0.45593999997E+02  0.45594000000E+02  0.51100000000E-03 0.  1.
    9900012    2    1    2    0    0 -0.60189788302E+01 -0.16646216018E+02  0.61117213873E+01  0.72461608138E+02  0.70000049298E+02 0.  0.
        -12    1    1    2    0    0  0.60189788302E+01  0.16646216018E+02 -0.61117213873E+01  0.18726391862E+02  0.00000000000E+00 0.  1.
         11    1    3    3    0    0 -0.68863701674E+01  0.78901499225E+01 -0.74264777463E+01  0.12838579822E+02  0.51100000000E-03 0. -1.
        -11    1    3    3    0    0 -0.14616323173E+02 -0.20444408906E+02 -0.13251286508E+02  0.28411394774E+02  0.51100000000E-03 0.  1.
         12    1    3    3    0    0  0.15483714510E+02 -0.40919570338E+01  0.26789485641E+02  0.31211633541E+02  0.00000000000E+00 0. -1.
</event>
<event>
 7    1  0.2489154E-013  0.7246165E+02  0.7816164E-02  0.1226708E+00
        -11   -1    0    0    0    0  0.00000000000E+00  0.00000000000E+00  0.45593999997E+02  0.45594000000E+02  0.51100000000E-03 0. -1.
         11   -1    0    0    0    0 -0.00000000000E+00 -0.00000000000E+00 -0.45593999997E+02  0.45594000000E+02  0.51100000000E-03 0.  1.
    9900012    2    1    2    0    0  0.13859366020E+02  0.12378348923E+02 -0.23174935187E+01  0.72461646250E+02  0.70000098947E+02 0.  0.
        -12    1    1    2    0    0 -0.13859366020E+02 -0.12378348923E+02  0.23174935187E+01  0.18726353750E+02  0.00000000000E+00 0.  1.
         11    1    3    3    0    0  0.42786878688E+00 -0.19664916244E+01 -0.14370431771E+02  0.14510667474E+02  0.51100000000E-03 0.  1.
        -11    1    3    3    0    0 -0.10945034820E+02 -0.61154466940E+01 -0.12538765303E+02  0.17731697918E+02  0.51100000000E-03 0. -1.
         12    1    3    3    0    0  0.24376532053E+02  0.20460287242E+02  0.24591703555E+02  0.40219280858E+02  0.00000000000E+00 0. -1.
</event>
<event>
 7    1  0.2489154E-013  0.7246158E+02  0.7816164E-02  0.1226708E+00
        -11   -1    0    0    0    0  0.00000000000E+00  0.00000000000E+00  0.45593999997E+02  0.45594000000E+02  0.51100000000E-03 0.  1.
         11   -1    0    0    0    0 -0.00000000000E+00 -0.00000000000E+00 -0.45593999997E+02  0.45594000000E+02  0.51100000000E-03 0. -1.
    9900012    2    1    2    0    0 -0.16634731266E+02  0.58237279601E+01 -0.63283994644E+01  0.72461581992E+02  0.70000015238E+02 0.  0.
        -12    1    1    2    0    0  0.16634731266E+02 -0.58237279601E+01  0.63283994644E+01  0.18726418008E+02  0.00000000000E+00 0.  1.
         11    1    3    3    0    0 -0.14563317670E+02  0.38926807728E+01 -0.28890616551E+01  0.15348936858E+02  0.51100000000E-03 0. -1.
        -11    1    3    3    0    0 -0.10060162796E+02  0.27916760706E+02  0.26615292668E+00  0.29675296821E+02  0.51100000000E-03 0.  1.
        -12    1    3    3    0    0  0.79887492008E+01 -0.25985713518E+02 -0.37054907361E+01  0.27437348313E+02  0.00000000000E+00 0.  1.
</event>
<event>
 7    1  0.2489154E-013  0.7246163E+02  0.7816164E-02  0.1226708E+00
        -11   -1    0    0    0    0  0.00000000000E+00  0.00000000000E+00  0.45593999997E+02  0.45594000000E+02  0.51100000000E-03 0.  1.
         11   -1    0    0    0    0 -0.00000000000E+00 -0.00000000000E+00 -0.45593999997E+02  0.45594000000E+02  0.51100000000E-03 0. -1.
    9900012    2    1    2    0    0  0.16899435712E+01 -0.15860158065E+02  0.98120611748E+01  0.72461626416E+02  0.70000073109E+02 0.  0.
        -12    1    1    2    0    0 -0.16899435712E+01  0.15860158065E+02 -0.98120611748E+01  0.18726373584E+02  0.00000000000E+00 0.  1.
         11    1    3    3    0    0 -0.17252142861E+02  0.27124040015E+01 -0.57346997256E+01  0.18381521971E+02  0.51100000000E-03 0. -1.
        -11    1    3    3    0    0 -0.10104073059E+02 -0.18533445744E+02  0.13295143639E+02  0.24946778313E+02  0.51100000000E-03 0.  1.
        -12    1    3    3    0    0  0.29046159491E+02 -0.39116322284E-01  0.22516172612E+01  0.29133326132E+02  0.00000000000E+00 0.  1.
</event>
<event>
 7    1  0.2489154E-013  0.7246155E+02  0.7816164E-02  0.1226708E+00
        -11   -1    0    0    0    0  0.00000000000E+00  0.00000000000E+00  0.45593999997E+02  0.45594000000E+02  0.51100000000E-03 0. -1.
         11   -1    0    0    0    0 -0.00000000000E+00 -0.00000000000E+00 -0.45593999997E+02  0.45594000000E+02  0.51100000000E-03 0.  1.
    9900012    2    1    2    0    0 -0.12808296282E+02 -0.11820177869E+02  0.68491377232E+01  0.72461554901E+02  0.69999979947E+02 0.  0.
        -12    1    1    2    0    0  0.12808296282E+02  0.11820177869E+02 -0.68491377232E+01  0.18726445099E+02  0.00000000000E+00 0.  1.
         11    1    3    3    0    0 -0.16030850347E+00 -0.26252791178E+02  0.28103886549E+02  0.38458590495E+02  0.51100000000E-03 0. -1.
        -11    1    3    3    0    0 -0.14306878741E+01 -0.38503764985E+01 -0.74123990106E+01  0.84744277875E+01  0.51100000000E-03 0.  1.
        -12    1    3    3    0    0 -0.11217299905E+02  0.18282989807E+02 -0.13842349815E+02  0.25528536618E+02  0.00000000000E+00 0.  1.
</event>
<event>
 7    1  0.2489154E-013  0.7246127E+02  0.7816164E-02  0.1226709E+00
        -11   -1    0    0    0    0  0.00000000000E+00  0.00000000000E+00  0.45593999997E+02  0.45594000000E+02  0.51100000000E-03 0.  1.
         11   -1    0    0    0    0 -0.00000000000E+00 -0.00000000000E+00 -0.45593999997E+02  0.45594000000E+02  0.51100000000E-03 0. -1.
    9900012    2    1    2    0    0  0.87530506720E+01  0.74627798854E+01 -0.14777730319E+02  0.72461273295E+02  0.69999613102E+02 0.  0.
        -12    1    1    2    0    0 -0.87530506720E+01 -0.74627798854E+01  0.14777730319E+02  0.18726726705E+02  0.00000000000E+00 0.  1.
         11    1    3    3    0    0 -0.69562886045E+01  0.27290014808E+01  0.58638426786E+01  0.94985289099E+01  0.51100000000E-03 0. -1.
        -11    1    3    3    0    0  0.19155395440E+02  0.10495744476E+02  0.15127287788E+02  0.26569242794E+02  0.51100000000E-03 0.  1.
         12    1    3    3    0    0 -0.34460561635E+01 -0.57619660712E+01 -0.35768860786E+02  0.36393501591E+02  0.00000000000E+00 0. -1.
</event>
<event>
 7    1  0.2489154E-013  0.7246137E+02  0.7816164E-02  0.1226709E+00
        -11   -1    0    0    0    0  0.00000000000E+00  0.00000000000E+00  0.45593999997E+02  0.45594000000E+02  0.51100000000E-03 0. -1.
         11   -1    0    0    0    0 -0.00000000000E+00 -0.00000000000E+00 -0.45593999997E+02  0.45594000000E+02  0.51100000000E-03 0.  1.
    9900012    2    1    2    0    0 -0.15614155076E+02  0.87438708509E+01  0.55163008682E+01  0.72461369458E+02  0.69999738373E+02 0.  0.
        -12    1    1    2    0    0  0.15614155076E+02 -0.87438708509E+01 -0.55163008682E+01  0.18726630542E+02  0.00000000000E+00 0.  1.
         11    1    3    3    0    0 -0.37107565255E+02 -0.31702958015E+01  0.12733731026E+02  0.39359497974E+02  0.51100000000E-03 0. -1.
        -11    1    3    3    0    0  0.14079578891E+02 -0.40944157642E+01 -0.31724589763E+01  0.15002109132E+02  0.51100000000E-03 0.  1.
        -12    1    3    3    0    0  0.74138312890E+01  0.16008582417E+02 -0.40449711810E+01  0.18099762353E+02  0.00000000000E+00 0.  1.
</event>
<event>
 7    1  0.2489154E-013  0.7246154E+02  0.7816164E-02  0.1226708E+00
        -11   -1    0    0    0    0  0.00000000000E+00  0.00000000000E+00  0.45593999997E+02  0.45594000000E+02  0.51100000000E-03 0.  1.
         11   -1    0    0    0    0 -0.00000000000E+00 -0.00000000000E+00 -0.45593999997E+02  0.45594000000E+02  0.51100000000E-03 0. -1.
    9900012    2    1    2    0    0 -0.15133193906E+02  0.11697122815E+01 -0.10968062856E+02  0.72461543116E+02  0.69999964595E+02 0.  0.
        -12    1    1    2    0    0  0.15133193906E+02 -0.11697122815E+01  0.10968062856E+02  0.18726456884E+02  0.00000000000E+00 0.  1.
         11    1    3    3    0    0 -0.12759307355E+01 -0.44592477973E+01 -0.43043870970E+01  0.63277672762E+01  0.51100000000E-03 0. -1.
        -11    1    3    3    0    0 -0.17024362089E+02 -0.27001677996E+02 -0.92896309151E+01  0.33244800525E+02  0.51100000000E-03 0.  1.
         12    1    3    3    0    0  0.31670989177E+01  0.32630638075E+02  0.26259551559E+01  0.32888975314E+02  0.00000000000E+00 0. -1.
</event>
<event>
 7    1  0.2489154E-013  0.7246157E+02  0.7816164E-02  0.1226708E+00
        -11   -1    0    0    0    0  0.00000000000E+00  0.00000000000E+00  0.45593999997E+02  0.45594000000E+02  0.51100000000E-03 0.  1.
         11   -1    0    0    0    0 -0.00000000000E+00 -0.00000000000E+00 -0.45593999997E+02  0.45594000000E+02  0.51100000000E-03 0. -1.
    9900012    2    1    2    0    0 -0.14820308865E+02 -0.11427988017E+02 -0.66227197261E+00  0.72461572975E+02  0.70000003492E+02 0.  0.
        -12    1    1    2    0    0  0.14820308865E+02  0.11427988017E+02  0.66227197261E+00  0.18726427025E+02  0.00000000000E+00 0.  1.
         11    1    3    3    0    0  0.11917714135E+01  0.12944657393E+02 -0.19244045213E+02  0.23223215767E+02  0.51100000000E-03 0. -1.
        -11    1    3    3    0    0 -0.12138640468E+02 -0.11132437216E+02 -0.87294293227E+01  0.18640833869E+02  0.51100000000E-03 0.  1.
         12    1    3    3    0    0 -0.38734398101E+01 -0.13240208194E+02  0.27311202564E+02  0.30597523338E+02  0.00000000000E+00 0. -1.
</event>
<event>
 7    1  0.2882722E-013  0.7246152E+02  0.7816164E-02  0.1226708E+00
        -11   -1    0    0    0    0  0.00000000000E+00  0.00000000000E+00  0.45593999997E+02  0.45594000000E+02  0.51100000000E-03 0. -1.
         11   -1    0    0    0    0 -0.00000000000E+00 -0.00000000000E+00 -0.45593999997E+02  0.45594000000E+02  0.51100000000E-03 0.  1.
    9900012    2    1    2    0    0  0.18576152834E+01  0.64194550250E+01  0.17493453834E+02  0.72461519701E+02  0.69999934093E+02 0.  0.
        -12    1    1    2    0    0 -0.18576152834E+01 -0.64194550250E+01 -0.17493453834E+02  0.18726480299E+02  0.00000000000E+00 0.  1.
         11    1    3    3    0    0  0.59854098682E+01  0.22342457140E+02  0.26727054311E+02  0.35346088253E+02  0.51100000000E-03 0. -1.
        -11    1    3    3    0    0 -0.11443263146E+02 -0.45663925115E+00  0.70891334315E+01  0.13468949622E+02  0.51100000000E-03 0.  1.
        -12    1    3    3    0    0  0.73154685617E+01 -0.15466362864E+02 -0.16322733909E+02  0.23646481827E+02  0.00000000000E+00 0.  1.
</event>
<event>
 7    1  0.2489154E-013  0.7246157E+02  0.7816164E-02  0.1226708E+00
        -11   -1    0    0    0    0  0.00000000000E+00  0.00000000000E+00  0.45593999997E+02  0.45594000000E+02  0.51100000000E-03 0. -1.
         11   -1    0    0    0    0 -0.00000000000E+00 -0.00000000000E+00 -0.45593999997E+02  0.45594000000E+02  0.51100000000E-03 0.  1.
    9900012    2    1    2    0    0  0.26053489259E+01 -0.18543442607E+02 -0.17922343348E+00  0.72461568739E+02  0.69999997973E+02 0.  0.
        -12    1    1    2    0    0 -0.26053489259E+01  0.18543442607E+02  0.17922343348E+00  0.18726431261E+02  0.00000000000E+00 0.  1.
         11    1    3    3    0    0  0.10915347665E+02 -0.13145443607E+02  0.73852326273E+01  0.18614219390E+02  0.51100000000E-03 0. -1.
        -11    1    3    3    0    0  0.71278381218E+01  0.64287084697E+01 -0.25589997565E+02  0.27330977745E+02  0.51100000000E-03 0.  1.
         12    1    3    3    0    0 -0.15437836861E+02 -0.11826707470E+02  0.18025541504E+02  0.26516371604E+02  0.00000000000E+00 0. -1.
</event>
<event>
 7    1  0.2489154E-013  0.7246170E+02  0.7816164E-02  0.1226708E+00
        -11   -1    0    0    0    0  0.00000000000E+00  0.00000000000E+00  0.45593999997E+02  0.45594000000E+02  0.51100000000E-03 0.  1.
         11   -1    0    0    0    0 -0.00000000000E+00 -0.00000000000E+00 -0.45593999997E+02  0.45594000000E+02  0.51100000000E-03 0. -1.
    9900012    2    1    2    0    0  0.15692024563E+02 -0.78792922218E+01 -0.65078051665E+01  0.72461697405E+02  0.70000165585E+02 0.  0.
        -12    1    1    2    0    0 -0.15692024563E+02  0.78792922218E+01  0.65078051665E+01  0.18726302595E+02  0.00000000000E+00 0.  1.
         11    1    3    3    0    0  0.72022217611E+01  0.41574658454E+01 -0.17343297284E+01  0.84949644155E+01  0.51100000000E-03 0. -1.
        -11    1    3    3    0    0  0.14147733662E+02 -0.10018882324E+02  0.26749846114E+02  0.31876176655E+02  0.51100000000E-03 0.  1.
         12    1    3    3    0    0 -0.56579308596E+01 -0.20178757435E+01 -0.31523321552E+02  0.32090556334E+02  0.00000000000E+00 0. -1.
</event>
<event>
 7    1  0.2489154E-013  0.7246165E+02  0.7816164E-02  0.1226708E+00
        -11   -1    0    0    0    0  0.00000000000E+00  0.00000000000E+00  0.45593999997E+02  0.45594000000E+02  0.51100000000E-03 0.  1.
         11   -1    0    0    0    0 -0.00000000000E+00 -0.00000000000E+00 -0.45593999997E+02  0.45594000000E+02  0.51100000000E-03 0. -1.
    9900012    2    1    2    0    0  0.10261317859E+02  0.66873818874E+01 -0.14165473323E+02  0.72461645438E+02  0.70000097889E+02 0.  0.
        -12    1    1    2    0    0 -0.10261317859E+02 -0.66873818874E+01  0.14165473323E+02  0.18726354562E+02  0.00000000000E+00 0.  1.
         11    1    3    3    0    0  0.35831719726E+01  0.61208884514E+01 -0.27075974969E+02  0.27989512636E+02  0.51100000000E-03 0. -1.
        -11    1    3    3    0    0  0.75697963532E+00 -0.36866746409E+01 -0.15082699749E+02  0.15545173529E+02  0.51100000000E-03 0.  1.
        -12    1    3    3    0    0  0.59211662508E+01  0.42531680768E+01  0.27993201395E+02  0.28926959273E+02  0.00000000000E+00 0.  1.
</event>
<event>
 7    1  0.2489154E-013  0.7246157E+02  0.7816164E-02  0.1226708E+00
        -11   -1    0    0    0    0  0.00000000000E+00  0.00000000000E+00  0.45593999997E+02  0.45594000000E+02  0.51100000000E-03 0.  1.
         11   -1    0    0    0    0 -0.00000000000E+00 -0.00000000000E+00 -0.45593999997E+02  0.45594000000E+02  0.51100000000E-03 0. -1.
    9900012    2    1    2    0    0 -0.64051428965E+01  0.21734383470E+01 -0.17462230486E+02  0.72461569926E+02  0.69999999520E+02 0.  0.
        -12    1    1    2    0    0  0.64051428965E+01 -0.21734383470E+01  0.17462230486E+02  0.18726430074E+02  0.00000000000E+00 0.  1.
         11    1    3    3    0    0  0.13927310964E+02  0.71196500594E+01  0.52564870402E+01  0.16501214014E+02  0.51100000000E-03 0. -1.
        -11    1    3    3    0    0  0.23970614386E+01 -0.12557770826E+02  0.94106727933E+01  0.15874642495E+02  0.51100000000E-03 0.  1.
        -12    1    3    3    0    0 -0.22729515299E+02  0.76115591135E+01 -0.32129390320E+02  0.40085713417E+02  0.00000000000E+00 0.  1.
</event>
<event>
 7    1  0.2489154E-013  0.7246154E+02  0.7816164E-02  0.1226708E+00
        -11   -1    0    0    0    0  0.00000000000E+00  0.00000000000E+00  0.45593999997E+02  0.45594000000E+02  0.51100000000E-03 0.  1.
         11   -1    0    0    0    0 -0.00000000000E+00 -0.00000000000E+00 -0.45593999997E+02  0.45594000000E+02  0.51100000000E-03 0. -1.
    9900012    2    1    2    0    0  0.16596316225E+02 -0.80039655605E+01  0.33435461446E+01  0.72461535364E+02  0.69999954497E+02 0.  0.
        -12    1    1    2    0    0 -0.16596316225E+02  0.80039655605E+01 -0.33435461446E+01  0.18726464636E+02  0.00000000000E+00 0.  1.
         11    1    3    3    0    0  0.18480119314E+02  0.16958142827E+02 -0.44637369120E+01  0.25475838857E+02  0.51100000000E-03 0. -1.
        -11    1    3    3    0    0 -0.85504693189E+01  0.85259260835E+01  0.61011851911E+00  0.12090251694E+02  0.51100000000E-03 0.  1.
        -12    1    3    3    0    0  0.66666662305E+01 -0.33488034471E+02  0.71971645375E+01  0.34895444813E+02  0.00000000000E+00 0.  1.
</event>
<event>
 7    1  0.2489154E-013  0.7246154E+02  0.7816164E-02  0.1226708E+00
        -11   -1    0    0    0    0  0.00000000000E+00  0.00000000000E+00  0.45593999997E+02  0.45594000000E+02  0.51100000000E-03 0.  1.
         11   -1    0    0    0    0 -0.00000000000E+00 -0.00000000000E+00 -0.45593999997E+02  0.45594000000E+02  0.51100000000E-03 0. -1.
    9900012    2    1    2    0    0  0.10470441456E+02  0.66730518683E+01 -0.14018577225E+02  0.72461540833E+02  0.69999961621E+02 0.  0.
        -12    1    1    2    0    0 -0.10470441456E+02 -0.66730518683E+01  0.14018577225E+02  0.18726459167E+02  0.00000000000E+00 0.  1.
         11    1    3    3    0    0  0.17648505246E+02  0.98557483315E+01  0.25978586998E+01  0.20380244912E+02  0.51100000000E-03 0. -1.
        -11    1    3    3    0    0 -0.40823687871E+01 -0.29444170043E+01 -0.34026383920E+02  0.34396658694E+02  0.51100000000E-03 0.  1.
         12    1    3    3    0    0 -0.30956950033E+01 -0.23827945893E+00  0.17409947995E+02  0.17684637227E+02  0.00000000000E+00 0. -1.
</event>
<event>
 7    1  0.2489154E-013  0.7246157E+02  0.7816164E-02  0.1226708E+00
        -11   -1    0    0    0    0  0.00000000000E+00  0.00000000000E+00  0.45593999997E+02  0.45594000000E+02  0.51100000000E-03 0. -1.
         11   -1    0    0    0    0 -0.00000000000E+00 -0.00000000000E+00 -0.45593999997E+02  0.45594000000E+02  0.51100000000E-03 0.  1.
    9900012    2    1    2    0    0 -0.64466736435E+00 -0.18715326675E+02  0.96242489462E-02  0.72461571050E+02  0.70000000985E+02 0.  0.
        -12    1    1    2    0    0  0.64466736435E+00  0.18715326675E+02 -0.96242489462E-02  0.18726428950E+02  0.00000000000E+00 0.  1.
         11    1    3    3    0    0  0.14862024079E+02 -0.25763510719E+02  0.10107454716E+02  0.31413355208E+02  0.51100000000E-03 0. -1.
        -11    1    3    3    0    0 -0.13573306399E+02 -0.13499722431E+02 -0.51693207100E+01  0.19829246813E+02  0.51100000000E-03 0.  1.
        -12    1    3    3    0    0 -0.19333850445E+01  0.20547906475E+02 -0.49285097573E+01  0.21218969029E+02  0.00000000000E+00 0.  1.
</event>
<event>
 7    1  0.2489154E-013  0.7246158E+02  0.7816164E-02  0.1226708E+00
        -11   -1    0    0    0    0  0.00000000000E+00  0.00000000000E+00  0.45593999997E+02  0.45594000000E+02  0.51100000000E-03 0.  1.
         11   -1    0    0    0    0 -0.00000000000E+00 -0.00000000000E+00 -0.45593999997E+02  0.45594000000E+02  0.51100000000E-03 0. -1.
    9900012    2    1    2    0    0  0.32641255181E+01  0.10043256583E+02  0.15464709933E+02  0.72461580922E+02  0.70000013844E+02 0.  0.
        -12    1    1    2    0    0 -0.32641255181E+01 -0.10043256583E+02 -0.15464709933E+02  0.18726419078E+02  0.00000000000E+00 0.  1.
         11    1    3    3    0    0  0.18115753595E+01 -0.26427238467E+02  0.15745039050E+02  0.30815369432E+02  0.51100000000E-03 0. -1.
        -11    1    3    3    0    0 -0.37589370949E+00 -0.59513505112E-01  0.47155256920E+01  0.47308583524E+01  0.51100000000E-03 0.  1.
         12    1    3    3    0    0  0.18284438681E+01  0.36530008555E+02 -0.49958548093E+01  0.36915353137E+02  0.00000000000E+00 0. -1.
</event>
<event>
 7    1  0.2489154E-013  0.7246163E+02  0.7816164E-02  0.1226708E+00
        -11   -1    0    0    0    0  0.00000000000E+00  0.00000000000E+00  0.45593999997E+02  0.45594000000E+02  0.51100000000E-03 0.  1.
         11   -1    0    0    0    0 -0.00000000000E+00 -0.00000000000E+00 -0.45593999997E+02  0.45594000000E+02  0.51100000000E-03 0. -1.
    9900012    2    1    2    0    0  0.85745003858E+01 -0.11611283117E+02 -0.11930331852E+02  0.72461634346E+02  0.70000083439E+02 0.  0.
        -12    1    1    2    0    0 -0.85745003858E+01  0.11611283117E+02  0.11930331852E+02  0.18726365654E+02  0.00000000000E+00 0.  1.
         11    1    3    3    0    0  0.61399817173E+01 -0.15575011845E+02 -0.28545708421E+02  0.33092866889E+02  0.51100000000E-03 0.  1.
        -11    1    3    3    0    0  0.88508616556E+01  0.12065239392E+02 -0.46965512787E+01  0.15683282431E+02  0.51100000000E-03 0. -1.
        -12    1    3    3    0    0 -0.64163429870E+01 -0.81015106643E+01  0.21311927847E+02  0.23685485026E+02  0.00000000000E+00 0.  1.
</event>
<event>
 7    1  0.2489154E-013  0.7246135E+02  0.7816164E-02  0.1226709E+00
        -11   -1    0    0    0    0  0.00000000000E+00  0.00000000000E+00  0.45593999997E+02  0.45594000000E+02  0.51100000000E-03 0. -1.
         11   -1    0    0    0    0 -0.00000000000E+00 -0.00000000000E+00 -0.45593999997E+02  0.45594000000E+02  0.51100000000E-03 0.  1.
    9900012    2    1    2    0    0 -0.70433101223E+01 -0.49107380004E+01  0.16642230710E+02  0.72461350321E+02  0.69999713444E+02 0.  0.
        -12    1    1    2    0    0  0.70433101223E+01  0.49107380004E+01 -0.16642230710E+02  0.18726649679E+02  0.00000000000E+00 0.  1.
         11    1    3    3    0    0  0.78854055255E+01 -0.36184527869E+01  0.12074729934E+02  0.14868487620E+02  0.51100000000E-03 0. -1.
        -11    1    3    3    0    0 -0.19511711146E+02 -0.21253752437E+02  0.17141878914E+02  0.33559989235E+02  0.51100000000E-03 0.  1.
         12    1    3    3    0    0  0.45829954983E+01  0.19961467224E+02 -0.12574378138E+02  0.24032873466E+02  0.00000000000E+00 0. -1.
</event>
<event>
 7    1  0.2489154E-013  0.7246155E+02  0.7816164E-02  0.1226708E+00
        -11   -1    0    0    0    0  0.00000000000E+00  0.00000000000E+00  0.45593999997E+02  0.45594000000E+02  0.51100000000E-03 0. -1.
         11   -1    0    0    0    0 -0.00000000000E+00 -0.00000000000E+00 -0.45593999997E+02  0.45594000000E+02  0.51100000000E-03 0.  1.
    9900012    2    1    2    0    0  0.90273227655E+01  0.15361069428E+02 -0.57640988961E+01  0.72461552223E+02  0.69999976458E+02 0.  0.
        -12    1    1    2    0    0 -0.90273227655E+01 -0.15361069428E+02  0.57640988961E+01  0.18726447777E+02  0.00000000000E+00 0.  1.
         11    1    3    3    0    0  0.20125034603E+02  0.29431042320E+02 -0.13598091565E+02  0.38159027298E+02  0.51100000000E-03 0. -1.
        -11    1    3    3    0    0 -0.85008009563E+01  0.56980060940E+01 -0.41466411625E+01  0.11041989111E+02  0.51100000000E-03 0.  1.
        -12    1    3    3    0    0 -0.25969108812E+01 -0.19767978987E+02  0.11980633831E+02  0.23260535813E+02  0.00000000000E+00 0.  1.
</event>
<event>
 7    1  0.2489154E-013  0.7246159E+02  0.7816164E-02  0.1226708E+00
        -11   -1    0    0    0    0  0.00000000000E+00  0.00000000000E+00  0.45593999997E+02  0.45594000000E+02  0.51100000000E-03 0.  1.
         11   -1    0    0    0    0 -0.00000000000E+00 -0.00000000000E+00 -0.45593999997E+02  0.45594000000E+02  0.51100000000E-03 0. -1.
    9900012    2    1    2    0    0  0.11901784011E+02 -0.77956839814E+01 -0.12175935554E+02  0.72461586622E+02  0.70000021270E+02 0.  0.
        -12    1    1    2    0    0 -0.11901784011E+02  0.77956839814E+01  0.12175935554E+02  0.18726413378E+02  0.00000000000E+00 0.  1.
         11    1    3    3    0    0 -0.16847786911E+02 -0.76058794228E+00 -0.28354714829E+01  0.17101646605E+02  0.51100000000E-03 0.  1.
        -11    1    3    3    0    0  0.65497041133E+00  0.16728872652E+02 -0.79579205709E+01  0.18536792239E+02  0.51100000000E-03 0. -1.
        -12    1    3    3    0    0  0.28094600511E+02 -0.23763968691E+02 -0.13825434998E+01  0.36823147778E+02  0.00000000000E+00 0.  1.
</event>
<event>
 7    1  0.2489154E-013  0.7246165E+02  0.7816164E-02  0.1226708E+00
        -11   -1    0    0    0    0  0.00000000000E+00  0.00000000000E+00  0.45593999997E+02  0.45594000000E+02  0.51100000000E-03 0. -1.
         11   -1    0    0    0    0 -0.00000000000E+00 -0.00000000000E+00 -0.45593999997E+02  0.45594000000E+02  0.51100000000E-03 0.  1.
    9900012    2    1    2    0    0 -0.17731900052E+02 -0.60197000093E+01  0.13785975721E+00  0.72461652973E+02  0.70000107704E+02 0.  0.
        -12    1    1    2    0    0  0.17731900052E+02  0.60197000093E+01 -0.13785975721E+00  0.18726347027E+02  0.00000000000E+00 0.  1.
         11    1    3    3    0    0  0.25428254415E+01 -0.42941971937E+01  0.20966931959E+00  0.49950027277E+01  0.51100000000E-03 0. -1.
        -11    1    3    3    0    0 -0.15500709101E+02  0.19800956246E+02 -0.24117035385E+02  0.34842233667E+02  0.51100000000E-03 0.  1.
         12    1    3    3    0    0 -0.47740163924E+01 -0.21526459061E+02  0.24045225822E+02  0.32624416579E+02  0.00000000000E+00 0. -1.
</event>
<event>
 7    1  0.2489154E-013  0.7246229E+02  0.7816164E-02  0.1226706E+00
        -11   -1    0    0    0    0  0.00000000000E+00  0.00000000000E+00  0.45593999997E+02  0.45594000000E+02  0.51100000000E-03 0.  1.
         11   -1    0    0    0    0 -0.00000000000E+00 -0.00000000000E+00 -0.45593999997E+02  0.45594000000E+02  0.51100000000E-03 0. -1.
    9900012    2    1    2    0    0  0.31771601186E+01  0.92836926766E+01 -0.15949010068E+02  0.72462289912E+02  0.70000937430E+02 0.  0.
        -12    1    1    2    0    0 -0.31771601186E+01 -0.92836926766E+01  0.15949010068E+02  0.18725710088E+02  0.00000000000E+00 0.  1.
         11    1    3    3    0    0 -0.14373484927E+02  0.11501943454E+02 -0.12796894990E+02  0.22419908426E+02  0.51100000000E-03 0. -1.
        -11    1    3    3    0    0  0.94623876599E+01  0.20419892354E+02  0.75358074331E+01  0.23733882487E+02  0.51100000000E-03 0.  1.
        -12    1    3    3    0    0  0.80882573860E+01 -0.22638143132E+02 -0.10687922512E+02  0.26308498999E+02  0.00000000000E+00 0.  1.
</event>
<event>
 7    1  0.2489154E-013  0.7246158E+02  0.7816164E-02  0.1226708E+00
        -11   -1    0    0    0    0  0.00000000000E+00  0.00000000000E+00  0.45593999997E+02  0.45594000000E+02  0.51100000000E-03 0. -1.
         11   -1    0    0    0    0 -0.00000000000E+00 -0.00000000000E+00 -0.45593999997E+02  0.45594000000E+02  0.51100000000E-03 0.  1.
    9900012    2    1    2    0    0 -0.55475616907E+01 -0.27879326784E+01  0.17667227312E+02  0.72461576684E+02  0.70000008324E+02 0.  0.
        -12    1    1    2    0    0  0.55475616907E+01  0.27879326784E+01 -0.17667227312E+02  0.18726423316E+02  0.00000000000E+00 0.  1.
         11    1    3    3    0    0  0.15618106127E+02  0.18327300174E+02  0.15340600922E+00  0.24079840205E+02  0.51100000000E-03 0. -1.
        -11    1    3    3    0    0  0.81968355439E+00  0.63988242804E+01 -0.35309047161E+01  0.73541907560E+01  0.51100000000E-03 0.  1.
         12    1    3    3    0    0 -0.21985351372E+02 -0.27514057133E+02  0.21044726018E+02  0.41027545723E+02  0.00000000000E+00 0. -1.
</event>
<event>
 7    1  0.2489154E-013  0.7246160E+02  0.7816164E-02  0.1226708E+00
        -11   -1    0    0    0    0  0.00000000000E+00  0.00000000000E+00  0.45593999997E+02  0.45594000000E+02  0.51100000000E-03 0. -1.
         11   -1    0    0    0    0 -0.00000000000E+00 -0.00000000000E+00 -0.45593999997E+02  0.45594000000E+02  0.51100000000E-03 0.  1.
    9900012    2    1    2    0    0 -0.15780335608E+02  0.69290804313E+01  0.73244015399E+01  0.72461601375E+02  0.70000040489E+02 0.  0.
        -12    1    1    2    0    0  0.15780335608E+02 -0.69290804313E+01 -0.73244015399E+01  0.18726398625E+02  0.00000000000E+00 0.  1.
         11    1    3    3    0    0 -0.60298201093E+01 -0.91989526534E+00 -0.30975163416E+01  0.68410193391E+01  0.51100000000E-03 0. -1.
        -11    1    3    3    0    0  0.21097025638E+01 -0.27110404383E+02  0.91207340404E+01  0.28681224876E+02  0.51100000000E-03 0.  1.
         12    1    3    3    0    0 -0.11860218063E+02  0.34959380079E+02  0.13011838411E+01  0.36939357160E+02  0.00000000000E+00 0. -1.
</event>
<event>
 7    1  0.2489154E-013  0.7246154E+02  0.7816164E-02  0.1226708E+00
        -11   -1    0    0    0    0  0.00000000000E+00  0.00000000000E+00  0.45593999997E+02  0.45594000000E+02  0.51100000000E-03 0.  1.
         11   -1    0    0    0    0 -0.00000000000E+00 -0.00000000000E+00 -0.45593999997E+02  0.45594000000E+02  0.51100000000E-03 0. -1.
    9900012    2    1    2    0    0 -0.12744867017E+02 -0.13995740403E+01 -0.13648810245E+02  0.72461535735E+02  0.69999954980E+02 0.  0.
        -12    1    1    2    0    0  0.12744867017E+02  0.13995740403E+01  0.13648810245E+02  0.18726464265E+02  0.00000000000E+00 0.  1.
         11    1    3    3    0    0 -0.25035388009E+02  0.13366376197E+02  0.17297793599E+02  0.33236190050E+02  0.51100000000E-03 0. -1.
        -11    1    3    3    0    0  0.10220387887E+02 -0.23449160891E+01 -0.85433556693E+01  0.13525675081E+02  0.51100000000E-03 0.  1.
        -12    1    3    3    0    0  0.20701331056E+01 -0.12421034148E+02 -0.22403248175E+02  0.25699670604E+02  0.00000000000E+00 0.  1.
</event>
<event>
 7    1  0.2489154E-013  0.7246150E+02  0.7816164E-02  0.1226708E+00
        -11   -1    0    0    0    0  0.00000000000E+00  0.00000000000E+00  0.45593999997E+02  0.45594000000E+02  0.51100000000E-03 0. -1.
         11   -1    0    0    0    0 -0.00000000000E+00 -0.00000000000E+00 -0.45593999997E+02  0.45594000000E+02  0.51100000000E-03 0.  1.
    9900012    2    1    2    0    0 -0.13067268677E+02  0.13328324923E+02  0.15112714787E+01  0.72461502800E+02  0.69999912075E+02 0.  0.
        -12    1    1    2    0    0  0.13067268677E+02 -0.13328324923E+02 -0.15112714787E+01  0.18726497200E+02  0.00000000000E+00 0.  1.
         11    1    3    3    0    0  0.53392508578E+01 -0.22438335860E+00  0.18528701975E+02  0.19283950444E+02  0.51100000000E-03 0. -1.
        -11    1    3    3    0    0  0.55571237777E+01  0.18360754134E+02  0.54881823933E+01  0.19952921172E+02  0.51100000000E-03 0.  1.
        -12    1    3    3    0    0 -0.23963643312E+02 -0.48080458527E+01 -0.22505612889E+02  0.33224631183E+02  0.00000000000E+00 0.  1.
</event>
<event>
 7    1  0.2489154E-013  0.7246156E+02  0.7816164E-02  0.1226708E+00
        -11   -1    0    0    0    0  0.00000000000E+00  0.00000000000E+00  0.45593999997E+02  0.45594000000E+02  0.51100000000E-03 0.  1.
         11   -1    0    0    0    0 -0.00000000000E+00 -0.00000000000E+00 -0.45593999997E+02  0.45594000000E+02  0.51100000000E-03 0. -1.
    9900012    2    1    2    0    0  0.14903224112E+01  0.18583910200E+02  0.17597424521E+01  0.72461562199E+02  0.69999989455E+02 0.  0.
        -12    1    1    2    0    0 -0.14903224112E+01 -0.18583910200E+02 -0.17597424521E+01  0.18726437801E+02  0.00000000000E+00 0.  1.
         11    1    3    3    0    0  0.40049930527E+01 -0.93290157790E+00  0.32115640209E+01  0.52177024089E+01  0.51100000000E-03 0. -1.
        -11    1    3    3    0    0 -0.13306648072E+02  0.39131728688E+02  0.93649198582E+01  0.42379957495E+02  0.51100000000E-03 0.  1.
         12    1    3    3    0    0  0.10791977431E+02 -0.19614916911E+02 -0.10816741427E+02  0.24863902296E+02  0.00000000000E+00 0. -1.
</event>
<event>
 7    1  0.2489154E-013  0.7246157E+02  0.7816164E-02  0.1226708E+00
        -11   -1    0    0    0    0  0.00000000000E+00  0.00000000000E+00  0.45593999997E+02  0.45594000000E+02  0.51100000000E-03 0.  1.
         11   -1    0    0    0    0 -0.00000000000E+00 -0.00000000000E+00 -0.45593999997E+02  0.45594000000E+02  0.51100000000E-03 0. -1.
    9900012    2    1    2    0    0  0.31837063165E+00  0.83670983691E+01 -0.16750204276E+02  0.72461573799E+02  0.70000004565E+02 0.  0.
        -12    1    1    2    0    0 -0.31837063165E+00 -0.83670983691E+01  0.16750204276E+02  0.18726426201E+02  0.00000000000E+00 0.  1.
         11    1    3    3    0    0  0.15429046688E+02  0.14421842838E+02  0.21845601999E+01  0.21232459492E+02  0.51100000000E-03 0.  1.
        -11    1    3    3    0    0  0.15710427581E+02 -0.21395378694E+01 -0.10564165936E+02  0.19052473835E+02  0.51100000000E-03 0. -1.
         12    1    3    3    0    0 -0.30821103637E+02 -0.39152065997E+01 -0.83705985397E+01  0.32176640471E+02  0.00000000000E+00 0. -1.
</event>
<event>
 7    1  0.2489154E-013  0.7246156E+02  0.7816164E-02  0.1226708E+00
        -11   -1    0    0    0    0  0.00000000000E+00  0.00000000000E+00  0.45593999997E+02  0.45594000000E+02  0.51100000000E-03 0.  1.
         11   -1    0    0    0    0 -0.00000000000E+00 -0.00000000000E+00 -0.45593999997E+02  0.45594000000E+02  0.51100000000E-03 0. -1.
    9900012    2    1    2    0    0 -0.15500471247E+02  0.84564607055E+00  0.10473777462E+02  0.72461555050E+02  0.69999980141E+02 0.  0.
        -12    1    1    2    0    0  0.15500471247E+02 -0.84564607055E+00 -0.10473777462E+02  0.18726444950E+02  0.00000000000E+00 0.  1.
         11    1    3    3    0    0 -0.19846564852E+02  0.31684562013E+01  0.20821844387E+01  0.20205463207E+02  0.51100000000E-03 0.  1.
        -11    1    3    3    0    0  0.67272143217E+01  0.21483440306E+02  0.15459198522E+02  0.27308980924E+02  0.51100000000E-03 0. -1.
         12    1    3    3    0    0 -0.23811207168E+01 -0.23806250437E+02 -0.70676054987E+01  0.24947110919E+02  0.00000000000E+00 0. -1.
</event>
<event>
 7    1  0.2489154E-013  0.7246155E+02  0.7816164E-02  0.1226708E+00
        -11   -1    0    0    0    0  0.00000000000E+00  0.00000000000E+00  0.45593999997E+02  0.45594000000E+02  0.51100000000E-03 0.  1.
         11   -1    0    0    0    0 -0.00000000000E+00 -0.00000000000E+00 -0.45593999997E+02  0.45594000000E+02  0.51100000000E-03 0. -1.
    9900012    2    1    2    0    0 -0.68364936693E+01  0.30497569750E+01 -0.17165115402E+02  0.72461552124E+02  0.69999976330E+02 0.  0.
        -12    1    1    2    0    0  0.68364936693E+01 -0.30497569750E+01  0.17165115402E+02  0.18726447876E+02  0.00000000000E+00 0.  1.
         11    1    3    3    0    0 -0.48536174566E+01 -0.98124331894E+01 -0.36629279963E+02  0.38230166078E+02  0.51100000000E-03 0. -1.
        -11    1    3    3    0    0  0.61573176121E+01 -0.33883458896E+01  0.13293762573E+02  0.15037206245E+02  0.51100000000E-03 0.  1.
        -12    1    3    3    0    0 -0.81401938248E+01  0.16250536054E+02  0.61704019876E+01  0.19194179801E+02  0.00000000000E+00 0.  1.
</event>
<event>
 7    1  0.2489154E-013  0.7246159E+02  0.7816164E-02  0.1226708E+00
        -11   -1    0    0    0    0  0.00000000000E+00  0.00000000000E+00  0.45593999997E+02  0.45594000000E+02  0.51100000000E-03 0. -1.
         11   -1    0    0    0    0 -0.00000000000E+00 -0.00000000000E+00 -0.45593999997E+02  0.45594000000E+02  0.51100000000E-03 0.  1.
    9900012    2    1    2    0    0 -0.11780804076E+02  0.14546349376E+02 -0.54295749389E+00  0.72461590102E+02  0.70000025803E+02 0.  0.
        -12    1    1    2    0    0  0.11780804076E+02 -0.14546349376E+02  0.54295749389E+00  0.18726409898E+02  0.00000000000E+00 0.  1.
         11    1    3    3    0    0 -0.99104544225E+01 -0.26147145068E+02 -0.24068214673E+01  0.28065692436E+02  0.51100000000E-03 0. -1.
        -11    1    3    3    0    0  0.32355291247E+01  0.18652343643E+01 -0.31861576690E+01  0.49091087687E+01  0.51100000000E-03 0.  1.
        -12    1    3    3    0    0 -0.51058787778E+01  0.38828260079E+02  0.50500216424E+01  0.39486788898E+02  0.00000000000E+00 0.  1.
</event>
<event>
 7    1  0.2489154E-013  0.7246170E+02  0.7816164E-02  0.1226708E+00
        -11   -1    0    0    0    0  0.00000000000E+00  0.00000000000E+00  0.45593999997E+02  0.45594000000E+02  0.51100000000E-03 0. -1.
         11   -1    0    0    0    0 -0.00000000000E+00 -0.00000000000E+00 -0.45593999997E+02  0.45594000000E+02  0.51100000000E-03 0.  1.
    9900012    2    1    2    0    0  0.52493275273E+01 -0.11497334563E+02  0.13817754358E+02  0.72461695585E+02  0.70000163214E+02 0.  0.
        -12    1    1    2    0    0 -0.52493275273E+01  0.11497334563E+02 -0.13817754358E+02  0.18726304415E+02  0.00000000000E+00 0.  1.
         11    1    3    3    0    0 -0.32162353300E+01 -0.89163937171E+00  0.96958721029E+01  0.10254224815E+02  0.51100000000E-03 0. -1.
        -11    1    3    3    0    0 -0.16580925774E+02  0.15099941736E+02  0.12040551533E+02  0.25454080644E+02  0.51100000000E-03 0.  1.
         12    1    3    3    0    0  0.25046488631E+02 -0.25705636927E+02 -0.79186692781E+01  0.36753390126E+02  0.00000000000E+00 0. -1.
</event>
<event>
 7    1  0.2489154E-013  0.7246158E+02  0.7816164E-02  0.1226708E+00
        -11   -1    0    0    0    0  0.00000000000E+00  0.00000000000E+00  0.45593999997E+02  0.45594000000E+02  0.51100000000E-03 0. -1.
         11   -1    0    0    0    0 -0.00000000000E+00 -0.00000000000E+00 -0.45593999997E+02  0.45594000000E+02  0.51100000000E-03 0.  1.
    9900012    2    1    2    0    0  0.10317319439E+02 -0.76608014925E+01  0.13621446510E+02  0.72461581097E+02  0.70000014073E+02 0.  0.
        -12    1    1    2    0    0 -0.10317319439E+02  0.76608014925E+01 -0.13621446510E+02  0.18726418903E+02  0.00000000000E+00 0.  1.
         11    1    3    3    0    0 -0.94974646327E+01  0.19892740203E+02  0.51375139321E+01  0.22634420622E+02  0.51100000000E-03 0. -1.
        -11    1    3    3    0    0 -0.10118261285E+02 -0.77753119812E+01  0.52711374063E+01  0.13806504904E+02  0.51100000000E-03 0.  1.
         12    1    3    3    0    0  0.29933045357E+02 -0.19778229714E+02  0.32127951712E+01  0.36020655571E+02  0.00000000000E+00 0. -1.
</event>
<event>
 7    1  0.2489154E-013  0.7246156E+02  0.7816164E-02  0.1226708E+00
        -11   -1    0    0    0    0  0.00000000000E+00  0.00000000000E+00  0.45593999997E+02  0.45594000000E+02  0.51100000000E-03 0.  1.
         11   -1    0    0    0    0 -0.00000000000E+00 -0.00000000000E+00 -0.45593999997E+02  0.45594000000E+02  0.51100000000E-03 0. -1.
    9900012    2    1    2    0    0 -0.12163489880E+02 -0.63099202780E+01 -0.12763769242E+02  0.72461564534E+02  0.69999992497E+02 0.  0.
        -12    1    1    2    0    0  0.12163489880E+02  0.63099202780E+01  0.12763769242E+02  0.18726435466E+02  0.00000000000E+00 0.  1.
         11    1    3    3    0    0 -0.21731683312E+02  0.56510566043E+01 -0.19012905449E+02  0.29422628608E+02  0.51100000000E-03 0. -1.
        -11    1    3    3    0    0  0.38210759338E+01  0.14213990687E+01 -0.15964311883E+02  0.16476657755E+02  0.51100000000E-03 0.  1.
        -12    1    3    3    0    0  0.57471174976E+01 -0.13382375951E+02  0.22213448090E+02  0.26562278172E+02  0.00000000000E+00 0.  1.
</event>
<event>
 7    1  0.2489154E-013  0.7246161E+02  0.7816164E-02  0.1226708E+00
        -11   -1    0    0    0    0  0.00000000000E+00  0.00000000000E+00  0.45593999997E+02  0.45594000000E+02  0.51100000000E-03 0.  1.
         11   -1    0    0    0    0 -0.00000000000E+00 -0.00000000000E+00 -0.45593999997E+02  0.45594000000E+02  0.51100000000E-03 0. -1.
    9900012    2    1    2    0    0  0.17461574247E+02 -0.67548828592E+01  0.37787012758E+00  0.72461606768E+02  0.70000047514E+02 0.  0.
        -12    1    1    2    0    0 -0.17461574247E+02  0.67548828592E+01 -0.37787012758E+00  0.18726393232E+02  0.00000000000E+00 0.  1.
         11    1    3    3    0    0  0.15879022474E+02 -0.21013795391E+00 -0.24406761681E+02  0.29118336641E+02  0.51100000000E-03 0. -1.
        -11    1    3    3    0    0  0.15718951098E+02  0.48234422123E+01  0.67820593669E+01  0.17786156074E+02  0.51100000000E-03 0.  1.
         12    1    3    3    0    0 -0.14136399324E+02 -0.11368187118E+02  0.18002572442E+02  0.25557114053E+02  0.00000000000E+00 0. -1.
</event>
<event>
 7    1  0.2489154E-013  0.7246158E+02  0.7816164E-02  0.1226708E+00
        -11   -1    0    0    0    0  0.00000000000E+00  0.00000000000E+00  0.45593999997E+02  0.45594000000E+02  0.51100000000E-03 0.  1.
         11   -1    0    0    0    0 -0.00000000000E+00 -0.00000000000E+00 -0.45593999997E+02  0.45594000000E+02  0.51100000000E-03 0. -1.
    9900012    2    1    2    0    0  0.11806359530E+02 -0.87106030461E+01 -0.11636759983E+02  0.72461577125E+02  0.70000008899E+02 0.  0.
        -12    1    1    2    0    0 -0.11806359530E+02  0.87106030461E+01  0.11636759983E+02  0.18726422875E+02  0.00000000000E+00 0.  1.
         11    1    3    3    0    0  0.18347537319E+02 -0.19007776019E+02 -0.13535518871E+02  0.29683967831E+02  0.51100000000E-03 0. -1.
        -11    1    3    3    0    0  0.12610532335E+02 -0.42139984451E+01  0.10824432141E+02  0.17145017938E+02  0.51100000000E-03 0.  1.
        -12    1    3    3    0    0 -0.19151710124E+02  0.14511171417E+02 -0.89256732535E+01  0.25632591356E+02  0.00000000000E+00 0.  1.
</event>
<event>
 7    1  0.2489154E-013  0.7246167E+02  0.7816164E-02  0.1226708E+00
        -11   -1    0    0    0    0  0.00000000000E+00  0.00000000000E+00  0.45593999997E+02  0.45594000000E+02  0.51100000000E-03 0.  1.
         11   -1    0    0    0    0 -0.00000000000E+00 -0.00000000000E+00 -0.45593999997E+02  0.45594000000E+02  0.51100000000E-03 0. -1.
    9900012    2    1    2    0    0  0.12105575747E+02  0.94803485151E+00 -0.14255938898E+02  0.72461667521E+02  0.70000126656E+02 0.  0.
        -12    1    1    2    0    0 -0.12105575747E+02 -0.94803485151E+00  0.14255938898E+02  0.18726332479E+02  0.00000000000E+00 0.  1.
         11    1    3    3    0    0  0.46125944339E+01 -0.13212874755E+01  0.10015883552E+01  0.49015311382E+01  0.51100000000E-03 0. -1.
        -11    1    3    3    0    0  0.11370308399E+02 -0.95965486496E+01  0.22957801324E+02  0.27357600424E+02  0.51100000000E-03 0.  1.
         12    1    3    3    0    0 -0.38773270856E+01  0.11865870977E+02 -0.38215328577E+02  0.40202535960E+02  0.00000000000E+00 0. -1.
</event>
<event>
 7    1  0.2489154E-013  0.7246158E+02  0.7816164E-02  0.1226708E+00
        -11   -1    0    0    0    0  0.00000000000E+00  0.00000000000E+00  0.45593999997E+02  0.45594000000E+02  0.51100000000E-03 0.  1.
         11   -1    0    0    0    0 -0.00000000000E+00 -0.00000000000E+00 -0.45593999997E+02  0.45594000000E+02  0.51100000000E-03 0. -1.
    9900012    2    1    2    0    0 -0.10044543984E+02 -0.13381734660E+02 -0.84092297305E+01  0.72461579333E+02  0.70000011774E+02 0.  0.
        -12    1    1    2    0    0  0.10044543984E+02  0.13381734660E+02  0.84092297305E+01  0.18726420667E+02  0.00000000000E+00 0.  1.
         11    1    3    3    0    0  0.22880927603E+01 -0.41267383764E+01 -0.93528310883E+01  0.10475723733E+02  0.51100000000E-03 0. -1.
        -11    1    3    3    0    0 -0.51180935420E+01 -0.23101024034E+02 -0.23262581008E+02  0.33181318062E+02  0.51100000000E-03 0.  1.
         12    1    3    3    0    0 -0.72145432019E+01  0.13846027750E+02  0.24206182365E+02  0.28804537538E+02  0.00000000000E+00 0. -1.
</event>
<event>
 7    1  0.2489154E-013  0.7246158E+02  0.7816164E-02  0.1226708E+00
        -11   -1    0    0    0    0  0.00000000000E+00  0.00000000000E+00  0.45593999997E+02  0.45594000000E+02  0.51100000000E-03 0. -1.
         11   -1    0    0    0    0 -0.00000000000E+00 -0.00000000000E+00 -0.45593999997E+02  0.45594000000E+02  0.51100000000E-03 0.  1.
    9900012    2    1    2    0    0  0.44951030085E+01 -0.85135566550E+01  0.16062132083E+02  0.72461583230E+02  0.70000016852E+02 0.  0.
        -12    1    1    2    0    0 -0.44951030085E+01  0.85135566550E+01 -0.16062132083E+02  0.18726416770E+02  0.00000000000E+00 0.  1.
         11    1    3    3    0    0  0.40356617874E+01 -0.83430734679E+01  0.18906274577E+01  0.94587479826E+01  0.51100000000E-03 0. -1.
        -11    1    3    3    0    0 -0.11918652081E+02 -0.24184529771E+02  0.22083629059E+02  0.34851577014E+02  0.51100000000E-03 0.  1.
         12    1    3    3    0    0  0.12378093302E+02  0.24014046584E+02 -0.79121244334E+01  0.28151258234E+02  0.00000000000E+00 0. -1.
</event>
<event>
 7    1  0.2489154E-013  0.7246157E+02  0.7816164E-02  0.1226708E+00
        -11   -1    0    0    0    0  0.00000000000E+00  0.00000000000E+00  0.45593999997E+02  0.45594000000E+02  0.51100000000E-03 0.  1.
         11   -1    0    0    0    0 -0.00000000000E+00 -0.00000000000E+00 -0.45593999997E+02  0.45594000000E+02  0.51100000000E-03 0. -1.
    9900012    2    1    2    0    0  0.13385731012E+02 -0.10741937275E+02 -0.74907957052E+01  0.72461573981E+02  0.70000004803E+02 0.  0.
        -12    1    1    2    0    0 -0.13385731012E+02  0.10741937275E+02  0.74907957052E+01  0.18726426019E+02  0.00000000000E+00 0.  1.
         11    1    3    3    0    0  0.45072929350E+01 -0.39035081986E+01 -0.22961398798E+02  0.23722961470E+02  0.51100000000E-03 0. -1.
        -11    1    3    3    0    0 -0.17688943811E+02  0.14437360015E+01  0.10021611765E+02  0.20381751873E+02  0.51100000000E-03 0.  1.
         12    1    3    3    0    0  0.26567381888E+02 -0.82821650781E+01  0.54489913280E+01  0.28356860638E+02  0.00000000000E+00 0. -1.
</event>
<event>
 7    1  0.2489154E-013  0.7246155E+02  0.7816164E-02  0.1226708E+00
        -11   -1    0    0    0    0  0.00000000000E+00  0.00000000000E+00  0.45593999997E+02  0.45594000000E+02  0.51100000000E-03 0.  1.
         11   -1    0    0    0    0 -0.00000000000E+00 -0.00000000000E+00 -0.45593999997E+02  0.45594000000E+02  0.51100000000E-03 0. -1.
    9900012    2    1    2    0    0 -0.75407903243E+01  0.11482341400E+01 -0.17102570309E+02  0.72461551551E+02  0.69999975583E+02 0.  0.
        -12    1    1    2    0    0  0.75407903243E+01 -0.11482341400E+01  0.17102570309E+02  0.18726448449E+02  0.00000000000E+00 0.  1.
         11    1    3    3    0    0 -0.75574662909E+01  0.83715596652E+01 -0.25507523064E+02  0.27889640390E+02  0.51100000000E-03 0. -1.
        -11    1    3    3    0    0 -0.29884188422E+01  0.23562335736E+01 -0.16913049974E+02  0.17335909077E+02  0.51100000000E-03 0.  1.
        -12    1    3    3    0    0  0.30050948088E+01 -0.95795590988E+01  0.25318002729E+02  0.27236002084E+02  0.00000000000E+00 0.  1.
</event>
<event>
 7    1  0.2489154E-013  0.7246156E+02  0.7816164E-02  0.1226708E+00
        -11   -1    0    0    0    0  0.00000000000E+00  0.00000000000E+00  0.45593999997E+02  0.45594000000E+02  0.51100000000E-03 0.  1.
         11   -1    0    0    0    0 -0.00000000000E+00 -0.00000000000E+00 -0.45593999997E+02  0.45594000000E+02  0.51100000000E-03 0. -1.
    9900012    2    1    2    0    0 -0.54674702236E+01 -0.61393889185E+01 -0.16825399740E+02  0.72461564051E+02  0.69999991866E+02 0.  0.
        -12    1    1    2    0    0  0.54674702236E+01  0.61393889185E+01  0.16825399740E+02  0.18726435949E+02  0.00000000000E+00 0.  1.
         11    1    3    3    0    0 -0.34461016535E+01 -0.10614446394E+02  0.59214618030E+01  0.12633518869E+02  0.51100000000E-03 0. -1.
        -11    1    3    3    0    0 -0.17396683762E+02 -0.11001674059E+02  0.80376801604E+01  0.22097188524E+02  0.51100000000E-03 0.  1.
         12    1    3    3    0    0  0.15375315192E+02  0.15476731534E+02 -0.30784541704E+02  0.37730856658E+02  0.00000000000E+00 0. -1.
</event>
<event>
 7    1  0.2489154E-013  0.7246158E+02  0.7816164E-02  0.1226708E+00
        -11   -1    0    0    0    0  0.00000000000E+00  0.00000000000E+00  0.45593999997E+02  0.45594000000E+02  0.51100000000E-03 0.  1.
         11   -1    0    0    0    0 -0.00000000000E+00 -0.00000000000E+00 -0.45593999997E+02  0.45594000000E+02  0.51100000000E-03 0. -1.
    9900012    2    1    2    0    0  0.15048300252E+02  0.10706047845E+02  0.30997004182E+01  0.72461576326E+02  0.70000007858E+02 0.  0.
        -12    1    1    2    0    0 -0.15048300252E+02 -0.10706047845E+02 -0.30997004182E+01  0.18726423674E+02  0.00000000000E+00 0.  1.
         11    1    3    3    0    0 -0.97633941631E+01  0.41054855292E+01  0.71748770091E+01  0.12792878385E+02  0.51100000000E-03 0. -1.
        -11    1    3    3    0    0  0.16185994501E+02 -0.22573139514E+02  0.43176831962E+01  0.28110059301E+02  0.51100000000E-03 0.  1.
         12    1    3    3    0    0  0.86256999139E+01  0.29173701829E+02 -0.83928597871E+01  0.31558638640E+02  0.00000000000E+00 0. -1.
</event>
<event>
 7    1  0.2489154E-013  0.7246164E+02  0.7816164E-02  0.1226708E+00
        -11   -1    0    0    0    0  0.00000000000E+00  0.00000000000E+00  0.45593999997E+02  0.45594000000E+02  0.51100000000E-03 0.  1.
         11   -1    0    0    0    0 -0.00000000000E+00 -0.00000000000E+00 -0.45593999997E+02  0.45594000000E+02  0.51100000000E-03 0. -1.
    9900012    2    1    2    0    0 -0.12756500607E+01 -0.88262180778E+01 -0.16466540895E+02  0.72461644838E+02  0.70000097106E+02 0.  0.
        -12    1    1    2    0    0  0.12756500607E+01  0.88262180778E+01  0.16466540895E+02  0.18726355162E+02  0.00000000000E+00 0.  1.
         11    1    3    3    0    0  0.22708816720E+01 -0.62819464632E+01 -0.55636895719E+00  0.67029323145E+01  0.51100000000E-03 0. -1.
        -11    1    3    3    0    0  0.29240618906E+02  0.59775548099E+01 -0.91273280124E+01  0.31209823332E+02  0.51100000000E-03 0.  1.
        -12    1    3    3    0    0 -0.32787150639E+02 -0.85218264246E+01 -0.67828439250E+01  0.34548889191E+02  0.00000000000E+00 0.  1.
</event>
<event>
 7    1  0.2489154E-013  0.7246156E+02  0.7816164E-02  0.1226708E+00
        -11   -1    0    0    0    0  0.00000000000E+00  0.00000000000E+00  0.45593999997E+02  0.45594000000E+02  0.51100000000E-03 0.  1.
         11   -1    0    0    0    0 -0.00000000000E+00 -0.00000000000E+00 -0.45593999997E+02  0.45594000000E+02  0.51100000000E-03 0. -1.
    9900012    2    1    2    0    0 -0.10318029088E+02 -0.13524138221E+02 -0.78304256424E+01  0.72461558677E+02  0.69999984867E+02 0.  0.
        -12    1    1    2    0    0  0.10318029088E+02  0.13524138221E+02  0.78304256424E+01  0.18726441323E+02  0.00000000000E+00 0.  1.
         11    1    3    3    0    0  0.10338289277E+02  0.89330600693E+01  0.68055744004E+01  0.15264194396E+02  0.51100000000E-03 0. -1.
        -11    1    3    3    0    0  0.44893999951E+01 -0.13266883755E+02  0.12720405740E+02  0.18920191313E+02  0.51100000000E-03 0.  1.
         12    1    3    3    0    0 -0.25145718360E+02 -0.91903145351E+01 -0.27356405783E+02  0.38277172968E+02  0.00000000000E+00 0. -1.
</event>
<event>
 7    1  0.2489154E-013  0.7246156E+02  0.7816164E-02  0.1226708E+00
        -11   -1    0    0    0    0  0.00000000000E+00  0.00000000000E+00  0.45593999997E+02  0.45594000000E+02  0.51100000000E-03 0.  1.
         11   -1    0    0    0    0 -0.00000000000E+00 -0.00000000000E+00 -0.45593999997E+02  0.45594000000E+02  0.51100000000E-03 0. -1.
    9900012    2    1    2    0    0  0.10146998768E+02  0.73401796368E+01 -0.13922634233E+02  0.72461559732E+02  0.69999986241E+02 0.  0.
        -12    1    1    2    0    0 -0.10146998768E+02 -0.73401796368E+01  0.13922634233E+02  0.18726440268E+02  0.00000000000E+00 0.  1.
         11    1    3    3    0    0 -0.35160219396E+01 -0.93121928761E+01 -0.87663182339E+01  0.13263773297E+02  0.51100000000E-03 0. -1.
        -11    1    3    3    0    0  0.14236229244E+02  0.25169960369E+02 -0.24598307378E+02  0.37964112714E+02  0.51100000000E-03 0.  1.
         12    1    3    3    0    0 -0.57320853627E+00 -0.85175878565E+01  0.19441991378E+02  0.21233673720E+02  0.00000000000E+00 0. -1.
</event>
<event>
 7    1  0.2489154E-013  0.7246162E+02  0.7816164E-02  0.1226708E+00
        -11   -1    0    0    0    0  0.00000000000E+00  0.00000000000E+00  0.45593999997E+02  0.45594000000E+02  0.51100000000E-03 0.  1.
         11   -1    0    0    0    0 -0.00000000000E+00 -0.00000000000E+00 -0.45593999997E+02  0.45594000000E+02  0.51100000000E-03 0. -1.
    9900012    2    1    2    0    0 -0.25513098084E+01  0.93198566058E+01 -0.16040838995E+02  0.72461616886E+02  0.70000060694E+02 0.  0.
        -12    1    1    2    0    0  0.25513098084E+01 -0.93198566058E+01  0.16040838995E+02  0.18726383114E+02  0.00000000000E+00 0.  1.
         11    1    3    3    0    0  0.11855738377E+02 -0.95011143790E-01 -0.29293217843E+02  0.31601584951E+02  0.51100000000E-03 0. -1.
        -11    1    3    3    0    0 -0.13169992891E+02 -0.77768344554E+01 -0.46726553729E+01  0.15992547496E+02  0.51100000000E-03 0.  1.
        -12    1    3    3    0    0 -0.12370552941E+01  0.17191702205E+02  0.17925034221E+02  0.24867484439E+02  0.00000000000E+00 0.  1.
</event>
<event>
 7    1  0.2489154E-013  0.7246148E+02  0.7816164E-02  0.1226708E+00
        -11   -1    0    0    0    0  0.00000000000E+00  0.00000000000E+00  0.45593999997E+02  0.45594000000E+02  0.51100000000E-03 0. -1.
         11   -1    0    0    0    0 -0.00000000000E+00 -0.00000000000E+00 -0.45593999997E+02  0.45594000000E+02  0.51100000000E-03 0.  1.
    9900012    2    1    2    0    0  0.67841210748E+01  0.31197691429E+01  0.17173385787E+02  0.72461483035E+02  0.69999886329E+02 0.  0.
        -12    1    1    2    0    0 -0.67841210748E+01 -0.31197691429E+01 -0.17173385787E+02  0.18726516965E+02  0.00000000000E+00 0.  1.
         11    1    3    3    0    0 -0.48292866123E+01  0.10013367297E+02  0.12305984836E+02  0.16583931888E+02  0.51100000000E-03 0. -1.
        -11    1    3    3    0    0 -0.19631153910E+02  0.72162871609E+01  0.53593951884E+01  0.21591204720E+02  0.51100000000E-03 0.  1.
        -12    1    3    3    0    0  0.31244561597E+02 -0.14109885315E+02 -0.49199423822E+00  0.34286346427E+02  0.00000000000E+00 0.  1.
</event>
<event>
 7    1  0.2489154E-013  0.7246159E+02  0.7816164E-02  0.1226708E+00
        -11   -1    0    0    0    0  0.00000000000E+00  0.00000000000E+00  0.45593999997E+02  0.45594000000E+02  0.51100000000E-03 0.  1.
         11   -1    0    0    0    0 -0.00000000000E+00 -0.00000000000E+00 -0.45593999997E+02  0.45594000000E+02  0.51100000000E-03 0. -1.
    9900012    2    1    2    0    0 -0.89282275694E+01  0.82515603035E+01 -0.14243486104E+02  0.72461591071E+02  0.70000027066E+02 0.  0.
        -12    1    1    2    0    0  0.89282275694E+01 -0.82515603035E+01  0.14243486104E+02  0.18726408929E+02  0.00000000000E+00 0.  1.
         11    1    3    3    0    0 -0.72153647402E+01 -0.25090040348E+02 -0.97900597736E+00  0.26125276380E+02  0.51100000000E-03 0. -1.
        -11    1    3    3    0    0 -0.13703302233E+00  0.22697071202E+01  0.82190239199E+01  0.85277607212E+01  0.51100000000E-03 0.  1.
        -12    1    3    3    0    0 -0.15758298069E+01  0.31071893531E+02 -0.21483504047E+02  0.37808553970E+02  0.00000000000E+00 0.  1.
</event>
<event>
 7    1  0.2489154E-013  0.7246156E+02  0.7816164E-02  0.1226708E+00
        -11   -1    0    0    0    0  0.00000000000E+00  0.00000000000E+00  0.45593999997E+02  0.45594000000E+02  0.51100000000E-03 0. -1.
         11   -1    0    0    0    0 -0.00000000000E+00 -0.00000000000E+00 -0.45593999997E+02  0.45594000000E+02  0.51100000000E-03 0.  1.
    9900012    2    1    2    0    0  0.66499739651E+01  0.84268621685E+00  0.17485627418E+02  0.72461563073E+02  0.69999990592E+02 0.  0.
        -12    1    1    2    0    0 -0.66499739651E+01 -0.84268621685E+00 -0.17485627418E+02  0.18726436927E+02  0.00000000000E+00 0.  1.
         11    1    3    3    0    0 -0.12917473833E+02 -0.16723309798E+02  0.28220329763E+02  0.35255031315E+02  0.51100000000E-03 0. -1.
        -11    1    3    3    0    0 -0.61630299137E+00  0.68372706507E+01 -0.12520303618E+02  0.14278869082E+02  0.51100000000E-03 0.  1.
        -12    1    3    3    0    0  0.20183750789E+02  0.10728725364E+02  0.17856012728E+01  0.22927662676E+02  0.00000000000E+00 0.  1.
</event>
<event>
 7    1  0.2489154E-013  0.7246135E+02  0.7816164E-02  0.1226709E+00
        -11   -1    0    0    0    0  0.00000000000E+00  0.00000000000E+00  0.45593999997E+02  0.45594000000E+02  0.51100000000E-03 0.  1.
         11   -1    0    0    0    0 -0.00000000000E+00 -0.00000000000E+00 -0.45593999997E+02  0.45594000000E+02  0.51100000000E-03 0. -1.
    9900012    2    1    2    0    0 -0.80728072244E+01 -0.55314718611E+01 -0.15966213214E+02  0.72461351559E+02  0.69999715057E+02 0.  0.
        -12    1    1    2    0    0  0.80728072244E+01  0.55314718611E+01  0.15966213214E+02  0.18726648441E+02  0.00000000000E+00 0.  1.
         11    1    3    3    0    0 -0.11777380452E+02 -0.18508238498E+02 -0.10842770742E+02  0.24470947269E+02  0.51100000000E-03 0. -1.
        -11    1    3    3    0    0  0.59138868952E+00 -0.17082565846E+02  0.11298059435E+01  0.17130098021E+02  0.51100000000E-03 0.  1.
        -12    1    3    3    0    0  0.31131845384E+01  0.30059332483E+02 -0.62532484150E+01  0.30860306269E+02  0.00000000000E+00 0.  1.
</event>
<event>
 7    1  0.2489154E-013  0.7246158E+02  0.7816164E-02  0.1226708E+00
        -11   -1    0    0    0    0  0.00000000000E+00  0.00000000000E+00  0.45593999997E+02  0.45594000000E+02  0.51100000000E-03 0. -1.
         11   -1    0    0    0    0 -0.00000000000E+00 -0.00000000000E+00 -0.45593999997E+02  0.45594000000E+02  0.51100000000E-03 0.  1.
    9900012    2    1    2    0    0 -0.15973538566E+02 -0.94328695002E+01  0.25585188036E+01  0.72461575360E+02  0.70000006599E+02 0.  0.
        -12    1    1    2    0    0  0.15973538566E+02  0.94328695002E+01 -0.25585188036E+01  0.18726424640E+02  0.00000000000E+00 0.  1.
         11    1    3    3    0    0 -0.57419061513E+01 -0.14975377623E+02 -0.31212683206E+02  0.35092207317E+02  0.51100000000E-03 0.  1.
        -11    1    3    3    0    0 -0.54387558407E+01  0.53426463006E+01  0.76100162769E+01  0.10772013859E+02  0.51100000000E-03 0. -1.
        -12    1    3    3    0    0 -0.47928765740E+01  0.19986182222E+00  0.26161185733E+02  0.26597354183E+02  0.00000000000E+00 0.  1.
</event>
<event>
 7    1  0.2489154E-013  0.7246156E+02  0.7816164E-02  0.1226708E+00
        -11   -1    0    0    0    0  0.00000000000E+00  0.00000000000E+00  0.45593999997E+02  0.45594000000E+02  0.51100000000E-03 0.  1.
         11   -1    0    0    0    0 -0.00000000000E+00 -0.00000000000E+00 -0.45593999997E+02  0.45594000000E+02  0.51100000000E-03 0. -1.
    9900012    2    1    2    0    0 -0.19933948698E+01 -0.16143335229E+02  0.92789322894E+01  0.72461562008E+02  0.69999989206E+02 0.  0.
        -12    1    1    2    0    0  0.19933948698E+01  0.16143335229E+02 -0.92789322894E+01  0.18726437992E+02  0.00000000000E+00 0.  1.
         11    1    3    3    0    0  0.37581048906E+01 -0.69120080068E+01  0.46437745136E+01  0.91358551351E+01  0.51100000000E-03 0. -1.
        -11    1    3    3    0    0  0.19408575194E+02 -0.84222935813E+01  0.23683866666E+02  0.31757729150E+02  0.51100000000E-03 0.  1.
         12    1    3    3    0    0 -0.25160074955E+02 -0.80903364100E+00 -0.19048708890E+02  0.31567977723E+02  0.00000000000E+00 0. -1.
</event>
<event>
 7    1  0.2489154E-013  0.7246159E+02  0.7816164E-02  0.1226708E+00
        -11   -1    0    0    0    0  0.00000000000E+00  0.00000000000E+00  0.45593999997E+02  0.45594000000E+02  0.51100000000E-03 0.  1.
         11   -1    0    0    0    0 -0.00000000000E+00 -0.00000000000E+00 -0.45593999997E+02  0.45594000000E+02  0.51100000000E-03 0. -1.
    9900012    2    1    2    0    0 -0.14519015931E+02  0.11775666442E+02 -0.11001557629E+01  0.72461588532E+02  0.70000023758E+02 0.  0.
        -12    1    1    2    0    0  0.14519015931E+02 -0.11775666442E+02  0.11001557629E+01  0.18726411468E+02  0.00000000000E+00 0.  1.
         11    1    3    3    0    0 -0.25625917293E+01  0.39054875160E+02  0.29783609374E+01  0.39252016309E+02  0.51100000000E-03 0. -1.
        -11    1    3    3    0    0 -0.45948846212E+01 -0.24528128300E+00 -0.22754660536E+01  0.51333102003E+01  0.51100000000E-03 0.  1.
        -12    1    3    3    0    0 -0.73615395803E+01 -0.27033927435E+02 -0.18030506466E+01  0.28076262023E+02  0.00000000000E+00 0.  1.
</event>
<event>
 7    1  0.2489154E-013  0.7246236E+02  0.7816164E-02  0.1226706E+00
        -11   -1    0    0    0    0  0.00000000000E+00  0.00000000000E+00  0.45593999997E+02  0.45594000000E+02  0.51100000000E-03 0. -1.
         11   -1    0    0    0    0 -0.00000000000E+00 -0.00000000000E+00 -0.45593999997E+02  0.45594000000E+02  0.51100000000E-03 0.  1.
    9900012    2    1    2    0    0  0.16000558897E+02  0.84400226220E+01  0.48371207011E+01  0.72462359729E+02  0.70001028378E+02 0.  0.
        -12    1    1    2    0    0 -0.16000558897E+02 -0.84400226220E+01 -0.48371207011E+01  0.18725640271E+02  0.00000000000E+00 0.  1.
         11    1    3    3    0    0 -0.10320687622E+02 -0.80510117655E+01 -0.49386438067E+01  0.13990196080E+02  0.51100000000E-03 0. -1.
        -11    1    3    3    0    0  0.82132287437E+01 -0.14363455839E+02 -0.81641031055E+01  0.18450435491E+02  0.51100000000E-03 0.  1.
        -12    1    3    3    0    0  0.18108017775E+02  0.30854490226E+02  0.17939867613E+02  0.40021728159E+02  0.00000000000E+00 0.  1.
</event>
<event>
 8    1  0.2489154E-013  0.7246145E+02  0.7816164E-02  0.1226708E+00
        -11   -1    0    0    0    0  0.00000000000E+00  0.00000000000E+00  0.45593999997E+02  0.45594000000E+02  0.51100000000E-03 0. -1.
         11   -1    0    0    0    0 -0.00000000000E+00 -0.00000000000E+00 -0.45593999997E+02  0.45594000000E+02  0.51100000000E-03 0.  1.
    9900012    2    1    2    0    0 -0.39837843479E+01 -0.17529390316E+02 -0.52472519710E+01  0.72461448908E+02  0.69999841871E+02 0.  0.
         23    2    3    3    0    0  0.99903518131E+01 -0.11322479964E+02 -0.58851057425E+01  0.57157558063E+02  0.54811917429E+02 0.  0.
        -12    1    1    2    0    0  0.39837843479E+01  0.17529390316E+02  0.52472519710E+01  0.18726551092E+02  0.00000000000E+00 0.  1.
         11    1    4    4    0    0  0.17781763447E+02 -0.28544446358E+02  0.69089537334E+01  0.34332348757E+02  0.51100000000E-03 0. -1.
        -11    1    4    4    0    0 -0.77914116338E+01  0.17221966394E+02 -0.12794059476E+02  0.22825209306E+02  0.51100000000E-03 0.  1.
        -12    1    3    3    0    0 -0.13974136161E+02 -0.62069103515E+01  0.63785377154E+00  0.15303890845E+02  0.00000000000E+00 0.  1.
</event>
<event>
 7    1  0.2489154E-013  0.7246159E+02  0.7816164E-02  0.1226708E+00
        -11   -1    0    0    0    0  0.00000000000E+00  0.00000000000E+00  0.45593999997E+02  0.45594000000E+02  0.51100000000E-03 0. -1.
         11   -1    0    0    0    0 -0.00000000000E+00 -0.00000000000E+00 -0.45593999997E+02  0.45594000000E+02  0.51100000000E-03 0.  1.
    9900012    2    1    2    0    0 -0.72533686051E+01 -0.17238155708E+02  0.95562279026E+00  0.72461585948E+02  0.70000020392E+02 0.  0.
        -12    1    1    2    0    0  0.72533686051E+01  0.17238155708E+02 -0.95562279026E+00  0.18726414052E+02  0.00000000000E+00 0.  1.
         11    1    3    3    0    0 -0.11871517612E+02  0.25260750325E+01  0.79040248052E+01  0.14484046184E+02  0.51100000000E-03 0. -1.
        -11    1    3    3    0    0  0.16077114198E+02 -0.40637593972E+01  0.19216837147E+02  0.25382564322E+02  0.51100000000E-03 0.  1.
         12    1    3    3    0    0 -0.11458965190E+02 -0.15700471343E+02 -0.26165239162E+02  0.32594975442E+02  0.00000000000E+00 0. -1.
</event>
<event>
 7    1  0.2489154E-013  0.7246149E+02  0.7816164E-02  0.1226708E+00
        -11   -1    0    0    0    0  0.00000000000E+00  0.00000000000E+00  0.45593999997E+02  0.45594000000E+02  0.51100000000E-03 0.  1.
         11   -1    0    0    0    0 -0.00000000000E+00 -0.00000000000E+00 -0.45593999997E+02  0.45594000000E+02  0.51100000000E-03 0. -1.
    9900012    2    1    2    0    0  0.96996687992E+01  0.15207775475E+02 -0.50321289028E+01  0.72461485882E+02  0.69999890037E+02 0.  0.
        -12    1    1    2    0    0 -0.96996687992E+01 -0.15207775475E+02  0.50321289028E+01  0.18726514118E+02  0.00000000000E+00 0.  1.
         11    1    3    3    0    0  0.13500735161E+02  0.10818401034E+02  0.34801546493E+01  0.17647071357E+02  0.51100000000E-03 0. -1.
        -11    1    3    3    0    0 -0.80993190003E+01  0.43327878691E+01  0.22083763755E+02  0.23917872832E+02  0.51100000000E-03 0.  1.
        -12    1    3    3    0    0  0.42982526387E+01  0.56586571858E-01 -0.30596047307E+02  0.30896541693E+02  0.00000000000E+00 0.  1.
</event>
<event>
 7    1  0.2489154E-013  0.7246157E+02  0.7816164E-02  0.1226708E+00
        -11   -1    0    0    0    0  0.00000000000E+00  0.00000000000E+00  0.45593999997E+02  0.45594000000E+02  0.51100000000E-03 0.  1.
         11   -1    0    0    0    0 -0.00000000000E+00 -0.00000000000E+00 -0.45593999997E+02  0.45594000000E+02  0.51100000000E-03 0. -1.
    9900012    2    1    2    0    0 -0.15019757034E+01 -0.13945595917E+02 -0.12407397291E+02  0.72461572577E+02  0.70000002973E+02 0.  0.
        -12    1    1    2    0    0  0.15019757034E+01  0.13945595917E+02  0.12407397291E+02  0.18726427423E+02  0.00000000000E+00 0.  1.
         11    1    3    3    0    0  0.18745416719E+00 -0.11756053213E+02 -0.21580948177E+02  0.24575948622E+02  0.51100000000E-03 0. -1.
        -11    1    3    3    0    0  0.11450084247E+02  0.16185206363E+01 -0.15699521113E+02  0.19498692308E+02  0.51100000000E-03 0.  1.
        -12    1    3    3    0    0 -0.13139514118E+02 -0.38080633406E+01  0.24873071998E+02  0.28386931646E+02  0.00000000000E+00 0.  1.
</event>
<event>
 7    1  0.2489154E-013  0.7246164E+02  0.7816164E-02  0.1226708E+00
        -11   -1    0    0    0    0  0.00000000000E+00  0.00000000000E+00  0.45593999997E+02  0.45594000000E+02  0.51100000000E-03 0. -1.
         11   -1    0    0    0    0 -0.00000000000E+00 -0.00000000000E+00 -0.45593999997E+02  0.45594000000E+02  0.51100000000E-03 0.  1.
    9900012    2    1    2    0    0 -0.97207049488E+01  0.11412454305E+02  0.11222318923E+02  0.72461637300E+02  0.70000087287E+02 0.  0.
        -12    1    1    2    0    0  0.97207049488E+01 -0.11412454305E+02 -0.11222318923E+02  0.18726362700E+02  0.00000000000E+00 0.  1.
         11    1    3    3    0    0  0.18937642691E+01 -0.12241041020E+01 -0.58366262995E+01  0.62570744586E+01  0.51100000000E-03 0.  1.
        -11    1    3    3    0    0 -0.82930579200E+00  0.98690760710E+01  0.39730521303E+02  0.40946315266E+02  0.51100000000E-03 0. -1.
         12    1    3    3    0    0 -0.10785163426E+02  0.27674823364E+01 -0.22671576080E+02  0.25258247575E+02  0.00000000000E+00 0. -1.
</event>
<event>
 7    1  0.2489154E-013  0.7246149E+02  0.7816164E-02  0.1226708E+00
        -11   -1    0    0    0    0  0.00000000000E+00  0.00000000000E+00  0.45593999997E+02  0.45594000000E+02  0.51100000000E-03 0.  1.
         11   -1    0    0    0    0 -0.00000000000E+00 -0.00000000000E+00 -0.45593999997E+02  0.45594000000E+02  0.51100000000E-03 0. -1.
    9900012    2    1    2    0    0  0.90931168958E+01 -0.13891611475E+02 -0.86614338484E+01  0.72461492569E+02  0.69999898748E+02 0.  0.
        -12    1    1    2    0    0 -0.90931168958E+01  0.13891611475E+02  0.86614338484E+01  0.18726507431E+02  0.00000000000E+00 0.  1.
         11    1    3    3    0    0  0.50525989098E+01 -0.84132763404E+00  0.35882158034E+01  0.62539492199E+01  0.51100000000E-03 0. -1.
        -11    1    3    3    0    0  0.26711675450E+02  0.98058975773E+01  0.61722242874E+01  0.29116414366E+02  0.51100000000E-03 0.  1.
         12    1    3    3    0    0 -0.22671157464E+02 -0.22856181419E+02 -0.18421873939E+02  0.37091128983E+02  0.00000000000E+00 0. -1.
</event>
<event>
 7    1  0.2489154E-013  0.7246157E+02  0.7816164E-02  0.1226708E+00
        -11   -1    0    0    0    0  0.00000000000E+00  0.00000000000E+00  0.45593999997E+02  0.45594000000E+02  0.51100000000E-03 0. -1.
         11   -1    0    0    0    0 -0.00000000000E+00 -0.00000000000E+00 -0.45593999997E+02  0.45594000000E+02  0.51100000000E-03 0.  1.
    9900012    2    1    2    0    0 -0.85189249481E+01  0.16672258147E+02  0.37788553694E+00  0.72461572912E+02  0.70000003410E+02 0.  0.
        -12    1    1    2    0    0  0.85189249481E+01 -0.16672258147E+02 -0.37788553694E+00  0.18726427088E+02  0.00000000000E+00 0.  1.
         11    1    3    3    0    0  0.35770724319E+01 -0.60253646099E+01  0.21842382869E+02  0.22938835095E+02  0.51100000000E-03 0. -1.
        -11    1    3    3    0    0  0.18400614779E+01  0.14775760787E+02  0.73075604510E+01  0.16586421346E+02  0.51100000000E-03 0.  1.
        -12    1    3    3    0    0 -0.13936058858E+02  0.79218619705E+01 -0.28772057783E+02  0.32936316470E+02  0.00000000000E+00 0.  1.
</event>
<event>
 7    1  0.2489154E-013  0.7246158E+02  0.7816164E-02  0.1226708E+00
        -11   -1    0    0    0    0  0.00000000000E+00  0.00000000000E+00  0.45593999997E+02  0.45594000000E+02  0.51100000000E-03 0. -1.
         11   -1    0    0    0    0 -0.00000000000E+00 -0.00000000000E+00 -0.45593999997E+02  0.45594000000E+02  0.51100000000E-03 0.  1.
    9900012    2    1    2    0    0 -0.53964883372E+01 -0.17902138209E+02  0.10345703078E+01  0.72461575500E+02  0.70000006781E+02 0.  0.
        -12    1    1    2    0    0  0.53964883372E+01  0.17902138209E+02 -0.10345703078E+01  0.18726424500E+02  0.00000000000E+00 0.  1.
         11    1    3    3    0    0  0.20291277542E+02 -0.14933370549E+02  0.10484809076E+02  0.27288692198E+02  0.51100000000E-03 0. -1.
        -11    1    3    3    0    0 -0.20678001791E+01 -0.16452712544E+02 -0.65191995753E+01  0.17817617994E+02  0.51100000000E-03 0.  1.
        -12    1    3    3    0    0 -0.23619965700E+02  0.13483944883E+02 -0.29310391930E+01  0.27355265308E+02  0.00000000000E+00 0.  1.
</event>
<event>
 7    1  0.2489154E-013  0.7246156E+02  0.7816164E-02  0.1226708E+00
        -11   -1    0    0    0    0  0.00000000000E+00  0.00000000000E+00  0.45593999997E+02  0.45594000000E+02  0.51100000000E-03 0. -1.
         11   -1    0    0    0    0 -0.00000000000E+00 -0.00000000000E+00 -0.45593999997E+02  0.45594000000E+02  0.51100000000E-03 0.  1.
    9900012    2    1    2    0    0  0.62253231087E+01  0.25255532415E+01  0.17479887854E+02  0.72461560233E+02  0.69999986893E+02 0.  0.
        -12    1    1    2    0    0 -0.62253231087E+01 -0.25255532415E+01 -0.17479887854E+02  0.18726439767E+02  0.00000000000E+00 0.  1.
         11    1    3    3    0    0 -0.54458583902E+00  0.59866566373E+01 -0.16085872252E+01  0.62228759068E+01  0.51100000000E-03 0. -1.
        -11    1    3    3    0    0 -0.12732523308E+02  0.15668220331E+02 -0.13064411282E+02  0.24047642723E+02  0.51100000000E-03 0.  1.
         12    1    3    3    0    0  0.19502432256E+02 -0.19129323726E+02  0.32152886361E+02  0.42191041602E+02  0.00000000000E+00 0. -1.
</event>
<event>
 7    1  0.2489154E-013  0.7246157E+02  0.7816164E-02  0.1226708E+00
        -11   -1    0    0    0    0  0.00000000000E+00  0.00000000000E+00  0.45593999997E+02  0.45594000000E+02  0.51100000000E-03 0.  1.
         11   -1    0    0    0    0 -0.00000000000E+00 -0.00000000000E+00 -0.45593999997E+02  0.45594000000E+02  0.51100000000E-03 0. -1.
    9900012    2    1    2    0    0  0.11353337146E+02  0.14639449774E+02 -0.27326795532E+01  0.72461567035E+02  0.69999995755E+02 0.  0.
        -12    1    1    2    0    0 -0.11353337146E+02 -0.14639449774E+02  0.27326795532E+01  0.18726432965E+02  0.00000000000E+00 0.  1.
         11    1    3    3    0    0 -0.15316740868E+01  0.28767038951E+01  0.87024599356E+01  0.92926992849E+01  0.51100000000E-03 0. -1.
        -11    1    3    3    0    0 -0.23603568311E+02  0.73587137365E+01 -0.15896674253E+00  0.24724570280E+02  0.51100000000E-03 0.  1.
         12    1    3    3    0    0  0.36488579543E+02  0.44040321426E+01 -0.11276172746E+02  0.38444297470E+02  0.00000000000E+00 0. -1.
</event>
<event>
 7    1  0.2489154E-013  0.7246156E+02  0.7816164E-02  0.1226708E+00
        -11   -1    0    0    0    0  0.00000000000E+00  0.00000000000E+00  0.45593999997E+02  0.45594000000E+02  0.51100000000E-03 0.  1.
         11   -1    0    0    0    0 -0.00000000000E+00 -0.00000000000E+00 -0.45593999997E+02  0.45594000000E+02  0.51100000000E-03 0. -1.
    9900012    2    1    2    0    0  0.75488692576E+01  0.16832603653E+02  0.32183086006E+01  0.72461561923E+02  0.69999989095E+02 0.  0.
        -12    1    1    2    0    0 -0.75488692576E+01 -0.16832603653E+02 -0.32183086006E+01  0.18726438077E+02  0.00000000000E+00 0.  1.
         11    1    3    3    0    0 -0.17616758401E+02  0.21784442728E+01 -0.12966897819E+02  0.21982634858E+02  0.51100000000E-03 0. -1.
        -11    1    3    3    0    0 -0.21269917536E+01 -0.95987403287E+01 -0.14389872148E+01  0.99363270016E+01  0.51100000000E-03 0.  1.
        -12    1    3    3    0    0  0.27292619412E+02  0.24252899708E+02  0.17624193635E+02  0.40542600063E+02  0.00000000000E+00 0.  1.
</event>
<event>
 7    1  0.2489154E-013  0.7246158E+02  0.7816164E-02  0.1226708E+00
        -11   -1    0    0    0    0  0.00000000000E+00  0.00000000000E+00  0.45593999997E+02  0.45594000000E+02  0.51100000000E-03 0. -1.
         11   -1    0    0    0    0 -0.00000000000E+00 -0.00000000000E+00 -0.45593999997E+02  0.45594000000E+02  0.51100000000E-03 0.  1.
    9900012    2    1    2    0    0  0.17755791512E+02  0.54560766517E+01 -0.23752338741E+01  0.72461584416E+02  0.70000018397E+02 0.  0.
        -12    1    1    2    0    0 -0.17755791512E+02 -0.54560766517E+01  0.23752338741E+01  0.18726415584E+02  0.00000000000E+00 0.  1.
         11    1    3    3    0    0 -0.20262704177E+01  0.20569930038E+02  0.17809709283E+02  0.27283942871E+02  0.51100000000E-03 0. -1.
        -11    1    3    3    0    0  0.14566549568E+02  0.56612526211E+00  0.46906668255E+01  0.15313628560E+02  0.51100000000E-03 0.  1.
        -12    1    3    3    0    0  0.52155123616E+01 -0.15679978648E+02 -0.24875609983E+02  0.29864012986E+02  0.00000000000E+00 0.  1.
</event>
<event>
 7    1  0.2489154E-013  0.7246158E+02  0.7816164E-02  0.1226708E+00
        -11   -1    0    0    0    0  0.00000000000E+00  0.00000000000E+00  0.45593999997E+02  0.45594000000E+02  0.51100000000E-03 0.  1.
         11   -1    0    0    0    0 -0.00000000000E+00 -0.00000000000E+00 -0.45593999997E+02  0.45594000000E+02  0.51100000000E-03 0. -1.
    9900012    2    1    2    0    0  0.18230436667E+02 -0.26529048849E+01 -0.33603575426E+01  0.72461582077E+02  0.70000015350E+02 0.  0.
        -12    1    1    2    0    0 -0.18230436667E+02  0.26529048849E+01  0.33603575426E+01  0.18726417923E+02  0.00000000000E+00 0.  1.
         11    1    3    3    0    0  0.28430706975E+02  0.29992951860E+01  0.21770626166E+01  0.28671248188E+02  0.51100000000E-03 0. -1.
        -11    1    3    3    0    0 -0.18187373884E+01  0.16263046983E+02  0.62688623808E+01  0.17524073118E+02  0.51100000000E-03 0.  1.
         12    1    3    3    0    0 -0.83815329200E+01 -0.21915247053E+02 -0.11806282540E+02  0.26266260772E+02  0.00000000000E+00 0. -1.
</event>
<event>
 7    1  0.2489154E-013  0.7246163E+02  0.7816164E-02  0.1226708E+00
        -11   -1    0    0    0    0  0.00000000000E+00  0.00000000000E+00  0.45593999997E+02  0.45594000000E+02  0.51100000000E-03 0.  1.
         11   -1    0    0    0    0 -0.00000000000E+00 -0.00000000000E+00 -0.45593999997E+02  0.45594000000E+02  0.51100000000E-03 0. -1.
    9900012    2    1    2    0    0  0.16032794740E+02  0.45177555905E+01 -0.85566520299E+01  0.72461630445E+02  0.70000078358E+02 0.  0.
        -12    1    1    2    0    0 -0.16032794740E+02 -0.45177555905E+01  0.85566520299E+01  0.18726369555E+02  0.00000000000E+00 0.  1.
         11    1    3    3    0    0  0.24753934308E+02  0.11751602572E+02 -0.79727686049E+00  0.27413374061E+02  0.51100000000E-03 0. -1.
        -11    1    3    3    0    0 -0.61469936875E-01  0.17200289317E+02  0.20689584597E+01  0.17324385141E+02  0.51100000000E-03 0.  1.
        -12    1    3    3    0    0 -0.86596696316E+01 -0.24434136299E+02 -0.98283336290E+01  0.27723871243E+02  0.00000000000E+00 0.  1.
</event>
<event>
 7    1  0.2489154E-013  0.7246159E+02  0.7816164E-02  0.1226708E+00
        -11   -1    0    0    0    0  0.00000000000E+00  0.00000000000E+00  0.45593999997E+02  0.45594000000E+02  0.51100000000E-03 0. -1.
         11   -1    0    0    0    0 -0.00000000000E+00 -0.00000000000E+00 -0.45593999997E+02  0.45594000000E+02  0.51100000000E-03 0.  1.
    9900012    2    1    2    0    0 -0.67327451038E+01  0.10334349137E+02  0.14090765867E+02  0.72461593205E+02  0.70000029846E+02 0.  0.
        -12    1    1    2    0    0  0.67327451038E+01 -0.10334349137E+02 -0.14090765867E+02  0.18726406795E+02  0.00000000000E+00 0.  1.
         11    1    3    3    0    0 -0.11537506537E+02  0.12471429084E+02  0.15276221099E+02  0.22847615452E+02  0.51100000000E-03 0. -1.
        -11    1    3    3    0    0  0.54960437667E+01  0.21892035283E+02  0.79019606495E+01  0.23914612442E+02  0.51100000000E-03 0.  1.
         12    1    3    3    0    0 -0.69128233329E+00 -0.24029115230E+02 -0.90874158812E+01  0.25699365311E+02  0.00000000000E+00 0. -1.
</event>
<event>
 7    1  0.2489154E-013  0.7246160E+02  0.7816164E-02  0.1226708E+00
        -11   -1    0    0    0    0  0.00000000000E+00  0.00000000000E+00  0.45593999997E+02  0.45594000000E+02  0.51100000000E-03 0.  1.
         11   -1    0    0    0    0 -0.00000000000E+00 -0.00000000000E+00 -0.45593999997E+02  0.45594000000E+02  0.51100000000E-03 0. -1.
    9900012    2    1    2    0    0  0.18259892698E+01 -0.66408847871E+00 -0.18625329721E+02  0.72461597315E+02  0.70000035199E+02 0.  0.
        -12    1    1    2    0    0 -0.18259892698E+01  0.66408847871E+00  0.18625329721E+02  0.18726402685E+02  0.00000000000E+00 0.  1.
         11    1    3    3    0    0 -0.70263952600E+01 -0.20877186000E+02 -0.14386568088E+02  0.26309702910E+02  0.51100000000E-03 0. -1.
        -11    1    3    3    0    0 -0.98487148475E+01  0.95254893120E+01 -0.16436429045E+02  0.21398325420E+02  0.51100000000E-03 0.  1.
         12    1    3    3    0    0  0.18701099377E+02  0.10687608209E+02  0.12197667412E+02  0.24753568984E+02  0.00000000000E+00 0. -1.
</event>
<event>
 7    1  0.2489154E-013  0.7246152E+02  0.7816164E-02  0.1226708E+00
        -11   -1    0    0    0    0  0.00000000000E+00  0.00000000000E+00  0.45593999997E+02  0.45594000000E+02  0.51100000000E-03 0.  1.
         11   -1    0    0    0    0 -0.00000000000E+00 -0.00000000000E+00 -0.45593999997E+02  0.45594000000E+02  0.51100000000E-03 0. -1.
    9900012    2    1    2    0    0  0.16211320457E+02  0.84201024122E+01  0.41201979199E+01  0.72461519645E+02  0.69999934019E+02 0.  0.
        -12    1    1    2    0    0 -0.16211320457E+02 -0.84201024122E+01 -0.41201979199E+01  0.18726480355E+02  0.00000000000E+00 0.  1.
         11    1    3    3    0    0  0.14957317313E+02 -0.17461071927E+02  0.31694611114E+01  0.23208960727E+02  0.51100000000E-03 0. -1.
        -11    1    3    3    0    0  0.21340927963E+02  0.10877193627E+02 -0.18513356544E+01  0.24024487331E+02  0.51100000000E-03 0.  1.
        -12    1    3    3    0    0 -0.20086924819E+02  0.15003980712E+02  0.28020724630E+01  0.25228071587E+02  0.00000000000E+00 0.  1.
</event>
<event>
 7    1  0.2489154E-013  0.7246154E+02  0.7816164E-02  0.1226708E+00
        -11   -1    0    0    0    0  0.00000000000E+00  0.00000000000E+00  0.45593999997E+02  0.45594000000E+02  0.51100000000E-03 0.  1.
         11   -1    0    0    0    0 -0.00000000000E+00 -0.00000000000E+00 -0.45593999997E+02  0.45594000000E+02  0.51100000000E-03 0. -1.
    9900012    2    1    2    0    0  0.14510299022E+01  0.15999689926E+02 -0.96221000405E+01  0.72461538116E+02  0.69999958081E+02 0.  0.
        -12    1    1    2    0    0 -0.14510299022E+01 -0.15999689926E+02  0.96221000405E+01  0.18726461884E+02  0.00000000000E+00 0.  1.
         11    1    3    3    0    0 -0.54748572924E+01 -0.14702123490E+02 -0.10497739252E+01  0.15723502251E+02  0.51100000000E-03 0. -1.
        -11    1    3    3    0    0 -0.19753994134E+01 -0.12088421998E+02 -0.34963914341E+01  0.12738010149E+02  0.51100000000E-03 0.  1.
        -12    1    3    3    0    0  0.89012866080E+01  0.42790235414E+02 -0.50759346812E+01  0.44000025715E+02  0.00000000000E+00 0.  1.
</event>
<event>
 7    1  0.2489154E-013  0.7246159E+02  0.7816164E-02  0.1226708E+00
        -11   -1    0    0    0    0  0.00000000000E+00  0.00000000000E+00  0.45593999997E+02  0.45594000000E+02  0.51100000000E-03 0. -1.
         11   -1    0    0    0    0 -0.00000000000E+00 -0.00000000000E+00 -0.45593999997E+02  0.45594000000E+02  0.51100000000E-03 0.  1.
    9900012    2    1    2    0    0 -0.15302269386E+02 -0.19617710506E+01  0.10614640401E+02  0.72461585905E+02  0.70000020336E+02 0.  0.
        -12    1    1    2    0    0  0.15302269386E+02  0.19617710506E+01 -0.10614640401E+02  0.18726414095E+02  0.00000000000E+00 0.  1.
         11    1    3    3    0    0 -0.10630570842E+02 -0.10312113578E+02  0.17019367727E+02  0.22561196798E+02  0.51100000000E-03 0. -1.
        -11    1    3    3    0    0 -0.18933071887E+02 -0.12714328192E+02  0.25134192327E+01  0.22944119703E+02  0.51100000000E-03 0.  1.
        -12    1    3    3    0    0  0.14261373343E+02  0.21064670719E+02 -0.89181465584E+01  0.26956269404E+02  0.00000000000E+00 0.  1.
</event>
<event>
 7    1  0.2489154E-013  0.7246162E+02  0.7816164E-02  0.1226708E+00
        -11   -1    0    0    0    0  0.00000000000E+00  0.00000000000E+00  0.45593999997E+02  0.45594000000E+02  0.51100000000E-03 0.  1.
         11   -1    0    0    0    0 -0.00000000000E+00 -0.00000000000E+00 -0.45593999997E+02  0.45594000000E+02  0.51100000000E-03 0. -1.
    9900012    2    1    2    0    0  0.14351300928E+02  0.10144642884E+02 -0.64655694490E+01  0.72461622724E+02  0.70000068299E+02 0.  0.
        -12    1    1    2    0    0 -0.14351300928E+02 -0.10144642884E+02  0.64655694490E+01  0.18726377276E+02  0.00000000000E+00 0.  1.
         11    1    3    3    0    0 -0.24509834581E+01  0.11044233602E+01  0.28077937568E+00  0.27029443556E+01  0.51100000000E-03 0. -1.
        -11    1    3    3    0    0 -0.33150634130E+01 -0.25679017059E+02 -0.13287498460E+02  0.29102563085E+02  0.51100000000E-03 0.  1.
         12    1    3    3    0    0  0.20117347800E+02  0.34719236583E+02  0.65411496355E+01  0.40656115283E+02  0.00000000000E+00 0. -1.
</event>
<event>
 7    1  0.2489154E-013  0.7246159E+02  0.7816164E-02  0.1226708E+00
        -11   -1    0    0    0    0  0.00000000000E+00  0.00000000000E+00  0.45593999997E+02  0.45594000000E+02  0.51100000000E-03 0. -1.
         11   -1    0    0    0    0 -0.00000000000E+00 -0.00000000000E+00 -0.45593999997E+02  0.45594000000E+02  0.51100000000E-03 0.  1.
    9900012    2    1    2    0    0 -0.14739532260E+02  0.10228342564E+02  0.53670870480E+01  0.72461590140E+02  0.70000025853E+02 0.  0.
        -12    1    1    2    0    0  0.14739532260E+02 -0.10228342564E+02 -0.53670870480E+01  0.18726409860E+02  0.00000000000E+00 0.  1.
         11    1    3    3    0    0 -0.24787348715E+01 -0.16275185351E+02 -0.12909607616E+02  0.20920892759E+02  0.51100000000E-03 0. -1.
        -11    1    3    3    0    0  0.77062699988E+01 -0.61832357791E+01  0.41349923953E+01  0.10710609897E+02  0.51100000000E-03 0.  1.
         12    1    3    3    0    0 -0.19967067388E+02  0.32686763694E+02  0.14141702269E+02  0.40830087484E+02  0.00000000000E+00 0. -1.
</event>
<event>
 7    1  0.2489154E-013  0.7246158E+02  0.7816164E-02  0.1226708E+00
        -11   -1    0    0    0    0  0.00000000000E+00  0.00000000000E+00  0.45593999997E+02  0.45594000000E+02  0.51100000000E-03 0.  1.
         11   -1    0    0    0    0 -0.00000000000E+00 -0.00000000000E+00 -0.45593999997E+02  0.45594000000E+02  0.51100000000E-03 0. -1.
    9900012    2    1    2    0    0 -0.11426274899E+02  0.14638673110E+02  0.24141616294E+01  0.72461583235E+02  0.70000016858E+02 0.  0.
        -12    1    1    2    0    0  0.11426274899E+02 -0.14638673110E+02 -0.24141616294E+01  0.18726416765E+02  0.00000000000E+00 0.  1.
         11    1    3    3    0    0  0.69196783953E+01  0.23045068182E+01  0.10640328864E+02  0.12899972843E+02  0.51100000000E-03 0.  1.
        -11    1    3    3    0    0 -0.19974313744E+02  0.27462390024E+01 -0.29752372288E+02  0.35940488245E+02  0.51100000000E-03 0. -1.
         12    1    3    3    0    0  0.16283604506E+01  0.95879272891E+01  0.21526205054E+02  0.23621122147E+02  0.00000000000E+00 0. -1.
</event>
<event>
 7    1  0.2489154E-013  0.7246165E+02  0.7816164E-02  0.1226708E+00
        -11   -1    0    0    0    0  0.00000000000E+00  0.00000000000E+00  0.45593999997E+02  0.45594000000E+02  0.51100000000E-03 0. -1.
         11   -1    0    0    0    0 -0.00000000000E+00 -0.00000000000E+00 -0.45593999997E+02  0.45594000000E+02  0.51100000000E-03 0.  1.
    9900012    2    1    2    0    0  0.53877415404E+01 -0.17746880691E+02  0.25877989221E+01  0.72461648609E+02  0.70000102019E+02 0.  0.
        -12    1    1    2    0    0 -0.53877415404E+01  0.17746880691E+02 -0.25877989221E+01  0.18726351391E+02  0.00000000000E+00 0.  1.
         11    1    3    3    0    0 -0.19010223190E+02  0.18988927662E+02 -0.50005132193E+01  0.27330808481E+02  0.51100000000E-03 0. -1.
        -11    1    3    3    0    0  0.38813650505E+01 -0.59582267490E+01  0.34724590686E+01  0.79134968813E+01  0.51100000000E-03 0.  1.
        -12    1    3    3    0    0  0.20516599680E+02 -0.30777581604E+02  0.41158530728E+01  0.37217343247E+02  0.00000000000E+00 0.  1.
</event>
<event>
 7    1  0.2489154E-013  0.7246157E+02  0.7816164E-02  0.1226708E+00
        -11   -1    0    0    0    0  0.00000000000E+00  0.00000000000E+00  0.45593999997E+02  0.45594000000E+02  0.51100000000E-03 0.  1.
         11   -1    0    0    0    0 -0.00000000000E+00 -0.00000000000E+00 -0.45593999997E+02  0.45594000000E+02  0.51100000000E-03 0. -1.
    9900012    2    1    2    0    0  0.11607263184E+02  0.12446332856E+02 -0.78127626110E+01  0.72461574292E+02  0.70000005208E+02 0.  0.
        -12    1    1    2    0    0 -0.11607263184E+02 -0.12446332856E+02  0.78127626110E+01  0.18726425708E+02  0.00000000000E+00 0.  1.
         11    1    3    3    0    0 -0.99790153813E+01  0.15091854904E+02  0.15370474916E+01  0.18157845348E+02  0.51100000000E-03 0. -1.
        -11    1    3    3    0    0 -0.10895436977E+01 -0.12397221843E+02  0.15095334541E+02  0.19563929566E+02  0.51100000000E-03 0.  1.
         12    1    3    3    0    0  0.22675822263E+02  0.97516997945E+01 -0.24445144644E+02  0.34739799378E+02  0.00000000000E+00 0. -1.
</event>
<event>
 7    1  0.2489154E-013  0.7246152E+02  0.7816164E-02  0.1226708E+00
        -11   -1    0    0    0    0  0.00000000000E+00  0.00000000000E+00  0.45593999997E+02  0.45594000000E+02  0.51100000000E-03 0.  1.
         11   -1    0    0    0    0 -0.00000000000E+00 -0.00000000000E+00 -0.45593999997E+02  0.45594000000E+02  0.51100000000E-03 0. -1.
    9900012    2    1    2    0    0  0.11959236142E+02  0.11352386077E+02 -0.88758684241E+01  0.72461520378E+02  0.69999934975E+02 0.  0.
        -12    1    1    2    0    0 -0.11959236142E+02 -0.11352386077E+02  0.88758684241E+01  0.18726479622E+02  0.00000000000E+00 0.  1.
         11    1    3    3    0    0  0.15667209623E+02 -0.22943603152E+02  0.78284199843E+01  0.28864416548E+02  0.51100000000E-03 0. -1.
        -11    1    3    3    0    0 -0.57047839389E+01  0.68877667563E+00  0.53943381911E+00  0.57714783379E+01  0.51100000000E-03 0.  1.
        -12    1    3    3    0    0  0.19968104572E+01  0.33607212553E+02 -0.17243722228E+02  0.37825625492E+02  0.00000000000E+00 0.  1.
</event>
<event>
 7    1  0.2489154E-013  0.7246158E+02  0.7816164E-02  0.1226708E+00
        -11   -1    0    0    0    0  0.00000000000E+00  0.00000000000E+00  0.45593999997E+02  0.45594000000E+02  0.51100000000E-03 0.  1.
         11   -1    0    0    0    0 -0.00000000000E+00 -0.00000000000E+00 -0.45593999997E+02  0.45594000000E+02  0.51100000000E-03 0. -1.
    9900012    2    1    2    0    0  0.53917068338E+01 -0.15377444075E+01 -0.17867389009E+02  0.72461581484E+02  0.70000014576E+02 0.  0.
        -12    1    1    2    0    0 -0.53917068338E+01  0.15377444075E+01  0.17867389009E+02  0.18726418516E+02  0.00000000000E+00 0.  1.
         11    1    3    3    0    0 -0.21786503720E+02  0.15687974317E+02 -0.17484278572E+02  0.32038481236E+02  0.51100000000E-03 0. -1.
        -11    1    3    3    0    0  0.13748519184E+02  0.31609666455E+01 -0.60687474218E+01  0.15357186768E+02  0.51100000000E-03 0.  1.
        -12    1    3    3    0    0  0.13429691369E+02 -0.20386685370E+02  0.56856369842E+01  0.25065913480E+02  0.00000000000E+00 0.  1.
</event>
<event>
 7    1  0.2489154E-013  0.7246152E+02  0.7816164E-02  0.1226708E+00
        -11   -1    0    0    0    0  0.00000000000E+00  0.00000000000E+00  0.45593999997E+02  0.45594000000E+02  0.51100000000E-03 0.  1.
         11   -1    0    0    0    0 -0.00000000000E+00 -0.00000000000E+00 -0.45593999997E+02  0.45594000000E+02  0.51100000000E-03 0. -1.
    9900012    2    1    2    0    0 -0.31554961096E+01 -0.10137503432E+02 -0.15425785716E+02  0.72461521514E+02  0.69999936455E+02 0.  0.
        -12    1    1    2    0    0  0.31554961096E+01  0.10137503432E+02  0.15425785716E+02  0.18726478486E+02  0.00000000000E+00 0.  1.
         11    1    3    3    0    0  0.15859395368E+02 -0.39401365596E+01 -0.19086504751E+02  0.25126475308E+02  0.51100000000E-03 0. -1.
        -11    1    3    3    0    0 -0.18299261434E+01 -0.22272153365E+02 -0.37601872306E+01  0.22661342711E+02  0.51100000000E-03 0.  1.
        -12    1    3    3    0    0 -0.17184965334E+02  0.16074786493E+02  0.74209062658E+01  0.24673703495E+02  0.00000000000E+00 0.  1.
</event>
<event>
 7    1  0.2489154E-013  0.7246158E+02  0.7816164E-02  0.1226708E+00
        -11   -1    0    0    0    0  0.00000000000E+00  0.00000000000E+00  0.45593999997E+02  0.45594000000E+02  0.51100000000E-03 0. -1.
         11   -1    0    0    0    0 -0.00000000000E+00 -0.00000000000E+00 -0.45593999997E+02  0.45594000000E+02  0.51100000000E-03 0.  1.
    9900012    2    1    2    0    0  0.16565257346E+02  0.35952967982E+01  0.79589587176E+01  0.72461576586E+02  0.70000008196E+02 0.  0.
        -12    1    1    2    0    0 -0.16565257346E+02 -0.35952967982E+01 -0.79589587176E+01  0.18726423414E+02  0.00000000000E+00 0.  1.
         11    1    3    3    0    0  0.23742582323E+01 -0.14982296591E+02  0.10289835631E+02  0.18329949014E+02  0.51100000000E-03 0. -1.
        -11    1    3    3    0    0  0.12036909291E+02  0.15982991405E+01  0.21559095569E+02  0.24743410182E+02  0.51100000000E-03 0.  1.
        -12    1    3    3    0    0  0.21540898229E+01  0.16979294249E+02 -0.23889972482E+02  0.29388217390E+02  0.00000000000E+00 0.  1.
</event>
<event>
 7    1  0.2489154E-013  0.7246158E+02  0.7816164E-02  0.1226708E+00
        -11   -1    0    0    0    0  0.00000000000E+00  0.00000000000E+00  0.45593999997E+02  0.45594000000E+02  0.51100000000E-03 0. -1.
         11   -1    0    0    0    0 -0.00000000000E+00 -0.00000000000E+00 -0.45593999997E+02  0.45594000000E+02  0.51100000000E-03 0.  1.
    9900012    2    1    2    0    0 -0.18544204098E+02  0.22115106490E+01  0.13786601700E+01  0.72461575118E+02  0.70000006284E+02 0.  0.
        -12    1    1    2    0    0  0.18544204098E+02 -0.22115106490E+01 -0.13786601700E+01  0.18726424882E+02  0.00000000000E+00 0.  1.
         11    1    3    3    0    0 -0.21699382032E+02  0.10349533146E+01 -0.25405842226E+01  0.21872102720E+02  0.51100000000E-03 0. -1.
        -11    1    3    3    0    0 -0.87100762791E+00  0.12787075421E+02 -0.19967535345E+02  0.23726997705E+02  0.51100000000E-03 0.  1.
         12    1    3    3    0    0  0.40261855616E+01 -0.11610518086E+02  0.23886779737E+02  0.26862474693E+02  0.00000000000E+00 0. -1.
</event>
<event>
 7    1  0.2489154E-013  0.7246155E+02  0.7816164E-02  0.1226708E+00
        -11   -1    0    0    0    0  0.00000000000E+00  0.00000000000E+00  0.45593999997E+02  0.45594000000E+02  0.51100000000E-03 0.  1.
         11   -1    0    0    0    0 -0.00000000000E+00 -0.00000000000E+00 -0.45593999997E+02  0.45594000000E+02  0.51100000000E-03 0. -1.
    9900012    2    1    2    0    0  0.13608309200E+02  0.53919760976E+01 -0.11679910946E+02  0.72461553321E+02  0.69999977889E+02 0.  0.
        -12    1    1    2    0    0 -0.13608309200E+02 -0.53919760976E+01  0.11679910946E+02  0.18726446679E+02  0.00000000000E+00 0.  1.
         11    1    3    3    0    0  0.10513321332E+01 -0.21037392224E+01  0.77358565805E+01  0.80854496019E+01  0.51100000000E-03 0. -1.
        -11    1    3    3    0    0  0.68850671340E+01  0.90923806853E+01  0.20805000382E+02  0.23726010561E+02  0.51100000000E-03 0.  1.
         12    1    3    3    0    0  0.56719099327E+01 -0.15966653653E+01 -0.40220767909E+02  0.40650093158E+02  0.00000000000E+00 0. -1.
</event>
<event>
 7    1  0.2489154E-013  0.7246158E+02  0.7816164E-02  0.1226708E+00
        -11   -1    0    0    0    0  0.00000000000E+00  0.00000000000E+00  0.45593999997E+02  0.45594000000E+02  0.51100000000E-03 0.  1.
         11   -1    0    0    0    0 -0.00000000000E+00 -0.00000000000E+00 -0.45593999997E+02  0.45594000000E+02  0.51100000000E-03 0. -1.
    9900012    2    1    2    0    0 -0.68683539536E+01 -0.60935870333E+01 -0.16320934259E+02  0.72461575247E+02  0.70000006451E+02 0.  0.
        -12    1    1    2    0    0  0.68683539536E+01  0.60935870333E+01  0.16320934259E+02  0.18726424753E+02  0.00000000000E+00 0.  1.
         11    1    3    3    0    0 -0.19310739499E+02 -0.18483987484E+01 -0.28147672790E+01  0.19602146643E+02  0.51100000000E-03 0. -1.
        -11    1    3    3    0    0  0.66488566314E+01 -0.21536365039E+02  0.86690199650E+01  0.24149000414E+02  0.51100000000E-03 0.  1.
         12    1    3    3    0    0  0.57935289137E+01  0.17291176754E+02 -0.22175186945E+02  0.28710428190E+02  0.00000000000E+00 0. -1.
</event>
<event>
 7    1  0.2489154E-013  0.7246159E+02  0.7816164E-02  0.1226708E+00
        -11   -1    0    0    0    0  0.00000000000E+00  0.00000000000E+00  0.45593999997E+02  0.45594000000E+02  0.51100000000E-03 0.  1.
         11   -1    0    0    0    0 -0.00000000000E+00 -0.00000000000E+00 -0.45593999997E+02  0.45594000000E+02  0.51100000000E-03 0. -1.
    9900012    2    1    2    0    0  0.31145655059E+01  0.20533466885E+01 -0.18351067321E+02  0.72461590234E+02  0.70000025975E+02 0.  0.
        -12    1    1    2    0    0 -0.31145655059E+01 -0.20533466885E+01  0.18351067321E+02  0.18726409766E+02  0.00000000000E+00 0.  1.
         11    1    3    3    0    0  0.24838753668E+02 -0.13134997882E+02  0.10403693498E+02  0.29962120949E+02  0.51100000000E-03 0.  1.
        -11    1    3    3    0    0 -0.36430304955E+00  0.53363135415E+01 -0.13349938074E+02  0.14381578695E+02  0.51100000000E-03 0. -1.
        -12    1    3    3    0    0 -0.21359885112E+02  0.98520310290E+01 -0.15404822744E+02  0.28117890589E+02  0.00000000000E+00 0.  1.
</event>
<event>
 7    1  0.2489154E-013  0.7246166E+02  0.7816164E-02  0.1226708E+00
        -11   -1    0    0    0    0  0.00000000000E+00  0.00000000000E+00  0.45593999997E+02  0.45594000000E+02  0.51100000000E-03 0.  1.
         11   -1    0    0    0    0 -0.00000000000E+00 -0.00000000000E+00 -0.45593999997E+02  0.45594000000E+02  0.51100000000E-03 0. -1.
    9900012    2    1    2    0    0  0.10055503026E+02 -0.77061930454E+01  0.13790482226E+02  0.72461656193E+02  0.70000111899E+02 0.  0.
        -12    1    1    2    0    0 -0.10055503026E+02  0.77061930454E+01 -0.13790482226E+02  0.18726343807E+02  0.00000000000E+00 0.  1.
         11    1    3    3    0    0  0.55741397082E+01 -0.10013842054E+02 -0.19468694026E+02  0.22591549604E+02  0.51100000000E-03 0. -1.
        -11    1    3    3    0    0 -0.98034591487E-01  0.60786093919E+00 -0.81503006264E+01  0.81735247149E+01  0.51100000000E-03 0.  1.
        -12    1    3    3    0    0  0.45793979096E+01  0.16997880697E+01  0.41409476878E+02  0.41696581874E+02  0.00000000000E+00 0.  1.
</event>
<event>
 7    1  0.2489154E-013  0.7246155E+02  0.7816164E-02  0.1226708E+00
        -11   -1    0    0    0    0  0.00000000000E+00  0.00000000000E+00  0.45593999997E+02  0.45594000000E+02  0.51100000000E-03 0. -1.
         11   -1    0    0    0    0 -0.00000000000E+00 -0.00000000000E+00 -0.45593999997E+02  0.45594000000E+02  0.51100000000E-03 0.  1.
    9900012    2    1    2    0    0  0.16032464729E+01  0.17225568172E+01  0.18578002383E+02  0.72461554160E+02  0.69999978982E+02 0.  0.
        -12    1    1    2    0    0 -0.16032464729E+01 -0.17225568172E+01 -0.18578002383E+02  0.18726445840E+02  0.00000000000E+00 0.  1.
         11    1    3    3    0    0  0.87737111474E+01  0.27418652120E+02  0.10068373098E+02  0.30498075816E+02  0.51100000000E-03 0. -1.
        -11    1    3    3    0    0 -0.49700416255E+01 -0.39922149472E+01  0.17305126394E+02  0.18441976405E+02  0.51100000000E-03 0.  1.
        -12    1    3    3    0    0 -0.22004230490E+01 -0.21703880356E+02 -0.87954971083E+01  0.23521501939E+02  0.00000000000E+00 0.  1.
</event>
<event>
 7    1  0.2489154E-013  0.7246152E+02  0.7816164E-02  0.1226708E+00
        -11   -1    0    0    0    0  0.00000000000E+00  0.00000000000E+00  0.45593999997E+02  0.45594000000E+02  0.51100000000E-03 0.  1.
         11   -1    0    0    0    0 -0.00000000000E+00 -0.00000000000E+00 -0.45593999997E+02  0.45594000000E+02  0.51100000000E-03 0. -1.
    9900012    2    1    2    0    0  0.17620659636E+02 -0.55799733600E+00  0.63152381523E+01  0.72461515013E+02  0.69999927986E+02 0.  0.
        -12    1    1    2    0    0 -0.17620659636E+02  0.55799733600E+00 -0.63152381523E+01  0.18726484987E+02  0.00000000000E+00 0.  1.
         11    1    3    3    0    0  0.18503186712E+02 -0.29805194376E+01  0.95004879571E-01  0.18741943357E+02  0.51100000000E-03 0. -1.
        -11    1    3    3    0    0 -0.13169388455E+02 -0.22199348123E+02  0.21226727867E+01  0.25898833746E+02  0.51100000000E-03 0.  1.
         12    1    3    3    0    0  0.12286861380E+02  0.24621870225E+02  0.40975604861E+01  0.27820737910E+02  0.00000000000E+00 0. -1.
</event>
<event>
 7    1  0.2489154E-013  0.7246159E+02  0.7816164E-02  0.1226708E+00
        -11   -1    0    0    0    0  0.00000000000E+00  0.00000000000E+00  0.45593999997E+02  0.45594000000E+02  0.51100000000E-03 0. -1.
         11   -1    0    0    0    0 -0.00000000000E+00 -0.00000000000E+00 -0.45593999997E+02  0.45594000000E+02  0.51100000000E-03 0.  1.
    9900012    2    1    2    0    0 -0.17218817444E+02  0.52285959180E+01  0.51819389850E+01  0.72461591346E+02  0.70000027424E+02 0.  0.
        -12    1    1    2    0    0  0.17218817444E+02 -0.52285959180E+01 -0.51819389850E+01  0.18726408654E+02  0.00000000000E+00 0.  1.
         11    1    3    3    0    0 -0.23505696452E+00  0.45041461202E+01 -0.16488531051E+01  0.48022183282E+01  0.51100000000E-03 0. -1.
        -11    1    3    3    0    0 -0.32069648990E+02  0.11178198824E+02 -0.16676630632E+02  0.37835492924E+02  0.51100000000E-03 0.  1.
         12    1    3    3    0    0  0.15085888511E+02 -0.10453749026E+02  0.23507422722E+02  0.29823880094E+02  0.00000000000E+00 0. -1.
</event>
<event>
 7    1  0.2489154E-013  0.7246150E+02  0.7816164E-02  0.1226708E+00
        -11   -1    0    0    0    0  0.00000000000E+00  0.00000000000E+00  0.45593999997E+02  0.45594000000E+02  0.51100000000E-03 0.  1.
         11   -1    0    0    0    0 -0.00000000000E+00 -0.00000000000E+00 -0.45593999997E+02  0.45594000000E+02  0.51100000000E-03 0. -1.
    9900012    2    1    2    0    0  0.17137582506E+02  0.24386203283E+01 -0.71440933025E+01  0.72461503468E+02  0.69999912946E+02 0.  0.
        -12    1    1    2    0    0 -0.17137582506E+02 -0.24386203283E+01  0.71440933025E+01  0.18726496532E+02  0.00000000000E+00 0.  1.
         11    1    3    3    0    0  0.12416630955E+02  0.67089292127E+01 -0.35061945770E+02  0.37795799990E+02  0.51100000000E-03 0. -1.
        -11    1    3    3    0    0 -0.33767926218E+01  0.38835721901E+01  0.79314406525E+00  0.52071046788E+01  0.51100000000E-03 0.  1.
        -12    1    3    3    0    0  0.80977441729E+01 -0.81538810744E+01  0.27124708402E+02  0.29458598799E+02  0.00000000000E+00 0.  1.
</event>
<event>
 7    1  0.2489154E-013  0.7246160E+02  0.7816164E-02  0.1226708E+00
        -11   -1    0    0    0    0  0.00000000000E+00  0.00000000000E+00  0.45593999997E+02  0.45594000000E+02  0.51100000000E-03 0. -1.
         11   -1    0    0    0    0 -0.00000000000E+00 -0.00000000000E+00 -0.45593999997E+02  0.45594000000E+02  0.51100000000E-03 0.  1.
    9900012    2    1    2    0    0 -0.27811054984E+01 -0.10010271072E+02  0.15580055187E+02  0.72461596331E+02  0.70000033918E+02 0.  0.
        -12    1    1    2    0    0  0.27811054984E+01  0.10010271072E+02 -0.15580055187E+02  0.18726403669E+02  0.00000000000E+00 0.  1.
         11    1    3    3    0    0 -0.89909908174E+01  0.51460937515E+01  0.28176479987E+01  0.10735890149E+02  0.51100000000E-03 0.  1.
        -11    1    3    3    0    0  0.22136440249E+02 -0.15452103935E+02  0.28554096739E+02  0.39295367968E+02  0.51100000000E-03 0. -1.
         12    1    3    3    0    0 -0.15926554930E+02  0.29573911142E+00 -0.15791689550E+02  0.22430338214E+02  0.00000000000E+00 0. -1.
</event>
<event>
 7    1  0.2489154E-013  0.7246155E+02  0.7816164E-02  0.1226708E+00
        -11   -1    0    0    0    0  0.00000000000E+00  0.00000000000E+00  0.45593999997E+02  0.45594000000E+02  0.51100000000E-03 0. -1.
         11   -1    0    0    0    0 -0.00000000000E+00 -0.00000000000E+00 -0.45593999997E+02  0.45594000000E+02  0.51100000000E-03 0.  1.
    9900012    2    1    2    0    0 -0.18523390517E+02  0.27501517783E+01 -0.22730199378E-01  0.72461552187E+02  0.69999976412E+02 0.  0.
        -12    1    1    2    0    0  0.18523390517E+02 -0.27501517783E+01  0.22730199378E-01  0.18726447813E+02  0.00000000000E+00 0.  1.
         11    1    3    3    0    0  0.13436736245E+02  0.16099209061E+02  0.70851576747E+01  0.22134359553E+02  0.51100000000E-03 0. -1.
        -11    1    3    3    0    0 -0.31267741446E+01  0.32146494827E+01  0.11414705785E+02  0.12264020396E+02  0.51100000000E-03 0.  1.
        -12    1    3    3    0    0 -0.28833352617E+02 -0.16563706765E+02 -0.18522593659E+02  0.38063172238E+02  0.00000000000E+00 0.  1.
</event>
<event>
 7    1  0.2489154E-013  0.7246157E+02  0.7816164E-02  0.1226708E+00
        -11   -1    0    0    0    0  0.00000000000E+00  0.00000000000E+00  0.45593999997E+02  0.45594000000E+02  0.51100000000E-03 0.  1.
         11   -1    0    0    0    0 -0.00000000000E+00 -0.00000000000E+00 -0.45593999997E+02  0.45594000000E+02  0.51100000000E-03 0. -1.
    9900012    2    1    2    0    0 -0.12998314104E+02  0.13277911668E+02 -0.23280743976E+01  0.72461573800E+02  0.70000004567E+02 0.  0.
        -12    1    1    2    0    0  0.12998314104E+02 -0.13277911668E+02  0.23280743976E+01  0.18726426200E+02  0.00000000000E+00 0.  1.
         11    1    3    3    0    0  0.77598640050E+01 -0.10050829310E+02 -0.83335897972E+01  0.15188264495E+02  0.51100000000E-03 0. -1.
        -11    1    3    3    0    0  0.14329417101E+02 -0.77978776813E+00  0.23894030279E+01  0.14548178941E+02  0.51100000000E-03 0.  1.
         12    1    3    3    0    0 -0.35087595210E+02  0.24108528747E+02  0.36161123717E+01  0.42725130364E+02  0.00000000000E+00 0. -1.
</event>
<event>
 7    1  0.2489154E-013  0.7246177E+02  0.7816164E-02  0.1226707E+00
        -11   -1    0    0    0    0  0.00000000000E+00  0.00000000000E+00  0.45593999997E+02  0.45594000000E+02  0.51100000000E-03 0.  1.
         11   -1    0    0    0    0 -0.00000000000E+00 -0.00000000000E+00 -0.45593999997E+02  0.45594000000E+02  0.51100000000E-03 0. -1.
    9900012    2    1    2    0    0  0.15614216636E+02 -0.78204780068E+01  0.67607804431E+01  0.72461767341E+02  0.70000256689E+02 0.  0.
        -12    1    1    2    0    0 -0.15614216636E+02  0.78204780068E+01 -0.67607804431E+01  0.18726232659E+02  0.00000000000E+00 0.  1.
         11    1    3    3    0    0  0.97723708114E+01  0.88853063722E+01 -0.13162062372E+02  0.18646388035E+02  0.51100000000E-03 0. -1.
        -11    1    3    3    0    0  0.11301568979E+02  0.14298378883E+02  0.10101692796E+02  0.20837785335E+02  0.51100000000E-03 0.  1.
        -12    1    3    3    0    0 -0.54597231545E+01 -0.31004163262E+02  0.98211500192E+01  0.32977593972E+02  0.00000000000E+00 0.  1.
</event>
<event>
 7    1  0.2489154E-013  0.7246166E+02  0.7816164E-02  0.1226708E+00
        -11   -1    0    0    0    0  0.00000000000E+00  0.00000000000E+00  0.45593999997E+02  0.45594000000E+02  0.51100000000E-03 0.  1.
         11   -1    0    0    0    0 -0.00000000000E+00 -0.00000000000E+00 -0.45593999997E+02  0.45594000000E+02  0.51100000000E-03 0. -1.
    9900012    2    1    2    0    0 -0.88739334037E+01 -0.62727668031E+01 -0.15250620486E+02  0.72461662328E+02  0.70000119890E+02 0.  0.
        -12    1    1    2    0    0  0.88739334037E+01  0.62727668031E+01  0.15250620486E+02  0.18726337672E+02  0.00000000000E+00 0.  1.
         11    1    3    3    0    0  0.19566674698E+01  0.12360752040E+02 -0.47769248333E+01  0.13395362993E+02  0.51100000000E-03 0. -1.
        -11    1    3    3    0    0 -0.28984123864E+02 -0.34386648763E+00  0.43912043960E+01  0.29316895413E+02  0.51100000000E-03 0.  1.
         12    1    3    3    0    0  0.18153522990E+02 -0.18289652356E+02 -0.14864900049E+02  0.29749403922E+02  0.00000000000E+00 0. -1.
</event>
<event>
 7    1  0.2489154E-013  0.7246157E+02  0.7816164E-02  0.1226708E+00
        -11   -1    0    0    0    0  0.00000000000E+00  0.00000000000E+00  0.45593999997E+02  0.45594000000E+02  0.51100000000E-03 0.  1.
         11   -1    0    0    0    0 -0.00000000000E+00 -0.00000000000E+00 -0.45593999997E+02  0.45594000000E+02  0.51100000000E-03 0. -1.
    9900012    2    1    2    0    0 -0.29310701744E+01 -0.15036415204E+02 -0.10770068852E+02  0.72461565806E+02  0.69999994153E+02 0.  0.
        -12    1    1    2    0    0  0.29310701744E+01  0.15036415204E+02  0.10770068852E+02  0.18726434194E+02  0.00000000000E+00 0.  1.
         11    1    3    3    0    0  0.23773676364E+02 -0.11111950803E+02  0.82312649792E+01  0.27503033686E+02  0.51100000000E-03 0. -1.
        -11    1    3    3    0    0 -0.43451734013E+01  0.39695576693E+01 -0.20373667428E+02  0.21206702825E+02  0.51100000000E-03 0.  1.
        -12    1    3    3    0    0 -0.22359573138E+02 -0.78940220699E+01  0.13723335973E+01  0.23751829295E+02  0.00000000000E+00 0.  1.
</event>
<event>
 7    1  0.2489154E-013  0.7246151E+02  0.7816164E-02  0.1226708E+00
        -11   -1    0    0    0    0  0.00000000000E+00  0.00000000000E+00  0.45593999997E+02  0.45594000000E+02  0.51100000000E-03 0.  1.
         11   -1    0    0    0    0 -0.00000000000E+00 -0.00000000000E+00 -0.45593999997E+02  0.45594000000E+02  0.51100000000E-03 0. -1.
    9900012    2    1    2    0    0 -0.80369683915E+01 -0.15839964222E+02 -0.59316229494E+01  0.72461508650E+02  0.69999919696E+02 0.  0.
        -12    1    1    2    0    0  0.80369683915E+01  0.15839964222E+02  0.59316229494E+01  0.18726491350E+02  0.00000000000E+00 0.  1.
         11    1    3    3    0    0 -0.72040081035E+01 -0.10293815737E+02  0.60610880350E+01  0.13949808730E+02  0.51100000000E-03 0. -1.
        -11    1    3    3    0    0 -0.85011454670E+01 -0.29095127607E+02  0.14238313517E+01  0.30345069133E+02  0.51100000000E-03 0.  1.
        -12    1    3    3    0    0  0.76681851790E+01  0.23548979121E+02 -0.13416542336E+02  0.28166630786E+02  0.00000000000E+00 0.  1.
</event>
<event>
 7    1  0.2489154E-013  0.7246153E+02  0.7816164E-02  0.1226708E+00
        -11   -1    0    0    0    0  0.00000000000E+00  0.00000000000E+00  0.45593999997E+02  0.45594000000E+02  0.51100000000E-03 0.  1.
         11   -1    0    0    0    0 -0.00000000000E+00 -0.00000000000E+00 -0.45593999997E+02  0.45594000000E+02  0.51100000000E-03 0. -1.
    9900012    2    1    2    0    0 -0.14124860088E+02  0.15006515446E+00 -0.12294160509E+02  0.72461532776E+02  0.69999951126E+02 0.  0.
        -12    1    1    2    0    0  0.14124860088E+02 -0.15006515446E+00  0.12294160509E+02  0.18726467224E+02  0.00000000000E+00 0.  1.
         11    1    3    3    0    0 -0.16558803214E+01  0.13779421924E+02 -0.25764635421E+02  0.29264839771E+02  0.51100000000E-03 0. -1.
        -11    1    3    3    0    0  0.26724076088E+01  0.10820870368E+02  0.84866128487E+01  0.14009125450E+02  0.51100000000E-03 0.  1.
        -12    1    3    3    0    0 -0.15141387375E+02 -0.24450227137E+02  0.49838620638E+01  0.29187567555E+02  0.00000000000E+00 0.  1.
</event>
<event>
 7    1  0.2489154E-013  0.7246157E+02  0.7816164E-02  0.1226708E+00
        -11   -1    0    0    0    0  0.00000000000E+00  0.00000000000E+00  0.45593999997E+02  0.45594000000E+02  0.51100000000E-03 0. -1.
         11   -1    0    0    0    0 -0.00000000000E+00 -0.00000000000E+00 -0.45593999997E+02  0.45594000000E+02  0.51100000000E-03 0.  1.
    9900012    2    1    2    0    0  0.37507716579E+01  0.17171797133E+02  0.64606590792E+01  0.72461574272E+02  0.70000005182E+02 0.  0.
        -12    1    1    2    0    0 -0.37507716579E+01 -0.17171797133E+02 -0.64606590792E+01  0.18726425728E+02  0.00000000000E+00 0.  1.
         11    1    3    3    0    0  0.50216595041E+00  0.27661856337E+02  0.34060768561E+01  0.27875290608E+02  0.51100000000E-03 0. -1.
        -11    1    3    3    0    0 -0.38679518401E+00  0.13852004791E+02 -0.96521991927E+01  0.16887646277E+02  0.51100000000E-03 0.  1.
         12    1    3    3    0    0  0.36354008915E+01 -0.24342063996E+02  0.12706781416E+02  0.27698637388E+02  0.00000000000E+00 0. -1.
</event>
<event>
 7    1  0.2489154E-013  0.7246158E+02  0.7816164E-02  0.1226708E+00
        -11   -1    0    0    0    0  0.00000000000E+00  0.00000000000E+00  0.45593999997E+02  0.45594000000E+02  0.51100000000E-03 0.  1.
         11   -1    0    0    0    0 -0.00000000000E+00 -0.00000000000E+00 -0.45593999997E+02  0.45594000000E+02  0.51100000000E-03 0. -1.
    9900012    2    1    2    0    0  0.15528263689E+02  0.93719520535E+01 -0.46602883296E+01  0.72461581608E+02  0.70000014738E+02 0.  0.
        -12    1    1    2    0    0 -0.15528263689E+02 -0.93719520535E+01  0.46602883296E+01  0.18726418392E+02  0.00000000000E+00 0.  1.
         11    1    3    3    0    0  0.31460312386E+02 -0.65672229725E+01 -0.22151248782E+02  0.39032774637E+02  0.51100000000E-03 0. -1.
        -11    1    3    3    0    0  0.93591681092E+00  0.10356545073E+02  0.89264880540E+01  0.13704603437E+02  0.51100000000E-03 0.  1.
        -12    1    3    3    0    0 -0.16867965508E+02  0.55826299525E+01  0.85644723982E+01  0.19724203533E+02  0.00000000000E+00 0.  1.
</event>
<event>
 7    1  0.2489154E-013  0.7246150E+02  0.7816164E-02  0.1226708E+00
        -11   -1    0    0    0    0  0.00000000000E+00  0.00000000000E+00  0.45593999997E+02  0.45594000000E+02  0.51100000000E-03 0.  1.
         11   -1    0    0    0    0 -0.00000000000E+00 -0.00000000000E+00 -0.45593999997E+02  0.45594000000E+02  0.51100000000E-03 0. -1.
    9900012    2    1    2    0    0 -0.10954819367E+02  0.13370181691E+02 -0.72050052500E+01  0.72461496683E+02  0.69999904108E+02 0.  0.
        -12    1    1    2    0    0  0.10954819367E+02 -0.13370181691E+02  0.72050052500E+01  0.18726503317E+02  0.00000000000E+00 0.  1.
         11    1    3    3    0    0  0.22741446782E+01  0.19069496081E+01  0.67348431313E+01  0.73597760217E+01  0.51100000000E-03 0. -1.
        -11    1    3    3    0    0 -0.17924771841E+02 -0.15695975117E+02  0.12502322287E+02  0.26906674697E+02  0.51100000000E-03 0.  1.
         12    1    3    3    0    0  0.46958077961E+01  0.27159207200E+02 -0.26442170668E+02  0.38195045965E+02  0.00000000000E+00 0. -1.
</event>
<event>
 7    1  0.2489154E-013  0.7246150E+02  0.7816164E-02  0.1226708E+00
        -11   -1    0    0    0    0  0.00000000000E+00  0.00000000000E+00  0.45593999997E+02  0.45594000000E+02  0.51100000000E-03 0.  1.
         11   -1    0    0    0    0 -0.00000000000E+00 -0.00000000000E+00 -0.45593999997E+02  0.45594000000E+02  0.51100000000E-03 0. -1.
    9900012    2    1    2    0    0  0.11073370929E+02 -0.14921613652E+02  0.23254256503E+01  0.72461502672E+02  0.69999911909E+02 0.  0.
        -12    1    1    2    0    0 -0.11073370929E+02  0.14921613652E+02 -0.23254256503E+01  0.18726497328E+02  0.00000000000E+00 0.  1.
         11    1    3    3    0    0  0.42130492416E+00  0.14896118006E+02  0.23574170143E+01  0.15087386942E+02  0.51100000000E-03 0. -1.
        -11    1    3    3    0    0  0.72201518119E+01 -0.26921884713E+02  0.21611296543E+02  0.35269910791E+02  0.51100000000E-03 0.  1.
         12    1    3    3    0    0  0.34319141929E+01 -0.28958469449E+01 -0.21643287907E+02  0.22104204939E+02  0.00000000000E+00 0. -1.
</event>
<event>
 7    1  0.2489154E-013  0.7246159E+02  0.7816164E-02  0.1226708E+00
        -11   -1    0    0    0    0  0.00000000000E+00  0.00000000000E+00  0.45593999997E+02  0.45594000000E+02  0.51100000000E-03 0.  1.
         11   -1    0    0    0    0 -0.00000000000E+00 -0.00000000000E+00 -0.45593999997E+02  0.45594000000E+02  0.51100000000E-03 0. -1.
    9900012    2    1    2    0    0  0.45065448276E+01  0.64726529009E+00 -0.18164536237E+02  0.72461594169E+02  0.70000031101E+02 0.  0.
        -12    1    1    2    0    0 -0.45065448276E+01 -0.64726529009E+00  0.18164536237E+02  0.18726405831E+02  0.00000000000E+00 0.  1.
         11    1    3    3    0    0 -0.90989639939E+01  0.26443966890E+01  0.92345021819E-01  0.94758908539E+01  0.51100000000E-03 0. -1.
        -11    1    3    3    0    0 -0.19166098193E+02 -0.13645217160E+02 -0.15333673656E+02  0.28082963151E+02  0.51100000000E-03 0.  1.
         12    1    3    3    0    0  0.32771607015E+02  0.11648085761E+02 -0.29232076030E+01  0.34902740164E+02  0.00000000000E+00 0. -1.
</event>
<event>
 7    1  0.2489154E-013  0.7246172E+02  0.7816164E-02  0.1226708E+00
        -11   -1    0    0    0    0  0.00000000000E+00  0.00000000000E+00  0.45593999997E+02  0.45594000000E+02  0.51100000000E-03 0.  1.
         11   -1    0    0    0    0 -0.00000000000E+00 -0.00000000000E+00 -0.45593999997E+02  0.45594000000E+02  0.51100000000E-03 0. -1.
    9900012    2    1    2    0    0  0.13787597121E+02  0.85599619004E+01 -0.93436003024E+01  0.72461717702E+02  0.70000192025E+02 0.  0.
        -12    1    1    2    0    0 -0.13787597121E+02 -0.85599619004E+01  0.93436003024E+01  0.18726282298E+02  0.00000000000E+00 0.  1.
         11    1    3    3    0    0  0.83539196022E+01 -0.89656343499E+01  0.14976196000E+02  0.19350891941E+02  0.51100000000E-03 0.  1.
        -11    1    3    3    0    0 -0.19007333948E+02  0.53534326667E+01 -0.12405866817E+02  0.23320452759E+02  0.51100000000E-03 0. -1.
         12    1    3    3    0    0  0.24441011467E+02  0.12172163584E+02 -0.11913929485E+02  0.29790373002E+02  0.00000000000E+00 0. -1.
</event>
<event>
 7    1  0.2489154E-013  0.7246159E+02  0.7816164E-02  0.1226708E+00
        -11   -1    0    0    0    0  0.00000000000E+00  0.00000000000E+00  0.45593999997E+02  0.45594000000E+02  0.51100000000E-03 0.  1.
         11   -1    0    0    0    0 -0.00000000000E+00 -0.00000000000E+00 -0.45593999997E+02  0.45594000000E+02  0.51100000000E-03 0. -1.
    9900012    2    1    2    0    0  0.18205312470E+02  0.26964571150E+01 -0.34603891612E+01  0.72461586135E+02  0.70000020635E+02 0.  0.
        -12    1    1    2    0    0 -0.18205312470E+02 -0.26964571150E+01  0.34603891612E+01  0.18726413865E+02  0.00000000000E+00 0.  1.
         11    1    3    3    0    0 -0.61105072633E+00  0.22138671534E+01 -0.17337603729E+01  0.28775885833E+01  0.51100000000E-03 0. -1.
        -11    1    3    3    0    0 -0.14243594429E+02 -0.24186029427E+02  0.21628638166E+01  0.28151766940E+02  0.51100000000E-03 0.  1.
         12    1    3    3    0    0  0.33059957625E+02  0.24668619388E+02 -0.38894926049E+01  0.41432230611E+02  0.00000000000E+00 0. -1.
</event>
<event>
 7    1  0.2489154E-013  0.7246151E+02  0.7816164E-02  0.1226708E+00
        -11   -1    0    0    0    0  0.00000000000E+00  0.00000000000E+00  0.45593999997E+02  0.45594000000E+02  0.51100000000E-03 0.  1.
         11   -1    0    0    0    0 -0.00000000000E+00 -0.00000000000E+00 -0.45593999997E+02  0.45594000000E+02  0.51100000000E-03 0. -1.
    9900012    2    1    2    0    0 -0.11181282276E+02  0.10760801028E+02 -0.10481683654E+02  0.72461505285E+02  0.69999915313E+02 0.  0.
        -12    1    1    2    0    0  0.11181282276E+02 -0.10760801028E+02  0.10481683654E+02  0.18726494715E+02  0.00000000000E+00 0.  1.
         11    1    3    3    0    0  0.14001307588E+02  0.17983024094E+01 -0.86721056884E+01  0.16567314902E+02  0.51100000000E-03 0. -1.
        -11    1    3    3    0    0 -0.10578339468E+02 -0.19553140282E+02 -0.72795659484E+01  0.23392704877E+02  0.51100000000E-03 0.  1.
        -12    1    3    3    0    0 -0.14604250396E+02  0.28515638901E+02  0.54699879828E+01  0.32501485506E+02  0.00000000000E+00 0.  1.
</event>
<event>
 7    1  0.2489154E-013  0.7246159E+02  0.7816164E-02  0.1226708E+00
        -11   -1    0    0    0    0  0.00000000000E+00  0.00000000000E+00  0.45593999997E+02  0.45594000000E+02  0.51100000000E-03 0. -1.
         11   -1    0    0    0    0 -0.00000000000E+00 -0.00000000000E+00 -0.45593999997E+02  0.45594000000E+02  0.51100000000E-03 0.  1.
    9900012    2    1    2    0    0  0.61424269660E+01 -0.71119208383E+01  0.16197822901E+02  0.72461593677E+02  0.70000030460E+02 0.  0.
        -12    1    1    2    0    0 -0.61424269660E+01  0.71119208383E+01 -0.16197822901E+02  0.18726406323E+02  0.00000000000E+00 0.  1.
         11    1    3    3    0    0  0.20706858343E+02  0.13035047521E+02 -0.13829701277E+02  0.28105997296E+02  0.51100000000E-03 0. -1.
        -11    1    3    3    0    0 -0.76469839801E+01 -0.41246064797E+01 -0.10111637668E+01  0.87470677961E+01  0.51100000000E-03 0.  1.
         12    1    3    3    0    0 -0.69174473970E+01 -0.16022361879E+02  0.31038687945E+02  0.35608528585E+02  0.00000000000E+00 0. -1.
</event>
<event>
 7    1  0.2489154E-013  0.7246157E+02  0.7816164E-02  0.1226708E+00
        -11   -1    0    0    0    0  0.00000000000E+00  0.00000000000E+00  0.45593999997E+02  0.45594000000E+02  0.51100000000E-03 0.  1.
         11   -1    0    0    0    0 -0.00000000000E+00 -0.00000000000E+00 -0.45593999997E+02  0.45594000000E+02  0.51100000000E-03 0. -1.
    9900012    2    1    2    0    0 -0.64410625737E+01 -0.89431413955E-01 -0.17583623742E+02  0.72461571912E+02  0.70000002107E+02 0.  0.
        -12    1    1    2    0    0  0.64410625737E+01  0.89431413955E-01  0.17583623742E+02  0.18726428088E+02  0.00000000000E+00 0.  1.
         11    1    3    3    0    0  0.86104487797E+01 -0.85289347842E+00 -0.41305001020E+01  0.95879240103E+01  0.51100000000E-03 0. -1.
        -11    1    3    3    0    0  0.70609021088E+01  0.97772742228E+01  0.19047007843E+02  0.22544177472E+02  0.51100000000E-03 0.  1.
        -12    1    3    3    0    0 -0.22112413462E+02 -0.90138121584E+01 -0.32500131483E+02  0.40329470430E+02  0.00000000000E+00 0.  1.
</event>
<event>
 7    1  0.2489154E-013  0.7246194E+02  0.7816164E-02  0.1226707E+00
        -11   -1    0    0    0    0  0.00000000000E+00  0.00000000000E+00  0.45593999997E+02  0.45594000000E+02  0.51100000000E-03 0. -1.
         11   -1    0    0    0    0 -0.00000000000E+00 -0.00000000000E+00 -0.45593999997E+02  0.45594000000E+02  0.51100000000E-03 0.  1.
    9900012    2    1    2    0    0  0.84597495930E+01 -0.11166040288E+02  0.12426489739E+02  0.72461936182E+02  0.70000476635E+02 0.  0.
        -12    1    1    2    0    0 -0.84597495930E+01  0.11166040288E+02 -0.12426489739E+02  0.18726063818E+02  0.00000000000E+00 0.  1.
         11    1    3    3    0    0 -0.39613484172E+01 -0.80835799358E+01 -0.99024706729E+01  0.13382655624E+02  0.51100000000E-03 0. -1.
        -11    1    3    3    0    0  0.20068242755E+02 -0.89233673792E+01 -0.10876003394E+02  0.24508127279E+02  0.51100000000E-03 0.  1.
         12    1    3    3    0    0 -0.76471447445E+01  0.58409070273E+01  0.33204963806E+02  0.34571153279E+02  0.00000000000E+00 0. -1.
</event>
<event>
 7    1  0.2489154E-013  0.7246132E+02  0.7816164E-02  0.1226709E+00
        -11   -1    0    0    0    0  0.00000000000E+00  0.00000000000E+00  0.45593999997E+02  0.45594000000E+02  0.51100000000E-03 0.  1.
         11   -1    0    0    0    0 -0.00000000000E+00 -0.00000000000E+00 -0.45593999997E+02  0.45594000000E+02  0.51100000000E-03 0. -1.
    9900012    2    1    2    0    0 -0.21762751680E+01  0.18387549886E+02  0.28018748959E+01  0.72461316702E+02  0.69999669648E+02 0.  0.
        -12    1    1    2    0    0  0.21762751680E+01 -0.18387549886E+02 -0.28018748959E+01  0.18726683298E+02  0.00000000000E+00 0.  1.
         11    1    3    3    0    0 -0.18667213549E+01  0.22768163561E+02 -0.20509469714E+02  0.30700362682E+02  0.51100000000E-03 0. -1.
        -11    1    3    3    0    0  0.15028662339E+01  0.15036897090E+02  0.11115761940E+02  0.18759718675E+02  0.51100000000E-03 0.  1.
         12    1    3    3    0    0 -0.18124200469E+01 -0.19417510765E+02  0.12195582670E+02  0.23001235345E+02  0.00000000000E+00 0. -1.
</event>
<event>
 7    1  0.2489154E-013  0.7246161E+02  0.7816164E-02  0.1226708E+00
        -11   -1    0    0    0    0  0.00000000000E+00  0.00000000000E+00  0.45593999997E+02  0.45594000000E+02  0.51100000000E-03 0. -1.
         11   -1    0    0    0    0 -0.00000000000E+00 -0.00000000000E+00 -0.45593999997E+02  0.45594000000E+02  0.51100000000E-03 0.  1.
    9900012    2    1    2    0    0  0.14772621998E+02 -0.45148975552E+01  0.10585985300E+02  0.72461608319E+02  0.70000049534E+02 0.  0.
        -12    1    1    2    0    0 -0.14772621998E+02  0.45148975552E+01 -0.10585985300E+02  0.18726391681E+02  0.00000000000E+00 0.  1.
         11    1    3    3    0    0  0.10700675260E+02 -0.49333171739E+01  0.79524706732E+01  0.14215620262E+02  0.51100000000E-03 0. -1.
        -11    1    3    3    0    0  0.23444515669E+02 -0.16569928765E+02 -0.88420485323E+01  0.30039801543E+02  0.51100000000E-03 0.  1.
         12    1    3    3    0    0 -0.19372568931E+02  0.16988348384E+02  0.11475563159E+02  0.28206186514E+02  0.00000000000E+00 0. -1.
</event>
<event>
 7    1  0.2489154E-013  0.7246155E+02  0.7816164E-02  0.1226708E+00
        -11   -1    0    0    0    0  0.00000000000E+00  0.00000000000E+00  0.45593999997E+02  0.45594000000E+02  0.51100000000E-03 0.  1.
         11   -1    0    0    0    0 -0.00000000000E+00 -0.00000000000E+00 -0.45593999997E+02  0.45594000000E+02  0.51100000000E-03 0. -1.
    9900012    2    1    2    0    0  0.16107634792E+02  0.34491692123E+01 -0.89065943547E+01  0.72461545721E+02  0.69999967989E+02 0.  0.
        -12    1    1    2    0    0 -0.16107634792E+02 -0.34491692123E+01  0.89065943547E+01  0.18726454279E+02  0.00000000000E+00 0.  1.
         11    1    3    3    0    0  0.63625388723E+01 -0.12459847284E+02 -0.24901753029E+02  0.28562685438E+02  0.51100000000E-03 0. -1.
        -11    1    3    3    0    0  0.30421539108E+01 -0.23091259693E+01 -0.10431473293E+02  0.11108663217E+02  0.51100000000E-03 0.  1.
        -12    1    3    3    0    0  0.67029420090E+01  0.18218142466E+02  0.26426631967E+02  0.32790197066E+02  0.00000000000E+00 0.  1.
</event>
<event>
 7    1  0.2489154E-013  0.7246143E+02  0.7816164E-02  0.1226708E+00
        -11   -1    0    0    0    0  0.00000000000E+00  0.00000000000E+00  0.45593999997E+02  0.45594000000E+02  0.51100000000E-03 0. -1.
         11   -1    0    0    0    0 -0.00000000000E+00 -0.00000000000E+00 -0.45593999997E+02  0.45594000000E+02  0.51100000000E-03 0.  1.
    9900012    2    1    2    0    0  0.87441404804E+01 -0.13530583081E+02  0.95471306886E+01  0.72461431290E+02  0.69999818921E+02 0.  0.
        -12    1    1    2    0    0 -0.87441404804E+01  0.13530583081E+02 -0.95471306886E+01  0.18726568710E+02  0.00000000000E+00 0.  1.
         11    1    3    3    0    0  0.77074409278E+01 -0.15773926066E+01  0.36169296738E+01  0.86588101733E+01  0.51100000000E-03 0. -1.
        -11    1    3    3    0    0  0.89295835235E+01 -0.21146149093E+02 -0.22965044552E+02  0.32469837617E+02  0.51100000000E-03 0.  1.
         12    1    3    3    0    0 -0.78928839708E+01  0.91929586183E+01  0.28895245566E+02  0.31332783500E+02  0.00000000000E+00 0. -1.
</event>
<event>
 7    1  0.2489154E-013  0.7246153E+02  0.7816164E-02  0.1226708E+00
        -11   -1    0    0    0    0  0.00000000000E+00  0.00000000000E+00  0.45593999997E+02  0.45594000000E+02  0.51100000000E-03 0. -1.
         11   -1    0    0    0    0 -0.00000000000E+00 -0.00000000000E+00 -0.45593999997E+02  0.45594000000E+02  0.51100000000E-03 0.  1.
    9900012    2    1    2    0    0 -0.10314510308E+02  0.90010117637E+01  0.12777842846E+02  0.72461532008E+02  0.69999950124E+02 0.  0.
        -12    1    1    2    0    0  0.10314510308E+02 -0.90010117637E+01 -0.12777842846E+02  0.18726467992E+02  0.00000000000E+00 0.  1.
         11    1    3    3    0    0 -0.11763269247E+00  0.58455203774E+01 -0.40640146581E+01  0.71204045767E+01  0.51100000000E-03 0.  1.
        -11    1    3    3    0    0 -0.20175779653E+02  0.38065827486E+01  0.37295612006E+02  0.42573640107E+02  0.51100000000E-03 0. -1.
         12    1    3    3    0    0  0.99789020376E+01 -0.65109136232E+00 -0.20453754501E+02  0.22767487324E+02  0.00000000000E+00 0. -1.
</event>
<event>
 7    1  0.2489154E-013  0.7246156E+02  0.7816164E-02  0.1226708E+00
        -11   -1    0    0    0    0  0.00000000000E+00  0.00000000000E+00  0.45593999997E+02  0.45594000000E+02  0.51100000000E-03 0.  1.
         11   -1    0    0    0    0 -0.00000000000E+00 -0.00000000000E+00 -0.45593999997E+02  0.45594000000E+02  0.51100000000E-03 0. -1.
    9900012    2    1    2    0    0 -0.88556984608E+00  0.62214511719E+01 -0.17640549143E+02  0.72461557127E+02  0.69999982847E+02 0.  0.
        -12    1    1    2    0    0  0.88556984608E+00 -0.62214511719E+01  0.17640549143E+02  0.18726442873E+02  0.00000000000E+00 0.  1.
         11    1    3    3    0    0  0.11478508871E+02  0.27510658816E+02 -0.71462497449E+01  0.30653896980E+02  0.51100000000E-03 0. -1.
        -11    1    3    3    0    0 -0.73411876795E+01  0.63882993197E+01  0.35602875286E+01  0.10362386419E+02  0.51100000000E-03 0.  1.
        -12    1    3    3    0    0 -0.50228910376E+01 -0.27677506964E+02 -0.14054586926E+02  0.31445273727E+02  0.00000000000E+00 0.  1.
</event>
<event>
 7    1  0.2489154E-013  0.7246159E+02  0.7816164E-02  0.1226708E+00
        -11   -1    0    0    0    0  0.00000000000E+00  0.00000000000E+00  0.45593999997E+02  0.45594000000E+02  0.51100000000E-03 0.  1.
         11   -1    0    0    0    0 -0.00000000000E+00 -0.00000000000E+00 -0.45593999997E+02  0.45594000000E+02  0.51100000000E-03 0. -1.
    9900012    2    1    2    0    0 -0.16692277809E+02 -0.54558656673E+01 -0.65023006913E+01  0.72461587559E+02  0.70000022490E+02 0.  0.
        -12    1    1    2    0    0  0.16692277809E+02  0.54558656673E+01  0.65023006913E+01  0.18726412441E+02  0.00000000000E+00 0.  1.
         11    1    3    3    0    0 -0.18634329507E+02  0.67229151792E+01  0.32303134325E+01  0.20071640437E+02  0.51100000000E-03 0. -1.
        -11    1    3    3    0    0  0.15590663340E+02  0.99956935533E+01  0.87261121866E+01  0.20472608704E+02  0.51100000000E-03 0.  1.
         12    1    3    3    0    0 -0.13648611643E+02 -0.22174474400E+02 -0.18458726310E+02  0.31917338418E+02  0.00000000000E+00 0. -1.
</event>
<event>
 7    1  0.2489154E-013  0.7246158E+02  0.7816164E-02  0.1226708E+00
        -11   -1    0    0    0    0  0.00000000000E+00  0.00000000000E+00  0.45593999997E+02  0.45594000000E+02  0.51100000000E-03 0.  1.
         11   -1    0    0    0    0 -0.00000000000E+00 -0.00000000000E+00 -0.45593999997E+02  0.45594000000E+02  0.51100000000E-03 0. -1.
    9900012    2    1    2    0    0 -0.16367111124E+02 -0.28278339608E+01 -0.86486896695E+01  0.72461580042E+02  0.70000012698E+02 0.  0.
        -12    1    1    2    0    0  0.16367111124E+02  0.28278339608E+01  0.86486896695E+01  0.18726419958E+02  0.00000000000E+00 0.  1.
         11    1    3    3    0    0 -0.15272532820E+02 -0.56885782175E+00 -0.16203284081E+02  0.22273757502E+02  0.51100000000E-03 0. -1.
        -11    1    3    3    0    0 -0.16822444235E+02  0.55534223345E+01 -0.13860252051E+02  0.22493148220E+02  0.51100000000E-03 0.  1.
        -12    1    3    3    0    0  0.15727865931E+02 -0.78123984735E+01  0.21414846463E+02  0.27694674320E+02  0.00000000000E+00 0.  1.
</event>
<event>
 7    1  0.2489154E-013  0.7246127E+02  0.7816164E-02  0.1226709E+00
        -11   -1    0    0    0    0  0.00000000000E+00  0.00000000000E+00  0.45593999997E+02  0.45594000000E+02  0.51100000000E-03 0. -1.
         11   -1    0    0    0    0 -0.00000000000E+00 -0.00000000000E+00 -0.45593999997E+02  0.45594000000E+02  0.51100000000E-03 0.  1.
    9900012    2    1    2    0    0 -0.39330150931E+01  0.11746731494E+02  0.14044074645E+02  0.72461272012E+02  0.69999611430E+02 0.  0.
        -12    1    1    2    0    0  0.39330150931E+01 -0.11746731494E+02 -0.14044074645E+02  0.18726727988E+02  0.00000000000E+00 0.  1.
         11    1    3    3    0    0 -0.16682740601E+02  0.10559837550E+01 -0.61665403236E+01  0.17817271269E+02  0.51100000000E-03 0. -1.
        -11    1    3    3    0    0  0.21478841277E+01 -0.13022118596E+02  0.24963606186E+02  0.28237751558E+02  0.51100000000E-03 0.  1.
         12    1    3    3    0    0  0.10601841381E+02  0.23712866335E+02 -0.47529912175E+01  0.26406249185E+02  0.00000000000E+00 0. -1.
</event>
<event>
 7    1  0.2489154E-013  0.7246217E+02  0.7816164E-02  0.1226706E+00
        -11   -1    0    0    0    0  0.00000000000E+00  0.00000000000E+00  0.45593999997E+02  0.45594000000E+02  0.51100000000E-03 0.  1.
         11   -1    0    0    0    0 -0.00000000000E+00 -0.00000000000E+00 -0.45593999997E+02  0.45594000000E+02  0.51100000000E-03 0. -1.
    9900012    2    1    2    0    0 -0.31271909228E+01 -0.15668386912E+02  0.97662251656E+01  0.72462166895E+02  0.70000777179E+02 0.  0.
        -12    1    1    2    0    0  0.31271909228E+01  0.15668386912E+02 -0.97662251656E+01  0.18725833105E+02  0.00000000000E+00 0.  1.
         11    1    3    3    0    0  0.17837765411E+01  0.16848809721E+02  0.13133633026E+02  0.21437270453E+02  0.51100000000E-03 0. -1.
        -11    1    3    3    0    0  0.10476001862E+02  0.30963266965E+01 -0.53807845216E+01  0.12177302507E+02  0.51100000000E-03 0.  1.
        -12    1    3    3    0    0 -0.15386969326E+02 -0.35613523329E+02  0.20133766609E+01  0.38847593935E+02  0.00000000000E+00 0.  1.
</event>
<event>
 7    1  0.2489154E-013  0.7246157E+02  0.7816164E-02  0.1226708E+00
        -11   -1    0    0    0    0  0.00000000000E+00  0.00000000000E+00  0.45593999997E+02  0.45594000000E+02  0.51100000000E-03 0.  1.
         11   -1    0    0    0    0 -0.00000000000E+00 -0.00000000000E+00 -0.45593999997E+02  0.45594000000E+02  0.51100000000E-03 0. -1.
    9900012    2    1    2    0    0  0.17745179417E+00  0.17912929294E+02 -0.54566239719E+01  0.72461567607E+02  0.69999996499E+02 0.  0.
        -12    1    1    2    0    0 -0.17745179417E+00 -0.17912929294E+02  0.54566239719E+01  0.18726432393E+02  0.00000000000E+00 0.  1.
         11    1    3    3    0    0 -0.21004763593E+02  0.60024403827E+01 -0.12081096717E+02  0.24963619175E+02  0.51100000000E-03 0. -1.
        -11    1    3    3    0    0  0.36834920397E+00 -0.13811102911E+02  0.35664632154E+01  0.14268913935E+02  0.51100000000E-03 0.  1.
         12    1    3    3    0    0  0.20813866183E+02  0.25721591822E+02  0.30580095299E+01  0.33229034497E+02  0.00000000000E+00 0. -1.
</event>
<event>
 7    1  0.2489154E-013  0.7246156E+02  0.7816164E-02  0.1226708E+00
        -11   -1    0    0    0    0  0.00000000000E+00  0.00000000000E+00  0.45593999997E+02  0.45594000000E+02  0.51100000000E-03 0.  1.
         11   -1    0    0    0    0 -0.00000000000E+00 -0.00000000000E+00 -0.45593999997E+02  0.45594000000E+02  0.51100000000E-03 0. -1.
    9900012    2    1    2    0    0 -0.11923225513E+02  0.43202255601E+01 -0.13778672920E+02  0.72461561925E+02  0.69999989097E+02 0.  0.
        -12    1    1    2    0    0  0.11923225513E+02 -0.43202255601E+01  0.13778672920E+02  0.18726438075E+02  0.00000000000E+00 0.  1.
         11    1    3    3    0    0 -0.52465604165E+01  0.64593111153E+01  0.42887386962E+01  0.93617506992E+01  0.51100000000E-03 0. -1.
        -11    1    3    3    0    0  0.25099569954E+02 -0.10672687048E+02 -0.51700020552E+01  0.27760107749E+02  0.51100000000E-03 0.  1.
         12    1    3    3    0    0 -0.31776235051E+02  0.85336014927E+01 -0.12897409561E+02  0.35339703477E+02  0.00000000000E+00 0. -1.
</event>
<event>
 7    1  0.2489154E-013  0.7246157E+02  0.7816164E-02  0.1226708E+00
        -11   -1    0    0    0    0  0.00000000000E+00  0.00000000000E+00  0.45593999997E+02  0.45594000000E+02  0.51100000000E-03 0. -1.
         11   -1    0    0    0    0 -0.00000000000E+00 -0.00000000000E+00 -0.45593999997E+02  0.45594000000E+02  0.51100000000E-03 0.  1.
    9900012    2    1    2    0    0 -0.13425516052E+02  0.10321010372E+02  0.79944706999E+01  0.72461566860E+02  0.69999995527E+02 0.  0.
        -12    1    1    2    0    0  0.13425516052E+02 -0.10321010372E+02 -0.79944706999E+01  0.18726433140E+02  0.00000000000E+00 0.  1.
         11    1    3    3    0    0  0.65656113521E+01  0.29146044019E+02  0.10518054515E+02  0.31673784198E+02  0.51100000000E-03 0. -1.
        -11    1    3    3    0    0  0.23786259599E+00  0.55624784563E+01 -0.68293077344E+01  0.88111968304E+01  0.51100000000E-03 0.  1.
         12    1    3    3    0    0 -0.20228990000E+02 -0.24387512103E+02  0.43057239194E+01  0.31976585832E+02  0.00000000000E+00 0. -1.
</event>
<event>
 7    1  0.2489154E-013  0.7246166E+02  0.7816164E-02  0.1226708E+00
        -11   -1    0    0    0    0  0.00000000000E+00  0.00000000000E+00  0.45593999997E+02  0.45594000000E+02  0.51100000000E-03 0. -1.
         11   -1    0    0    0    0 -0.00000000000E+00 -0.00000000000E+00 -0.45593999997E+02  0.45594000000E+02  0.51100000000E-03 0.  1.
    9900012    2    1    2    0    0  0.12906045172E+01 -0.14164883971E+02  0.12180567172E+02  0.72461659873E+02  0.70000116693E+02 0.  0.
        -12    1    1    2    0    0 -0.12906045172E+01  0.14164883971E+02 -0.12180567172E+02  0.18726340127E+02  0.00000000000E+00 0.  1.
         11    1    3    3    0    0  0.58385407019E+01 -0.55945397230E+01  0.37535370656E+02  0.38396503522E+02  0.51100000000E-03 0. -1.
        -11    1    3    3    0    0  0.27321570544E+01 -0.45769847963E+00  0.27604878225E+01  0.39108136426E+01  0.51100000000E-03 0.  1.
        -12    1    3    3    0    0 -0.72800932390E+01 -0.81126457680E+01 -0.28115291306E+02  0.30154342708E+02  0.00000000000E+00 0.  1.
</event>
<event>
 7    1  0.2489154E-013  0.7246162E+02  0.7816164E-02  0.1226708E+00
        -11   -1    0    0    0    0  0.00000000000E+00  0.00000000000E+00  0.45593999997E+02  0.45594000000E+02  0.51100000000E-03 0.  1.
         11   -1    0    0    0    0 -0.00000000000E+00 -0.00000000000E+00 -0.45593999997E+02  0.45594000000E+02  0.51100000000E-03 0. -1.
    9900012    2    1    2    0    0  0.31985370464E+01 -0.17389073585E+02  0.61698383380E+01  0.72461616887E+02  0.70000060696E+02 0.  0.
        -12    1    1    2    0    0 -0.31985370464E+01  0.17389073585E+02 -0.61698383380E+01  0.18726383113E+02  0.00000000000E+00 0.  1.
         11    1    3    3    0    0 -0.10487014893E+00 -0.91731152647E+00  0.15867702885E+02  0.15894541620E+02  0.51100000000E-03 0. -1.
        -11    1    3    3    0    0 -0.13908905008E+02 -0.18188502741E+02  0.14291883359E+02  0.26991428282E+02  0.51100000000E-03 0.  1.
         12    1    3    3    0    0  0.17212312203E+02  0.17167406830E+01 -0.23989747907E+02  0.29575646985E+02  0.00000000000E+00 0. -1.
</event>
<event>
 7    1  0.2489154E-013  0.7246170E+02  0.7816164E-02  0.1226708E+00
        -11   -1    0    0    0    0  0.00000000000E+00  0.00000000000E+00  0.45593999997E+02  0.45594000000E+02  0.51100000000E-03 0.  1.
         11   -1    0    0    0    0 -0.00000000000E+00 -0.00000000000E+00 -0.45593999997E+02  0.45594000000E+02  0.51100000000E-03 0. -1.
    9900012    2    1    2    0    0 -0.35396463591E+01 -0.67073583763E+01 -0.17121816918E+02  0.72461698515E+02  0.70000167030E+02 0.  0.
        -12    1    1    2    0    0  0.35396463591E+01  0.67073583763E+01  0.17121816918E+02  0.18726301485E+02  0.00000000000E+00 0.  1.
         11    1    3    3    0    0 -0.12980395024E+02  0.72852146546E+01 -0.38519757844E+01  0.15375393499E+02  0.51100000000E-03 0. -1.
        -11    1    3    3    0    0  0.22478942485E+02  0.11380263868E+02  0.94683994341E+00  0.25213285528E+02  0.51100000000E-03 0.  1.
         12    1    3    3    0    0 -0.13038193820E+02 -0.25372836899E+02 -0.14216681077E+02  0.31873019488E+02  0.00000000000E+00 0. -1.
</event>
<event>
 7    1  0.2489154E-013  0.7246164E+02  0.7816164E-02  0.1226708E+00
        -11   -1    0    0    0    0  0.00000000000E+00  0.00000000000E+00  0.45593999997E+02  0.45594000000E+02  0.51100000000E-03 0. -1.
         11   -1    0    0    0    0 -0.00000000000E+00 -0.00000000000E+00 -0.45593999997E+02  0.45594000000E+02  0.51100000000E-03 0.  1.
    9900012    2    1    2    0    0 -0.66529741028E+01 -0.52171774218E+01  0.16709148705E+02  0.72461637430E+02  0.70000087457E+02 0.  0.
        -12    1    1    2    0    0  0.66529741028E+01  0.52171774218E+01 -0.16709148705E+02  0.18726362570E+02  0.00000000000E+00 0.  1.
         11    1    3    3    0    0  0.10647495486E+02  0.72649188359E+01  0.12711774069E+02  0.18103519162E+02  0.51100000000E-03 0. -1.
        -11    1    3    3    0    0 -0.34121679405E+01  0.16824820401E+02  0.12010590837E+02  0.20951653016E+02  0.51100000000E-03 0.  1.
        -12    1    3    3    0    0 -0.13888301648E+02 -0.29306916659E+02 -0.80132162017E+01  0.33406465252E+02  0.00000000000E+00 0.  1.
</event>
<event>
 7    1  0.2489154E-013  0.7246154E+02  0.7816164E-02  0.1226708E+00
        -11   -1    0    0    0    0  0.00000000000E+00  0.00000000000E+00  0.45593999997E+02  0.45594000000E+02  0.51100000000E-03 0.  1.
         11   -1    0    0    0    0 -0.00000000000E+00 -0.00000000000E+00 -0.45593999997E+02  0.45594000000E+02  0.51100000000E-03 0. -1.
    9900012    2    1    2    0    0  0.31494259098E+01  0.12186415832E+02 -0.13865520211E+02  0.72461541042E+02  0.69999961893E+02 0.  0.
        -12    1    1    2    0    0 -0.31494259098E+01 -0.12186415832E+02  0.13865520211E+02  0.18726458958E+02  0.00000000000E+00 0.  1.
         11    1    3    3    0    0 -0.42448866744E+01 -0.31572790038E+00  0.20081362074E+02  0.20527538820E+02  0.51100000000E-03 0. -1.
        -11    1    3    3    0    0  0.11904252100E+02  0.68609000448E+01  0.31867177511E+01  0.14104550250E+02  0.51100000000E-03 0.  1.
         12    1    3    3    0    0 -0.45099395154E+01  0.56412436874E+01 -0.37133600037E+02  0.37829451971E+02  0.00000000000E+00 0. -1.
</event>
<event>
 7    1  0.2489154E-013  0.7246185E+02  0.7816164E-02  0.1226707E+00
        -11   -1    0    0    0    0  0.00000000000E+00  0.00000000000E+00  0.45593999997E+02  0.45594000000E+02  0.51100000000E-03 0.  1.
         11   -1    0    0    0    0 -0.00000000000E+00 -0.00000000000E+00 -0.45593999997E+02  0.45594000000E+02  0.51100000000E-03 0. -1.
    9900012    2    1    2    0    0  0.40613348942E+01 -0.17982175443E+02 -0.32887188336E+01  0.72461848598E+02  0.70000362541E+02 0.  0.
        -12    1    1    2    0    0 -0.40613348942E+01  0.17982175443E+02  0.32887188336E+01  0.18726151402E+02  0.00000000000E+00 0.  1.
         11    1    3    3    0    0 -0.28448070310E+01  0.55157651592E+01  0.33788625373E+01  0.70663501641E+01  0.51100000000E-03 0. -1.
        -11    1    3    3    0    0 -0.89318251544E+01  0.17384547445E+02  0.47013888002E+01  0.20102314478E+02  0.51100000000E-03 0.  1.
        -12    1    3    3    0    0  0.15837967080E+02 -0.40882488047E+02 -0.11368970171E+02  0.45293183956E+02  0.00000000000E+00 0.  1.
</event>
<event>
 7    1  0.2489154E-013  0.7246157E+02  0.7816164E-02  0.1226708E+00
        -11   -1    0    0    0    0  0.00000000000E+00  0.00000000000E+00  0.45593999997E+02  0.45594000000E+02  0.51100000000E-03 0. -1.
         11   -1    0    0    0    0 -0.00000000000E+00 -0.00000000000E+00 -0.45593999997E+02  0.45594000000E+02  0.51100000000E-03 0.  1.
    9900012    2    1    2    0    0  0.15565275542E+00 -0.16448676634E+02  0.89496467034E+01  0.72461565024E+02  0.69999993134E+02 0.  0.
        -12    1    1    2    0    0 -0.15565275542E+00  0.16448676634E+02 -0.89496467034E+01  0.18726434976E+02  0.00000000000E+00 0.  1.
         11    1    3    3    0    0  0.95654086957E+01 -0.11192935761E-01 -0.26257084045E+02  0.27945153991E+02  0.51100000000E-03 0. -1.
        -11    1    3    3    0    0  0.47773174357E-01  0.35985530511E+01  0.95502001024E+00  0.37234298461E+01  0.51100000000E-03 0.  1.
         12    1    3    3    0    0 -0.94575291147E+01 -0.20036036750E+02  0.34251710738E+02  0.40792981186E+02  0.00000000000E+00 0. -1.
</event>
<event>
 7    1  0.2489154E-013  0.7246154E+02  0.7816164E-02  0.1226708E+00
        -11   -1    0    0    0    0  0.00000000000E+00  0.00000000000E+00  0.45593999997E+02  0.45594000000E+02  0.51100000000E-03 0.  1.
         11   -1    0    0    0    0 -0.00000000000E+00 -0.00000000000E+00 -0.45593999997E+02  0.45594000000E+02  0.51100000000E-03 0. -1.
    9900012    2    1    2    0    0  0.27240032126E+01 -0.18451845389E+02 -0.16701965618E+01  0.72461538820E+02  0.69999958999E+02 0.  0.
        -12    1    1    2    0    0 -0.27240032126E+01  0.18451845389E+02  0.16701965618E+01  0.18726461180E+02  0.00000000000E+00 0.  1.
         11    1    3    3    0    0  0.67407163433E+01 -0.15106123196E+02  0.45891081995E+01  0.17166599231E+02  0.51100000000E-03 0. -1.
        -11    1    3    3    0    0 -0.16881944377E+02  0.68305870639E+01  0.18263511570E+02  0.25791720003E+02  0.51100000000E-03 0.  1.
         12    1    3    3    0    0  0.12865231247E+02 -0.10176309257E+02 -0.24522816331E+02  0.29503219586E+02  0.00000000000E+00 0. -1.
</event>
<event>
 7    1  0.2489154E-013  0.7246155E+02  0.7816164E-02  0.1226708E+00
        -11   -1    0    0    0    0  0.00000000000E+00  0.00000000000E+00  0.45593999997E+02  0.45594000000E+02  0.51100000000E-03 0. -1.
         11   -1    0    0    0    0 -0.00000000000E+00 -0.00000000000E+00 -0.45593999997E+02  0.45594000000E+02  0.51100000000E-03 0.  1.
    9900012    2    1    2    0    0 -0.13534956508E+02  0.23862819261E+00  0.12939388438E+02  0.72461554415E+02  0.69999979314E+02 0.  0.
        -12    1    1    2    0    0  0.13534956508E+02 -0.23862819261E+00 -0.12939388438E+02  0.18726445585E+02  0.00000000000E+00 0.  1.
         11    1    3    3    0    0  0.79481482477E+01  0.25259130367E+02 -0.31324910541E+01  0.26664756288E+02  0.51100000000E-03 0. -1.
        -11    1    3    3    0    0 -0.13345139495E+02  0.81650404157E+00  0.12803758254E+02  0.18512040748E+02  0.51100000000E-03 0.  1.
        -12    1    3    3    0    0 -0.81379652615E+01 -0.25837006215E+02  0.32681212380E+01  0.27284757378E+02  0.00000000000E+00 0.  1.
</event>
<event>
 7    1  0.2489154E-013  0.7246154E+02  0.7816164E-02  0.1226708E+00
        -11   -1    0    0    0    0  0.00000000000E+00  0.00000000000E+00  0.45593999997E+02  0.45594000000E+02  0.51100000000E-03 0.  1.
         11   -1    0    0    0    0 -0.00000000000E+00 -0.00000000000E+00 -0.45593999997E+02  0.45594000000E+02  0.51100000000E-03 0. -1.
    9900012    2    1    2    0    0  0.45383631249E+01 -0.12584713707E+02 -0.13103764318E+02  0.72461537487E+02  0.69999957263E+02 0.  0.
        -12    1    1    2    0    0 -0.45383631249E+01  0.12584713707E+02  0.13103764318E+02  0.18726462513E+02  0.00000000000E+00 0.  1.
         11    1    3    3    0    0 -0.20785265983E+02  0.87228014483E+01 -0.20396318128E+01  0.22633485045E+02  0.51100000000E-03 0. -1.
        -11    1    3    3    0    0 -0.11585464031E+01 -0.50131967218E+01 -0.17357424509E+02  0.18103992846E+02  0.51100000000E-03 0.  1.
        -12    1    3    3    0    0  0.26482175511E+02 -0.16294318433E+02  0.62932920038E+01  0.31724059596E+02  0.00000000000E+00 0.  1.
</event>
<event>
 7    1  0.2489154E-013  0.7246158E+02  0.7816164E-02  0.1226708E+00
        -11   -1    0    0    0    0  0.00000000000E+00  0.00000000000E+00  0.45593999997E+02  0.45594000000E+02  0.51100000000E-03 0.  1.
         11   -1    0    0    0    0 -0.00000000000E+00 -0.00000000000E+00 -0.45593999997E+02  0.45594000000E+02  0.51100000000E-03 0. -1.
    9900012    2    1    2    0    0 -0.25534105859E+01  0.63564734795E+01 -0.17428539787E+02  0.72461583904E+02  0.70000017729E+02 0.  0.
        -12    1    1    2    0    0  0.25534105859E+01 -0.63564734795E+01  0.17428539787E+02  0.18726416096E+02  0.00000000000E+00 0.  1.
         11    1    3    3    0    0 -0.62385376211E+01 -0.11542890589E+02 -0.34261287492E+02  0.36687784011E+02  0.51100000000E-03 0. -1.
        -11    1    3    3    0    0 -0.47590968968E+01 -0.38717477378E+01  0.94803092322E+01  0.11292284854E+02  0.51100000000E-03 0.  1.
        -12    1    3    3    0    0  0.84442239319E+01  0.21771111806E+02  0.73524384731E+01  0.24481515039E+02  0.00000000000E+00 0.  1.
</event>
<event>
 7    1  0.2489154E-013  0.7246155E+02  0.7816164E-02  0.1226708E+00
        -11   -1    0    0    0    0  0.00000000000E+00  0.00000000000E+00  0.45593999997E+02  0.45594000000E+02  0.51100000000E-03 0.  1.
         11   -1    0    0    0    0 -0.00000000000E+00 -0.00000000000E+00 -0.45593999997E+02  0.45594000000E+02  0.51100000000E-03 0. -1.
    9900012    2    1    2    0    0 -0.11421628520E+02  0.12520660934E+02  0.79661291520E+01  0.72461554476E+02  0.69999979394E+02 0.  0.
        -12    1    1    2    0    0  0.11421628520E+02 -0.12520660934E+02 -0.79661291520E+01  0.18726445524E+02  0.00000000000E+00 0.  1.
         11    1    3    3    0    0  0.98251380062E+01  0.16440766882E+02  0.49655992597E+01  0.19786089274E+02  0.51100000000E-03 0.  1.
        -11    1    3    3    0    0 -0.14804858740E+02  0.14314534031E+02  0.18661019540E+02  0.27790706672E+02  0.51100000000E-03 0. -1.
         12    1    3    3    0    0 -0.64419077866E+01 -0.18234639979E+02 -0.15660489647E+02  0.24884758530E+02  0.00000000000E+00 0. -1.
</event>
<event>
 7    1  0.2489154E-013  0.7246156E+02  0.7816164E-02  0.1226708E+00
        -11   -1    0    0    0    0  0.00000000000E+00  0.00000000000E+00  0.45593999997E+02  0.45594000000E+02  0.51100000000E-03 0. -1.
         11   -1    0    0    0    0 -0.00000000000E+00 -0.00000000000E+00 -0.45593999997E+02  0.45594000000E+02  0.51100000000E-03 0.  1.
    9900012    2    1    2    0    0  0.70368163041E+00  0.56000586725E+01  0.17855640751E+02  0.72461555286E+02  0.69999980449E+02 0.  0.
        -12    1    1    2    0    0 -0.70368163041E+00 -0.56000586725E+01 -0.17855640751E+02  0.18726444714E+02  0.00000000000E+00 0.  1.
         11    1    3    3    0    0  0.33138167473E+02  0.59067708522E+01  0.90895385809E+01  0.34866141129E+02  0.51100000000E-03 0. -1.
        -11    1    3    3    0    0 -0.67664561668E+01  0.52469998769E+01 -0.26446275135E+01  0.89615842189E+01  0.51100000000E-03 0.  1.
        -12    1    3    3    0    0 -0.25668029675E+02 -0.55537120566E+01  0.11410729684E+02  0.28633829939E+02  0.00000000000E+00 0.  1.
</event>
<event>
 7    1  0.2489154E-013  0.7246147E+02  0.7816164E-02  0.1226708E+00
        -11   -1    0    0    0    0  0.00000000000E+00  0.00000000000E+00  0.45593999997E+02  0.45594000000E+02  0.51100000000E-03 0.  1.
         11   -1    0    0    0    0 -0.00000000000E+00 -0.00000000000E+00 -0.45593999997E+02  0.45594000000E+02  0.51100000000E-03 0. -1.
    9900012    2    1    2    0    0  0.50301061733E+01  0.49227031540E+01 -0.17353618131E+02  0.72461467041E+02  0.69999865493E+02 0.  0.
        -12    1    1    2    0    0 -0.50301061733E+01 -0.49227031540E+01  0.17353618131E+02  0.18726532959E+02  0.00000000000E+00 0.  1.
         11    1    3    3    0    0  0.94973538831E+01 -0.16972987364E+02  0.61102071751E+01  0.20386678563E+02  0.51100000000E-03 0.  1.
        -11    1    3    3    0    0  0.14815096703E+02  0.86982002316E+01 -0.22994849501E+02  0.28703813012E+02  0.51100000000E-03 0. -1.
         12    1    3    3    0    0 -0.19282344413E+02  0.13197490286E+02 -0.46897580470E+00  0.23370975466E+02  0.00000000000E+00 0. -1.
</event>
<event>
 7    1  0.2489154E-013  0.7246162E+02  0.7816164E-02  0.1226708E+00
        -11   -1    0    0    0    0  0.00000000000E+00  0.00000000000E+00  0.45593999997E+02  0.45594000000E+02  0.51100000000E-03 0.  1.
         11   -1    0    0    0    0 -0.00000000000E+00 -0.00000000000E+00 -0.45593999997E+02  0.45594000000E+02  0.51100000000E-03 0. -1.
    9900012    2    1    2    0    0 -0.72079642707E+01  0.15103521488E+02 -0.84027601615E+01  0.72461615176E+02  0.70000058466E+02 0.  0.
        -12    1    1    2    0    0  0.72079642707E+01 -0.15103521488E+02  0.84027601615E+01  0.18726384824E+02  0.00000000000E+00 0.  1.
         11    1    3    3    0    0 -0.23573353197E+01  0.14781457140E+02 -0.25106825551E+02  0.29230141883E+02  0.51100000000E-03 0. -1.
        -11    1    3    3    0    0  0.95948426685E+01 -0.15471145944E+02  0.52024247442E+01  0.18933636369E+02  0.51100000000E-03 0.  1.
         12    1    3    3    0    0 -0.14445471620E+02  0.15793210292E+02  0.11501640645E+02  0.24297836924E+02  0.00000000000E+00 0. -1.
</event>
<event>
 7    1  0.2489154E-013  0.7246166E+02  0.7816164E-02  0.1226708E+00
        -11   -1    0    0    0    0  0.00000000000E+00  0.00000000000E+00  0.45593999997E+02  0.45594000000E+02  0.51100000000E-03 0.  1.
         11   -1    0    0    0    0 -0.00000000000E+00 -0.00000000000E+00 -0.45593999997E+02  0.45594000000E+02  0.51100000000E-03 0. -1.
    9900012    2    1    2    0    0 -0.13938451648E+02 -0.12415899681E+02 -0.14969506203E+01  0.72461658649E+02  0.70000115098E+02 0.  0.
        -12    1    1    2    0    0  0.13938451648E+02  0.12415899681E+02  0.14969506203E+01  0.18726341351E+02  0.00000000000E+00 0.  1.
         11    1    3    3    0    0 -0.89813787098E+01  0.58679593433E+01 -0.54319148661E+01  0.12025132422E+02  0.51100000000E-03 0. -1.
        -11    1    3    3    0    0 -0.24696946364E+02 -0.24575015208E+02  0.13819400305E+02  0.37481280091E+02  0.51100000000E-03 0.  1.
         12    1    3    3    0    0  0.19739873425E+02  0.62911561840E+01 -0.98844360595E+01  0.22955246136E+02  0.00000000000E+00 0. -1.
</event>
<event>
 7    1  0.2489154E-013  0.7246161E+02  0.7816164E-02  0.1226708E+00
        -11   -1    0    0    0    0  0.00000000000E+00  0.00000000000E+00  0.45593999997E+02  0.45594000000E+02  0.51100000000E-03 0. -1.
         11   -1    0    0    0    0 -0.00000000000E+00 -0.00000000000E+00 -0.45593999997E+02  0.45594000000E+02  0.51100000000E-03 0.  1.
    9900012    2    1    2    0    0 -0.22606253251E+01  0.15599927324E+02  0.10109864621E+02  0.72461614283E+02  0.70000057303E+02 0.  0.
        -12    1    1    2    0    0  0.22606253251E+01 -0.15599927324E+02 -0.10109864621E+02  0.18726385717E+02  0.00000000000E+00 0.  1.
         11    1    3    3    0    0 -0.27614129395E+02 -0.13042930504E+01  0.85479544713E+01  0.28936289474E+02  0.51100000000E-03 0. -1.
        -11    1    3    3    0    0  0.69252077370E+01 -0.25574067302E+00  0.13864525153E+02  0.15499966563E+02  0.51100000000E-03 0.  1.
        -12    1    3    3    0    0  0.18428296333E+02  0.17159961047E+02 -0.12302615003E+02  0.28025358246E+02  0.00000000000E+00 0.  1.
</event>
<event>
 7    1  0.2489154E-013  0.7246155E+02  0.7816164E-02  0.1226708E+00
        -11   -1    0    0    0    0  0.00000000000E+00  0.00000000000E+00  0.45593999997E+02  0.45594000000E+02  0.51100000000E-03 0. -1.
         11   -1    0    0    0    0 -0.00000000000E+00 -0.00000000000E+00 -0.45593999997E+02  0.45594000000E+02  0.51100000000E-03 0.  1.
    9900012    2    1    2    0    0 -0.10430266974E+02 -0.10137912603E+02 -0.11794583633E+02  0.72461549611E+02  0.69999973056E+02 0.  0.
        -12    1    1    2    0    0  0.10430266974E+02  0.10137912603E+02  0.11794583633E+02  0.18726450389E+02  0.00000000000E+00 0.  1.
         11    1    3    3    0    0 -0.93413586118E+01 -0.30778917425E+01  0.19733735060E+01  0.10031380840E+02  0.51100000000E-03 0. -1.
        -11    1    3    3    0    0 -0.26110810198E+02 -0.12911069255E+02  0.63285832814E+01  0.29808070805E+02  0.51100000000E-03 0.  1.
         12    1    3    3    0    0  0.25021901836E+02  0.58510483945E+01 -0.20096540420E+02  0.32622097966E+02  0.00000000000E+00 0. -1.
</event>
<event>
 7    1  0.2489154E-013  0.7246160E+02  0.7816164E-02  0.1226708E+00
        -11   -1    0    0    0    0  0.00000000000E+00  0.00000000000E+00  0.45593999997E+02  0.45594000000E+02  0.51100000000E-03 0. -1.
         11   -1    0    0    0    0 -0.00000000000E+00 -0.00000000000E+00 -0.45593999997E+02  0.45594000000E+02  0.51100000000E-03 0.  1.
    9900012    2    1    2    0    0  0.10106899213E+02 -0.15762457267E+02  0.27112292722E+00  0.72461602097E+02  0.70000041428E+02 0.  0.
        -12    1    1    2    0    0 -0.10106899213E+02  0.15762457267E+02 -0.27112292722E+00  0.18726397903E+02  0.00000000000E+00 0.  1.
         11    1    3    3    0    0  0.79286831983E+01 -0.19225332591E+02  0.24218455602E+02  0.31921952048E+02  0.51100000000E-03 0. -1.
        -11    1    3    3    0    0  0.16277505127E+02  0.53296675606E+00 -0.56135553456E+01  0.17226526945E+02  0.51100000000E-03 0.  1.
        -12    1    3    3    0    0 -0.14099289112E+02  0.29299085679E+01 -0.18333777330E+02  0.23313123104E+02  0.00000000000E+00 0.  1.
</event>
<event>
 7    1  0.2489154E-013  0.7246157E+02  0.7816164E-02  0.1226708E+00
        -11   -1    0    0    0    0  0.00000000000E+00  0.00000000000E+00  0.45593999997E+02  0.45594000000E+02  0.51100000000E-03 0.  1.
         11   -1    0    0    0    0 -0.00000000000E+00 -0.00000000000E+00 -0.45593999997E+02  0.45594000000E+02  0.51100000000E-03 0. -1.
    9900012    2    1    2    0    0 -0.14528792525E+02  0.95802151411E+01  0.69146739815E+01  0.72461573468E+02  0.70000004135E+02 0.  0.
        -12    1    1    2    0    0  0.14528792525E+02 -0.95802151411E+01 -0.69146739815E+01  0.18726426532E+02  0.00000000000E+00 0.  1.
         11    1    3    3    0    0  0.28207410343E+01  0.32321476065E+01 -0.30929794858E+01  0.52886558305E+01  0.51100000000E-03 0. -1.
        -11    1    3    3    0    0  0.11059325663E+01  0.25129583142E+02  0.26152465282E+02  0.36285954256E+02  0.51100000000E-03 0.  1.
         12    1    3    3    0    0 -0.18455466125E+02 -0.18781515607E+02 -0.16144811814E+02  0.30886963381E+02  0.00000000000E+00 0. -1.
</event>
<event>
 7    1  0.2489154E-013  0.7246157E+02  0.7816164E-02  0.1226708E+00
        -11   -1    0    0    0    0  0.00000000000E+00  0.00000000000E+00  0.45593999997E+02  0.45594000000E+02  0.51100000000E-03 0.  1.
         11   -1    0    0    0    0 -0.00000000000E+00 -0.00000000000E+00 -0.45593999997E+02  0.45594000000E+02  0.51100000000E-03 0. -1.
    9900012    2    1    2    0    0 -0.73497366005E+01 -0.16088702788E+02 -0.61493228247E+01  0.72461570636E+02  0.70000000446E+02 0.  0.
        -12    1    1    2    0    0  0.73497366005E+01  0.16088702788E+02  0.61493228247E+01  0.18726429364E+02  0.00000000000E+00 0.  1.
         11    1    3    3    0    0  0.18127938183E+02 -0.17850824066E+02 -0.48558019883E+01  0.25900827705E+02  0.51100000000E-03 0. -1.
        -11    1    3    3    0    0  0.65193100722E+00  0.15000966177E+02  0.63269415618E+01  0.16293685589E+02  0.51100000000E-03 0.  1.
        -12    1    3    3    0    0 -0.26129605790E+02 -0.13238844899E+02 -0.76204623983E+01  0.30267057342E+02  0.00000000000E+00 0.  1.
</event>
<event>
 7    1  0.2489154E-013  0.7246167E+02  0.7816164E-02  0.1226708E+00
        -11   -1    0    0    0    0  0.00000000000E+00  0.00000000000E+00  0.45593999997E+02  0.45594000000E+02  0.51100000000E-03 0.  1.
         11   -1    0    0    0    0 -0.00000000000E+00 -0.00000000000E+00 -0.45593999997E+02  0.45594000000E+02  0.51100000000E-03 0. -1.
    9900012    2    1    2    0    0 -0.16234639089E+02  0.73844128641E+01 -0.57081078123E+01  0.72461666817E+02  0.70000125738E+02 0.  0.
        -12    1    1    2    0    0  0.16234639089E+02 -0.73844128641E+01  0.57081078123E+01  0.18726333183E+02  0.00000000000E+00 0.  1.
         11    1    3    3    0    0 -0.18705369295E+02 -0.16415514057E+02 -0.17689053823E+02  0.30532975086E+02  0.51100000000E-03 0. -1.
        -11    1    3    3    0    0 -0.11443457462E+02  0.77324356342E+01 -0.50365562506E+01  0.14700686333E+02  0.51100000000E-03 0.  1.
        -12    1    3    3    0    0  0.13914187668E+02  0.16067491287E+02  0.17017502261E+02  0.27228005398E+02  0.00000000000E+00 0.  1.
</event>
<event>
 7    1  0.2489154E-013  0.7246157E+02  0.7816164E-02  0.1226708E+00
        -11   -1    0    0    0    0  0.00000000000E+00  0.00000000000E+00  0.45593999997E+02  0.45594000000E+02  0.51100000000E-03 0.  1.
         11   -1    0    0    0    0 -0.00000000000E+00 -0.00000000000E+00 -0.45593999997E+02  0.45594000000E+02  0.51100000000E-03 0. -1.
    9900012    2    1    2    0    0 -0.15268622690E+02 -0.54855192968E+01 -0.93518621181E+01  0.72461572528E+02  0.70000002910E+02 0.  0.
        -12    1    1    2    0    0  0.15268622690E+02  0.54855192968E+01  0.93518621181E+01  0.18726427472E+02  0.00000000000E+00 0.  1.
         11    1    3    3    0    0 -0.35075363159E+02 -0.13814570960E+02 -0.77282658280E+00  0.37705712203E+02  0.51100000000E-03 0. -1.
        -11    1    3    3    0    0 -0.43590834293E+01 -0.23743033130E+01  0.31086918002E+01  0.58568668702E+01  0.51100000000E-03 0.  1.
        -12    1    3    3    0    0  0.24165823898E+02  0.10703354977E+02 -0.11687727335E+02  0.28898993455E+02  0.00000000000E+00 0.  1.
</event>
<event>
 7    1  0.2489154E-013  0.7246157E+02  0.7816164E-02  0.1226708E+00
        -11   -1    0    0    0    0  0.00000000000E+00  0.00000000000E+00  0.45593999997E+02  0.45594000000E+02  0.51100000000E-03 0.  1.
         11   -1    0    0    0    0 -0.00000000000E+00 -0.00000000000E+00 -0.45593999997E+02  0.45594000000E+02  0.51100000000E-03 0. -1.
    9900012    2    1    2    0    0 -0.11876800692E+00 -0.11721648273E+02 -0.14603705037E+02  0.72461565612E+02  0.69999993901E+02 0.  0.
        -12    1    1    2    0    0  0.11876800692E+00  0.11721648273E+02  0.14603705037E+02  0.18726434388E+02  0.00000000000E+00 0.  1.
         11    1    3    3    0    0 -0.42800007650E+00  0.25816126718E+00 -0.33659193549E+02  0.33662904538E+02  0.51100000000E-03 0. -1.
        -11    1    3    3    0    0  0.24703670159E+01 -0.40824488735E+01 -0.86662418918E+01  0.98930708471E+01  0.51100000000E-03 0.  1.
        -12    1    3    3    0    0 -0.21611349463E+01 -0.78973606665E+01  0.27721730404E+02  0.28905590227E+02  0.00000000000E+00 0.  1.
</event>
<event>
 7    1  0.2489154E-013  0.7246168E+02  0.7816164E-02  0.1226708E+00
        -11   -1    0    0    0    0  0.00000000000E+00  0.00000000000E+00  0.45593999997E+02  0.45594000000E+02  0.51100000000E-03 0.  1.
         11   -1    0    0    0    0 -0.00000000000E+00 -0.00000000000E+00 -0.45593999997E+02  0.45594000000E+02  0.51100000000E-03 0. -1.
    9900012    2    1    2    0    0 -0.15366913052E+02 -0.91579111241E+01 -0.55376609523E+01  0.72461680507E+02  0.70000143573E+02 0.  0.
        -12    1    1    2    0    0  0.15366913052E+02  0.91579111241E+01  0.55376609523E+01  0.18726319493E+02  0.00000000000E+00 0.  1.
         11    1    3    3    0    0 -0.12996267765E+01 -0.80287199108E+01 -0.98038235929E+01  0.12738301710E+02  0.51100000000E-03 0. -1.
        -11    1    3    3    0    0 -0.11021280767E+02 -0.28792387167E+02  0.74338842630E+01  0.31713290968E+02  0.51100000000E-03 0.  1.
         12    1    3    3    0    0 -0.30460055093E+01  0.27663195954E+02 -0.31677216224E+01  0.28010087829E+02  0.00000000000E+00 0. -1.
</event>
<event>
 7    1  0.2489154E-013  0.7246157E+02  0.7816164E-02  0.1226708E+00
        -11   -1    0    0    0    0  0.00000000000E+00  0.00000000000E+00  0.45593999997E+02  0.45594000000E+02  0.51100000000E-03 0. -1.
         11   -1    0    0    0    0 -0.00000000000E+00 -0.00000000000E+00 -0.45593999997E+02  0.45594000000E+02  0.51100000000E-03 0.  1.
    9900012    2    1    2    0    0  0.65311760367E+01 -0.28863107501E+01  0.17311614854E+02  0.72461573244E+02  0.70000003843E+02 0.  0.
        -12    1    1    2    0    0 -0.65311760367E+01  0.28863107501E+01 -0.17311614854E+02  0.18726426756E+02  0.00000000000E+00 0.  1.
         11    1    3    3    0    0  0.21319646091E+01 -0.87875410396E+01 -0.14169241320E+02  0.16808734350E+02  0.51100000000E-03 0.  1.
        -11    1    3    3    0    0 -0.35690873668E+01 -0.18658151132E+02  0.19381879859E+02  0.27138943521E+02  0.51100000000E-03 0. -1.
         12    1    3    3    0    0  0.79682987945E+01  0.24559381422E+02  0.12098976315E+02  0.28513895374E+02  0.00000000000E+00 0. -1.
</event>
<event>
 7    1  0.2489154E-013  0.7246173E+02  0.7816164E-02  0.1226708E+00
        -11   -1    0    0    0    0  0.00000000000E+00  0.00000000000E+00  0.45593999997E+02  0.45594000000E+02  0.51100000000E-03 0. -1.
         11   -1    0    0    0    0 -0.00000000000E+00 -0.00000000000E+00 -0.45593999997E+02  0.45594000000E+02  0.51100000000E-03 0.  1.
    9900012    2    1    2    0    0 -0.28983315100E+01 -0.18162089064E+02  0.35229725298E+01  0.72461731280E+02  0.70000209714E+02 0.  0.
        -12    1    1    2    0    0  0.28983315100E+01  0.18162089064E+02 -0.35229725298E+01  0.18726268720E+02  0.00000000000E+00 0.  1.
         11    1    3    3    0    0  0.25283654155E+00  0.66363252263E+01  0.18858831287E+02  0.19994005517E+02  0.51100000000E-03 0. -1.
        -11    1    3    3    0    0  0.55497546097E+01  0.55297513462E+01  0.95001780448E+01  0.12313866546E+02  0.51100000000E-03 0.  1.
        -12    1    3    3    0    0 -0.87009226613E+01 -0.30328165636E+02 -0.24836036802E+02  0.40153859218E+02  0.00000000000E+00 0.  1.
</event>
<event>
 7    1  0.2489154E-013  0.7246159E+02  0.7816164E-02  0.1226708E+00
        -11   -1    0    0    0    0  0.00000000000E+00  0.00000000000E+00  0.45593999997E+02  0.45594000000E+02  0.51100000000E-03 0.  1.
         11   -1    0    0    0    0 -0.00000000000E+00 -0.00000000000E+00 -0.45593999997E+02  0.45594000000E+02  0.51100000000E-03 0. -1.
    9900012    2    1    2    0    0 -0.14192119443E+02  0.92380213425E+01  0.79950778864E+01  0.72461586488E+02  0.70000021096E+02 0.  0.
        -12    1    1    2    0    0  0.14192119443E+02 -0.92380213425E+01 -0.79950778864E+01  0.18726413512E+02  0.00000000000E+00 0.  1.
         11    1    3    3    0    0 -0.21102592008E+02  0.26510567147E+01 -0.83320304714E+01  0.22842290235E+02  0.51100000000E-03 0. -1.
        -11    1    3    3    0    0  0.66952446370E+01 -0.40889609669E+01 -0.14778608484E+02  0.16731801204E+02  0.51100000000E-03 0.  1.
        -12    1    3    3    0    0  0.21522792812E+00  0.10675925595E+02  0.31105716842E+02  0.32887495049E+02  0.00000000000E+00 0.  1.
</event>
<event>
 7    1  0.2489154E-013  0.7246159E+02  0.7816164E-02  0.1226708E+00
        -11   -1    0    0    0    0  0.00000000000E+00  0.00000000000E+00  0.45593999997E+02  0.45594000000E+02  0.51100000000E-03 0.  1.
         11   -1    0    0    0    0 -0.00000000000E+00 -0.00000000000E+00 -0.45593999997E+02  0.45594000000E+02  0.51100000000E-03 0. -1.
    9900012    2    1    2    0    0  0.95562037311E+01  0.14829195499E+02 -0.62811226212E+01  0.72461586294E+02  0.70000020842E+02 0.  0.
        -12    1    1    2    0    0 -0.95562037311E+01 -0.14829195499E+02  0.62811226212E+01  0.18726413706E+02  0.00000000000E+00 0.  1.
         11    1    3    3    0    0 -0.39250825220E+01 -0.10236817943E+02 -0.74564341562E+01  0.13258850817E+02  0.51100000000E-03 0. -1.
        -11    1    3    3    0    0 -0.19699681658E+02  0.12675712839E+02  0.36023812433E+01  0.23700808093E+02  0.51100000000E-03 0.  1.
        -12    1    3    3    0    0  0.33180967911E+02  0.12390300603E+02 -0.24270697083E+01  0.35501927383E+02  0.00000000000E+00 0.  1.
</event>
<event>
 7    1  0.2489154E-013  0.7246158E+02  0.7816164E-02  0.1226708E+00
        -11   -1    0    0    0    0  0.00000000000E+00  0.00000000000E+00  0.45593999997E+02  0.45594000000E+02  0.51100000000E-03 0.  1.
         11   -1    0    0    0    0 -0.00000000000E+00 -0.00000000000E+00 -0.45593999997E+02  0.45594000000E+02  0.51100000000E-03 0. -1.
    9900012    2    1    2    0    0  0.31127875734E+01  0.51602741784E+01 -0.17730226214E+02  0.72461580223E+02  0.70000012933E+02 0.  0.
        -12    1    1    2    0    0 -0.31127875734E+01 -0.51602741784E+01  0.17730226214E+02  0.18726419777E+02  0.00000000000E+00 0.  1.
         11    1    3    3    0    0 -0.83064975213E+01  0.62332229290E+01 -0.36922589154E+02  0.38355293758E+02  0.51100000000E-03 0. -1.
        -11    1    3    3    0    0  0.82106247122E+01  0.11481300134E+02  0.52176143670E+01  0.15048525206E+02  0.51100000000E-03 0.  1.
        -12    1    3    3    0    0  0.32086603826E+01 -0.12554248884E+02  0.13974748573E+02  0.19057761258E+02  0.00000000000E+00 0.  1.
</event>
<event>
 7    1  0.2489154E-013  0.7246155E+02  0.7816164E-02  0.1226708E+00
        -11   -1    0    0    0    0  0.00000000000E+00  0.00000000000E+00  0.45593999997E+02  0.45594000000E+02  0.51100000000E-03 0. -1.
         11   -1    0    0    0    0 -0.00000000000E+00 -0.00000000000E+00 -0.45593999997E+02  0.45594000000E+02  0.51100000000E-03 0.  1.
    9900012    2    1    2    0    0 -0.13474245089E+02 -0.41539710645E+01  0.12323516821E+02  0.72461552842E+02  0.69999977265E+02 0.  0.
        -12    1    1    2    0    0  0.13474245089E+02  0.41539710645E+01 -0.12323516821E+02  0.18726447158E+02  0.00000000000E+00 0.  1.
         11    1    3    3    0    0  0.53297075609E+00  0.23704935171E+01 -0.18277422618E+01  0.30403847418E+01  0.51100000000E-03 0. -1.
        -11    1    3    3    0    0 -0.12137169705E+01  0.19219666009E+02 -0.17952014257E+02  0.26327618322E+02  0.51100000000E-03 0.  1.
         12    1    3    3    0    0 -0.12793498875E+02 -0.25744130590E+02  0.32103273340E+02  0.43093549778E+02  0.00000000000E+00 0. -1.
</event>
<event>
 7    1  0.2489154E-013  0.7246164E+02  0.7816164E-02  0.1226708E+00
        -11   -1    0    0    0    0  0.00000000000E+00  0.00000000000E+00  0.45593999997E+02  0.45594000000E+02  0.51100000000E-03 0. -1.
         11   -1    0    0    0    0 -0.00000000000E+00 -0.00000000000E+00 -0.45593999997E+02  0.45594000000E+02  0.51100000000E-03 0.  1.
    9900012    2    1    2    0    0  0.37144797281E+01 -0.18083051685E+02  0.31436406106E+01  0.72461639056E+02  0.70000089575E+02 0.  0.
        -12    1    1    2    0    0 -0.37144797281E+01  0.18083051685E+02 -0.31436406106E+01  0.18726360944E+02  0.00000000000E+00 0.  1.
         11    1    3    3    0    0  0.24393857293E+02 -0.77087316449E+01  0.46912996079E+01  0.26009481146E+02  0.51100000000E-03 0. -1.
        -11    1    3    3    0    0  0.57699700372E+01 -0.70989826326E+01 -0.14245915747E+02  0.16930275378E+02  0.51100000000E-03 0.  1.
        -12    1    3    3    0    0 -0.26449347603E+02 -0.32753374079E+01  0.12698256750E+02  0.29521882532E+02  0.00000000000E+00 0.  1.
</event>
<event>
 7    1  0.2489154E-013  0.7246156E+02  0.7816164E-02  0.1226708E+00
        -11   -1    0    0    0    0  0.00000000000E+00  0.00000000000E+00  0.45593999997E+02  0.45594000000E+02  0.51100000000E-03 0.  1.
         11   -1    0    0    0    0 -0.00000000000E+00 -0.00000000000E+00 -0.45593999997E+02  0.45594000000E+02  0.51100000000E-03 0. -1.
    9900012    2    1    2    0    0  0.13808780934E+02 -0.10032872624E+02 -0.77031626854E+01  0.72461556682E+02  0.69999982267E+02 0.  0.
        -12    1    1    2    0    0 -0.13808780934E+02  0.10032872624E+02  0.77031626854E+01  0.18726443318E+02  0.00000000000E+00 0.  1.
         11    1    3    3    0    0 -0.12160345392E+02 -0.16539900769E+00 -0.15503374556E+02  0.19704212234E+02  0.51100000000E-03 0. -1.
        -11    1    3    3    0    0  0.12388952161E+02 -0.27353556257E+02  0.49751996607E+01  0.30437736241E+02  0.51100000000E-03 0.  1.
         12    1    3    3    0    0  0.13580174166E+02  0.17486082641E+02  0.28250122098E+01  0.22319608206E+02  0.00000000000E+00 0. -1.
</event>
<event>
 7    1  0.2489154E-013  0.7246155E+02  0.7816164E-02  0.1226708E+00
        -11   -1    0    0    0    0  0.00000000000E+00  0.00000000000E+00  0.45593999997E+02  0.45594000000E+02  0.51100000000E-03 0. -1.
         11   -1    0    0    0    0 -0.00000000000E+00 -0.00000000000E+00 -0.45593999997E+02  0.45594000000E+02  0.51100000000E-03 0.  1.
    9900012    2    1    2    0    0 -0.18252565131E+02  0.39367139289E+01  0.14233749367E+01  0.72461552215E+02  0.69999976448E+02 0.  0.
        -12    1    1    2    0    0  0.18252565131E+02 -0.39367139289E+01 -0.14233749367E+01  0.18726447785E+02  0.00000000000E+00 0.  1.
         11    1    3    3    0    0 -0.14272618545E+02  0.14554302478E+02 -0.52918080110E+01  0.21060355957E+02  0.51100000000E-03 0. -1.
        -11    1    3    3    0    0  0.83534965459E+00  0.12711661550E+02 -0.14641904469E+02  0.19407975555E+02  0.51100000000E-03 0.  1.
         12    1    3    3    0    0 -0.48152962412E+01 -0.23329250099E+02  0.21357087416E+02  0.31993220703E+02  0.00000000000E+00 0. -1.
</event>
<event>
 7    1  0.2489154E-013  0.7246155E+02  0.7816164E-02  0.1226708E+00
        -11   -1    0    0    0    0  0.00000000000E+00  0.00000000000E+00  0.45593999997E+02  0.45594000000E+02  0.51100000000E-03 0. -1.
         11   -1    0    0    0    0 -0.00000000000E+00 -0.00000000000E+00 -0.45593999997E+02  0.45594000000E+02  0.51100000000E-03 0.  1.
    9900012    2    1    2    0    0 -0.90918200906E+01  0.16366929592E+02 -0.37719707297E+00  0.72461552006E+02  0.69999976177E+02 0.  0.
        -12    1    1    2    0    0  0.90918200906E+01 -0.16366929592E+02  0.37719707297E+00  0.18726447994E+02  0.00000000000E+00 0.  1.
         11    1    3    3    0    0 -0.50243580251E+01 -0.22179699688E+02  0.81775538048E-01  0.22741810379E+02  0.51100000000E-03 0. -1.
        -11    1    3    3    0    0  0.11532616195E+02  0.10617978267E+02  0.65185271920E+01  0.16977452571E+02  0.51100000000E-03 0.  1.
        -12    1    3    3    0    0 -0.15600078261E+02  0.27928651013E+02 -0.69774998031E+01  0.32742289057E+02  0.00000000000E+00 0.  1.
</event>
<event>
 7    1  0.2489154E-013  0.7246156E+02  0.7816164E-02  0.1226708E+00
        -11   -1    0    0    0    0  0.00000000000E+00  0.00000000000E+00  0.45593999997E+02  0.45594000000E+02  0.51100000000E-03 0.  1.
         11   -1    0    0    0    0 -0.00000000000E+00 -0.00000000000E+00 -0.45593999997E+02  0.45594000000E+02  0.51100000000E-03 0. -1.
    9900012    2    1    2    0    0  0.27132172172E+01 -0.35126082005E+01 -0.18192839671E+02  0.72461564692E+02  0.69999992702E+02 0.  0.
        -12    1    1    2    0    0 -0.27132172172E+01  0.35126082005E+01  0.18192839671E+02  0.18726435308E+02  0.00000000000E+00 0.  1.
         11    1    3    3    0    0  0.14252952080E+02 -0.19495827405E+01  0.45801247424E+01  0.15097187114E+02  0.51100000000E-03 0. -1.
        -11    1    3    3    0    0 -0.10002254942E+01  0.23841695069E+02 -0.43386527217E+01  0.24253881803E+02  0.51100000000E-03 0.  1.
         12    1    3    3    0    0 -0.10539509368E+02 -0.25404720529E+02 -0.18434311692E+02  0.33110495775E+02  0.00000000000E+00 0. -1.
</event>
<event>
 7    1  0.2796649E-013  0.7246142E+02  0.7816164E-02  0.1226708E+00
        -11   -1    0    0    0    0  0.00000000000E+00  0.00000000000E+00  0.45593999997E+02  0.45594000000E+02  0.51100000000E-03 0. -1.
         11   -1    0    0    0    0 -0.00000000000E+00 -0.00000000000E+00 -0.45593999997E+02  0.45594000000E+02  0.51100000000E-03 0.  1.
    9900012    2    1    2    0    0  0.80433497456E+01 -0.91443107432E+01  0.14225708234E+02  0.72461423461E+02  0.69999808722E+02 0.  0.
        -12    1    1    2    0    0 -0.80433497456E+01  0.91443107432E+01 -0.14225708234E+02  0.18726576539E+02  0.00000000000E+00 0.  1.
         11    1    3    3    0    0  0.59732142537E+01 -0.74950353488E+01 -0.13293226174E+01  0.96758432337E+01  0.51100000000E-03 0. -1.
        -11    1    3    3    0    0  0.10221057123E+02  0.15947686922E+02 -0.16632091678E+02  0.25207641713E+02  0.51100000000E-03 0.  1.
         12    1    3    3    0    0 -0.81509216316E+01 -0.17596962317E+02  0.32187122530E+02  0.37577938514E+02  0.00000000000E+00 0. -1.
</event>
<event>
 7    1  0.2489154E-013  0.7246156E+02  0.7816164E-02  0.1226708E+00
        -11   -1    0    0    0    0  0.00000000000E+00  0.00000000000E+00  0.45593999997E+02  0.45594000000E+02  0.51100000000E-03 0.  1.
         11   -1    0    0    0    0 -0.00000000000E+00 -0.00000000000E+00 -0.45593999997E+02  0.45594000000E+02  0.51100000000E-03 0. -1.
    9900012    2    1    2    0    0  0.11989100036E+02  0.13116510358E+02 -0.59074816289E+01  0.72461556055E+02  0.69999981451E+02 0.  0.
        -12    1    1    2    0    0 -0.11989100036E+02 -0.13116510358E+02  0.59074816289E+01  0.18726443945E+02  0.00000000000E+00 0.  1.
         11    1    3    3    0    0 -0.14355083599E+02  0.86644879094E+01 -0.18851693671E+02  0.25229509119E+02  0.51100000000E-03 0. -1.
        -11    1    3    3    0    0 -0.44417121265E+01  0.11568812976E+02  0.91565163643E+01  0.15408050898E+02  0.51100000000E-03 0.  1.
         12    1    3    3    0    0  0.30785895761E+02 -0.71167905282E+01  0.37876956777E+01  0.31823996038E+02  0.00000000000E+00 0. -1.
</event>
<event>
 7    1  0.2489154E-013  0.7246160E+02  0.7816164E-02  0.1226708E+00
        -11   -1    0    0    0    0  0.00000000000E+00  0.00000000000E+00  0.45593999997E+02  0.45594000000E+02  0.51100000000E-03 0.  1.
         11   -1    0    0    0    0 -0.00000000000E+00 -0.00000000000E+00 -0.45593999997E+02  0.45594000000E+02  0.51100000000E-03 0. -1.
    9900012    2    1    2    0    0 -0.15539779466E+02 -0.60232220779E+01 -0.85389807910E+01  0.72461597702E+02  0.70000035704E+02 0.  0.
        -12    1    1    2    0    0  0.15539779466E+02  0.60232220779E+01  0.85389807910E+01  0.18726402298E+02  0.00000000000E+00 0.  1.
         11    1    3    3    0    0 -0.80757764644E+00 -0.29045991870E+02 -0.13558210941E+02  0.32064729994E+02  0.51100000000E-03 0. -1.
        -11    1    3    3    0    0 -0.26986531532E+01 -0.68112256769E+01  0.36822055269E+01  0.81996440085E+01  0.51100000000E-03 0.  1.
        -12    1    3    3    0    0 -0.12033548667E+02  0.29833995469E+02  0.13370246235E+01  0.32197223700E+02  0.00000000000E+00 0.  1.
</event>
<event>
 7    1  0.2489154E-013  0.7246145E+02  0.7816164E-02  0.1226708E+00
        -11   -1    0    0    0    0  0.00000000000E+00  0.00000000000E+00  0.45593999997E+02  0.45594000000E+02  0.51100000000E-03 0.  1.
         11   -1    0    0    0    0 -0.00000000000E+00 -0.00000000000E+00 -0.45593999997E+02  0.45594000000E+02  0.51100000000E-03 0. -1.
    9900012    2    1    2    0    0 -0.11858784332E+02 -0.13631105506E+02 -0.49239951208E+01  0.72461453839E+02  0.69999848296E+02 0.  0.
        -12    1    1    2    0    0  0.11858784332E+02  0.13631105506E+02  0.49239951208E+01  0.18726546161E+02  0.00000000000E+00 0.  1.
         11    1    3    3    0    0 -0.72299262532E+01 -0.47768953232E+01  0.80232926237E+01  0.11809478707E+02  0.51100000000E-03 0. -1.
        -11    1    3    3    0    0  0.17011691226E+02 -0.21462785155E+02  0.74152694742E+01  0.28373138822E+02  0.51100000000E-03 0.  1.
         12    1    3    3    0    0 -0.21640549304E+02  0.12608574972E+02 -0.20362557219E+02  0.32278836310E+02  0.00000000000E+00 0. -1.
</event>
<event>
 7    1  0.2489154E-013  0.7246140E+02  0.7816164E-02  0.1226708E+00
        -11   -1    0    0    0    0  0.00000000000E+00  0.00000000000E+00  0.45593999997E+02  0.45594000000E+02  0.51100000000E-03 0.  1.
         11   -1    0    0    0    0 -0.00000000000E+00 -0.00000000000E+00 -0.45593999997E+02  0.45594000000E+02  0.51100000000E-03 0. -1.
    9900012    2    1    2    0    0  0.11122589995E+02  0.12810968234E+02 -0.79279709423E+01  0.72461397570E+02  0.69999774995E+02 0.  0.
        -12    1    1    2    0    0 -0.11122589995E+02 -0.12810968234E+02  0.79279709423E+01  0.18726602430E+02  0.00000000000E+00 0.  1.
         11    1    3    3    0    0  0.24133192881E+02  0.28281136748E+02  0.10791523463E+02  0.38712926437E+02  0.51100000000E-03 0. -1.
        -11    1    3    3    0    0  0.14249291236E+01 -0.40002626618E+01  0.30440938955E+01  0.52248475840E+01  0.51100000000E-03 0.  1.
        -12    1    3    3    0    0 -0.14435532010E+02 -0.11469905852E+02 -0.21763588301E+02  0.28523623549E+02  0.00000000000E+00 0.  1.
</event>
<event>
 7    1  0.2489154E-013  0.7246162E+02  0.7816164E-02  0.1226708E+00
        -11   -1    0    0    0    0  0.00000000000E+00  0.00000000000E+00  0.45593999997E+02  0.45594000000E+02  0.51100000000E-03 0.  1.
         11   -1    0    0    0    0 -0.00000000000E+00 -0.00000000000E+00 -0.45593999997E+02  0.45594000000E+02  0.51100000000E-03 0. -1.
    9900012    2    1    2    0    0  0.96707352290E+01  0.15548811881E+02 -0.39228123843E+01  0.72461624809E+02  0.70000071015E+02 0.  0.
        -12    1    1    2    0    0 -0.96707352290E+01 -0.15548811881E+02  0.39228123843E+01  0.18726375191E+02  0.00000000000E+00 0.  1.
         11    1    3    3    0    0  0.10944969514E+02  0.35218954671E+01  0.86789973713E+01  0.14405592698E+02  0.51100000000E-03 0. -1.
        -11    1    3    3    0    0  0.19108860699E+02 -0.13938268620E+02 -0.57896550771E+01  0.24350441383E+02  0.51100000000E-03 0.  1.
        -12    1    3    3    0    0 -0.20383094984E+02  0.25965185035E+02 -0.68121546785E+01  0.33705590729E+02  0.00000000000E+00 0.  1.
</event>
<event>
 7    1  0.2489154E-013  0.7246157E+02  0.7816164E-02  0.1226708E+00
        -11   -1    0    0    0    0  0.00000000000E+00  0.00000000000E+00  0.45593999997E+02  0.45594000000E+02  0.51100000000E-03 0.  1.
         11   -1    0    0    0    0 -0.00000000000E+00 -0.00000000000E+00 -0.45593999997E+02  0.45594000000E+02  0.51100000000E-03 0. -1.
    9900012    2    1    2    0    0  0.15850574363E+02 -0.80138503588E+01 -0.59343656061E+01  0.72461569471E+02  0.69999998928E+02 0.  0.
        -12    1    1    2    0    0 -0.15850574363E+02  0.80138503588E+01  0.59343656061E+01  0.18726430529E+02  0.00000000000E+00 0.  1.
         11    1    3    3    0    0  0.12969373262E+02 -0.99273599176E+01 -0.78364775082E+01  0.18115393944E+02  0.51100000000E-03 0. -1.
        -11    1    3    3    0    0 -0.42499188637E+00 -0.20201981651E+02  0.17784766195E+02  0.26918369000E+02  0.51100000000E-03 0.  1.
         12    1    3    3    0    0  0.33061929875E+01  0.22115491210E+02 -0.15882654293E+02  0.27427806528E+02  0.00000000000E+00 0. -1.
</event>
<event>
 7    1  0.2489154E-013  0.7246160E+02  0.7816164E-02  0.1226708E+00
        -11   -1    0    0    0    0  0.00000000000E+00  0.00000000000E+00  0.45593999997E+02  0.45594000000E+02  0.51100000000E-03 0. -1.
         11   -1    0    0    0    0 -0.00000000000E+00 -0.00000000000E+00 -0.45593999997E+02  0.45594000000E+02  0.51100000000E-03 0.  1.
    9900012    2    1    2    0    0  0.76721710732E+01 -0.13875169039E+02  0.99647141857E+01  0.72461600089E+02  0.70000038813E+02 0.  0.
        -12    1    1    2    0    0 -0.76721710732E+01  0.13875169039E+02 -0.99647141857E+01  0.18726399911E+02  0.00000000000E+00 0.  1.
         11    1    3    3    0    0 -0.14982959861E+02 -0.11967310049E+02  0.13968937082E+02  0.23724181745E+02  0.51100000000E-03 0. -1.
        -11    1    3    3    0    0  0.17974572409E+02 -0.96712717039E+01  0.16546851006E+02  0.26275787869E+02  0.51100000000E-03 0.  1.
        -12    1    3    3    0    0  0.46805585257E+01  0.77634127139E+01 -0.20551073902E+02  0.22461630475E+02  0.00000000000E+00 0.  1.
</event>
<event>
 7    1  0.2489154E-013  0.7246160E+02  0.7816164E-02  0.1226708E+00
        -11   -1    0    0    0    0  0.00000000000E+00  0.00000000000E+00  0.45593999997E+02  0.45594000000E+02  0.51100000000E-03 0. -1.
         11   -1    0    0    0    0 -0.00000000000E+00 -0.00000000000E+00 -0.45593999997E+02  0.45594000000E+02  0.51100000000E-03 0.  1.
    9900012    2    1    2    0    0 -0.11191968478E+02 -0.67418871607E+01  0.13415103700E+02  0.72461595963E+02  0.70000033438E+02 0.  0.
        -12    1    1    2    0    0  0.11191968478E+02  0.67418871607E+01 -0.13415103700E+02  0.18726404037E+02  0.00000000000E+00 0.  1.
         11    1    3    3    0    0 -0.71669183970E+01 -0.26483914890E+02 -0.68341584200E+01  0.28274868502E+02  0.51100000000E-03 0. -1.
        -11    1    3    3    0    0 -0.12786669427E+01  0.21837318408E+02 -0.17249733027E+01  0.21942629687E+02  0.51100000000E-03 0.  1.
         12    1    3    3    0    0 -0.27463831380E+01 -0.20952906791E+01  0.21974235423E+02  0.22244097774E+02  0.00000000000E+00 0. -1.
</event>
<event>
 7    1  0.2489154E-013  0.7246151E+02  0.7816164E-02  0.1226708E+00
        -11   -1    0    0    0    0  0.00000000000E+00  0.00000000000E+00  0.45593999997E+02  0.45594000000E+02  0.51100000000E-03 0. -1.
         11   -1    0    0    0    0 -0.00000000000E+00 -0.00000000000E+00 -0.45593999997E+02  0.45594000000E+02  0.51100000000E-03 0.  1.
    9900012    2    1    2    0    0  0.23211329119E+01 -0.15344536830E+02  0.10480410866E+02  0.72461508592E+02  0.69999919622E+02 0.  0.
        -12    1    1    2    0    0 -0.23211329119E+01  0.15344536830E+02 -0.10480410866E+02  0.18726491408E+02  0.00000000000E+00 0.  1.
         11    1    3    3    0    0  0.93594213265E+00 -0.61986624019E+01 -0.10314987469E+02  0.12070557982E+02  0.51100000000E-03 0.  1.
        -11    1    3    3    0    0 -0.25597895232E+02 -0.15738129988E+01  0.26053555442E+00  0.25647553621E+02  0.51100000000E-03 0. -1.
         12    1    3    3    0    0  0.26983086012E+02 -0.75720614296E+01  0.20534862780E+02  0.34743396990E+02  0.00000000000E+00 0. -1.
</event>
<event>
 7    1  0.2489154E-013  0.7246162E+02  0.7816164E-02  0.1226708E+00
        -11   -1    0    0    0    0  0.00000000000E+00  0.00000000000E+00  0.45593999997E+02  0.45594000000E+02  0.51100000000E-03 0.  1.
         11   -1    0    0    0    0 -0.00000000000E+00 -0.00000000000E+00 -0.45593999997E+02  0.45594000000E+02  0.51100000000E-03 0. -1.
    9900012    2    1    2    0    0 -0.17934840055E+01  0.14601971777E+02  0.11586331758E+02  0.72461621593E+02  0.70000066825E+02 0.  0.
        -12    1    1    2    0    0  0.17934840055E+01 -0.14601971777E+02 -0.11586331758E+02  0.18726378407E+02  0.00000000000E+00 0.  1.
         11    1    3    3    0    0  0.18493127251E+02  0.16736906573E+02  0.40365529880E+01  0.25266847003E+02  0.51100000000E-03 0. -1.
        -11    1    3    3    0    0 -0.77894764806E+01  0.17329959928E+02 -0.65587795571E+01  0.20100274737E+02  0.51100000000E-03 0.  1.
        -12    1    3    3    0    0 -0.12497134776E+02 -0.19464894724E+02  0.14108558327E+02  0.27094499853E+02  0.00000000000E+00 0.  1.
</event>
<event>
 7    1  0.2489154E-013  0.7246133E+02  0.7816164E-02  0.1226709E+00
        -11   -1    0    0    0    0  0.00000000000E+00  0.00000000000E+00  0.45593999997E+02  0.45594000000E+02  0.51100000000E-03 0. -1.
         11   -1    0    0    0    0 -0.00000000000E+00 -0.00000000000E+00 -0.45593999997E+02  0.45594000000E+02  0.51100000000E-03 0.  1.
    9900012    2    1    2    0    0 -0.17192482646E+02  0.54387707869E+01  0.50523819520E+01  0.72461327829E+02  0.69999684143E+02 0.  0.
        -12    1    1    2    0    0  0.17192482646E+02 -0.54387707869E+01 -0.50523819520E+01  0.18726672171E+02  0.00000000000E+00 0.  1.
         11    1    3    3    0    0 -0.24756675010E+02  0.28137678345E+02  0.15441594204E+02  0.40534734883E+02  0.51100000000E-03 0. -1.
        -11    1    3    3    0    0 -0.81785698484E+00  0.18980660927E+01  0.22284296148E+01  0.30393163292E+01  0.51100000000E-03 0.  1.
        -12    1    3    3    0    0  0.83820493483E+01 -0.24596973651E+02 -0.12617641867E+02  0.28887276617E+02  0.00000000000E+00 0.  1.
</event>
<event>
 7    1  0.2489154E-013  0.7246202E+02  0.7816164E-02  0.1226707E+00
        -11   -1    0    0    0    0  0.00000000000E+00  0.00000000000E+00  0.45593999997E+02  0.45594000000E+02  0.51100000000E-03 0. -1.
         11   -1    0    0    0    0 -0.00000000000E+00 -0.00000000000E+00 -0.45593999997E+02  0.45594000000E+02  0.51100000000E-03 0.  1.
    9900012    2    1    2    0    0  0.61812559854E+01 -0.16542171627E+02  0.62298299652E+01  0.72462024749E+02  0.70000592009E+02 0.  0.
        -12    1    1    2    0    0 -0.61812559854E+01  0.16542171627E+02 -0.62298299652E+01  0.18725975251E+02  0.00000000000E+00 0.  1.
         11    1    3    3    0    0  0.74529435648E+01 -0.16064414043E+01  0.88848761558E+01  0.11707606345E+02  0.51100000000E-03 0. -1.
        -11    1    3    3    0    0  0.15571405405E+02 -0.27601960195E+02  0.13252250327E+02  0.34350531465E+02  0.51100000000E-03 0.  1.
        -12    1    3    3    0    0 -0.16843092985E+02  0.12666229972E+02 -0.15907296518E+02  0.26403886939E+02  0.00000000000E+00 0.  1.
</event>
<event>
 7    1  0.2489154E-013  0.7246157E+02  0.7816164E-02  0.1226708E+00
        -11   -1    0    0    0    0  0.00000000000E+00  0.00000000000E+00  0.45593999997E+02  0.45594000000E+02  0.51100000000E-03 0. -1.
         11   -1    0    0    0    0 -0.00000000000E+00 -0.00000000000E+00 -0.45593999997E+02  0.45594000000E+02  0.51100000000E-03 0.  1.
    9900012    2    1    2    0    0  0.15142110193E+02  0.37557084568E+01 -0.10358098517E+02  0.72461573432E+02  0.70000004088E+02 0.  0.
        -12    1    1    2    0    0 -0.15142110193E+02 -0.37557084568E+01  0.10358098517E+02  0.18726426568E+02  0.00000000000E+00 0.  1.
         11    1    3    3    0    0  0.10532790599E+02  0.86364925743E+01  0.12019080459E+02  0.18165543678E+02  0.51100000000E-03 0. -1.
        -11    1    3    3    0    0  0.16976225558E+02  0.16537616724E+02 -0.54286427164E+01  0.24313682631E+02  0.51100000000E-03 0.  1.
        -12    1    3    3    0    0 -0.12366905963E+02 -0.21418400841E+02 -0.16948536259E+02  0.29982347123E+02  0.00000000000E+00 0.  1.
</event>
<event>
 7    1  0.2489154E-013  0.7246114E+02  0.7816164E-02  0.1226709E+00
        -11   -1    0    0    0    0  0.00000000000E+00  0.00000000000E+00  0.45593999997E+02  0.45594000000E+02  0.51100000000E-03 0.  1.
         11   -1    0    0    0    0 -0.00000000000E+00 -0.00000000000E+00 -0.45593999997E+02  0.45594000000E+02  0.51100000000E-03 0. -1.
    9900012    2    1    2    0    0 -0.37741751992E+01 -0.89377846468E+01 -0.16017704163E+02  0.72461141228E+02  0.69999441059E+02 0.  0.
        -12    1    1    2    0    0  0.37741751992E+01  0.89377846468E+01  0.16017704163E+02  0.18726858772E+02  0.00000000000E+00 0.  1.
         11    1    3    3    0    0  0.45222293025E+01  0.40556703653E+01  0.32990947010E+01  0.69125281977E+01  0.51100000000E-03 0. -1.
        -11    1    3    3    0    0  0.15305580224E+02  0.45536885535E+01 -0.30222317118E+02  0.34181651770E+02  0.51100000000E-03 0.  1.
         12    1    3    3    0    0 -0.23601984726E+02 -0.17547143566E+02  0.10905518254E+02  0.31366961260E+02  0.00000000000E+00 0. -1.
</event>
<event>
 7    1  0.2489154E-013  0.7246182E+02  0.7816164E-02  0.1226707E+00
        -11   -1    0    0    0    0  0.00000000000E+00  0.00000000000E+00  0.45593999997E+02  0.45594000000E+02  0.51100000000E-03 0. -1.
         11   -1    0    0    0    0 -0.00000000000E+00 -0.00000000000E+00 -0.45593999997E+02  0.45594000000E+02  0.51100000000E-03 0.  1.
    9900012    2    1    2    0    0 -0.12284065222E+02  0.14072849926E+02 -0.13139199666E+01  0.72461821824E+02  0.70000327663E+02 0.  0.
        -12    1    1    2    0    0  0.12284065222E+02 -0.14072849926E+02  0.13139199666E+01  0.18726178176E+02  0.00000000000E+00 0.  1.
         11    1    3    3    0    0 -0.77249969146E+01 -0.43835752433E+01 -0.50409964132E+01  0.10212881784E+02  0.51100000000E-03 0. -1.
        -11    1    3    3    0    0  0.21263281318E+02 -0.57204992197E+01  0.13142651372E+02  0.25643333034E+02  0.51100000000E-03 0.  1.
         12    1    3    3    0    0 -0.25822349626E+02  0.24176924389E+02 -0.94155749251E+01  0.36605607006E+02  0.00000000000E+00 0. -1.
</event>
<event>
 7    1  0.2489154E-013  0.7246156E+02  0.7816164E-02  0.1226708E+00
        -11   -1    0    0    0    0  0.00000000000E+00  0.00000000000E+00  0.45593999997E+02  0.45594000000E+02  0.51100000000E-03 0.  1.
         11   -1    0    0    0    0 -0.00000000000E+00 -0.00000000000E+00 -0.45593999997E+02  0.45594000000E+02  0.51100000000E-03 0. -1.
    9900012    2    1    2    0    0  0.11764879690E+01 -0.11821952679E+02 -0.14475388628E+02  0.72461559735E+02  0.69999986244E+02 0.  0.
        -12    1    1    2    0    0 -0.11764879690E+01  0.11821952679E+02  0.14475388628E+02  0.18726440265E+02  0.00000000000E+00 0.  1.
         11    1    3    3    0    0  0.16334941379E+02 -0.22930316398E+02 -0.50258710911E+01  0.28598760470E+02  0.51100000000E-03 0. -1.
        -11    1    3    3    0    0  0.30170463482E+00 -0.40843869971E+01  0.12416109614E+02  0.13074135575E+02  0.51100000000E-03 0.  1.
         12    1    3    3    0    0 -0.15460158044E+02  0.15192750716E+02 -0.21865627151E+02  0.30788663689E+02  0.00000000000E+00 0. -1.
</event>
<event>
 7    1  0.2489154E-013  0.7246160E+02  0.7816164E-02  0.1226708E+00
        -11   -1    0    0    0    0  0.00000000000E+00  0.00000000000E+00  0.45593999997E+02  0.45594000000E+02  0.51100000000E-03 0.  1.
         11   -1    0    0    0    0 -0.00000000000E+00 -0.00000000000E+00 -0.45593999997E+02  0.45594000000E+02  0.51100000000E-03 0. -1.
    9900012    2    1    2    0    0  0.13160251505E+02  0.18296643829E+01 -0.13196143245E+02  0.72461599172E+02  0.70000037619E+02 0.  0.
        -12    1    1    2    0    0 -0.13160251505E+02 -0.18296643829E+01  0.13196143245E+02  0.18726400828E+02  0.00000000000E+00 0.  1.
         11    1    3    3    0    0  0.53920592531E+01  0.72831089160E+01  0.39002922197E+01  0.98656098713E+01  0.51100000000E-03 0. -1.
        -11    1    3    3    0    0  0.10441676720E+02  0.25266285724E+02 -0.21347626690E-02  0.27338869981E+02  0.51100000000E-03 0.  1.
         12    1    3    3    0    0 -0.26734844685E+01 -0.30719730257E+02 -0.17094300702E+02  0.35257119320E+02  0.00000000000E+00 0. -1.
</event>
<event>
 7    1  0.2489154E-013  0.7246175E+02  0.7816164E-02  0.1226708E+00
        -11   -1    0    0    0    0  0.00000000000E+00  0.00000000000E+00  0.45593999997E+02  0.45594000000E+02  0.51100000000E-03 0.  1.
         11   -1    0    0    0    0 -0.00000000000E+00 -0.00000000000E+00 -0.45593999997E+02  0.45594000000E+02  0.51100000000E-03 0. -1.
    9900012    2    1    2    0    0  0.11688631786E+01  0.59352188471E+01 -0.17722286289E+02  0.72461748501E+02  0.70000232147E+02 0.  0.
        -12    1    1    2    0    0 -0.11688631786E+01 -0.59352188471E+01  0.17722286289E+02  0.18726251499E+02  0.00000000000E+00 0.  1.
         11    1    3    3    0    0  0.14845583341E+02  0.20668159077E+02 -0.16555085524E+02  0.30358442011E+02  0.51100000000E-03 0. -1.
        -11    1    3    3    0    0  0.12240184079E+02 -0.11572395615E+01  0.27111389043E+01  0.12590138367E+02  0.51100000000E-03 0.  1.
        -12    1    3    3    0    0 -0.25916904241E+02 -0.13575700668E+02 -0.38783396698E+01  0.29513168123E+02  0.00000000000E+00 0.  1.
</event>
<event>
 7    1  0.2489154E-013  0.7246153E+02  0.7816164E-02  0.1226708E+00
        -11   -1    0    0    0    0  0.00000000000E+00  0.00000000000E+00  0.45593999997E+02  0.45594000000E+02  0.51100000000E-03 0. -1.
         11   -1    0    0    0    0 -0.00000000000E+00 -0.00000000000E+00 -0.45593999997E+02  0.45594000000E+02  0.51100000000E-03 0.  1.
    9900012    2    1    2    0    0  0.16769668217E+02  0.32574173321E+01  0.76712437640E+01  0.72461534218E+02  0.69999953004E+02 0.  0.
        -12    1    1    2    0    0 -0.16769668217E+02 -0.32574173321E+01 -0.76712437640E+01  0.18726465782E+02  0.00000000000E+00 0.  1.
         11    1    3    3    0    0  0.82807382820E+01  0.31307041478E+00 -0.16257204913E+02  0.18247338201E+02  0.51100000000E-03 0.  1.
        -11    1    3    3    0    0  0.16474975405E+02 -0.12722317908E+02 -0.40140940443E+01  0.21198941926E+02  0.51100000000E-03 0. -1.
         12    1    3    3    0    0 -0.79860454699E+01  0.15666664825E+02  0.27942542721E+02  0.33015254091E+02  0.00000000000E+00 0. -1.
</event>
<event>
 7    1  0.2489154E-013  0.7246158E+02  0.7816164E-02  0.1226708E+00
        -11   -1    0    0    0    0  0.00000000000E+00  0.00000000000E+00  0.45593999997E+02  0.45594000000E+02  0.51100000000E-03 0. -1.
         11   -1    0    0    0    0 -0.00000000000E+00 -0.00000000000E+00 -0.45593999997E+02  0.45594000000E+02  0.51100000000E-03 0.  1.
    9900012    2    1    2    0    0  0.20117781845E+00 -0.50012770215E+01  0.18045093786E+02  0.72461584056E+02  0.70000017927E+02 0.  0.
        -12    1    1    2    0    0 -0.20117781845E+00  0.50012770215E+01 -0.18045093786E+02  0.18726415944E+02  0.00000000000E+00 0.  1.
         11    1    3    3    0    0  0.19171360311E+01 -0.13353442659E+02  0.12065964992E+02  0.18099098123E+02  0.51100000000E-03 0. -1.
        -11    1    3    3    0    0  0.80822162225E+01  0.29434005113E+02  0.60375764267E+01  0.31114871130E+02  0.51100000000E-03 0.  1.
         12    1    3    3    0    0 -0.97981744351E+01 -0.21081839475E+02 -0.58447633203E-01  0.23247614803E+02  0.00000000000E+00 0. -1.
</event>
<event>
 7    1  0.2489154E-013  0.7246171E+02  0.7816164E-02  0.1226708E+00
        -11   -1    0    0    0    0  0.00000000000E+00  0.00000000000E+00  0.45593999997E+02  0.45594000000E+02  0.51100000000E-03 0.  1.
         11   -1    0    0    0    0 -0.00000000000E+00 -0.00000000000E+00 -0.45593999997E+02  0.45594000000E+02  0.51100000000E-03 0. -1.
    9900012    2    1    2    0    0 -0.65806656344E+01  0.77357779090E+00 -0.17514857409E+02  0.72461713319E+02  0.70000186316E+02 0.  0.
        -12    1    1    2    0    0  0.65806656344E+01 -0.77357779090E+00  0.17514857409E+02  0.18726286681E+02  0.00000000000E+00 0.  1.
         11    1    3    3    0    0 -0.10878361751E+02  0.75807752398E+01 -0.15449388605E+02  0.20359040158E+02  0.51100000000E-03 0. -1.
        -11    1    3    3    0    0 -0.21421032213E+02 -0.90545519684E+01  0.77045691632E+01  0.24499100364E+02  0.51100000000E-03 0.  1.
         12    1    3    3    0    0  0.25718728330E+02  0.22473545195E+01 -0.97700379671E+01  0.27603572797E+02  0.00000000000E+00 0. -1.
</event>
<event>
 7    1  0.2489154E-013  0.7246154E+02  0.7816164E-02  0.1226708E+00
        -11   -1    0    0    0    0  0.00000000000E+00  0.00000000000E+00  0.45593999997E+02  0.45594000000E+02  0.51100000000E-03 0. -1.
         11   -1    0    0    0    0 -0.00000000000E+00 -0.00000000000E+00 -0.45593999997E+02  0.45594000000E+02  0.51100000000E-03 0.  1.
    9900012    2    1    2    0    0 -0.12862078636E+02  0.12088663109E+02  0.62539088879E+01  0.72461542274E+02  0.69999963498E+02 0.  0.
        -12    1    1    2    0    0  0.12862078636E+02 -0.12088663109E+02 -0.62539088879E+01  0.18726457726E+02  0.00000000000E+00 0.  1.
         11    1    3    3    0    0 -0.14370559714E+02 -0.10997086184E+02  0.20164038429E+02  0.27093123427E+02  0.51100000000E-03 0. -1.
        -11    1    3    3    0    0  0.11816084469E+02  0.54376788178E+01  0.81075555086E+01  0.15327121703E+02  0.51100000000E-03 0.  1.
        -12    1    3    3    0    0 -0.10307603391E+02  0.17648070475E+02 -0.22017685049E+02  0.30041297144E+02  0.00000000000E+00 0.  1.
</event>
<event>
 7    1  0.2489154E-013  0.7246154E+02  0.7816164E-02  0.1226708E+00
        -11   -1    0    0    0    0  0.00000000000E+00  0.00000000000E+00  0.45593999997E+02  0.45594000000E+02  0.51100000000E-03 0. -1.
         11   -1    0    0    0    0 -0.00000000000E+00 -0.00000000000E+00 -0.45593999997E+02  0.45594000000E+02  0.51100000000E-03 0.  1.
    9900012    2    1    2    0    0  0.80262425479E+01  0.15185705236E+02  0.74601574435E+01  0.72461543794E+02  0.69999965479E+02 0.  0.
        -12    1    1    2    0    0 -0.80262425479E+01 -0.15185705236E+02 -0.74601574435E+01  0.18726456206E+02  0.00000000000E+00 0.  1.
         11    1    3    3    0    0  0.28412209311E+02  0.26843851597E+02  0.10495146746E+01  0.39101758116E+02  0.51100000000E-03 0. -1.
        -11    1    3    3    0    0  0.32406368061E+01 -0.81821852259E+01  0.86160311838E+00  0.88426377385E+01  0.51100000000E-03 0.  1.
         12    1    3    3    0    0 -0.23626603569E+02 -0.34759611350E+01  0.55490396505E+01  0.24517147939E+02  0.00000000000E+00 0. -1.
</event>
<event>
 7    1  0.2489154E-013  0.7246160E+02  0.7816164E-02  0.1226708E+00
        -11   -1    0    0    0    0  0.00000000000E+00  0.00000000000E+00  0.45593999997E+02  0.45594000000E+02  0.51100000000E-03 0. -1.
         11   -1    0    0    0    0 -0.00000000000E+00 -0.00000000000E+00 -0.45593999997E+02  0.45594000000E+02  0.51100000000E-03 0.  1.
    9900012    2    1    2    0    0 -0.11475972341E+02  0.10596528877E+02 -0.10329257280E+02  0.72461603620E+02  0.70000043413E+02 0.  0.
        -12    1    1    2    0    0  0.11475972341E+02 -0.10596528877E+02  0.10329257280E+02  0.18726396380E+02  0.00000000000E+00 0.  1.
         11    1    3    3    0    0 -0.35922009640E+02 -0.25976606497E+01 -0.39907181540E+01  0.36236231166E+02  0.51100000000E-03 0. -1.
        -11    1    3    3    0    0 -0.21625763192E+01  0.28621134189E+01 -0.67880740789E+01  0.76776545586E+01  0.51100000000E-03 0.  1.
        -12    1    3    3    0    0  0.26608613618E+02  0.10332076108E+02  0.44953495274E+00  0.28547717896E+02  0.00000000000E+00 0.  1.
</event>
<event>
 7    1  0.2489154E-013  0.7246156E+02  0.7816164E-02  0.1226708E+00
        -11   -1    0    0    0    0  0.00000000000E+00  0.00000000000E+00  0.45593999997E+02  0.45594000000E+02  0.51100000000E-03 0. -1.
         11   -1    0    0    0    0 -0.00000000000E+00 -0.00000000000E+00 -0.45593999997E+02  0.45594000000E+02  0.51100000000E-03 0.  1.
    9900012    2    1    2    0    0  0.12093802962E+02  0.13933999418E+02  0.32036103332E+01  0.72461560696E+02  0.69999987496E+02 0.  0.
        -12    1    1    2    0    0 -0.12093802962E+02 -0.13933999418E+02 -0.32036103332E+01  0.18726439304E+02  0.00000000000E+00 0.  1.
         11    1    3    3    0    0  0.14399182027E+02  0.16477712996E+02  0.31389474736E+02  0.38264220796E+02  0.51100000000E-03 0. -1.
        -11    1    3    3    0    0  0.15039176236E+01  0.13767128735E+01  0.23872267195E+01  0.31394200461E+01  0.51100000000E-03 0.  1.
        -12    1    3    3    0    0 -0.38092966894E+01 -0.39204264516E+01 -0.30573091123E+02  0.31057919853E+02  0.00000000000E+00 0.  1.
</event>
<event>
 7    1  0.2489154E-013  0.7246127E+02  0.7816164E-02  0.1226709E+00
        -11   -1    0    0    0    0  0.00000000000E+00  0.00000000000E+00  0.45593999997E+02  0.45594000000E+02  0.51100000000E-03 0.  1.
         11   -1    0    0    0    0 -0.00000000000E+00 -0.00000000000E+00 -0.45593999997E+02  0.45594000000E+02  0.51100000000E-03 0. -1.
    9900012    2    1    2    0    0 -0.14924686464E+02  0.36675294772E+01 -0.10700166327E+02  0.72461265155E+02  0.69999602498E+02 0.  0.
        -12    1    1    2    0    0  0.14924686464E+02 -0.36675294772E+01  0.10700166327E+02  0.18726734845E+02  0.00000000000E+00 0.  1.
         11    1    3    3    0    0 -0.20784717985E+02 -0.15083242857E+01 -0.46155505018E+01  0.21344386863E+02  0.51100000000E-03 0. -1.
        -11    1    3    3    0    0 -0.12275895676E+02  0.80132136474E+01 -0.22257872567E+02  0.26651868585E+02  0.51100000000E-03 0.  1.
        -12    1    3    3    0    0  0.18135927196E+02 -0.28373598846E+01  0.16173256742E+02  0.24465009708E+02  0.00000000000E+00 0.  1.
</event>
<event>
 7    1  0.2489154E-013  0.7246153E+02  0.7816164E-02  0.1226708E+00
        -11   -1    0    0    0    0  0.00000000000E+00  0.00000000000E+00  0.45593999997E+02  0.45594000000E+02  0.51100000000E-03 0.  1.
         11   -1    0    0    0    0 -0.00000000000E+00 -0.00000000000E+00 -0.45593999997E+02  0.45594000000E+02  0.51100000000E-03 0. -1.
    9900012    2    1    2    0    0 -0.13402695843E+02 -0.11199256121E+02  0.67546328722E+01  0.72461530532E+02  0.69999948202E+02 0.  0.
        -12    1    1    2    0    0  0.13402695843E+02  0.11199256121E+02 -0.67546328722E+01  0.18726469468E+02  0.00000000000E+00 0.  1.
         11    1    3    3    0    0 -0.16603046601E+02  0.46637973404E+01  0.12894739847E+02  0.21533380553E+02  0.51100000000E-03 0. -1.
        -11    1    3    3    0    0 -0.12326686709E+02  0.10317199548E+02  0.73000723335E+01  0.17654542420E+02  0.51100000000E-03 0.  1.
         12    1    3    3    0    0  0.15527037467E+02 -0.26180253009E+02 -0.13440179309E+02  0.33273607559E+02  0.00000000000E+00 0. -1.
</event>
<event>
 7    1  0.2489154E-013  0.7246157E+02  0.7816164E-02  0.1226708E+00
        -11   -1    0    0    0    0  0.00000000000E+00  0.00000000000E+00  0.45593999997E+02  0.45594000000E+02  0.51100000000E-03 0. -1.
         11   -1    0    0    0    0 -0.00000000000E+00 -0.00000000000E+00 -0.45593999997E+02  0.45594000000E+02  0.51100000000E-03 0.  1.
    9900012    2    1    2    0    0  0.61062552270E+01 -0.12476514913E+01  0.17658879183E+02  0.72461574790E+02  0.70000005856E+02 0.  0.
        -12    1    1    2    0    0 -0.61062552270E+01  0.12476514913E+01 -0.17658879183E+02  0.18726425210E+02  0.00000000000E+00 0.  1.
         11    1    3    3    0    0  0.53577747812E+01  0.93058206302E+00  0.22686449865E+02  0.23329096453E+02  0.51100000000E-03 0. -1.
        -11    1    3    3    0    0  0.70510620353E+01  0.16385017145E+02  0.13335361164E+02  0.22271464261E+02  0.51100000000E-03 0.  1.
        -12    1    3    3    0    0 -0.63025815895E+01 -0.18563250700E+02 -0.18362931846E+02  0.26861014076E+02  0.00000000000E+00 0.  1.
</event>
<event>
 7    1  0.2489154E-013  0.7246157E+02  0.7816164E-02  0.1226708E+00
        -11   -1    0    0    0    0  0.00000000000E+00  0.00000000000E+00  0.45593999997E+02  0.45594000000E+02  0.51100000000E-03 0.  1.
         11   -1    0    0    0    0 -0.00000000000E+00 -0.00000000000E+00 -0.45593999997E+02  0.45594000000E+02  0.51100000000E-03 0. -1.
    9900012    2    1    2    0    0 -0.44654971622E+01 -0.18161396259E+02 -0.94982592175E+00  0.72461570862E+02  0.70000000740E+02 0.  0.
        -12    1    1    2    0    0  0.44654971622E+01  0.18161396259E+02  0.94982592175E+00  0.18726429138E+02  0.00000000000E+00 0.  1.
         11    1    3    3    0    0 -0.42333073825E+01 -0.38744326159E+01  0.14094350969E+02  0.15217846397E+02  0.51100000000E-03 0. -1.
        -11    1    3    3    0    0 -0.87502404439E+01 -0.13526803075E+02  0.17387353685E+02  0.23703611068E+02  0.51100000000E-03 0.  1.
         12    1    3    3    0    0  0.85180506643E+01 -0.76016056832E+00 -0.32431530575E+02  0.33540113397E+02  0.00000000000E+00 0. -1.
</event>
<event>
 7    1  0.2489154E-013  0.7246157E+02  0.7816164E-02  0.1226708E+00
        -11   -1    0    0    0    0  0.00000000000E+00  0.00000000000E+00  0.45593999997E+02  0.45594000000E+02  0.51100000000E-03 0.  1.
         11   -1    0    0    0    0 -0.00000000000E+00 -0.00000000000E+00 -0.45593999997E+02  0.45594000000E+02  0.51100000000E-03 0. -1.
    9900012    2    1    2    0    0 -0.23470996008E+01  0.53321462232E+01 -0.17797148303E+02  0.72461570879E+02  0.70000000762E+02 0.  0.
        -12    1    1    2    0    0  0.23470996008E+01 -0.53321462232E+01  0.17797148303E+02  0.18726429121E+02  0.00000000000E+00 0.  1.
         11    1    3    3    0    0 -0.55332453912E+01  0.33442797606E+01  0.80904479552E+01  0.10356464650E+02  0.51100000000E-03 0. -1.
        -11    1    3    3    0    0  0.16822968782E+02  0.12713818362E+01  0.12736061814E+02  0.21138494771E+02  0.51100000000E-03 0.  1.
         12    1    3    3    0    0 -0.13636822991E+02  0.71648462642E+00 -0.38623658072E+02  0.40966611458E+02  0.00000000000E+00 0. -1.
</event>
<event>
 7    1  0.2489154E-013  0.7246150E+02  0.7816164E-02  0.1226708E+00
        -11   -1    0    0    0    0  0.00000000000E+00  0.00000000000E+00  0.45593999997E+02  0.45594000000E+02  0.51100000000E-03 0.  1.
         11   -1    0    0    0    0 -0.00000000000E+00 -0.00000000000E+00 -0.45593999997E+02  0.45594000000E+02  0.51100000000E-03 0. -1.
    9900012    2    1    2    0    0  0.73069802427E+01  0.14235626476E+02  0.97281514562E+01  0.72461495997E+02  0.69999903213E+02 0.  0.
        -12    1    1    2    0    0 -0.73069802427E+01 -0.14235626476E+02 -0.97281514562E+01  0.18726504003E+02  0.00000000000E+00 0.  1.
         11    1    3    3    0    0  0.15667584328E+02  0.41621281865E+01 -0.79161319568E+01  0.18040555843E+02  0.51100000000E-03 0. -1.
        -11    1    3    3    0    0 -0.11829032513E+02  0.17794337968E+02  0.31572061926E+02  0.38122953302E+02  0.51100000000E-03 0.  1.
         12    1    3    3    0    0  0.34684284273E+01 -0.77208396781E+01 -0.13927778513E+02  0.16297986851E+02  0.00000000000E+00 0. -1.
</event>
<event>
 7    1  0.2489154E-013  0.7246159E+02  0.7816164E-02  0.1226708E+00
        -11   -1    0    0    0    0  0.00000000000E+00  0.00000000000E+00  0.45593999997E+02  0.45594000000E+02  0.51100000000E-03 0.  1.
         11   -1    0    0    0    0 -0.00000000000E+00 -0.00000000000E+00 -0.45593999997E+02  0.45594000000E+02  0.51100000000E-03 0. -1.
    9900012    2    1    2    0    0 -0.33628246769E+01  0.35357213161E+01 -0.18079508429E+02  0.72461587101E+02  0.70000021894E+02 0.  0.
        -12    1    1    2    0    0  0.33628246769E+01 -0.35357213161E+01  0.18079508429E+02  0.18726412899E+02  0.00000000000E+00 0.  1.
         11    1    3    3    0    0  0.15330635055E+02 -0.15718070810E+02 -0.12132007874E+02  0.25085289245E+02  0.51100000000E-03 0. -1.
        -11    1    3    3    0    0 -0.17214534050E+02  0.21201815609E+01 -0.19044954789E+02  0.25759379954E+02  0.51100000000E-03 0.  1.
        -12    1    3    3    0    0 -0.14789256816E+01  0.17133610565E+02  0.13097454235E+02  0.21616917902E+02  0.00000000000E+00 0.  1.
</event>
<event>
 7    1  0.2489154E-013  0.7246157E+02  0.7816164E-02  0.1226708E+00
        -11   -1    0    0    0    0  0.00000000000E+00  0.00000000000E+00  0.45593999997E+02  0.45594000000E+02  0.51100000000E-03 0.  1.
         11   -1    0    0    0    0 -0.00000000000E+00 -0.00000000000E+00 -0.45593999997E+02  0.45594000000E+02  0.51100000000E-03 0. -1.
    9900012    2    1    2    0    0  0.84496024025E+01  0.13706781535E+02 -0.95607219835E+01  0.72461573601E+02  0.70000004308E+02 0.  0.
        -12    1    1    2    0    0 -0.84496024025E+01 -0.13706781535E+02  0.95607219835E+01  0.18726426399E+02  0.00000000000E+00 0.  1.
         11    1    3    3    0    0 -0.15173827985E+01 -0.18626949977E+01 -0.88283446760E+00  0.25595859372E+01  0.51100000000E-03 0. -1.
        -11    1    3    3    0    0 -0.12042681913E+02 -0.21721831656E+02 -0.95013843851E+01  0.26592112809E+02  0.51100000000E-03 0.  1.
         12    1    3    3    0    0  0.22009667114E+02  0.37291308189E+02  0.82349686919E+00  0.43309874855E+02  0.00000000000E+00 0. -1.
</event>
<event>
 7    1  0.2489154E-013  0.7246157E+02  0.7816164E-02  0.1226708E+00
        -11   -1    0    0    0    0  0.00000000000E+00  0.00000000000E+00  0.45593999997E+02  0.45594000000E+02  0.51100000000E-03 0. -1.
         11   -1    0    0    0    0 -0.00000000000E+00 -0.00000000000E+00 -0.45593999997E+02  0.45594000000E+02  0.51100000000E-03 0.  1.
    9900012    2    1    2    0    0 -0.12972032739E+02  0.12792105434E+02  0.43321525459E+01  0.72461571069E+02  0.70000001010E+02 0.  0.
        -12    1    1    2    0    0  0.12972032739E+02 -0.12792105434E+02 -0.43321525459E+01  0.18726428931E+02  0.00000000000E+00 0.  1.
         11    1    3    3    0    0  0.22277134997E+01  0.52081714609E+01  0.12061960497E+02  0.13325863901E+02  0.51100000000E-03 0. -1.
        -11    1    3    3    0    0 -0.35299376642E+02 -0.35521338308E+01 -0.24734687704E+01  0.35563769402E+02  0.51100000000E-03 0.  1.
         12    1    3    3    0    0  0.20099630403E+02  0.11136067804E+02 -0.52563391810E+01  0.23571937767E+02  0.00000000000E+00 0. -1.
</event>
<event>
 7    1  0.2489154E-013  0.7246161E+02  0.7816164E-02  0.1226708E+00
        -11   -1    0    0    0    0  0.00000000000E+00  0.00000000000E+00  0.45593999997E+02  0.45594000000E+02  0.51100000000E-03 0.  1.
         11   -1    0    0    0    0 -0.00000000000E+00 -0.00000000000E+00 -0.45593999997E+02  0.45594000000E+02  0.51100000000E-03 0. -1.
    9900012    2    1    2    0    0 -0.48581967867E+00 -0.85708062032E+01 -0.16642800734E+02  0.72461613376E+02  0.70000056121E+02 0.  0.
        -12    1    1    2    0    0  0.48581967867E+00  0.85708062032E+01  0.16642800734E+02  0.18726386624E+02  0.00000000000E+00 0.  1.
         11    1    3    3    0    0  0.57952127481E+01 -0.87970560265E+01  0.35288300585E+01  0.11109695197E+02  0.51100000000E-03 0. -1.
        -11    1    3    3    0    0 -0.10699067425E+01  0.83564871935E-01  0.20409311501E+02  0.20437506691E+02  0.51100000000E-03 0.  1.
         12    1    3    3    0    0 -0.52111256842E+01  0.14268495139E+00 -0.40580942294E+02  0.40914411487E+02  0.00000000000E+00 0. -1.
</event>
<event>
 7    1  0.2489154E-013  0.7246157E+02  0.7816164E-02  0.1226708E+00
        -11   -1    0    0    0    0  0.00000000000E+00  0.00000000000E+00  0.45593999997E+02  0.45594000000E+02  0.51100000000E-03 0. -1.
         11   -1    0    0    0    0 -0.00000000000E+00 -0.00000000000E+00 -0.45593999997E+02  0.45594000000E+02  0.51100000000E-03 0.  1.
    9900012    2    1    2    0    0  0.81467446281E+01  0.13343942209E+02  0.10307704079E+02  0.72461574685E+02  0.70000005720E+02 0.  0.
        -12    1    1    2    0    0 -0.81467446281E+01 -0.13343942209E+02 -0.10307704079E+02  0.18726425315E+02  0.00000000000E+00 0.  1.
         11    1    3    3    0    0 -0.70596978785E+00 -0.26675381804E+01  0.16233082655E+02  0.16465938358E+02  0.51100000000E-03 0. -1.
        -11    1    3    3    0    0  0.13177196486E+02  0.33806722014E+02  0.13032229810E+01  0.36307455859E+02  0.51100000000E-03 0.  1.
         12    1    3    3    0    0 -0.43244820700E+01 -0.17795241625E+02 -0.72286015565E+01  0.19688180468E+02  0.00000000000E+00 0. -1.
</event>
<event>
 7    1  0.2489154E-013  0.7246162E+02  0.7816164E-02  0.1226708E+00
        -11   -1    0    0    0    0  0.00000000000E+00  0.00000000000E+00  0.45593999997E+02  0.45594000000E+02  0.51100000000E-03 0. -1.
         11   -1    0    0    0    0 -0.00000000000E+00 -0.00000000000E+00 -0.45593999997E+02  0.45594000000E+02  0.51100000000E-03 0.  1.
    9900012    2    1    2    0    0 -0.25366765955E+01 -0.18293159024E+02 -0.30988574927E+01  0.72461619864E+02  0.70000064574E+02 0.  0.
        -12    1    1    2    0    0  0.25366765955E+01  0.18293159024E+02  0.30988574927E+01  0.18726380136E+02  0.00000000000E+00 0.  1.
         11    1    3    3    0    0 -0.98840051321E+00 -0.15553627353E+02 -0.10381224551E+01  0.15619537698E+02  0.51100000000E-03 0. -1.
        -11    1    3    3    0    0  0.26511251588E+02 -0.91047903336E+01 -0.83606772189E+00  0.28043585314E+02  0.51100000000E-03 0.  1.
        -12    1    3    3    0    0 -0.28059527670E+02  0.63652586628E+01 -0.12246673157E+01  0.28798496852E+02  0.00000000000E+00 0.  1.
</event>
<event>
 7    1  0.2489154E-013  0.7246159E+02  0.7816164E-02  0.1226708E+00
        -11   -1    0    0    0    0  0.00000000000E+00  0.00000000000E+00  0.45593999997E+02  0.45594000000E+02  0.51100000000E-03 0.  1.
         11   -1    0    0    0    0 -0.00000000000E+00 -0.00000000000E+00 -0.45593999997E+02  0.45594000000E+02  0.51100000000E-03 0. -1.
    9900012    2    1    2    0    0  0.16782592225E+02 -0.80431724272E+01 -0.20809813438E+01  0.72461587962E+02  0.70000023015E+02 0.  0.
        -12    1    1    2    0    0 -0.16782592225E+02  0.80431724272E+01  0.20809813438E+01  0.18726412038E+02  0.00000000000E+00 0.  1.
         11    1    3    3    0    0 -0.15251570847E+00 -0.77894771048E+01 -0.20641848338E+02  0.22063207330E+02  0.51100000000E-03 0. -1.
        -11    1    3    3    0    0  0.80273345141E+01 -0.21600428940E+02  0.49812056916E+01  0.23576026811E+02  0.51100000000E-03 0.  1.
         12    1    3    3    0    0  0.89077734192E+01  0.21346733617E+02  0.13579661303E+02  0.26822353821E+02  0.00000000000E+00 0. -1.
</event>
<event>
 7    1  0.2489154E-013  0.7246158E+02  0.7816164E-02  0.1226708E+00
        -11   -1    0    0    0    0  0.00000000000E+00  0.00000000000E+00  0.45593999997E+02  0.45594000000E+02  0.51100000000E-03 0.  1.
         11   -1    0    0    0    0 -0.00000000000E+00 -0.00000000000E+00 -0.45593999997E+02  0.45594000000E+02  0.51100000000E-03 0. -1.
    9900012    2    1    2    0    0 -0.10054333688E+02 -0.13456045374E+02 -0.82779160470E+01  0.72461583442E+02  0.70000017127E+02 0.  0.
        -12    1    1    2    0    0  0.10054333688E+02  0.13456045374E+02  0.82779160470E+01  0.18726416558E+02  0.00000000000E+00 0.  1.
         11    1    3    3    0    0 -0.15246688447E+02 -0.13940536995E+02 -0.26992976168E+02  0.33991481918E+02  0.51100000000E-03 0. -1.
        -11    1    3    3    0    0 -0.16937327901E+01 -0.14820354152E+02  0.24832248766E+01  0.15122104152E+02  0.51100000000E-03 0.  1.
        -12    1    3    3    0    0  0.68860875496E+01  0.15304845772E+02  0.16231835245E+02  0.23347997372E+02  0.00000000000E+00 0.  1.
</event>
<event>
 7    1  0.2489154E-013  0.7246157E+02  0.7816164E-02  0.1226708E+00
        -11   -1    0    0    0    0  0.00000000000E+00  0.00000000000E+00  0.45593999997E+02  0.45594000000E+02  0.51100000000E-03 0.  1.
         11   -1    0    0    0    0 -0.00000000000E+00 -0.00000000000E+00 -0.45593999997E+02  0.45594000000E+02  0.51100000000E-03 0. -1.
    9900012    2    1    2    0    0 -0.11900971177E+02  0.11483047476E+02  0.87855361098E+01  0.72461571109E+02  0.70000001061E+02 0.  0.
        -12    1    1    2    0    0  0.11900971177E+02 -0.11483047476E+02 -0.87855361098E+01  0.18726428891E+02  0.00000000000E+00 0.  1.
         11    1    3    3    0    0 -0.24297102466E+02  0.27680214241E+02  0.19806292245E+02  0.41819046635E+02  0.51100000000E-03 0. -1.
        -11    1    3    3    0    0  0.91870620774E+01 -0.13611971780E+01  0.32192789890E+01  0.98294824300E+01  0.51100000000E-03 0.  1.
        -12    1    3    3    0    0  0.32090692125E+01 -0.14835969587E+02 -0.14240035124E+02  0.20813042044E+02  0.00000000000E+00 0.  1.
</event>
<event>
 7    1  0.2489154E-013  0.7246162E+02  0.7816164E-02  0.1226708E+00
        -11   -1    0    0    0    0  0.00000000000E+00  0.00000000000E+00  0.45593999997E+02  0.45594000000E+02  0.51100000000E-03 0. -1.
         11   -1    0    0    0    0 -0.00000000000E+00 -0.00000000000E+00 -0.45593999997E+02  0.45594000000E+02  0.51100000000E-03 0.  1.
    9900012    2    1    2    0    0  0.18145357944E+02 -0.44426653727E+01  0.12984837587E+01  0.72461618860E+02  0.70000063266E+02 0.  0.
        -12    1    1    2    0    0 -0.18145357944E+02  0.44426653727E+01 -0.12984837587E+01  0.18726381140E+02  0.00000000000E+00 0.  1.
         11    1    3    3    0    0  0.94226034743E+01  0.12459195181E+02 -0.18549974560E+02  0.24251155792E+02  0.51100000000E-03 0. -1.
        -11    1    3    3    0    0 -0.59268410825E+01 -0.13034469302E+02 -0.80768240073E+01  0.16439583982E+02  0.51100000000E-03 0.  1.
        -12    1    3    3    0    0  0.14649595552E+02 -0.38673912513E+01  0.27925282326E+02  0.31770879086E+02  0.00000000000E+00 0.  1.
</event>
<event>
 7    1  0.2489154E-013  0.7246161E+02  0.7816164E-02  0.1226708E+00
        -11   -1    0    0    0    0  0.00000000000E+00  0.00000000000E+00  0.45593999997E+02  0.45594000000E+02  0.51100000000E-03 0. -1.
         11   -1    0    0    0    0 -0.00000000000E+00 -0.00000000000E+00 -0.45593999997E+02  0.45594000000E+02  0.51100000000E-03 0.  1.
    9900012    2    1    2    0    0 -0.18233776954E+02  0.31649005542E+01 -0.28618745229E+01  0.72461613714E+02  0.70000056563E+02 0.  0.
        -12    1    1    2    0    0  0.18233776954E+02 -0.31649005542E+01  0.28618745229E+01  0.18726386286E+02  0.00000000000E+00 0.  1.
         11    1    3    3    0    0  0.19826213253E+02 -0.88214176695E-01 -0.64113615954E+01  0.20837276009E+02  0.51100000000E-03 0. -1.
        -11    1    3    3    0    0  0.45919010757E+01  0.67334066242E+00  0.73855135667E+01  0.87226575103E+01  0.51100000000E-03 0.  1.
        -12    1    3    3    0    0 -0.42651891283E+02  0.25797740685E+01 -0.38360264942E+01  0.42901680195E+02  0.00000000000E+00 0.  1.
</event>
<event>
 7    1  0.2489154E-013  0.7246151E+02  0.7816164E-02  0.1226708E+00
        -11   -1    0    0    0    0  0.00000000000E+00  0.00000000000E+00  0.45593999997E+02  0.45594000000E+02  0.51100000000E-03 0.  1.
         11   -1    0    0    0    0 -0.00000000000E+00 -0.00000000000E+00 -0.45593999997E+02  0.45594000000E+02  0.51100000000E-03 0. -1.
    9900012    2    1    2    0    0  0.17834289514E+01 -0.92786473162E+01 -0.16168098037E+02  0.72461513170E+02  0.69999925585E+02 0.  0.
        -12    1    1    2    0    0 -0.17834289514E+01  0.92786473162E+01  0.16168098037E+02  0.18726486830E+02  0.00000000000E+00 0.  1.
         11    1    3    3    0    0  0.19933991618E+02  0.80959688831E+01 -0.24659175433E+02  0.32725886806E+02  0.51100000000E-03 0. -1.
        -11    1    3    3    0    0  0.79454095165E+01 -0.41807573545E+01  0.50261766102E+01  0.10289349640E+02  0.51100000000E-03 0.  1.
        -12    1    3    3    0    0 -0.26095972183E+02 -0.13193858845E+02  0.34649007849E+01  0.29446276723E+02  0.00000000000E+00 0.  1.
</event>
<event>
 7    1  0.2489154E-013  0.7246156E+02  0.7816164E-02  0.1226708E+00
        -11   -1    0    0    0    0  0.00000000000E+00  0.00000000000E+00  0.45593999997E+02  0.45594000000E+02  0.51100000000E-03 0. -1.
         11   -1    0    0    0    0 -0.00000000000E+00 -0.00000000000E+00 -0.45593999997E+02  0.45594000000E+02  0.51100000000E-03 0.  1.
    9900012    2    1    2    0    0  0.59692041583E+01 -0.17689697187E+02 -0.14570141776E+01  0.72461556793E+02  0.69999982412E+02 0.  0.
        -12    1    1    2    0    0 -0.59692041583E+01  0.17689697187E+02  0.14570141776E+01  0.18726443207E+02  0.00000000000E+00 0.  1.
         11    1    3    3    0    0  0.14473726505E+02 -0.10114159614E+02  0.28799436006E+02  0.33781540790E+02  0.51100000000E-03 0. -1.
        -11    1    3    3    0    0 -0.95645230247E+01  0.54588072251E+01 -0.14312898318E+02  0.18059283916E+02  0.51100000000E-03 0.  1.
        -12    1    3    3    0    0  0.10600006783E+01 -0.13034344799E+02 -0.15943551865E+02  0.20620732088E+02  0.00000000000E+00 0.  1.
</event>
<event>
 7    1  0.2489154E-013  0.7246156E+02  0.7816164E-02  0.1226708E+00
        -11   -1    0    0    0    0  0.00000000000E+00  0.00000000000E+00  0.45593999997E+02  0.45594000000E+02  0.51100000000E-03 0.  1.
         11   -1    0    0    0    0 -0.00000000000E+00 -0.00000000000E+00 -0.45593999997E+02  0.45594000000E+02  0.51100000000E-03 0. -1.
    9900012    2    1    2    0    0 -0.84201323474E+01  0.15125512683E+02  0.71414039195E+01  0.72461563804E+02  0.69999991545E+02 0.  0.
        -12    1    1    2    0    0  0.84201323474E+01 -0.15125512683E+02 -0.71414039195E+01  0.18726436196E+02  0.00000000000E+00 0.  1.
         11    1    3    3    0    0 -0.70115753867E+01  0.22246828987E+02 -0.39708038388E+01  0.23661168035E+02  0.51100000000E-03 0. -1.
        -11    1    3    3    0    0 -0.14697678491E+02  0.10554288753E+02  0.18115064860E+02  0.25604107859E+02  0.51100000000E-03 0.  1.
         12    1    3    3    0    0  0.13289121530E+02 -0.17675605057E+02 -0.70028571019E+01  0.23196287910E+02  0.00000000000E+00 0. -1.
</event>
<event>
 7    1  0.2489154E-013  0.7246159E+02  0.7816164E-02  0.1226708E+00
        -11   -1    0    0    0    0  0.00000000000E+00  0.00000000000E+00  0.45593999997E+02  0.45594000000E+02  0.51100000000E-03 0.  1.
         11   -1    0    0    0    0 -0.00000000000E+00 -0.00000000000E+00 -0.45593999997E+02  0.45594000000E+02  0.51100000000E-03 0. -1.
    9900012    2    1    2    0    0  0.36508635857E+01  0.52493003419E+01 -0.17600977814E+02  0.72461591401E+02  0.70000027496E+02 0.  0.
        -12    1    1    2    0    0 -0.36508635857E+01 -0.52493003419E+01  0.17600977814E+02  0.18726408599E+02  0.00000000000E+00 0.  1.
         11    1    3    3    0    0  0.19356212221E+02 -0.81357343968E+01 -0.22004795199E+02  0.30414867051E+02  0.51100000000E-03 0. -1.
        -11    1    3    3    0    0 -0.11430460256E+02 -0.89311069370E+01 -0.75706768275E+01  0.16362617171E+02  0.51100000000E-03 0.  1.
        -12    1    3    3    0    0 -0.42748883792E+01  0.22316141676E+02  0.11974494213E+02  0.25684107179E+02  0.00000000000E+00 0.  1.
</event>
<event>
 7    1  0.2489154E-013  0.7246155E+02  0.7816164E-02  0.1226708E+00
        -11   -1    0    0    0    0  0.00000000000E+00  0.00000000000E+00  0.45593999997E+02  0.45594000000E+02  0.51100000000E-03 0. -1.
         11   -1    0    0    0    0 -0.00000000000E+00 -0.00000000000E+00 -0.45593999997E+02  0.45594000000E+02  0.51100000000E-03 0.  1.
    9900012    2    1    2    0    0  0.11881861032E+02 -0.47809274947E+01  0.13661773793E+02  0.72461549390E+02  0.69999972768E+02 0.  0.
        -12    1    1    2    0    0 -0.11881861032E+02  0.47809274947E+01 -0.13661773793E+02  0.18726450610E+02  0.00000000000E+00 0.  1.
         11    1    3    3    0    0 -0.73357218761E+01  0.32484149200E+01  0.23556145166E+02  0.24884874729E+02  0.51100000000E-03 0. -1.
        -11    1    3    3    0    0  0.21186236259E+02  0.30392657623E+01  0.10839195230E+02  0.23991287933E+02  0.51100000000E-03 0.  1.
        -12    1    3    3    0    0 -0.19686533509E+01 -0.11068608177E+02 -0.20733566603E+02  0.23585386727E+02  0.00000000000E+00 0.  1.
</event>
<event>
 7    1  0.2489154E-013  0.7246163E+02  0.7816164E-02  0.1226708E+00
        -11   -1    0    0    0    0  0.00000000000E+00  0.00000000000E+00  0.45593999997E+02  0.45594000000E+02  0.51100000000E-03 0.  1.
         11   -1    0    0    0    0 -0.00000000000E+00 -0.00000000000E+00 -0.45593999997E+02  0.45594000000E+02  0.51100000000E-03 0. -1.
    9900012    2    1    2    0    0  0.16433277387E+01 -0.11484675057E+02 -0.14699618437E+02  0.72461626368E+02  0.70000073047E+02 0.  0.
        -12    1    1    2    0    0 -0.16433277387E+01  0.11484675057E+02  0.14699618437E+02  0.18726373632E+02  0.00000000000E+00 0.  1.
         11    1    3    3    0    0 -0.15555919441E+02 -0.55726744719E+01  0.28137845299E+01  0.16761823113E+02  0.51100000000E-03 0. -1.
        -11    1    3    3    0    0 -0.12156657025E+02  0.61674493174E+01  0.72496314563E+01  0.15439523879E+02  0.51100000000E-03 0.  1.
         12    1    3    3    0    0  0.29355904205E+02 -0.12079449902E+02 -0.24763034423E+02  0.40260279376E+02  0.00000000000E+00 0. -1.
</event>
<event>
 7    1  0.2489154E-013  0.7246144E+02  0.7816164E-02  0.1226708E+00
        -11   -1    0    0    0    0  0.00000000000E+00  0.00000000000E+00  0.45593999997E+02  0.45594000000E+02  0.51100000000E-03 0. -1.
         11   -1    0    0    0    0 -0.00000000000E+00 -0.00000000000E+00 -0.45593999997E+02  0.45594000000E+02  0.51100000000E-03 0.  1.
    9900012    2    1    2    0    0  0.17542069716E+02  0.60106344342E+01 -0.26138617466E+01  0.72461435727E+02  0.69999824701E+02 0.  0.
        -12    1    1    2    0    0 -0.17542069716E+02 -0.60106344342E+01  0.26138617466E+01  0.18726564273E+02  0.00000000000E+00 0.  1.
         11    1    3    3    0    0 -0.55522386871E+01  0.67995635606E+01 -0.14563375864E+02  0.17004509281E+02  0.51100000000E-03 0.  1.
        -11    1    3    3    0    0  0.30585707746E+01  0.20854997610E+01 -0.18514889016E+02  0.18881347408E+02  0.51100000000E-03 0. -1.
         12    1    3    3    0    0  0.20035737628E+02 -0.28744288874E+01  0.30464403133E+02  0.36575579038E+02  0.00000000000E+00 0. -1.
</event>
<event>
 7    1  0.2489154E-013  0.7246132E+02  0.7816164E-02  0.1226709E+00
        -11   -1    0    0    0    0  0.00000000000E+00  0.00000000000E+00  0.45593999997E+02  0.45594000000E+02  0.51100000000E-03 0.  1.
         11   -1    0    0    0    0 -0.00000000000E+00 -0.00000000000E+00 -0.45593999997E+02  0.45594000000E+02  0.51100000000E-03 0. -1.
    9900012    2    1    2    0    0 -0.11272853812E+02 -0.10224906540E+02 -0.10911578869E+02  0.72461321164E+02  0.69999675460E+02 0.  0.
        -12    1    1    2    0    0  0.11272853812E+02  0.10224906540E+02  0.10911578869E+02  0.18726678836E+02  0.00000000000E+00 0.  1.
         11    1    3    3    0    0 -0.28773039981E+01 -0.67797948027E+01  0.12853481531E+02  0.14814063710E+02  0.51100000000E-03 0. -1.
        -11    1    3    3    0    0 -0.11895884309E+02 -0.23915791454E+02 -0.85421844312E+00  0.26724648431E+02  0.51100000000E-03 0.  1.
        -12    1    3    3    0    0  0.35003344943E+01  0.20470679717E+02 -0.22910841957E+02  0.30922609023E+02  0.00000000000E+00 0.  1.
</event>
<event>
 7    1  0.2489154E-013  0.7246161E+02  0.7816164E-02  0.1226708E+00
        -11   -1    0    0    0    0  0.00000000000E+00  0.00000000000E+00  0.45593999997E+02  0.45594000000E+02  0.51100000000E-03 0.  1.
         11   -1    0    0    0    0 -0.00000000000E+00 -0.00000000000E+00 -0.45593999997E+02  0.45594000000E+02  0.51100000000E-03 0. -1.
    9900012    2    1    2    0    0  0.18175167549E+02 -0.12809226026E+01 -0.43243560357E+01  0.72461613982E+02  0.70000056912E+02 0.  0.
        -12    1    1    2    0    0 -0.18175167549E+02  0.12809226026E+01  0.43243560357E+01  0.18726386018E+02  0.00000000000E+00 0.  1.
         11    1    3    3    0    0 -0.65547559655E+01  0.16581975880E+01  0.29030677956E+01  0.73581416061E+01  0.51100000000E-03 0. -1.
        -11    1    3    3    0    0 -0.43291195784E+01  0.23544254524E+02 -0.94202279158E+01  0.25725743753E+02  0.51100000000E-03 0.  1.
         12    1    3    3    0    0  0.29059043093E+02 -0.26483374715E+02  0.21928040845E+01  0.39377728623E+02  0.00000000000E+00 0. -1.
</event>
<event>
 7    1  0.2489154E-013  0.7246156E+02  0.7816164E-02  0.1226708E+00
        -11   -1    0    0    0    0  0.00000000000E+00  0.00000000000E+00  0.45593999997E+02  0.45594000000E+02  0.51100000000E-03 0.  1.
         11   -1    0    0    0    0 -0.00000000000E+00 -0.00000000000E+00 -0.45593999997E+02  0.45594000000E+02  0.51100000000E-03 0. -1.
    9900012    2    1    2    0    0 -0.18438123023E+02  0.23245438509E+01  0.23047299203E+01  0.72461557072E+02  0.69999982776E+02 0.  0.
        -12    1    1    2    0    0  0.18438123023E+02 -0.23245438509E+01 -0.23047299203E+01  0.18726442928E+02  0.00000000000E+00 0.  1.
         11    1    3    3    0    0 -0.67043333203E+01  0.12265065586E+02 -0.21685653314E+02  0.25800144942E+02  0.51100000000E-03 0. -1.
        -11    1    3    3    0    0 -0.86241249222E+01 -0.16532043995E+02 -0.28376970813E+01  0.18860979145E+02  0.51100000000E-03 0.  1.
         12    1    3    3    0    0 -0.31096647803E+01  0.65915222597E+01  0.26828080316E+02  0.27800432985E+02  0.00000000000E+00 0. -1.
</event>
<event>
 7    1  0.2489154E-013  0.7246157E+02  0.7816164E-02  0.1226708E+00
        -11   -1    0    0    0    0  0.00000000000E+00  0.00000000000E+00  0.45593999997E+02  0.45594000000E+02  0.51100000000E-03 0.  1.
         11   -1    0    0    0    0 -0.00000000000E+00 -0.00000000000E+00 -0.45593999997E+02  0.45594000000E+02  0.51100000000E-03 0. -1.
    9900012    2    1    2    0    0  0.43819138051E+01  0.13877079504E+02 -0.11785782185E+02  0.72461570392E+02  0.70000000127E+02 0.  0.
        -12    1    1    2    0    0 -0.43819138051E+01 -0.13877079504E+02  0.11785782185E+02  0.18726429608E+02  0.00000000000E+00 0.  1.
         11    1    3    3    0    0 -0.13599118978E+02 -0.19645909570E+02 -0.78018437977E+01  0.25134967012E+02  0.51100000000E-03 0. -1.
        -11    1    3    3    0    0 -0.38022887028E+01  0.11983022111E+02 -0.10052454229E+02  0.16096647308E+02  0.51100000000E-03 0.  1.
        -12    1    3    3    0    0  0.21783321486E+02  0.21539966963E+02  0.60685158413E+01  0.31229956072E+02  0.00000000000E+00 0.  1.
</event>
<event>
 7    1  0.2489154E-013  0.7246147E+02  0.7816164E-02  0.1226708E+00
        -11   -1    0    0    0    0  0.00000000000E+00  0.00000000000E+00  0.45593999997E+02  0.45594000000E+02  0.51100000000E-03 0.  1.
         11   -1    0    0    0    0 -0.00000000000E+00 -0.00000000000E+00 -0.45593999997E+02  0.45594000000E+02  0.51100000000E-03 0. -1.
    9900012    2    1    2    0    0  0.78440572929E+01  0.10022831840E+02 -0.13736684292E+02  0.72461471004E+02  0.69999870655E+02 0.  0.
        -12    1    1    2    0    0 -0.78440572929E+01 -0.10022831840E+02  0.13736684292E+02  0.18726528996E+02  0.00000000000E+00 0.  1.
         11    1    3    3    0    0 -0.69821670107E+01  0.59941256685E+01 -0.28639030632E+02  0.30081128212E+02  0.51100000000E-03 0. -1.
        -11    1    3    3    0    0  0.55511004618E+01  0.19175601109E+02  0.14395601775E+02  0.24612024398E+02  0.51100000000E-03 0.  1.
        -12    1    3    3    0    0  0.92751238419E+01 -0.15146894937E+02  0.50674456458E+00  0.17768318394E+02  0.00000000000E+00 0.  1.
</event>
<event>
 7    1  0.2489154E-013  0.7246150E+02  0.7816164E-02  0.1226708E+00
        -11   -1    0    0    0    0  0.00000000000E+00  0.00000000000E+00  0.45593999997E+02  0.45594000000E+02  0.51100000000E-03 0.  1.
         11   -1    0    0    0    0 -0.00000000000E+00 -0.00000000000E+00 -0.45593999997E+02  0.45594000000E+02  0.51100000000E-03 0. -1.
    9900012    2    1    2    0    0 -0.17789887810E+02  0.45701698253E+01  0.36490148694E+01  0.72461498190E+02  0.69999906071E+02 0.  0.
        -12    1    1    2    0    0  0.17789887810E+02 -0.45701698253E+01 -0.36490148694E+01  0.18726501810E+02  0.00000000000E+00 0.  1.
         11    1    3    3    0    0 -0.16093433275E+02 -0.86206642102E+00  0.12084677437E+02  0.20144011073E+02  0.51100000000E-03 0. -1.
        -11    1    3    3    0    0 -0.62091732143E+01  0.11101220759E+02  0.19597245683E+02  0.23363282581E+02  0.51100000000E-03 0.  1.
         12    1    3    3    0    0  0.45127186792E+01 -0.56689845128E+01 -0.28032908251E+02  0.28954204536E+02  0.00000000000E+00 0. -1.
</event>
<event>
 7    1  0.2489154E-013  0.7246159E+02  0.7816164E-02  0.1226708E+00
        -11   -1    0    0    0    0  0.00000000000E+00  0.00000000000E+00  0.45593999997E+02  0.45594000000E+02  0.51100000000E-03 0.  1.
         11   -1    0    0    0    0 -0.00000000000E+00 -0.00000000000E+00 -0.45593999997E+02  0.45594000000E+02  0.51100000000E-03 0. -1.
    9900012    2    1    2    0    0  0.75606988812E+01  0.25455517515E+00 -0.17130371359E+02  0.72461585799E+02  0.70000020198E+02 0.  0.
        -12    1    1    2    0    0 -0.75606988812E+01 -0.25455517515E+00  0.17130371359E+02  0.18726414201E+02  0.00000000000E+00 0.  1.
         11    1    3    3    0    0 -0.49569057572E+01  0.22976557033E+02 -0.22691117291E+02  0.32670780400E+02  0.51100000000E-03 0. -1.
        -11    1    3    3    0    0 -0.17203300733E+01  0.63573722104E+01 -0.12518595874E+01  0.67039443368E+01  0.51100000000E-03 0.  1.
         12    1    3    3    0    0  0.14237934712E+02 -0.29079374068E+02  0.68126055190E+01  0.33086861063E+02  0.00000000000E+00 0. -1.
</event>
<event>
 7    1  0.2489154E-013  0.7246161E+02  0.7816164E-02  0.1226708E+00
        -11   -1    0    0    0    0  0.00000000000E+00  0.00000000000E+00  0.45593999997E+02  0.45594000000E+02  0.51100000000E-03 0. -1.
         11   -1    0    0    0    0 -0.00000000000E+00 -0.00000000000E+00 -0.45593999997E+02  0.45594000000E+02  0.51100000000E-03 0.  1.
    9900012    2    1    2    0    0  0.16545148090E+02  0.52793014263E+01 -0.70046137383E+01  0.72461613202E+02  0.70000055896E+02 0.  0.
        -12    1    1    2    0    0 -0.16545148090E+02 -0.52793014263E+01  0.70046137383E+01  0.18726386798E+02  0.00000000000E+00 0.  1.
         11    1    3    3    0    0  0.12793135441E+02  0.38596251472E+01  0.43853221228E+01  0.14063856906E+02  0.51100000000E-03 0. -1.
        -11    1    3    3    0    0  0.25336868724E+01 -0.30096871491E+01 -0.34556692883E+02  0.34779919626E+02  0.51100000000E-03 0.  1.
         12    1    3    3    0    0  0.12183257763E+01  0.44293634282E+01  0.23166757022E+02  0.23617836670E+02  0.00000000000E+00 0. -1.
</event>
<event>
 7    1  0.2489154E-013  0.7246160E+02  0.7816164E-02  0.1226708E+00
        -11   -1    0    0    0    0  0.00000000000E+00  0.00000000000E+00  0.45593999997E+02  0.45594000000E+02  0.51100000000E-03 0.  1.
         11   -1    0    0    0    0 -0.00000000000E+00 -0.00000000000E+00 -0.45593999997E+02  0.45594000000E+02  0.51100000000E-03 0. -1.
    9900012    2    1    2    0    0  0.10008749614E+02 -0.80439032912E+01  0.13630790354E+02  0.72461604333E+02  0.70000044342E+02 0.  0.
        -12    1    1    2    0    0 -0.10008749614E+02  0.80439032912E+01 -0.13630790354E+02  0.18726395667E+02  0.00000000000E+00 0.  1.
         11    1    3    3    0    0 -0.55929370859E+00 -0.64984297927E+00  0.14374578587E+01  0.16737355547E+01  0.51100000000E-03 0. -1.
        -11    1    3    3    0    0 -0.21009109408E+02  0.57994577640E+01  0.25963620119E+02  0.33898760426E+02  0.51100000000E-03 0.  1.
         12    1    3    3    0    0  0.31577152731E+02 -0.13193518076E+02 -0.13770287624E+02  0.36889108353E+02  0.00000000000E+00 0. -1.
</event>
<event>
 7    1  0.2489154E-013  0.7246156E+02  0.7816164E-02  0.1226708E+00
        -11   -1    0    0    0    0  0.00000000000E+00  0.00000000000E+00  0.45593999997E+02  0.45594000000E+02  0.51100000000E-03 0. -1.
         11   -1    0    0    0    0 -0.00000000000E+00 -0.00000000000E+00 -0.45593999997E+02  0.45594000000E+02  0.51100000000E-03 0.  1.
    9900012    2    1    2    0    0 -0.18142451173E+02  0.42337371767E+01  0.18990732454E+01  0.72461560290E+02  0.69999986967E+02 0.  0.
        -12    1    1    2    0    0  0.18142451173E+02 -0.42337371767E+01 -0.18990732454E+01  0.18726439710E+02  0.00000000000E+00 0.  1.
         11    1    3    3    0    0  0.98494357472E+01 -0.15968960536E+02 -0.38778108083E+01  0.19158718696E+02  0.51100000000E-03 0. -1.
        -11    1    3    3    0    0 -0.18325394531E+01 -0.45744614713E+01  0.15267487483E+02  0.16043069311E+02  0.51100000000E-03 0.  1.
        -12    1    3    3    0    0 -0.26159347467E+02  0.24777159184E+02 -0.94906034293E+01  0.37259772283E+02  0.00000000000E+00 0.  1.
</event>
<event>
 7    1  0.2489154E-013  0.7246154E+02  0.7816164E-02  0.1226708E+00
        -11   -1    0    0    0    0  0.00000000000E+00  0.00000000000E+00  0.45593999997E+02  0.45594000000E+02  0.51100000000E-03 0.  1.
         11   -1    0    0    0    0 -0.00000000000E+00 -0.00000000000E+00 -0.45593999997E+02  0.45594000000E+02  0.51100000000E-03 0. -1.
    9900012    2    1    2    0    0  0.96128427920E+01  0.81922195131E+00 -0.16049999531E+02  0.72461538612E+02  0.69999958728E+02 0.  0.
        -12    1    1    2    0    0 -0.96128427920E+01 -0.81922195131E+00  0.16049999531E+02  0.18726461388E+02  0.00000000000E+00 0.  1.
         11    1    3    3    0    0  0.14011945458E+02 -0.61473011299E+01  0.23939906771E+02  0.28412023215E+02  0.51100000000E-03 0. -1.
        -11    1    3    3    0    0 -0.18670217974E+01 -0.20848315592E+01  0.17063280609E+00  0.28038204005E+01  0.51100000000E-03 0.  1.
         12    1    3    3    0    0 -0.25320808687E+01  0.90513546404E+01 -0.40160539108E+02  0.41245694997E+02  0.00000000000E+00 0. -1.
</event>
<event>
 7    1  0.2489154E-013  0.7246157E+02  0.7816164E-02  0.1226708E+00
        -11   -1    0    0    0    0  0.00000000000E+00  0.00000000000E+00  0.45593999997E+02  0.45594000000E+02  0.51100000000E-03 0. -1.
         11   -1    0    0    0    0 -0.00000000000E+00 -0.00000000000E+00 -0.45593999997E+02  0.45594000000E+02  0.51100000000E-03 0.  1.
    9900012    2    1    2    0    0 -0.11038590419E+02 -0.22221151512E+01  0.14962989134E+02  0.72461566330E+02  0.69999994835E+02 0.  0.
        -12    1    1    2    0    0  0.11038590419E+02  0.22221151512E+01 -0.14962989134E+02  0.18726433670E+02  0.00000000000E+00 0.  1.
         11    1    3    3    0    0 -0.37355503045E+02  0.13147675039E+01  0.20925979397E+02  0.42837586712E+02  0.51100000000E-03 0. -1.
        -11    1    3    3    0    0  0.80415149305E+01  0.22547599654E+01  0.24272606692E+01  0.86972121680E+01  0.51100000000E-03 0.  1.
        -12    1    3    3    0    0  0.18275397696E+02 -0.57916426205E+01 -0.83902509318E+01  0.20926767450E+02  0.00000000000E+00 0.  1.
</event>
<event>
 7    1  0.2489154E-013  0.7246164E+02  0.7816164E-02  0.1226708E+00
        -11   -1    0    0    0    0  0.00000000000E+00  0.00000000000E+00  0.45593999997E+02  0.45594000000E+02  0.51100000000E-03 0. -1.
         11   -1    0    0    0    0 -0.00000000000E+00 -0.00000000000E+00 -0.45593999997E+02  0.45594000000E+02  0.51100000000E-03 0.  1.
    9900012    2    1    2    0    0 -0.67079880679E+01  0.16357241325E+02  0.61741482628E+01  0.72461640117E+02  0.70000090957E+02 0.  0.
        -12    1    1    2    0    0  0.67079880679E+01 -0.16357241325E+02 -0.61741482628E+01  0.18726359883E+02  0.00000000000E+00 0.  1.
         11    1    3    3    0    0 -0.22551520138E+01 -0.48775795874E+01  0.49347661953E+00  0.53962961994E+01  0.51100000000E-03 0. -1.
        -11    1    3    3    0    0 -0.19014455980E+02 -0.17249041119E+02  0.17787892079E+01  0.25734083373E+02  0.51100000000E-03 0.  1.
         12    1    3    3    0    0  0.14561619925E+02  0.38483862032E+02  0.39018824354E+01  0.41331260545E+02  0.00000000000E+00 0. -1.
</event>
<event>
 7    1  0.2489154E-013  0.7246155E+02  0.7816164E-02  0.1226708E+00
        -11   -1    0    0    0    0  0.00000000000E+00  0.00000000000E+00  0.45593999997E+02  0.45594000000E+02  0.51100000000E-03 0.  1.
         11   -1    0    0    0    0 -0.00000000000E+00 -0.00000000000E+00 -0.45593999997E+02  0.45594000000E+02  0.51100000000E-03 0. -1.
    9900012    2    1    2    0    0  0.10887607765E+02 -0.15234373964E+02  0.23161105452E+00  0.72461553552E+02  0.69999978190E+02 0.  0.
        -12    1    1    2    0    0 -0.10887607765E+02  0.15234373964E+02 -0.23161105452E+00  0.18726446448E+02  0.00000000000E+00 0.  1.
         11    1    3    3    0    0  0.30940187134E+01 -0.81536290873E+00  0.88444641311E+01  0.94054406861E+01  0.51100000000E-03 0. -1.
        -11    1    3    3    0    0  0.10706828145E+01  0.11760375798E+02  0.20294979235E+02  0.23480608659E+02  0.51100000000E-03 0.  1.
         12    1    3    3    0    0  0.67229062367E+01 -0.26179386853E+02 -0.28907832311E+02  0.39575504207E+02  0.00000000000E+00 0. -1.
</event>
<event>
 7    1  0.2489154E-013  0.7246156E+02  0.7816164E-02  0.1226708E+00
        -11   -1    0    0    0    0  0.00000000000E+00  0.00000000000E+00  0.45593999997E+02  0.45594000000E+02  0.51100000000E-03 0.  1.
         11   -1    0    0    0    0 -0.00000000000E+00 -0.00000000000E+00 -0.45593999997E+02  0.45594000000E+02  0.51100000000E-03 0. -1.
    9900012    2    1    2    0    0  0.74929859256E+00 -0.11308443706E+02 -0.14907622117E+02  0.72461560279E+02  0.69999986953E+02 0.  0.
        -12    1    1    2    0    0 -0.74929859256E+00  0.11308443706E+02  0.14907622117E+02  0.18726439721E+02  0.00000000000E+00 0.  1.
         11    1    3    3    0    0 -0.50703478239E+01  0.18908225510E+02  0.35754790761E+01  0.19900087183E+02  0.51100000000E-03 0. -1.
        -11    1    3    3    0    0  0.18197624810E+02 -0.19197604901E+01 -0.61513659370E+01  0.19304878457E+02  0.51100000000E-03 0.  1.
        -12    1    3    3    0    0 -0.12377978394E+02 -0.28296908726E+02 -0.12331735257E+02  0.33256594639E+02  0.00000000000E+00 0.  1.
</event>
<event>
 7    1  0.2489154E-013  0.7246155E+02  0.7816164E-02  0.1226708E+00
        -11   -1    0    0    0    0  0.00000000000E+00  0.00000000000E+00  0.45593999997E+02  0.45594000000E+02  0.51100000000E-03 0. -1.
         11   -1    0    0    0    0 -0.00000000000E+00 -0.00000000000E+00 -0.45593999997E+02  0.45594000000E+02  0.51100000000E-03 0.  1.
    9900012    2    1    2    0    0 -0.83759148920E+01  0.13797322820E+02  0.94951555041E+01  0.72461546910E+02  0.69999969538E+02 0.  0.
        -12    1    1    2    0    0  0.83759148920E+01 -0.13797322820E+02 -0.94951555041E+01  0.18726453090E+02  0.00000000000E+00 0.  1.
         11    1    3    3    0    0 -0.30398398576E+02  0.63539929384E+01 -0.10105199164E+02  0.32658091075E+02  0.51100000000E-03 0. -1.
        -11    1    3    3    0    0  0.11785709440E+01 -0.67957744241E+01 -0.13147569224E+01  0.70214076594E+01  0.51100000000E-03 0.  1.
        -12    1    3    3    0    0  0.20843912740E+02  0.14239104306E+02  0.20915111591E+02  0.32782048176E+02  0.00000000000E+00 0.  1.
</event>
<event>
 7    1  0.2489154E-013  0.7246158E+02  0.7816164E-02  0.1226708E+00
        -11   -1    0    0    0    0  0.00000000000E+00  0.00000000000E+00  0.45593999997E+02  0.45594000000E+02  0.51100000000E-03 0.  1.
         11   -1    0    0    0    0 -0.00000000000E+00 -0.00000000000E+00 -0.45593999997E+02  0.45594000000E+02  0.51100000000E-03 0. -1.
    9900012    2    1    2    0    0 -0.30686744774E+00  0.16843563561E+01 -0.18647992954E+02  0.72461578420E+02  0.70000010585E+02 0.  0.
        -12    1    1    2    0    0  0.30686744774E+00 -0.16843563561E+01  0.18647992954E+02  0.18726421580E+02  0.00000000000E+00 0.  1.
         11    1    3    3    0    0 -0.11848921499E+02  0.83615642188E+01  0.27219170147E+00  0.14504715973E+02  0.51100000000E-03 0. -1.
        -11    1    3    3    0    0  0.11713341317E+02  0.24910579156E+01  0.17050519019E+02  0.20835736931E+02  0.51100000000E-03 0.  1.
        -12    1    3    3    0    0 -0.17128726589E+00 -0.91682657783E+01 -0.35970703675E+02  0.37121125516E+02  0.00000000000E+00 0.  1.
</event>
<event>
 7    1  0.2489154E-013  0.7246158E+02  0.7816164E-02  0.1226708E+00
        -11   -1    0    0    0    0  0.00000000000E+00  0.00000000000E+00  0.45593999997E+02  0.45594000000E+02  0.51100000000E-03 0. -1.
         11   -1    0    0    0    0 -0.00000000000E+00 -0.00000000000E+00 -0.45593999997E+02  0.45594000000E+02  0.51100000000E-03 0.  1.
    9900012    2    1    2    0    0  0.18721530918E+02  0.10442435763E+00 -0.41475935219E+00  0.72461584174E+02  0.70000018081E+02 0.  0.
        -12    1    1    2    0    0 -0.18721530918E+02 -0.10442435763E+00  0.41475935219E+00  0.18726415826E+02  0.00000000000E+00 0.  1.
         11    1    3    3    0    0  0.39036853058E+02  0.41540141781E-01 -0.18659415756E+02  0.43267209511E+02  0.51100000000E-03 0. -1.
        -11    1    3    3    0    0 -0.18644839174E+01 -0.32085049411E+01  0.13041022098E+01  0.39333811244E+01  0.51100000000E-03 0.  1.
        -12    1    3    3    0    0 -0.18450838223E+02  0.32713891569E+01  0.16940554194E+02  0.25260993538E+02  0.00000000000E+00 0.  1.
</event>
<event>
 7    1  0.2489154E-013  0.7246157E+02  0.7816164E-02  0.1226708E+00
        -11   -1    0    0    0    0  0.00000000000E+00  0.00000000000E+00  0.45593999997E+02  0.45594000000E+02  0.51100000000E-03 0. -1.
         11   -1    0    0    0    0 -0.00000000000E+00 -0.00000000000E+00 -0.45593999997E+02  0.45594000000E+02  0.51100000000E-03 0.  1.
    9900012    2    1    2    0    0 -0.65673404475E+01  0.10669404928E+02  0.13918087825E+02  0.72461565989E+02  0.69999994391E+02 0.  0.
        -12    1    1    2    0    0  0.65673404475E+01 -0.10669404928E+02 -0.13918087825E+02  0.18726434011E+02  0.00000000000E+00 0.  1.
         11    1    3    3    0    0  0.33845996065E+01  0.23471529421E+02  0.21980708418E+02  0.32334497842E+02  0.51100000000E-03 0.  1.
        -11    1    3    3    0    0 -0.70665206279E+01  0.27645028538E+01  0.12227858568E+02  0.14390924753E+02  0.51100000000E-03 0. -1.
        -12    1    3    3    0    0 -0.28854194260E+01 -0.15566627348E+02 -0.20290479160E+02  0.25736143394E+02  0.00000000000E+00 0.  1.
</event>
<event>
 7    1  0.2489154E-013  0.7246161E+02  0.7816164E-02  0.1226708E+00
        -11   -1    0    0    0    0  0.00000000000E+00  0.00000000000E+00  0.45593999997E+02  0.45594000000E+02  0.51100000000E-03 0.  1.
         11   -1    0    0    0    0 -0.00000000000E+00 -0.00000000000E+00 -0.45593999997E+02  0.45594000000E+02  0.51100000000E-03 0. -1.
    9900012    2    1    2    0    0  0.18001244320E+02 -0.80796123594E+00  0.50970810514E+01  0.72461605962E+02  0.70000046463E+02 0.  0.
        -12    1    1    2    0    0 -0.18001244320E+02  0.80796123594E+00 -0.50970810514E+01  0.18726394038E+02  0.00000000000E+00 0.  1.
         11    1    3    3    0    0 -0.91881952014E+01  0.10306059317E+02 -0.64075292281E+01  0.15221505208E+02  0.51100000000E-03 0. -1.
        -11    1    3    3    0    0 -0.75488869234E+01 -0.18765160388E+02  0.14655579544E+01  0.20279664656E+02  0.51100000000E-03 0.  1.
         12    1    3    3    0    0  0.34738326445E+02  0.76511398350E+01  0.10039052325E+02  0.36960436098E+02  0.00000000000E+00 0. -1.
</event>
<event>
 7    1  0.2489154E-013  0.7246169E+02  0.7816164E-02  0.1226708E+00
        -11   -1    0    0    0    0  0.00000000000E+00  0.00000000000E+00  0.45593999997E+02  0.45594000000E+02  0.51100000000E-03 0.  1.
         11   -1    0    0    0    0 -0.00000000000E+00 -0.00000000000E+00 -0.45593999997E+02  0.45594000000E+02  0.51100000000E-03 0. -1.
    9900012    2    1    2    0    0 -0.97209969094E+00  0.14521241224E+02 -0.11784029608E+02  0.72461687542E+02  0.70000152736E+02 0.  0.
        -12    1    1    2    0    0  0.97209969094E+00 -0.14521241224E+02  0.11784029608E+02  0.18726312458E+02  0.00000000000E+00 0.  1.
         11    1    3    3    0    0 -0.22686908262E+01  0.29073933826E+02 -0.26547337118E+02  0.39436045624E+02  0.51100000000E-03 0. -1.
        -11    1    3    3    0    0  0.11849120685E+01  0.27122749178E+01 -0.55964069602E+01  0.63308943259E+01  0.51100000000E-03 0.  1.
        -12    1    3    3    0    0  0.11167906677E+00 -0.17264967520E+02  0.20359714470E+02  0.26694747591E+02  0.00000000000E+00 0.  1.
</event>
<event>
 7    1  0.2489154E-013  0.7246148E+02  0.7816164E-02  0.1226708E+00
        -11   -1    0    0    0    0  0.00000000000E+00  0.00000000000E+00  0.45593999997E+02  0.45594000000E+02  0.51100000000E-03 0.  1.
         11   -1    0    0    0    0 -0.00000000000E+00 -0.00000000000E+00 -0.45593999997E+02  0.45594000000E+02  0.51100000000E-03 0. -1.
    9900012    2    1    2    0    0  0.64473277385E+01  0.12486419591E+02 -0.12377559688E+02  0.72461476217E+02  0.69999877447E+02 0.  0.
        -12    1    1    2    0    0 -0.64473277385E+01 -0.12486419591E+02  0.12377559688E+02  0.18726523783E+02  0.00000000000E+00 0.  1.
         11    1    3    3    0    0 -0.17432676910E+02  0.75484682663E+01 -0.11281749563E+02  0.22094240672E+02  0.51100000000E-03 0. -1.
        -11    1    3    3    0    0 -0.24048764407E+01  0.10770010607E+02 -0.16119620948E+02  0.19535064344E+02  0.51100000000E-03 0.  1.
        -12    1    3    3    0    0  0.26284881089E+02 -0.58320592818E+01  0.15023810823E+02  0.30832171201E+02  0.00000000000E+00 0.  1.
</event>
<event>
 7    1  0.2489154E-013  0.7246159E+02  0.7816164E-02  0.1226708E+00
        -11   -1    0    0    0    0  0.00000000000E+00  0.00000000000E+00  0.45593999997E+02  0.45594000000E+02  0.51100000000E-03 0.  1.
         11   -1    0    0    0    0 -0.00000000000E+00 -0.00000000000E+00 -0.45593999997E+02  0.45594000000E+02  0.51100000000E-03 0. -1.
    9900012    2    1    2    0    0 -0.60326084398E+01  0.53807118294E+01 -0.16891834436E+02  0.72461588304E+02  0.70000023461E+02 0.  0.
        -12    1    1    2    0    0  0.60326084398E+01 -0.53807118294E+01  0.16891834436E+02  0.18726411696E+02  0.00000000000E+00 0.  1.
         11    1    3    3    0    0 -0.13532822791E+02  0.17394474027E+02  0.33531867148E+01  0.22292350275E+02  0.51100000000E-03 0. -1.
        -11    1    3    3    0    0 -0.15764393915E+02  0.63559159882E+00  0.15762453387E+01  0.15855744758E+02  0.51100000000E-03 0.  1.
         12    1    3    3    0    0  0.23264608267E+02 -0.12649353796E+02 -0.21821266490E+02  0.34313493271E+02  0.00000000000E+00 0. -1.
</event>
<event>
 7    1  0.2489154E-013  0.7246156E+02  0.7816164E-02  0.1226708E+00
        -11   -1    0    0    0    0  0.00000000000E+00  0.00000000000E+00  0.45593999997E+02  0.45594000000E+02  0.51100000000E-03 0.  1.
         11   -1    0    0    0    0 -0.00000000000E+00 -0.00000000000E+00 -0.45593999997E+02  0.45594000000E+02  0.51100000000E-03 0. -1.
    9900012    2    1    2    0    0 -0.10275802136E+02  0.15318193773E+02  0.32311441114E+01  0.72461562478E+02  0.69999989818E+02 0.  0.
        -12    1    1    2    0    0  0.10275802136E+02 -0.15318193773E+02 -0.32311441114E+01  0.18726437522E+02  0.00000000000E+00 0.  1.
         11    1    3    3    0    0 -0.38303874642E+01 -0.24130145688E+02 -0.87833596144E+01  0.25963112399E+02  0.51100000000E-03 0. -1.
        -11    1    3    3    0    0  0.52533260317E+01  0.19125711467E+01  0.18562725233E+01  0.58907648679E+01  0.51100000000E-03 0.  1.
        -12    1    3    3    0    0 -0.11698740704E+02  0.37535768315E+02  0.10158231203E+02  0.40607685211E+02  0.00000000000E+00 0.  1.
</event>
<event>
 7    1  0.2489154E-013  0.7246156E+02  0.7816164E-02  0.1226708E+00
        -11   -1    0    0    0    0  0.00000000000E+00  0.00000000000E+00  0.45593999997E+02  0.45594000000E+02  0.51100000000E-03 0.  1.
         11   -1    0    0    0    0 -0.00000000000E+00 -0.00000000000E+00 -0.45593999997E+02  0.45594000000E+02  0.51100000000E-03 0. -1.
    9900012    2    1    2    0    0 -0.18370048588E+02  0.31234205448E+01 -0.18615290987E+01  0.72461555286E+02  0.69999980449E+02 0.  0.
        -12    1    1    2    0    0  0.18370048588E+02 -0.31234205448E+01  0.18615290987E+01  0.18726444714E+02  0.00000000000E+00 0.  1.
         11    1    3    3    0    0 -0.14916230438E+02 -0.10662997812E+02 -0.11159584282E+02  0.21464616801E+02  0.51100000000E-03 0. -1.
        -11    1    3    3    0    0 -0.17145136660E+02 -0.97089199049E+01 -0.49236720828E+01  0.20309145326E+02  0.51100000000E-03 0.  1.
        -12    1    3    3    0    0  0.13691318509E+02  0.23495338262E+02  0.14221727266E+02  0.30687793159E+02  0.00000000000E+00 0.  1.
</event>
<event>
 7    1  0.2489154E-013  0.7246157E+02  0.7816164E-02  0.1226708E+00
        -11   -1    0    0    0    0  0.00000000000E+00  0.00000000000E+00  0.45593999997E+02  0.45594000000E+02  0.51100000000E-03 0. -1.
         11   -1    0    0    0    0 -0.00000000000E+00 -0.00000000000E+00 -0.45593999997E+02  0.45594000000E+02  0.51100000000E-03 0.  1.
    9900012    2    1    2    0    0 -0.17466474079E+02  0.54521378722E+01 -0.39844167865E+01  0.72461572117E+02  0.70000002374E+02 0.  0.
        -12    1    1    2    0    0  0.17466474079E+02 -0.54521378722E+01  0.39844167865E+01  0.18726427883E+02  0.00000000000E+00 0.  1.
         11    1    3    3    0    0  0.16004736713E+02  0.26083788668E+01  0.42893719995E+01  0.16773608735E+02  0.51100000000E-03 0. -1.
        -11    1    3    3    0    0 -0.20194342585E+02  0.13306662230E+01  0.17435750199E+02  0.26713059172E+02  0.51100000000E-03 0.  1.
        -12    1    3    3    0    0 -0.13276868208E+02  0.15130927823E+01 -0.25709538985E+02  0.28974904211E+02  0.00000000000E+00 0.  1.
</event>
<event>
 7    1  0.2489154E-013  0.7246161E+02  0.7816164E-02  0.1226708E+00
        -11   -1    0    0    0    0  0.00000000000E+00  0.00000000000E+00  0.45593999997E+02  0.45594000000E+02  0.51100000000E-03 0.  1.
         11   -1    0    0    0    0 -0.00000000000E+00 -0.00000000000E+00 -0.45593999997E+02  0.45594000000E+02  0.51100000000E-03 0. -1.
    9900012    2    1    2    0    0 -0.93137234231E+01 -0.12436667668E+02 -0.10452818276E+02  0.72461613360E+02  0.70000056101E+02 0.  0.
        -12    1    1    2    0    0  0.93137234231E+01  0.12436667668E+02  0.10452818276E+02  0.18726386640E+02  0.00000000000E+00 0.  1.
         11    1    3    3    0    0 -0.18313466349E+01  0.22017153835E+02 -0.23263878271E+02  0.32082969407E+02  0.51100000000E-03 0. -1.
        -11    1    3    3    0    0  0.30942995220E+01 -0.30820432731E+01  0.44444155426E+01  0.62310922033E+01  0.51100000000E-03 0.  1.
        -12    1    3    3    0    0 -0.10576676310E+02 -0.31371778230E+02  0.83666444531E+01  0.34147551750E+02  0.00000000000E+00 0.  1.
</event>
<event>
 7    1  0.2489154E-013  0.7246156E+02  0.7816164E-02  0.1226708E+00
        -11   -1    0    0    0    0  0.00000000000E+00  0.00000000000E+00  0.45593999997E+02  0.45594000000E+02  0.51100000000E-03 0. -1.
         11   -1    0    0    0    0 -0.00000000000E+00 -0.00000000000E+00 -0.45593999997E+02  0.45594000000E+02  0.51100000000E-03 0.  1.
    9900012    2    1    2    0    0 -0.48683799101E+01  0.35997989937E+01  0.17720609353E+02  0.72461556889E+02  0.69999982537E+02 0.  0.
        -12    1    1    2    0    0  0.48683799101E+01 -0.35997989937E+01 -0.17720609353E+02  0.18726443111E+02  0.00000000000E+00 0.  1.
         11    1    3    3    0    0  0.21317748152E+02  0.14490494188E+02  0.16041294330E+02  0.30360236035E+02  0.51100000000E-03 0. -1.
        -11    1    3    3    0    0 -0.29581498018E+01 -0.17060909815E+02  0.45329666029E+01  0.17898968698E+02  0.51100000000E-03 0.  1.
         12    1    3    3    0    0 -0.23227978260E+02  0.61702146210E+01 -0.28536515804E+01  0.24202352156E+02  0.00000000000E+00 0. -1.
</event>
<event>
 7    1  0.2489154E-013  0.7246162E+02  0.7816164E-02  0.1226708E+00
        -11   -1    0    0    0    0  0.00000000000E+00  0.00000000000E+00  0.45593999997E+02  0.45594000000E+02  0.51100000000E-03 0.  1.
         11   -1    0    0    0    0 -0.00000000000E+00 -0.00000000000E+00 -0.45593999997E+02  0.45594000000E+02  0.51100000000E-03 0. -1.
    9900012    2    1    2    0    0 -0.13702185416E+02  0.79327439818E+01 -0.99999588041E+01  0.72461615183E+02  0.70000058475E+02 0.  0.
        -12    1    1    2    0    0  0.13702185416E+02 -0.79327439818E+01  0.99999588041E+01  0.18726384817E+02  0.00000000000E+00 0.  1.
         11    1    3    3    0    0  0.11983991342E+02  0.61075244496E+01 -0.19467578347E+02  0.23662301459E+02  0.51100000000E-03 0. -1.
        -11    1    3    3    0    0  0.73922312433E+01 -0.10255837194E+02  0.30279989261E+01  0.12999848347E+02  0.51100000000E-03 0.  1.
         12    1    3    3    0    0 -0.33078408001E+02  0.12081056726E+02  0.64396206169E+01  0.35799465376E+02  0.00000000000E+00 0. -1.
</event>
<event>
 7    1  0.2489154E-013  0.7246157E+02  0.7816164E-02  0.1226708E+00
        -11   -1    0    0    0    0  0.00000000000E+00  0.00000000000E+00  0.45593999997E+02  0.45594000000E+02  0.51100000000E-03 0.  1.
         11   -1    0    0    0    0 -0.00000000000E+00 -0.00000000000E+00 -0.45593999997E+02  0.45594000000E+02  0.51100000000E-03 0. -1.
    9900012    2    1    2    0    0  0.53555580385E+01 -0.13634552423E+02 -0.11666030469E+02  0.72461567116E+02  0.69999995859E+02 0.  0.
        -12    1    1    2    0    0 -0.53555580385E+01  0.13634552423E+02  0.11666030469E+02  0.18726432884E+02  0.00000000000E+00 0.  1.
         11    1    3    3    0    0 -0.11929861255E+02 -0.26778916474E+01  0.32046056849E+01  0.12639706923E+02  0.51100000000E-03 0. -1.
        -11    1    3    3    0    0 -0.15681027329E+02  0.69975653909E+01  0.42565835074E+01  0.17691213721E+02  0.51100000000E-03 0.  1.
         12    1    3    3    0    0  0.32966446623E+02 -0.17954226167E+02 -0.19127219661E+02  0.42130646472E+02  0.00000000000E+00 0. -1.
</event>
<event>
 7    1  0.2489154E-013  0.7246159E+02  0.7816164E-02  0.1226708E+00
        -11   -1    0    0    0    0  0.00000000000E+00  0.00000000000E+00  0.45593999997E+02  0.45594000000E+02  0.51100000000E-03 0. -1.
         11   -1    0    0    0    0 -0.00000000000E+00 -0.00000000000E+00 -0.45593999997E+02  0.45594000000E+02  0.51100000000E-03 0.  1.
    9900012    2    1    2    0    0  0.18347890545E+02 -0.32681825318E+01  0.18309055265E+01  0.72461592988E+02  0.70000029563E+02 0.  0.
        -12    1    1    2    0    0 -0.18347890545E+02  0.32681825318E+01 -0.18309055265E+01  0.18726407012E+02  0.00000000000E+00 0.  1.
         11    1    3    3    0    0  0.94384797890E+01 -0.71093486492E+01  0.81994684455E+01  0.14382594411E+02  0.51100000000E-03 0. -1.
        -11    1    3    3    0    0  0.15051645849E+02  0.25423319640E+02  0.89955365990E+01  0.30883926292E+02  0.51100000000E-03 0.  1.
         12    1    3    3    0    0 -0.61422350927E+01 -0.21582153522E+02 -0.15364099518E+02  0.27195072285E+02  0.00000000000E+00 0. -1.
</event>
<event>
 7    1  0.3745119E-013  0.7246161E+02  0.7816164E-02  0.1226708E+00
        -11   -1    0    0    0    0  0.00000000000E+00  0.00000000000E+00  0.45593999997E+02  0.45594000000E+02  0.51100000000E-03 0. -1.
         11   -1    0    0    0    0 -0.00000000000E+00 -0.00000000000E+00 -0.45593999997E+02  0.45594000000E+02  0.51100000000E-03 0.  1.
    9900012    2    1    2    0    0 -0.16640579808E+02 -0.61203465508E+00  0.85670486165E+01  0.72461606733E+02  0.70000047469E+02 0.  0.
        -12    1    1    2    0    0  0.16640579808E+02  0.61203465508E+00 -0.85670486165E+01  0.18726393267E+02  0.00000000000E+00 0.  1.
         11    1    3    3    0    0 -0.25813690619E+02 -0.98372319587E+01  0.23743674317E+02  0.36426361695E+02  0.51100000000E-03 0. -1.
        -11    1    3    3    0    0 -0.77329137904E+01  0.67410277018E+01 -0.15911534606E+02  0.18931886962E+02  0.51100000000E-03 0.  1.
        -12    1    3    3    0    0  0.16906024601E+02  0.24841696019E+01  0.73490890532E+00  0.17103358077E+02  0.00000000000E+00 0.  1.
</event>
<event>
 7    1  0.2489154E-013  0.7246158E+02  0.7816164E-02  0.1226708E+00
        -11   -1    0    0    0    0  0.00000000000E+00  0.00000000000E+00  0.45593999997E+02  0.45594000000E+02  0.51100000000E-03 0.  1.
         11   -1    0    0    0    0 -0.00000000000E+00 -0.00000000000E+00 -0.45593999997E+02  0.45594000000E+02  0.51100000000E-03 0. -1.
    9900012    2    1    2    0    0  0.70672071063E+01  0.13906688826E+02 -0.10360382494E+02  0.72461576534E+02  0.70000008128E+02 0.  0.
        -12    1    1    2    0    0 -0.70672071063E+01 -0.13906688826E+02  0.10360382494E+02  0.18726423466E+02  0.00000000000E+00 0.  1.
         11    1    3    3    0    0  0.69133082634E+01  0.27204013072E+02 -0.22820637621E+02  0.36175041949E+02  0.51100000000E-03 0. -1.
        -11    1    3    3    0    0  0.25207815717E+01 -0.87067474897E+01 -0.98501618461E+01  0.13386092792E+02  0.51100000000E-03 0.  1.
        -12    1    3    3    0    0 -0.23668827289E+01 -0.45905767555E+01  0.22310416973E+02  0.22900441793E+02  0.00000000000E+00 0.  1.
</event>
<event>
 7    1  0.2489154E-013  0.7246106E+02  0.7816164E-02  0.1226709E+00
        -11   -1    0    0    0    0  0.00000000000E+00  0.00000000000E+00  0.45593999997E+02  0.45594000000E+02  0.51100000000E-03 0. -1.
         11   -1    0    0    0    0 -0.00000000000E+00 -0.00000000000E+00 -0.45593999997E+02  0.45594000000E+02  0.51100000000E-03 0.  1.
    9900012    2    1    2    0    0  0.37140184582E+01 -0.23076274821E+01  0.18209316434E+02  0.72461059975E+02  0.69999335212E+02 0.  0.
        -12    1    1    2    0    0 -0.37140184582E+01  0.23076274821E+01 -0.18209316434E+02  0.18726940025E+02  0.00000000000E+00 0.  1.
         11    1    3    3    0    0  0.51974336652E+01  0.99901339491E+01  0.17155300921E+02  0.20521219334E+02  0.51100000000E-03 0. -1.
        -11    1    3    3    0    0  0.11961788993E+02  0.16136523788E+02 -0.26860284909E+01  0.20265402666E+02  0.51100000000E-03 0.  1.
        -12    1    3    3    0    0 -0.13445204201E+02 -0.28434285219E+02  0.37400440037E+01  0.31674437975E+02  0.00000000000E+00 0.  1.
</event>
<event>
 7    1  0.2489154E-013  0.7246158E+02  0.7816164E-02  0.1226708E+00
        -11   -1    0    0    0    0  0.00000000000E+00  0.00000000000E+00  0.45593999997E+02  0.45594000000E+02  0.51100000000E-03 0.  1.
         11   -1    0    0    0    0 -0.00000000000E+00 -0.00000000000E+00 -0.45593999997E+02  0.45594000000E+02  0.51100000000E-03 0. -1.
    9900012    2    1    2    0    0 -0.13688490357E+00  0.17072534823E+02 -0.76934222892E+01  0.72461576709E+02  0.70000008356E+02 0.  0.
        -12    1    1    2    0    0  0.13688490357E+00 -0.17072534823E+02  0.76934222892E+01  0.18726423291E+02  0.00000000000E+00 0.  1.
         11    1    3    3    0    0  0.50357086615E+01  0.53815007660E+01 -0.30382854655E+02  0.31263985182E+02  0.51100000000E-03 0. -1.
        -11    1    3    3    0    0  0.54092100100E+01 -0.12439634379E-01 -0.62320817005E+01  0.82521845750E+01  0.51100000000E-03 0.  1.
        -12    1    3    3    0    0 -0.10581803575E+02  0.11703473692E+02  0.28921514066E+02  0.32945406952E+02  0.00000000000E+00 0.  1.
</event>
<event>
 7    1  0.2489154E-013  0.7246154E+02  0.7816164E-02  0.1226708E+00
        -11   -1    0    0    0    0  0.00000000000E+00  0.00000000000E+00  0.45593999997E+02  0.45594000000E+02  0.51100000000E-03 0. -1.
         11   -1    0    0    0    0 -0.00000000000E+00 -0.00000000000E+00 -0.45593999997E+02  0.45594000000E+02  0.51100000000E-03 0.  1.
    9900012    2    1    2    0    0 -0.11466917181E+02  0.66960310867E+01  0.13204290833E+02  0.72461539620E+02  0.69999960041E+02 0.  0.
        -12    1    1    2    0    0  0.11466917181E+02 -0.66960310867E+01 -0.13204290833E+02  0.18726460380E+02  0.00000000000E+00 0.  1.
         11    1    3    3    0    0 -0.22129351426E+02  0.19847761751E+02 -0.12727462769E+02  0.32336204939E+02  0.51100000000E-03 0.  1.
        -11    1    3    3    0    0 -0.71096099420E+01 -0.82209242389E+01  0.15516085836E+02  0.18944103800E+02  0.51100000000E-03 0. -1.
        -12    1    3    3    0    0  0.17772044187E+02 -0.49308064256E+01  0.10415667766E+02  0.21181230881E+02  0.00000000000E+00 0.  1.
</event>
<event>
 7    1  0.2489154E-013  0.7246158E+02  0.7816164E-02  0.1226708E+00
        -11   -1    0    0    0    0  0.00000000000E+00  0.00000000000E+00  0.45593999997E+02  0.45594000000E+02  0.51100000000E-03 0.  1.
         11   -1    0    0    0    0 -0.00000000000E+00 -0.00000000000E+00 -0.45593999997E+02  0.45594000000E+02  0.51100000000E-03 0. -1.
    9900012    2    1    2    0    0 -0.17932051364E+01 -0.14934726574E+02 -0.11154247673E+02  0.72461577927E+02  0.70000009943E+02 0.  0.
        -12    1    1    2    0    0  0.17932051364E+01  0.14934726574E+02  0.11154247673E+02  0.18726422073E+02  0.00000000000E+00 0.  1.
         11    1    3    3    0    0  0.79920242960E+01 -0.14579756172E+02 -0.24755648907E+02  0.29820863425E+02  0.51100000000E-03 0. -1.
        -11    1    3    3    0    0 -0.81338500712E+01 -0.19298714364E+02  0.39350355194E+01  0.21309256155E+02  0.51100000000E-03 0.  1.
        -12    1    3    3    0    0 -0.16513793612E+01  0.18943743962E+02  0.96663657146E+01  0.21331458347E+02  0.00000000000E+00 0.  1.
</event>
<event>
 7    1  0.2489154E-013  0.7246157E+02  0.7816164E-02  0.1226708E+00
        -11   -1    0    0    0    0  0.00000000000E+00  0.00000000000E+00  0.45593999997E+02  0.45594000000E+02  0.51100000000E-03 0. -1.
         11   -1    0    0    0    0 -0.00000000000E+00 -0.00000000000E+00 -0.45593999997E+02  0.45594000000E+02  0.51100000000E-03 0.  1.
    9900012    2    1    2    0    0 -0.16024215904E+02  0.76260977390E+01 -0.59788155198E+01  0.72461572228E+02  0.70000002519E+02 0.  0.
        -12    1    1    2    0    0  0.16024215904E+02 -0.76260977390E+01  0.59788155198E+01  0.18726427772E+02  0.00000000000E+00 0.  1.
         11    1    3    3    0    0  0.59951809843E+01 -0.24277059733E+02 -0.14548108601E+02  0.28930352373E+02  0.51100000000E-03 0. -1.
        -11    1    3    3    0    0  0.84273849702E+00 -0.15857369352E+01 -0.71583354014E+00  0.19331807262E+01  0.51100000000E-03 0.  1.
        -12    1    3    3    0    0 -0.22862135386E+02  0.33488894407E+02  0.92851266214E+01  0.41598039129E+02  0.00000000000E+00 0.  1.
</event>
<event>
 7    1  0.2489154E-013  0.7246157E+02  0.7816164E-02  0.1226708E+00
        -11   -1    0    0    0    0  0.00000000000E+00  0.00000000000E+00  0.45593999997E+02  0.45594000000E+02  0.51100000000E-03 0. -1.
         11   -1    0    0    0    0 -0.00000000000E+00 -0.00000000000E+00 -0.45593999997E+02  0.45594000000E+02  0.51100000000E-03 0.  1.
    9900012    2    1    2    0    0 -0.73719244676E+01 -0.16626496843E+02  0.44602004891E+01  0.72461573325E+02  0.70000003948E+02 0.  0.
        -12    1    1    2    0    0  0.73719244676E+01  0.16626496843E+02 -0.44602004891E+01  0.18726426675E+02  0.00000000000E+00 0.  1.
         11    1    3    3    0    0 -0.85386905293E+01 -0.10247481543E+02 -0.63333770331E+01  0.14765899188E+02  0.51100000000E-03 0. -1.
        -11    1    3    3    0    0  0.11382434663E+02 -0.38430983900E+01 -0.21006308835E+02  0.24199054428E+02  0.51100000000E-03 0.  1.
         12    1    3    3    0    0 -0.10215668602E+02 -0.25359169095E+01  0.31799886357E+02  0.33496619708E+02  0.00000000000E+00 0. -1.
</event>
<event>
 7    1  0.2489154E-013  0.7246159E+02  0.7816164E-02  0.1226708E+00
        -11   -1    0    0    0    0  0.00000000000E+00  0.00000000000E+00  0.45593999997E+02  0.45594000000E+02  0.51100000000E-03 0.  1.
         11   -1    0    0    0    0 -0.00000000000E+00 -0.00000000000E+00 -0.45593999997E+02  0.45594000000E+02  0.51100000000E-03 0. -1.
    9900012    2    1    2    0    0 -0.10856901758E+02 -0.14005774074E+02 -0.60534657318E+01  0.72461588956E+02  0.70000024311E+02 0.  0.
        -12    1    1    2    0    0  0.10856901758E+02  0.14005774074E+02  0.60534657318E+01  0.18726411044E+02  0.00000000000E+00 0.  1.
         11    1    3    3    0    0 -0.11076848498E+02  0.48829161794E+01  0.43646954482E+01  0.12868178180E+02  0.51100000000E-03 0. -1.
        -11    1    3    3    0    0  0.12496020179E+02  0.92938627149E+01  0.13526897031E+02  0.20627732498E+02  0.51100000000E-03 0.  1.
         12    1    3    3    0    0 -0.12276073440E+02 -0.28182552969E+02 -0.23945058211E+02  0.38965678278E+02  0.00000000000E+00 0. -1.
</event>
<event>
 7    1  0.2489154E-013  0.7246167E+02  0.7816164E-02  0.1226708E+00
        -11   -1    0    0    0    0  0.00000000000E+00  0.00000000000E+00  0.45593999997E+02  0.45594000000E+02  0.51100000000E-03 0.  1.
         11   -1    0    0    0    0 -0.00000000000E+00 -0.00000000000E+00 -0.45593999997E+02  0.45594000000E+02  0.51100000000E-03 0. -1.
    9900012    2    1    2    0    0 -0.41504201896E+01 -0.12785121676E+02 -0.13038023411E+02  0.72461671516E+02  0.70000131860E+02 0.  0.
        -12    1    1    2    0    0  0.41504201896E+01  0.12785121676E+02  0.13038023411E+02  0.18726328484E+02  0.00000000000E+00 0.  1.
         11    1    3    3    0    0 -0.51403712462E+01 -0.63064947994E+01 -0.75334531013E+01  0.11088201346E+02  0.51100000000E-03 0. -1.
        -11    1    3    3    0    0 -0.25412786781E+02 -0.13166681602E+02 -0.15269056593E+02  0.32439410073E+02  0.51100000000E-03 0.  1.
         12    1    3    3    0    0  0.26402737837E+02  0.66880547255E+01  0.97644862841E+01  0.28934060097E+02  0.00000000000E+00 0. -1.
</event>
<event>
 7    1  0.2489154E-013  0.7246155E+02  0.7816164E-02  0.1226708E+00
        -11   -1    0    0    0    0  0.00000000000E+00  0.00000000000E+00  0.45593999997E+02  0.45594000000E+02  0.51100000000E-03 0.  1.
         11   -1    0    0    0    0 -0.00000000000E+00 -0.00000000000E+00 -0.45593999997E+02  0.45594000000E+02  0.51100000000E-03 0. -1.
    9900012    2    1    2    0    0  0.93446615387E+01 -0.45352818448E+01 -0.15581670766E+02  0.72461549601E+02  0.69999973043E+02 0.  0.
        -12    1    1    2    0    0 -0.93446615387E+01  0.45352818448E+01  0.15581670766E+02  0.18726450399E+02  0.00000000000E+00 0.  1.
         11    1    3    3    0    0  0.20689965268E-01 -0.21177905732E+01  0.21550062522E+01  0.30215090923E+01  0.51100000000E-03 0. -1.
        -11    1    3    3    0    0 -0.75931382986E+00  0.30221522973E+01  0.25000431500E+02  0.25193878968E+02  0.51100000000E-03 0.  1.
         12    1    3    3    0    0  0.10083285403E+02 -0.54396435689E+01 -0.42737108518E+02  0.44246161541E+02  0.00000000000E+00 0. -1.
</event>
<event>
 7    1  0.2489154E-013  0.7246157E+02  0.7816164E-02  0.1226708E+00
        -11   -1    0    0    0    0  0.00000000000E+00  0.00000000000E+00  0.45593999997E+02  0.45594000000E+02  0.51100000000E-03 0. -1.
         11   -1    0    0    0    0 -0.00000000000E+00 -0.00000000000E+00 -0.45593999997E+02  0.45594000000E+02  0.51100000000E-03 0.  1.
    9900012    2    1    2    0    0 -0.76378995214E+01 -0.54631079841E+01  0.16201733201E+02  0.72461569036E+02  0.69999998361E+02 0.  0.
        -12    1    1    2    0    0  0.76378995214E+01  0.54631079841E+01 -0.16201733201E+02  0.18726430964E+02  0.00000000000E+00 0.  1.
         11    1    3    3    0    0 -0.24333957684E+02  0.10945231938E+02  0.10697378125E+02  0.28746712816E+02  0.51100000000E-03 0. -1.
        -11    1    3    3    0    0  0.57380592783E+01  0.11700001348E+02 -0.90585130674E-01  0.13031636956E+02  0.51100000000E-03 0.  1.
        -12    1    3    3    0    0  0.10957998884E+02 -0.28108341270E+02  0.55949402067E+01  0.30683219264E+02  0.00000000000E+00 0.  1.
</event>
<event>
 7    1  0.2489154E-013  0.7246157E+02  0.7816164E-02  0.1226708E+00
        -11   -1    0    0    0    0  0.00000000000E+00  0.00000000000E+00  0.45593999997E+02  0.45594000000E+02  0.51100000000E-03 0. -1.
         11   -1    0    0    0    0 -0.00000000000E+00 -0.00000000000E+00 -0.45593999997E+02  0.45594000000E+02  0.51100000000E-03 0.  1.
    9900012    2    1    2    0    0 -0.18200104457E+02  0.44791038342E+00 -0.43857451999E+01  0.72461569830E+02  0.69999999396E+02 0.  0.
        -12    1    1    2    0    0  0.18200104457E+02 -0.44791038342E+00  0.43857451999E+01  0.18726430170E+02  0.00000000000E+00 0.  1.
         11    1    3    3    0    0  0.39727009262E+01  0.85473513085E+01  0.19616972994E+02  0.21763850688E+02  0.51100000000E-03 0. -1.
        -11    1    3    3    0    0  0.95100823877E+01 -0.35384071655E+01  0.83603298721E+00  0.10181401854E+02  0.51100000000E-03 0.  1.
        -12    1    3    3    0    0 -0.31682887770E+02 -0.45610337596E+01 -0.24838751181E+02  0.40516317289E+02  0.00000000000E+00 0.  1.
</event>
<event>
 7    1  0.2489154E-013  0.7246154E+02  0.7816164E-02  0.1226708E+00
        -11   -1    0    0    0    0  0.00000000000E+00  0.00000000000E+00  0.45593999997E+02  0.45594000000E+02  0.51100000000E-03 0.  1.
         11   -1    0    0    0    0 -0.00000000000E+00 -0.00000000000E+00 -0.45593999997E+02  0.45594000000E+02  0.51100000000E-03 0. -1.
    9900012    2    1    2    0    0 -0.17049937038E+02  0.39762741337E+01  0.66459910251E+01  0.72461539959E+02  0.69999960482E+02 0.  0.
        -12    1    1    2    0    0  0.17049937038E+02 -0.39762741337E+01 -0.66459910251E+01  0.18726460041E+02  0.00000000000E+00 0.  1.
         11    1    3    3    0    0 -0.16996303373E+01 -0.55707525650E+01  0.43205086565E+01  0.72518151339E+01  0.51100000000E-03 0. -1.
        -11    1    3    3    0    0 -0.11957732750E+02 -0.13916898063E+02  0.25923055785E+02  0.31759600843E+02  0.51100000000E-03 0.  1.
        -12    1    3    3    0    0 -0.33925739508E+01  0.23463924761E+02 -0.23597573417E+02  0.33450123982E+02  0.00000000000E+00 0.  1.
</event>
<event>
 7    1  0.2489154E-013  0.7246158E+02  0.7816164E-02  0.1226708E+00
        -11   -1    0    0    0    0  0.00000000000E+00  0.00000000000E+00  0.45593999997E+02  0.45594000000E+02  0.51100000000E-03 0. -1.
         11   -1    0    0    0    0 -0.00000000000E+00 -0.00000000000E+00 -0.45593999997E+02  0.45594000000E+02  0.51100000000E-03 0.  1.
    9900012    2    1    2    0    0  0.14376935116E+01  0.14341263265E+02  0.11955753882E+02  0.72461578945E+02  0.70000011269E+02 0.  0.
        -12    1    1    2    0    0 -0.14376935116E+01 -0.14341263265E+02 -0.11955753882E+02  0.18726421055E+02  0.00000000000E+00 0.  1.
         11    1    3    3    0    0 -0.18241362061E+02  0.17571890340E+02  0.19028843644E+02  0.31679891266E+02  0.51100000000E-03 0. -1.
        -11    1    3    3    0    0 -0.76117986507E+01 -0.76580372073E+01 -0.74727506444E+01  0.13131146752E+02  0.51100000000E-03 0.  1.
        -12    1    3    3    0    0  0.27290854223E+02  0.44274101322E+01  0.39966088151E+00  0.27650540926E+02  0.00000000000E+00 0.  1.
</event>
<event>
 7    1  0.2489154E-013  0.7246156E+02  0.7816164E-02  0.1226708E+00
        -11   -1    0    0    0    0  0.00000000000E+00  0.00000000000E+00  0.45593999997E+02  0.45594000000E+02  0.51100000000E-03 0. -1.
         11   -1    0    0    0    0 -0.00000000000E+00 -0.00000000000E+00 -0.45593999997E+02  0.45594000000E+02  0.51100000000E-03 0.  1.
    9900012    2    1    2    0    0 -0.16681876952E+02  0.81150459433E+01  0.25574753565E+01  0.72461556944E+02  0.69999982609E+02 0.  0.
        -12    1    1    2    0    0  0.16681876952E+02 -0.81150459433E+01 -0.25574753565E+01  0.18726443056E+02  0.00000000000E+00 0.  1.
         11    1    3    3    0    0 -0.50174025384E+01  0.22505031849E+02  0.17156139201E+02  0.28739935618E+02  0.51100000000E-03 0. -1.
        -11    1    3    3    0    0 -0.19932826654E+02  0.42197233392E+01 -0.10606943550E+02  0.22970217570E+02  0.51100000000E-03 0.  1.
         12    1    3    3    0    0  0.82683522397E+01 -0.18609709245E+02 -0.39917202945E+01  0.20751403756E+02  0.00000000000E+00 0. -1.
</event>
<event>
 7    1  0.2489154E-013  0.7246158E+02  0.7816164E-02  0.1226708E+00
        -11   -1    0    0    0    0  0.00000000000E+00  0.00000000000E+00  0.45593999997E+02  0.45594000000E+02  0.51100000000E-03 0.  1.
         11   -1    0    0    0    0 -0.00000000000E+00 -0.00000000000E+00 -0.45593999997E+02  0.45594000000E+02  0.51100000000E-03 0. -1.
    9900012    2    1    2    0    0 -0.16781184010E+02  0.83097430767E+01 -0.13764007532E+00  0.72461577182E+02  0.70000008972E+02 0.  0.
        -12    1    1    2    0    0  0.16781184010E+02 -0.83097430767E+01  0.13764007532E+00  0.18726422818E+02  0.00000000000E+00 0.  1.
         11    1    3    3    0    0  0.74258992276E+01  0.35331244881E+01 -0.16414389129E+01  0.83857778383E+01  0.51100000000E-03 0. -1.
        -11    1    3    3    0    0 -0.26781159230E+01  0.29306253821E+02 -0.72028579195E+01  0.30297029234E+02  0.51100000000E-03 0.  1.
         12    1    3    3    0    0 -0.21528967315E+02 -0.24529635232E+02  0.87066567570E+01  0.33778770110E+02  0.00000000000E+00 0. -1.
</event>
<event>
 7    1  0.2489154E-013  0.7246159E+02  0.7816164E-02  0.1226708E+00
        -11   -1    0    0    0    0  0.00000000000E+00  0.00000000000E+00  0.45593999997E+02  0.45594000000E+02  0.51100000000E-03 0. -1.
         11   -1    0    0    0    0 -0.00000000000E+00 -0.00000000000E+00 -0.45593999997E+02  0.45594000000E+02  0.51100000000E-03 0.  1.
    9900012    2    1    2    0    0 -0.12246968619E+02 -0.76101224504E+01  0.11948903287E+02  0.72461588335E+02  0.70000023502E+02 0.  0.
        -12    1    1    2    0    0  0.12246968619E+02  0.76101224504E+01 -0.11948903287E+02  0.18726411665E+02  0.00000000000E+00 0.  1.
         11    1    3    3    0    0  0.25558929514E+00  0.11116312508E+02  0.24519534469E+02  0.26922951185E+02  0.51100000000E-03 0. -1.
        -11    1    3    3    0    0 -0.64520898828E+00  0.43498335824E+01  0.10143794950E+02  0.11055945146E+02  0.51100000000E-03 0.  1.
        -12    1    3    3    0    0 -0.11857348926E+02 -0.23076268541E+02 -0.22714426132E+02  0.34482692004E+02  0.00000000000E+00 0.  1.
</event>
<event>
 7    1  0.2489154E-013  0.7246156E+02  0.7816164E-02  0.1226708E+00
        -11   -1    0    0    0    0  0.00000000000E+00  0.00000000000E+00  0.45593999997E+02  0.45594000000E+02  0.51100000000E-03 0.  1.
         11   -1    0    0    0    0 -0.00000000000E+00 -0.00000000000E+00 -0.45593999997E+02  0.45594000000E+02  0.51100000000E-03 0. -1.
    9900012    2    1    2    0    0  0.53953065861E+01  0.17893458239E+02 -0.11808563968E+01  0.72461558728E+02  0.69999984932E+02 0.  0.
        -12    1    1    2    0    0 -0.53953065861E+01 -0.17893458239E+02  0.11808563968E+01  0.18726441272E+02  0.00000000000E+00 0.  1.
         11    1    3    3    0    0  0.20726739752E+02 -0.10710791772E+01 -0.91824738299E+01  0.22694994542E+02  0.51100000000E-03 0. -1.
        -11    1    3    3    0    0  0.13904278986E+02 -0.10213688639E-01  0.50317591339E+01  0.14786739961E+02  0.51100000000E-03 0.  1.
        -12    1    3    3    0    0 -0.29235712152E+02  0.18974751104E+02  0.29698582992E+01  0.34979824225E+02  0.00000000000E+00 0.  1.
</event>
<event>
 7    1  0.2489154E-013  0.7246201E+02  0.7816164E-02  0.1226707E+00
        -11   -1    0    0    0    0  0.00000000000E+00  0.00000000000E+00  0.45593999997E+02  0.45594000000E+02  0.51100000000E-03 0. -1.
         11   -1    0    0    0    0 -0.00000000000E+00 -0.00000000000E+00 -0.45593999997E+02  0.45594000000E+02  0.51100000000E-03 0.  1.
    9900012    2    1    2    0    0  0.83751784197E+01  0.13574690922E+01  0.16693603088E+02  0.72462009506E+02  0.70000572153E+02 0.  0.
        -12    1    1    2    0    0 -0.83751784197E+01 -0.13574690922E+01 -0.16693603088E+02  0.18725990494E+02  0.00000000000E+00 0.  1.
         11    1    3    3    0    0  0.30873896149E+01  0.76473191505E+01  0.23727286010E+02  0.25119664936E+02  0.51100000000E-03 0. -1.
        -11    1    3    3    0    0 -0.17684310187E+02  0.42352773519E+01 -0.11732370912E+02  0.21640723845E+02  0.51100000000E-03 0.  1.
        -12    1    3    3    0    0  0.22972098992E+02 -0.10525127410E+02  0.46986879901E+01  0.25701620726E+02  0.00000000000E+00 0.  1.
</event>
<event>
 7    1  0.2489154E-013  0.7246167E+02  0.7816164E-02  0.1226708E+00
        -11   -1    0    0    0    0  0.00000000000E+00  0.00000000000E+00  0.45593999997E+02  0.45594000000E+02  0.51100000000E-03 0.  1.
         11   -1    0    0    0    0 -0.00000000000E+00 -0.00000000000E+00 -0.45593999997E+02  0.45594000000E+02  0.51100000000E-03 0. -1.
    9900012    2    1    2    0    0 -0.14611367182E+01 -0.29584780696E+01 -0.18433333664E+02  0.72461673533E+02  0.70000134487E+02 0.  0.
        -12    1    1    2    0    0  0.14611367182E+01  0.29584780696E+01  0.18433333664E+02  0.18726326467E+02  0.00000000000E+00 0.  1.
         11    1    3    3    0    0 -0.23039482756E+02 -0.87849037483E+01 -0.31841542554E+02  0.40272523288E+02  0.51100000000E-03 0. -1.
        -11    1    3    3    0    0  0.25683114587E+01 -0.57313794116E+01  0.13344377571E+00  0.62819376956E+01  0.51100000000E-03 0.  1.
        -12    1    3    3    0    0  0.19010034579E+02  0.11557805090E+02  0.13274765115E+02  0.25907212549E+02  0.00000000000E+00 0.  1.
</event>
<event>
 7    1  0.2489154E-013  0.7246189E+02  0.7816164E-02  0.1226707E+00
        -11   -1    0    0    0    0  0.00000000000E+00  0.00000000000E+00  0.45593999997E+02  0.45594000000E+02  0.51100000000E-03 0.  1.
         11   -1    0    0    0    0 -0.00000000000E+00 -0.00000000000E+00 -0.45593999997E+02  0.45594000000E+02  0.51100000000E-03 0. -1.
    9900012    2    1    2    0    0 -0.67872305764E+01  0.96881953538E+01 -0.14516868908E+02  0.72461892262E+02  0.70000419422E+02 0.  0.
        -12    1    1    2    0    0  0.67872305764E+01 -0.96881953538E+01  0.14516868908E+02  0.18726107738E+02  0.00000000000E+00 0.  1.
         11    1    3    3    0    0 -0.79231035427E+01 -0.78050216772E+01 -0.54894570803E+01  0.12402744552E+02  0.51100000000E-03 0. -1.
        -11    1    3    3    0    0 -0.67680583115E+01 -0.19969319629E+02 -0.35597889950E+01  0.21383461781E+02  0.51100000000E-03 0.  1.
         12    1    3    3    0    0  0.79039312778E+01  0.37462536660E+02 -0.54676228328E+01  0.38675685929E+02  0.00000000000E+00 0. -1.
</event>
<event>
 7    1  0.2489154E-013  0.7246159E+02  0.7816164E-02  0.1226708E+00
        -11   -1    0    0    0    0  0.00000000000E+00  0.00000000000E+00  0.45593999997E+02  0.45594000000E+02  0.51100000000E-03 0. -1.
         11   -1    0    0    0    0 -0.00000000000E+00 -0.00000000000E+00 -0.45593999997E+02  0.45594000000E+02  0.51100000000E-03 0.  1.
    9900012    2    1    2    0    0  0.15775520181E+02 -0.58710786747E+01 -0.82062136207E+01  0.72461587002E+02  0.70000021765E+02 0.  0.
        -12    1    1    2    0    0 -0.15775520181E+02  0.58710786747E+01  0.82062136207E+01  0.18726412998E+02  0.00000000000E+00 0.  1.
         11    1    3    3    0    0 -0.12113946312E+02 -0.12299805885E+02 -0.32331948626E+01  0.17563782888E+02  0.51100000000E-03 0. -1.
        -11    1    3    3    0    0 -0.82824014511E+00  0.21991846404E+02 -0.18425661469E+01  0.22084436607E+02  0.51100000000E-03 0.  1.
        -12    1    3    3    0    0  0.28717706638E+02 -0.15563119194E+02 -0.31304526112E+01  0.32813367507E+02  0.00000000000E+00 0.  1.
</event>
<event>
 7    1  0.2489154E-013  0.7246151E+02  0.7816164E-02  0.1226708E+00
        -11   -1    0    0    0    0  0.00000000000E+00  0.00000000000E+00  0.45593999997E+02  0.45594000000E+02  0.51100000000E-03 0.  1.
         11   -1    0    0    0    0 -0.00000000000E+00 -0.00000000000E+00 -0.45593999997E+02  0.45594000000E+02  0.51100000000E-03 0. -1.
    9900012    2    1    2    0    0  0.16721311321E+01 -0.18002882963E+01 -0.18564599796E+02  0.72461510045E+02  0.69999921513E+02 0.  0.
        -12    1    1    2    0    0 -0.16721311321E+01  0.18002882963E+01  0.18564599796E+02  0.18726489955E+02  0.00000000000E+00 0.  1.
         11    1    3    3    0    0 -0.10296879736E+02 -0.19725529492E+02  0.94282960400E+01  0.24166402556E+02  0.51100000000E-03 0. -1.
        -11    1    3    3    0    0 -0.55032459858E+01  0.21422014284E+01  0.50166608651E+01  0.77486534208E+01  0.51100000000E-03 0.  1.
        -12    1    3    3    0    0  0.17472256854E+02  0.15783039767E+02 -0.33009556701E+02  0.40546454067E+02  0.00000000000E+00 0.  1.
</event>
<event>
 7    1  0.2489154E-013  0.7246096E+02  0.7816164E-02  0.1226710E+00
        -11   -1    0    0    0    0  0.00000000000E+00  0.00000000000E+00  0.45593999997E+02  0.45594000000E+02  0.51100000000E-03 0.  1.
         11   -1    0    0    0    0 -0.00000000000E+00 -0.00000000000E+00 -0.45593999997E+02  0.45594000000E+02  0.51100000000E-03 0. -1.
    9900012    2    1    2    0    0 -0.48487462387E+01 -0.15384458776E-01 -0.18088433249E+02  0.72460960881E+02  0.69999206122E+02 0.  0.
        -12    1    1    2    0    0  0.48487462387E+01  0.15384458776E-01  0.18088433249E+02  0.18727039119E+02  0.00000000000E+00 0.  1.
         11    1    3    3    0    0  0.27091944221E+01 -0.15592088611E+01  0.73366670635E+00  0.32107839831E+01  0.51100000000E-03 0. -1.
        -11    1    3    3    0    0 -0.22734259464E+01 -0.15355719511E+02  0.20740325610E+02  0.25906132361E+02  0.51100000000E-03 0.  1.
         12    1    3    3    0    0 -0.52845147143E+01  0.16899543914E+02 -0.39562425565E+02  0.43344044537E+02  0.00000000000E+00 0. -1.
</event>
<event>
 7    1  0.2489154E-013  0.7246152E+02  0.7816164E-02  0.1226708E+00
        -11   -1    0    0    0    0  0.00000000000E+00  0.00000000000E+00  0.45593999997E+02  0.45594000000E+02  0.51100000000E-03 0.  1.
         11   -1    0    0    0    0 -0.00000000000E+00 -0.00000000000E+00 -0.45593999997E+02  0.45594000000E+02  0.51100000000E-03 0. -1.
    9900012    2    1    2    0    0  0.12046359484E+02  0.11247023889E+01  0.14293396000E+02  0.72461524050E+02  0.69999939758E+02 0.  0.
        -12    1    1    2    0    0 -0.12046359484E+02 -0.11247023889E+01 -0.14293396000E+02  0.18726475950E+02  0.00000000000E+00 0.  1.
         11    1    3    3    0    0 -0.22923509480E+01 -0.35450813526E+01 -0.14340938368E+02  0.14949414310E+02  0.51100000000E-03 0. -1.
        -11    1    3    3    0    0  0.21682883472E+02  0.12732068921E+02 -0.17741027346E+01  0.25207150879E+02  0.51100000000E-03 0.  1.
         12    1    3    3    0    0 -0.73441730397E+01 -0.80622851800E+01  0.30408437103E+02  0.32304958861E+02  0.00000000000E+00 0. -1.
</event>
<event>
 7    1  0.2489154E-013  0.7246158E+02  0.7816164E-02  0.1226708E+00
        -11   -1    0    0    0    0  0.00000000000E+00  0.00000000000E+00  0.45593999997E+02  0.45594000000E+02  0.51100000000E-03 0.  1.
         11   -1    0    0    0    0 -0.00000000000E+00 -0.00000000000E+00 -0.45593999997E+02  0.45594000000E+02  0.51100000000E-03 0. -1.
    9900012    2    1    2    0    0 -0.14982254417E+01  0.11998650542E+02 -0.14299180893E+02  0.72461578331E+02  0.70000010469E+02 0.  0.
        -12    1    1    2    0    0  0.14982254417E+01 -0.11998650542E+02  0.14299180893E+02  0.18726421669E+02  0.00000000000E+00 0.  1.
         11    1    3    3    0    0  0.58082426922E+01 -0.13730116194E+02 -0.22882191465E+02  0.27310189681E+02  0.51100000000E-03 0. -1.
        -11    1    3    3    0    0  0.10049385616E+02  0.36759181978E+01 -0.72541085488E+01  0.12927668659E+02  0.51100000000E-03 0.  1.
         12    1    3    3    0    0 -0.17355853750E+02  0.22052848539E+02  0.15837119121E+02  0.32223719991E+02  0.00000000000E+00 0. -1.
</event>
<event>
 7    1  0.2489154E-013  0.7246160E+02  0.7816164E-02  0.1226708E+00
        -11   -1    0    0    0    0  0.00000000000E+00  0.00000000000E+00  0.45593999997E+02  0.45594000000E+02  0.51100000000E-03 0.  1.
         11   -1    0    0    0    0 -0.00000000000E+00 -0.00000000000E+00 -0.45593999997E+02  0.45594000000E+02  0.51100000000E-03 0. -1.
    9900012    2    1    2    0    0  0.14445641262E+02 -0.23259203794E+01 -0.11687242654E+02  0.72461598907E+02  0.70000037273E+02 0.  0.
        -12    1    1    2    0    0 -0.14445641262E+02  0.23259203794E+01  0.11687242654E+02  0.18726401093E+02  0.00000000000E+00 0.  1.
         11    1    3    3    0    0 -0.12383669180E+02 -0.48300579654E+01  0.37406920170E+00  0.13297543019E+02  0.51100000000E-03 0. -1.
        -11    1    3    3    0    0  0.25318794249E+02 -0.18251545931E+02  0.57923545087E+01  0.31744474198E+02  0.51100000000E-03 0.  1.
         12    1    3    3    0    0  0.15105161933E+01  0.20755683517E+02 -0.17853666364E+02  0.27419581690E+02  0.00000000000E+00 0. -1.
</event>
<event>
 7    1  0.2489154E-013  0.7246156E+02  0.7816164E-02  0.1226708E+00
        -11   -1    0    0    0    0  0.00000000000E+00  0.00000000000E+00  0.45593999997E+02  0.45594000000E+02  0.51100000000E-03 0. -1.
         11   -1    0    0    0    0 -0.00000000000E+00 -0.00000000000E+00 -0.45593999997E+02  0.45594000000E+02  0.51100000000E-03 0.  1.
    9900012    2    1    2    0    0  0.10927663928E+01  0.13381814951E+02  0.13054209992E+02  0.72461561249E+02  0.69999988216E+02 0.  0.
        -12    1    1    2    0    0 -0.10927663928E+01 -0.13381814951E+02 -0.13054209992E+02  0.18726438751E+02  0.00000000000E+00 0.  1.
         11    1    3    3    0    0  0.19940571355E+02 -0.36847601924E+01  0.36707107056E+01  0.20607716055E+02  0.51100000000E-03 0. -1.
        -11    1    3    3    0    0 -0.13514086692E+02  0.30701312171E+02 -0.15518834474E+01  0.33579896525E+02  0.51100000000E-03 0.  1.
         12    1    3    3    0    0 -0.53337182708E+01 -0.13634737028E+02  0.10935382734E+02  0.18273948669E+02  0.00000000000E+00 0. -1.
</event>
<event>
 7    1  0.2489154E-013  0.7246156E+02  0.7816164E-02  0.1226708E+00
        -11   -1    0    0    0    0  0.00000000000E+00  0.00000000000E+00  0.45593999997E+02  0.45594000000E+02  0.51100000000E-03 0.  1.
         11   -1    0    0    0    0 -0.00000000000E+00 -0.00000000000E+00 -0.45593999997E+02  0.45594000000E+02  0.51100000000E-03 0. -1.
    9900012    2    1    2    0    0  0.14837572447E+02 -0.83278220990E+01 -0.78213293483E+01  0.72461564947E+02  0.69999993034E+02 0.  0.
        -12    1    1    2    0    0 -0.14837572447E+02  0.83278220990E+01  0.78213293483E+01  0.18726435053E+02  0.00000000000E+00 0.  1.
         11    1    3    3    0    0  0.92445947293E+01  0.85373584328E+00  0.13727945127E+02  0.16572503561E+02  0.51100000000E-03 0. -1.
        -11    1    3    3    0    0 -0.80100002277E+01 -0.27458978562E+02 -0.14306098380E+02  0.31981558099E+02  0.51100000000E-03 0.  1.
         12    1    3    3    0    0  0.13602977945E+02  0.18277420619E+02 -0.72431760954E+01  0.23907503287E+02  0.00000000000E+00 0. -1.
</event>
<event>
 7    1  0.2489154E-013  0.7246158E+02  0.7816164E-02  0.1226708E+00
        -11   -1    0    0    0    0  0.00000000000E+00  0.00000000000E+00  0.45593999997E+02  0.45594000000E+02  0.51100000000E-03 0.  1.
         11   -1    0    0    0    0 -0.00000000000E+00 -0.00000000000E+00 -0.45593999997E+02  0.45594000000E+02  0.51100000000E-03 0. -1.
    9900012    2    1    2    0    0 -0.47723181523E+01  0.17911005620E+02  0.26645493062E+01  0.72461575732E+02  0.70000007083E+02 0.  0.
        -12    1    1    2    0    0  0.47723181523E+01 -0.17911005620E+02 -0.26645493062E+01  0.18726424268E+02  0.00000000000E+00 0.  1.
         11    1    3    3    0    0 -0.14342044075E+02 -0.96960973449E+01  0.30289505678E-01  0.17312118579E+02  0.51100000000E-03 0. -1.
        -11    1    3    3    0    0  0.11599031505E+02  0.12286268634E+02  0.23648310061E+02  0.29064282166E+02  0.51100000000E-03 0.  1.
         12    1    3    3    0    0 -0.20293055815E+01  0.15320834331E+02 -0.21014050261E+02  0.26085174987E+02  0.00000000000E+00 0. -1.
</event>
<event>
 7    1  0.2489154E-013  0.7246157E+02  0.7816164E-02  0.1226708E+00
        -11   -1    0    0    0    0  0.00000000000E+00  0.00000000000E+00  0.45593999997E+02  0.45594000000E+02  0.51100000000E-03 0. -1.
         11   -1    0    0    0    0 -0.00000000000E+00 -0.00000000000E+00 -0.45593999997E+02  0.45594000000E+02  0.51100000000E-03 0.  1.
    9900012    2    1    2    0    0  0.89663230731E+01  0.20449182137E+01  0.16312652291E+02  0.72461567752E+02  0.69999996689E+02 0.  0.
        -12    1    1    2    0    0 -0.89663230731E+01 -0.20449182137E+01 -0.16312652291E+02  0.18726432248E+02  0.00000000000E+00 0.  1.
         11    1    3    3    0    0  0.15119706711E+02  0.36314688057E+01  0.78519465117E+01  0.17419706111E+02  0.51100000000E-03 0. -1.
        -11    1    3    3    0    0 -0.73897140896E+01  0.93709151245E+01 -0.20684527339E+02  0.23880360050E+02  0.51100000000E-03 0.  1.
         12    1    3    3    0    0  0.12363304520E+01 -0.10957465717E+02  0.29145233119E+02  0.31161501592E+02  0.00000000000E+00 0. -1.
</event>
<event>
 7    1  0.2489154E-013  0.7246147E+02  0.7816164E-02  0.1226708E+00
        -11   -1    0    0    0    0  0.00000000000E+00  0.00000000000E+00  0.45593999997E+02  0.45594000000E+02  0.51100000000E-03 0.  1.
         11   -1    0    0    0    0 -0.00000000000E+00 -0.00000000000E+00 -0.45593999997E+02  0.45594000000E+02  0.51100000000E-03 0. -1.
    9900012    2    1    2    0    0  0.45622745075E+00  0.11556977159E+02 -0.14727901760E+02  0.72461469227E+02  0.69999868340E+02 0.  0.
        -12    1    1    2    0    0 -0.45622745075E+00 -0.11556977159E+02  0.14727901760E+02  0.18726530773E+02  0.00000000000E+00 0.  1.
         11    1    3    3    0    0  0.13332683058E+02 -0.69833809904E+01 -0.55383534649E+01  0.16037500021E+02  0.51100000000E-03 0. -1.
        -11    1    3    3    0    0 -0.13805644472E+02 -0.12473705220E+02  0.87740007510E+01  0.20571150446E+02  0.51100000000E-03 0.  1.
         12    1    3    3    0    0  0.92918886526E+00  0.31014063370E+02 -0.17963549046E+02  0.35852818760E+02  0.00000000000E+00 0. -1.
</event>
<event>
 7    1  0.2489154E-013  0.7246158E+02  0.7816164E-02  0.1226708E+00
        -11   -1    0    0    0    0  0.00000000000E+00  0.00000000000E+00  0.45593999997E+02  0.45594000000E+02  0.51100000000E-03 0. -1.
         11   -1    0    0    0    0 -0.00000000000E+00 -0.00000000000E+00 -0.45593999997E+02  0.45594000000E+02  0.51100000000E-03 0.  1.
    9900012    2    1    2    0    0 -0.11484487775E+02 -0.14784027732E+02 -0.46668116867E+00  0.72461582116E+02  0.70000015400E+02 0.  0.
        -12    1    1    2    0    0  0.11484487775E+02  0.14784027732E+02  0.46668116867E+00  0.18726417884E+02  0.00000000000E+00 0.  1.
         11    1    3    3    0    0  0.16427423441E+01  0.59151252388E+01  0.45049137758E+01  0.76145621928E+01  0.51100000000E-03 0. -1.
        -11    1    3    3    0    0 -0.27486717758E+02 -0.10589159155E+01 -0.21939403888E+02  0.35184917213E+02  0.51100000000E-03 0.  1.
         12    1    3    3    0    0  0.14359487639E+02 -0.19640237055E+02  0.16967808944E+02  0.29662102711E+02  0.00000000000E+00 0. -1.
</event>
<event>
 7    1  0.2489154E-013  0.7246157E+02  0.7816164E-02  0.1226708E+00
        -11   -1    0    0    0    0  0.00000000000E+00  0.00000000000E+00  0.45593999997E+02  0.45594000000E+02  0.51100000000E-03 0. -1.
         11   -1    0    0    0    0 -0.00000000000E+00 -0.00000000000E+00 -0.45593999997E+02  0.45594000000E+02  0.51100000000E-03 0.  1.
    9900012    2    1    2    0    0 -0.86888382464E+01 -0.16571731867E+02  0.74908219396E+00  0.72461565976E+02  0.69999994374E+02 0.  0.
        -12    1    1    2    0    0  0.86888382464E+01  0.16571731867E+02 -0.74908219396E+00  0.18726434024E+02  0.00000000000E+00 0.  1.
         11    1    3    3    0    0 -0.95499281360E+01  0.16383348748E+02  0.76623141266E+01  0.20453026711E+02  0.51100000000E-03 0. -1.
        -11    1    3    3    0    0  0.18505344578E+01  0.88377143941E+01  0.20378390728E+01  0.92564821525E+01  0.51100000000E-03 0.  1.
        -12    1    3    3    0    0 -0.98944456820E+00 -0.41792795009E+02 -0.89510710055E+01  0.42752057112E+02  0.00000000000E+00 0.  1.
</event>
<event>
 7    1  0.2489154E-013  0.7246174E+02  0.7816164E-02  0.1226708E+00
        -11   -1    0    0    0    0  0.00000000000E+00  0.00000000000E+00  0.45593999997E+02  0.45594000000E+02  0.51100000000E-03 0. -1.
         11   -1    0    0    0    0 -0.00000000000E+00 -0.00000000000E+00 -0.45593999997E+02  0.45594000000E+02  0.51100000000E-03 0.  1.
    9900012    2    1    2    0    0 -0.22178212526E+00 -0.18549917398E+02  0.25542433196E+01  0.72461740850E+02  0.70000222181E+02 0.  0.
        -12    1    1    2    0    0  0.22178212526E+00  0.18549917398E+02 -0.25542433196E+01  0.18726259150E+02  0.00000000000E+00 0.  1.
         11    1    3    3    0    0  0.10618859629E+01 -0.22039328012E+01 -0.54095623084E+01  0.59370267154E+01  0.51100000000E-03 0. -1.
        -11    1    3    3    0    0  0.34812334898E+01  0.59667008444E+01 -0.25278748621E+02  0.26205641333E+02  0.51100000000E-03 0.  1.
         12    1    3    3    0    0 -0.47649015780E+01 -0.22312685442E+02  0.33242554249E+02  0.40319072802E+02  0.00000000000E+00 0. -1.
</event>
<event>
 7    1  0.2489154E-013  0.7246173E+02  0.7816164E-02  0.1226708E+00
        -11   -1    0    0    0    0  0.00000000000E+00  0.00000000000E+00  0.45593999997E+02  0.45594000000E+02  0.51100000000E-03 0.  1.
         11   -1    0    0    0    0 -0.00000000000E+00 -0.00000000000E+00 -0.45593999997E+02  0.45594000000E+02  0.51100000000E-03 0. -1.
    9900012    2    1    2    0    0 -0.27125966047E+01  0.13545746618E+02 -0.12642301132E+02  0.72461729423E+02  0.70000207295E+02 0.  0.
        -12    1    1    2    0    0  0.27125966047E+01 -0.13545746618E+02  0.12642301132E+02  0.18726270577E+02  0.00000000000E+00 0.  1.
         11    1    3    3    0    0 -0.80884685738E+01  0.70626259191E+01 -0.10975410228E+02  0.15354596663E+02  0.51100000000E-03 0. -1.
        -11    1    3    3    0    0 -0.22024918427E+02  0.88147612331E+01 -0.13357700180E+02  0.27225451358E+02  0.51100000000E-03 0.  1.
        -12    1    3    3    0    0  0.27400790396E+02 -0.23316405338E+01  0.11690809276E+02  0.29881681402E+02  0.00000000000E+00 0.  1.
</event>
<event>
 7    1  0.2489154E-013  0.7246169E+02  0.7816164E-02  0.1226708E+00
        -11   -1    0    0    0    0  0.00000000000E+00  0.00000000000E+00  0.45593999997E+02  0.45594000000E+02  0.51100000000E-03 0. -1.
         11   -1    0    0    0    0 -0.00000000000E+00 -0.00000000000E+00 -0.45593999997E+02  0.45594000000E+02  0.51100000000E-03 0.  1.
    9900012    2    1    2    0    0  0.13366356859E+02  0.32138774823E+01  0.12715594439E+02  0.72461685731E+02  0.70000150378E+02 0.  0.
        -12    1    1    2    0    0 -0.13366356859E+02 -0.32138774823E+01 -0.12715594439E+02  0.18726314269E+02  0.00000000000E+00 0.  1.
         11    1    3    3    0    0 -0.10263596166E+02 -0.13682869530E+02  0.18225521995E+02  0.24994638966E+02  0.51100000000E-03 0. -1.
        -11    1    3    3    0    0  0.92253949258E+01  0.58318491344E+01  0.15965977094E+02  0.19339875922E+02  0.51100000000E-03 0.  1.
        -12    1    3    3    0    0  0.14404558099E+02  0.11064897878E+02 -0.21475904649E+02  0.28127170842E+02  0.00000000000E+00 0.  1.
</event>
<event>
 7    1  0.2489154E-013  0.7246079E+02  0.7816164E-02  0.1226710E+00
        -11   -1    0    0    0    0  0.00000000000E+00  0.00000000000E+00  0.45593999997E+02  0.45594000000E+02  0.51100000000E-03 0. -1.
         11   -1    0    0    0    0 -0.00000000000E+00 -0.00000000000E+00 -0.45593999997E+02  0.45594000000E+02  0.51100000000E-03 0.  1.
    9900012    2    1    2    0    0  0.16685344850E+02 -0.58019284365E+01  0.62165411400E+01  0.72460787444E+02  0.69998980185E+02 0.  0.
        -12    1    1    2    0    0 -0.16685344850E+02  0.58019284365E+01 -0.62165411400E+01  0.18727212556E+02  0.00000000000E+00 0.  1.
         11    1    3    3    0    0  0.34068283809E+02  0.33204219599E+01 -0.25057037455E+01  0.34321301188E+02  0.51100000000E-03 0. -1.
        -11    1    3    3    0    0  0.51482416436E+01  0.73518130097E+01  0.40213748601E+01  0.98348870140E+01  0.51100000000E-03 0.  1.
        -12    1    3    3    0    0 -0.22531180603E+02 -0.16474163406E+02  0.47008700253E+01  0.28304599242E+02  0.00000000000E+00 0.  1.
</event>
<event>
 7    1  0.2489154E-013  0.7246155E+02  0.7816164E-02  0.1226708E+00
        -11   -1    0    0    0    0  0.00000000000E+00  0.00000000000E+00  0.45593999997E+02  0.45594000000E+02  0.51100000000E-03 0. -1.
         11   -1    0    0    0    0 -0.00000000000E+00 -0.00000000000E+00 -0.45593999997E+02  0.45594000000E+02  0.51100000000E-03 0.  1.
    9900012    2    1    2    0    0  0.35169496210E+01  0.45794522061E+01  0.17814030917E+02  0.72461547729E+02  0.69999970605E+02 0.  0.
        -12    1    1    2    0    0 -0.35169496210E+01 -0.45794522061E+01 -0.17814030917E+02  0.18726452271E+02  0.00000000000E+00 0.  1.
         11    1    3    3    0    0  0.18148314600E+02  0.58846705158E+01  0.26951008928E+01  0.19267958869E+02  0.51100000000E-03 0. -1.
        -11    1    3    3    0    0 -0.11442143517E+02  0.13961405544E+02  0.27763364194E+02  0.33115674305E+02  0.51100000000E-03 0.  1.
        -12    1    3    3    0    0 -0.31892214618E+01 -0.15266623854E+02 -0.12644434170E+02  0.20077914556E+02  0.00000000000E+00 0.  1.
</event>
<event>
 7    1  0.2489154E-013  0.7246157E+02  0.7816164E-02  0.1226708E+00
        -11   -1    0    0    0    0  0.00000000000E+00  0.00000000000E+00  0.45593999997E+02  0.45594000000E+02  0.51100000000E-03 0.  1.
         11   -1    0    0    0    0 -0.00000000000E+00 -0.00000000000E+00 -0.45593999997E+02  0.45594000000E+02  0.51100000000E-03 0. -1.
    9900012    2    1    2    0    0  0.33019076939E+01 -0.37542576509E+01 -0.18046665950E+02  0.72461569565E+02  0.69999999049E+02 0.  0.
        -12    1    1    2    0    0 -0.33019076939E+01  0.37542576509E+01  0.18046665950E+02  0.18726430435E+02  0.00000000000E+00 0.  1.
         11    1    3    3    0    0  0.22060787273E+02 -0.12569263598E+02 -0.30277311600E-01  0.25390266629E+02  0.51100000000E-03 0. -1.
        -11    1    3    3    0    0 -0.42913051047E+01  0.18468387724E+02  0.36284475003E+01  0.19304462597E+02  0.51100000000E-03 0.  1.
        -12    1    3    3    0    0 -0.14467574475E+02 -0.96533817773E+01 -0.21644836139E+02  0.27766840339E+02  0.00000000000E+00 0.  1.
</event>
<event>
 7    1  0.2489154E-013  0.7246150E+02  0.7816164E-02  0.1226708E+00
        -11   -1    0    0    0    0  0.00000000000E+00  0.00000000000E+00  0.45593999997E+02  0.45594000000E+02  0.51100000000E-03 0. -1.
         11   -1    0    0    0    0 -0.00000000000E+00 -0.00000000000E+00 -0.45593999997E+02  0.45594000000E+02  0.51100000000E-03 0.  1.
    9900012    2    1    2    0    0 -0.15030873758E+02 -0.86376892083E+01  0.70813198429E+01  0.72461496549E+02  0.69999903932E+02 0.  0.
        -12    1    1    2    0    0  0.15030873758E+02  0.86376892083E+01 -0.70813198429E+01  0.18726503451E+02  0.00000000000E+00 0.  1.
         11    1    3    3    0    0 -0.17559541199E+02 -0.66141120082E+00  0.10535972925E+02  0.20488574319E+02  0.51100000000E-03 0. -1.
        -11    1    3    3    0    0 -0.16485339512E+02  0.18144628160E+01  0.16012223840E+02  0.23053199489E+02  0.51100000000E-03 0.  1.
        -12    1    3    3    0    0  0.19014006952E+02 -0.97907408235E+01 -0.19466876922E+02  0.28919722740E+02  0.00000000000E+00 0.  1.
</event>
<event>
 7    1  0.2489154E-013  0.7246155E+02  0.7816164E-02  0.1226708E+00
        -11   -1    0    0    0    0  0.00000000000E+00  0.00000000000E+00  0.45593999997E+02  0.45594000000E+02  0.51100000000E-03 0.  1.
         11   -1    0    0    0    0 -0.00000000000E+00 -0.00000000000E+00 -0.45593999997E+02  0.45594000000E+02  0.51100000000E-03 0. -1.
    9900012    2    1    2    0    0  0.10244340663E+02 -0.10706787747E+02  0.11449812451E+02  0.72461547462E+02  0.69999970257E+02 0.  0.
        -12    1    1    2    0    0 -0.10244340663E+02  0.10706787747E+02 -0.11449812451E+02  0.18726452538E+02  0.00000000000E+00 0.  1.
         11    1    3    3    0    0  0.14354165729E+02  0.63996507092E+01 -0.70124814073E+01  0.17209662946E+02  0.51100000000E-03 0. -1.
        -11    1    3    3    0    0 -0.24511884092E+02 -0.66647143915E+01 -0.64945862186E+00  0.25410090052E+02  0.51100000000E-03 0.  1.
         12    1    3    3    0    0  0.20402059027E+02 -0.10441724064E+02  0.19111752480E+02  0.29841794464E+02  0.00000000000E+00 0. -1.
</event>
<event>
 7    1  0.2489154E-013  0.7246163E+02  0.7816164E-02  0.1226708E+00
        -11   -1    0    0    0    0  0.00000000000E+00  0.00000000000E+00  0.45593999997E+02  0.45594000000E+02  0.51100000000E-03 0. -1.
         11   -1    0    0    0    0 -0.00000000000E+00 -0.00000000000E+00 -0.45593999997E+02  0.45594000000E+02  0.51100000000E-03 0.  1.
    9900012    2    1    2    0    0 -0.60095297397E+01 -0.12240139752E+02  0.12835170183E+02  0.72461626553E+02  0.70000073288E+02 0.  0.
        -12    1    1    2    0    0  0.60095297397E+01  0.12240139752E+02 -0.12835170183E+02  0.18726373447E+02  0.00000000000E+00 0.  1.
         11    1    3    3    0    0  0.74618745879E+01  0.19063299350E+02 -0.71850590856E+01  0.21695944985E+02  0.51100000000E-03 0. -1.
        -11    1    3    3    0    0 -0.12868758598E+02 -0.87504016281E+01 -0.56813949549E+01  0.16566614784E+02  0.51100000000E-03 0.  1.
        -12    1    3    3    0    0 -0.60264572995E+00 -0.22553037474E+02  0.25701624224E+02  0.34199066784E+02  0.00000000000E+00 0.  1.
</event>
<event>
 7    1  0.2489154E-013  0.7246157E+02  0.7816164E-02  0.1226708E+00
        -11   -1    0    0    0    0  0.00000000000E+00  0.00000000000E+00  0.45593999997E+02  0.45594000000E+02  0.51100000000E-03 0.  1.
         11   -1    0    0    0    0 -0.00000000000E+00 -0.00000000000E+00 -0.45593999997E+02  0.45594000000E+02  0.51100000000E-03 0. -1.
    9900012    2    1    2    0    0 -0.14632595453E+02  0.10759658397E+02 -0.45602789561E+01  0.72461568341E+02  0.69999997455E+02 0.  0.
        -12    1    1    2    0    0  0.14632595453E+02 -0.10759658397E+02  0.45602789561E+01  0.18726431659E+02  0.00000000000E+00 0.  1.
         11    1    3    3    0    0  0.12712525459E+01 -0.12595140332E+02 -0.12582737174E+02  0.17848779176E+02  0.51100000000E-03 0. -1.
        -11    1    3    3    0    0 -0.31155566488E+02  0.92431345440E+01  0.46100222163E+00  0.32501036641E+02  0.51100000000E-03 0.  1.
        -12    1    3    3    0    0  0.15251718489E+02  0.14111664185E+02  0.75614559960E+01  0.22111752525E+02  0.00000000000E+00 0.  1.
</event>
<event>
 7    1  0.2489154E-013  0.7246155E+02  0.7816164E-02  0.1226708E+00
        -11   -1    0    0    0    0  0.00000000000E+00  0.00000000000E+00  0.45593999997E+02  0.45594000000E+02  0.51100000000E-03 0.  1.
         11   -1    0    0    0    0 -0.00000000000E+00 -0.00000000000E+00 -0.45593999997E+02  0.45594000000E+02  0.51100000000E-03 0. -1.
    9900012    2    1    2    0    0 -0.96295019410E+01  0.95090920171E+01 -0.12943328350E+02  0.72461551127E+02  0.69999975031E+02 0.  0.
        -12    1    1    2    0    0  0.96295019410E+01 -0.95090920171E+01  0.12943328350E+02  0.18726448873E+02  0.00000000000E+00 0.  1.
         11    1    3    3    0    0 -0.20432639426E+02 -0.22069327450E+02 -0.58772608331E+01  0.30644578039E+02  0.51100000000E-03 0. -1.
        -11    1    3    3    0    0 -0.63612575412E+01  0.46974018534E+01 -0.59634878516E+01  0.99042601589E+01  0.51100000000E-03 0.  1.
        -12    1    3    3    0    0  0.17164395026E+02  0.26881017614E+02 -0.11025796654E+01  0.31912712929E+02  0.00000000000E+00 0.  1.
</event>
<event>
 7    1  0.2489154E-013  0.7246151E+02  0.7816164E-02  0.1226708E+00
        -11   -1    0    0    0    0  0.00000000000E+00  0.00000000000E+00  0.45593999997E+02  0.45594000000E+02  0.51100000000E-03 0. -1.
         11   -1    0    0    0    0 -0.00000000000E+00 -0.00000000000E+00 -0.45593999997E+02  0.45594000000E+02  0.51100000000E-03 0.  1.
    9900012    2    1    2    0    0  0.17423525252E+02  0.52187504961E+00 -0.68432468459E+01  0.72461505048E+02  0.69999915005E+02 0.  0.
        -12    1    1    2    0    0 -0.17423525252E+02 -0.52187504961E+00  0.68432468459E+01  0.18726494952E+02  0.00000000000E+00 0.  1.
         11    1    3    3    0    0 -0.75827385946E+01  0.12042204091E+02  0.14567393545E+02  0.20364713573E+02  0.51100000000E-03 0. -1.
        -11    1    3    3    0    0 -0.75932464141E+01  0.65153109453E+01 -0.67009608095E+01  0.12041990859E+02  0.51100000000E-03 0.  1.
        -12    1    3    3    0    0  0.32599510261E+02 -0.18035639987E+02 -0.14709679581E+02  0.40054800616E+02  0.00000000000E+00 0.  1.
</event>
<event>
 7    1  0.2489154E-013  0.7246160E+02  0.7816164E-02  0.1226708E+00
        -11   -1    0    0    0    0  0.00000000000E+00  0.00000000000E+00  0.45593999997E+02  0.45594000000E+02  0.51100000000E-03 0.  1.
         11   -1    0    0    0    0 -0.00000000000E+00 -0.00000000000E+00 -0.45593999997E+02  0.45594000000E+02  0.51100000000E-03 0. -1.
    9900012    2    1    2    0    0 -0.14017717968E+02 -0.49264154696E+01 -0.11397895331E+02  0.72461601403E+02  0.70000040525E+02 0.  0.
        -12    1    1    2    0    0  0.14017717968E+02  0.49264154696E+01  0.11397895331E+02  0.18726398597E+02  0.00000000000E+00 0.  1.
         11    1    3    3    0    0 -0.16349116475E+02  0.58705070913E+01 -0.17848959260E+02  0.24906661959E+02  0.51100000000E-03 0. -1.
        -11    1    3    3    0    0 -0.61695444598E+01 -0.25028237757E+00 -0.18314164696E+02  0.19327041907E+02  0.51100000000E-03 0.  1.
        -12    1    3    3    0    0  0.85009429661E+01 -0.10546640183E+02  0.24765228625E+02  0.28227897537E+02  0.00000000000E+00 0.  1.
</event>
<event>
 7    1  0.2489154E-013  0.7246154E+02  0.7816164E-02  0.1226708E+00
        -11   -1    0    0    0    0  0.00000000000E+00  0.00000000000E+00  0.45593999997E+02  0.45594000000E+02  0.51100000000E-03 0. -1.
         11   -1    0    0    0    0 -0.00000000000E+00 -0.00000000000E+00 -0.45593999997E+02  0.45594000000E+02  0.51100000000E-03 0.  1.
    9900012    2    1    2    0    0 -0.23621859323E+01  0.58856519526E+01  0.17619859958E+02  0.72461540478E+02  0.69999961159E+02 0.  0.
        -12    1    1    2    0    0  0.23621859323E+01 -0.58856519526E+01 -0.17619859958E+02  0.18726459522E+02  0.00000000000E+00 0.  1.
         11    1    3    3    0    0 -0.15126676779E+02 -0.13566096950E+02  0.12168659430E+02  0.23683994794E+02  0.51100000000E-03 0. -1.
        -11    1    3    3    0    0  0.20885372047E+02  0.30272709510E+01  0.17017221794E+02  0.27109942324E+02  0.51100000000E-03 0.  1.
        -12    1    3    3    0    0 -0.81208812003E+01  0.16424477951E+02 -0.11566021266E+02  0.21667603360E+02  0.00000000000E+00 0.  1.
</event>
<event>
 7    1  0.2489154E-013  0.7246149E+02  0.7816164E-02  0.1226708E+00
        -11   -1    0    0    0    0  0.00000000000E+00  0.00000000000E+00  0.45593999997E+02  0.45594000000E+02  0.51100000000E-03 0.  1.
         11   -1    0    0    0    0 -0.00000000000E+00 -0.00000000000E+00 -0.45593999997E+02  0.45594000000E+02  0.51100000000E-03 0. -1.
    9900012    2    1    2    0    0 -0.98860906312E+01 -0.22927378265E+01 -0.15738195922E+02  0.72461488162E+02  0.69999893008E+02 0.  0.
        -12    1    1    2    0    0  0.98860906312E+01  0.22927378265E+01  0.15738195922E+02  0.18726511838E+02  0.00000000000E+00 0.  1.
         11    1    3    3    0    0 -0.11201886337E+01  0.10212817062E+02 -0.25280501621E+02  0.27288463082E+02  0.51100000000E-03 0. -1.
        -11    1    3    3    0    0  0.71303855981E+01 -0.22808155069E+02 -0.14408456672E+00  0.23897177596E+02  0.51100000000E-03 0.  1.
        -12    1    3    3    0    0 -0.15896287596E+02  0.10302600180E+02  0.96863902655E+01  0.21275847484E+02  0.00000000000E+00 0.  1.
</event>
<event>
 7    1  0.2489154E-013  0.7246155E+02  0.7816164E-02  0.1226708E+00
        -11   -1    0    0    0    0  0.00000000000E+00  0.00000000000E+00  0.45593999997E+02  0.45594000000E+02  0.51100000000E-03 0. -1.
         11   -1    0    0    0    0 -0.00000000000E+00 -0.00000000000E+00 -0.45593999997E+02  0.45594000000E+02  0.51100000000E-03 0.  1.
    9900012    2    1    2    0    0  0.15312321232E+02 -0.64400972741E+01  0.86451030304E+01  0.72461552371E+02  0.69999976651E+02 0.  0.
        -12    1    1    2    0    0 -0.15312321232E+02  0.64400972741E+01 -0.86451030304E+01  0.18726447629E+02  0.00000000000E+00 0.  1.
         11    1    3    3    0    0 -0.55051953041E+01  0.71266363275E+01 -0.13324149013E+02  0.16081948510E+02  0.51100000000E-03 0. -1.
        -11    1    3    3    0    0  0.25565469451E+01 -0.97966160858E+01 -0.13162638617E+02  0.16606163755E+02  0.51100000000E-03 0.  1.
         12    1    3    3    0    0  0.18260969591E+02 -0.37701175157E+01  0.35131890661E+02  0.39773440106E+02  0.00000000000E+00 0. -1.
</event>
<event>
 7    1  0.2489154E-013  0.7246157E+02  0.7816164E-02  0.1226708E+00
        -11   -1    0    0    0    0  0.00000000000E+00  0.00000000000E+00  0.45593999997E+02  0.45594000000E+02  0.51100000000E-03 0. -1.
         11   -1    0    0    0    0 -0.00000000000E+00 -0.00000000000E+00 -0.45593999997E+02  0.45594000000E+02  0.51100000000E-03 0.  1.
    9900012    2    1    2    0    0 -0.64884262736E+01  0.39874095491E+00  0.17561904508E+02  0.72461570554E+02  0.70000000338E+02 0.  0.
        -12    1    1    2    0    0  0.64884262736E+01 -0.39874095491E+00 -0.17561904508E+02  0.18726429446E+02  0.00000000000E+00 0.  1.
         11    1    3    3    0    0 -0.10399190451E+02  0.14082734195E+02  0.25445192438E+02  0.30885666302E+02  0.51100000000E-03 0. -1.
        -11    1    3    3    0    0 -0.71295361784E+00  0.58970286373E+01  0.11937102368E+02  0.13333329023E+02  0.51100000000E-03 0.  1.
        -12    1    3    3    0    0  0.46237177955E+01 -0.19581021878E+02 -0.19820390298E+02  0.28242575229E+02  0.00000000000E+00 0.  1.
</event>
<event>
 7    1  0.2489154E-013  0.7246154E+02  0.7816164E-02  0.1226708E+00
        -11   -1    0    0    0    0  0.00000000000E+00  0.00000000000E+00  0.45593999997E+02  0.45594000000E+02  0.51100000000E-03 0. -1.
         11   -1    0    0    0    0 -0.00000000000E+00 -0.00000000000E+00 -0.45593999997E+02  0.45594000000E+02  0.51100000000E-03 0.  1.
    9900012    2    1    2    0    0 -0.18176277122E+01  0.17162803863E+02  0.72673706527E+01  0.72461540560E+02  0.69999961266E+02 0.  0.
        -12    1    1    2    0    0  0.18176277122E+01 -0.17162803863E+02 -0.72673706527E+01  0.18726459440E+02  0.00000000000E+00 0.  1.
         11    1    3    3    0    0 -0.60576453047E+01  0.24815322487E+01  0.23317176295E+02  0.24218665933E+02  0.51100000000E-03 0. -1.
        -11    1    3    3    0    0  0.12092334708E+02 -0.10361892601E+02  0.24784426851E+01  0.16116328843E+02  0.51100000000E-03 0.  1.
        -12    1    3    3    0    0 -0.78523171159E+01  0.25043164215E+02 -0.18528248327E+02  0.32126545785E+02  0.00000000000E+00 0.  1.
</event>
<event>
 7    1  0.2489154E-013  0.7246152E+02  0.7816164E-02  0.1226708E+00
        -11   -1    0    0    0    0  0.00000000000E+00  0.00000000000E+00  0.45593999997E+02  0.45594000000E+02  0.51100000000E-03 0. -1.
         11   -1    0    0    0    0 -0.00000000000E+00 -0.00000000000E+00 -0.45593999997E+02  0.45594000000E+02  0.51100000000E-03 0.  1.
    9900012    2    1    2    0    0 -0.70979975100E+01 -0.11434580489E+02  0.13021125651E+02  0.72461523748E+02  0.69999939365E+02 0.  0.
        -12    1    1    2    0    0  0.70979975100E+01  0.11434580489E+02 -0.13021125651E+02  0.18726476252E+02  0.00000000000E+00 0.  1.
         11    1    3    3    0    0  0.22953895576E+00 -0.25171114837E+02  0.28751341149E+02  0.38213575185E+02  0.51100000000E-03 0. -1.
        -11    1    3    3    0    0  0.19884539763E+01 -0.45264123019E+01  0.35642793504E+01  0.60947883549E+01  0.51100000000E-03 0.  1.
        -12    1    3    3    0    0 -0.93159904421E+01  0.18262946650E+02 -0.19294494849E+02  0.28153160209E+02  0.00000000000E+00 0.  1.
</event>
<event>
 7    1  0.2489154E-013  0.7246158E+02  0.7816164E-02  0.1226708E+00
        -11   -1    0    0    0    0  0.00000000000E+00  0.00000000000E+00  0.45593999997E+02  0.45594000000E+02  0.51100000000E-03 0. -1.
         11   -1    0    0    0    0 -0.00000000000E+00 -0.00000000000E+00 -0.45593999997E+02  0.45594000000E+02  0.51100000000E-03 0.  1.
    9900012    2    1    2    0    0 -0.66832317964E+01  0.13238210673E+02  0.11435165913E+02  0.72461579399E+02  0.70000011860E+02 0.  0.
        -12    1    1    2    0    0  0.66832317964E+01 -0.13238210673E+02 -0.11435165913E+02  0.18726420601E+02  0.00000000000E+00 0.  1.
         11    1    3    3    0    0 -0.12717202753E+02  0.35051555798E+01 -0.15445165963E+02  0.20311733392E+02  0.51100000000E-03 0. -1.
        -11    1    3    3    0    0  0.72269350768E+01  0.21174400041E+02 -0.57596371196E+00  0.22381142557E+02  0.51100000000E-03 0.  1.
         12    1    3    3    0    0 -0.11929641205E+01 -0.11441344948E+02  0.27456295589E+02  0.29768703449E+02  0.00000000000E+00 0. -1.
</event>
<event>
 7    1  0.2489154E-013  0.7246149E+02  0.7816164E-02  0.1226708E+00
        -11   -1    0    0    0    0  0.00000000000E+00  0.00000000000E+00  0.45593999997E+02  0.45594000000E+02  0.51100000000E-03 0.  1.
         11   -1    0    0    0    0 -0.00000000000E+00 -0.00000000000E+00 -0.45593999997E+02  0.45594000000E+02  0.51100000000E-03 0. -1.
    9900012    2    1    2    0    0 -0.12130472376E+02 -0.11929220270E+01 -0.14216561474E+02  0.72461493567E+02  0.69999900049E+02 0.  0.
        -12    1    1    2    0    0  0.12130472376E+02  0.11929220270E+01  0.14216561474E+02  0.18726506433E+02  0.00000000000E+00 0.  1.
         11    1    3    3    0    0 -0.77133855455E+01 -0.15418871331E+01 -0.35766964368E+01  0.86409773849E+01  0.51100000000E-03 0. -1.
        -11    1    3    3    0    0 -0.27949124887E+02 -0.17285171499E+02 -0.10101868255E+01  0.32877822516E+02  0.51100000000E-03 0.  1.
        -12    1    3    3    0    0  0.23532038056E+02  0.17634136606E+02 -0.96296782114E+01  0.30942693667E+02  0.00000000000E+00 0.  1.
</event>
<event>
 7    1  0.2489154E-013  0.7246156E+02  0.7816164E-02  0.1226708E+00
        -11   -1    0    0    0    0  0.00000000000E+00  0.00000000000E+00  0.45593999997E+02  0.45594000000E+02  0.51100000000E-03 0.  1.
         11   -1    0    0    0    0 -0.00000000000E+00 -0.00000000000E+00 -0.45593999997E+02  0.45594000000E+02  0.51100000000E-03 0. -1.
    9900012    2    1    2    0    0 -0.17380019089E+02  0.26847206955E+01 -0.64348219904E+01  0.72461555522E+02  0.69999980756E+02 0.  0.
        -12    1    1    2    0    0  0.17380019089E+02 -0.26847206955E+01  0.64348219904E+01  0.18726444478E+02  0.00000000000E+00 0.  1.
         11    1    3    3    0    0 -0.29459683816E+02  0.10756653882E+02  0.10192397723E+02  0.32976712160E+02  0.51100000000E-03 0. -1.
        -11    1    3    3    0    0 -0.65623833547E+01  0.85388966443E+01 -0.61970680093E+01  0.12425026494E+02  0.51100000000E-03 0.  1.
        -12    1    3    3    0    0  0.18642048082E+02 -0.16610829831E+02 -0.10430151704E+02  0.27059816868E+02  0.00000000000E+00 0.  1.
</event>
<event>
 7    1  0.2489154E-013  0.7246156E+02  0.7816164E-02  0.1226708E+00
        -11   -1    0    0    0    0  0.00000000000E+00  0.00000000000E+00  0.45593999997E+02  0.45594000000E+02  0.51100000000E-03 0. -1.
         11   -1    0    0    0    0 -0.00000000000E+00 -0.00000000000E+00 -0.45593999997E+02  0.45594000000E+02  0.51100000000E-03 0.  1.
    9900012    2    1    2    0    0  0.51100216514E+01  0.67577144373E+01  0.16700314044E+02  0.72461561074E+02  0.69999987988E+02 0.  0.
        -12    1    1    2    0    0 -0.51100216514E+01 -0.67577144373E+01 -0.16700314044E+02  0.18726438926E+02  0.00000000000E+00 0.  1.
         11    1    3    3    0    0  0.29041547322E+02  0.25542676124E+02  0.27438698151E+01  0.38773297464E+02  0.51100000000E-03 0.  1.
        -11    1    3    3    0    0 -0.11081915356E+02 -0.94268516673E+01  0.86684968739E+01  0.16935678865E+02  0.51100000000E-03 0. -1.
        -12    1    3    3    0    0 -0.12849610315E+02 -0.93581100191E+01  0.52879473551E+01  0.16752584744E+02  0.00000000000E+00 0.  1.
</event>
<event>
 7    1  0.2489154E-013  0.7246157E+02  0.7816164E-02  0.1226708E+00
        -11   -1    0    0    0    0  0.00000000000E+00  0.00000000000E+00  0.45593999997E+02  0.45594000000E+02  0.51100000000E-03 0.  1.
         11   -1    0    0    0    0 -0.00000000000E+00 -0.00000000000E+00 -0.45593999997E+02  0.45594000000E+02  0.51100000000E-03 0. -1.
    9900012    2    1    2    0    0 -0.48120016185E+00  0.18211926862E+02  0.43328435972E+01  0.72461565014E+02  0.69999993122E+02 0.  0.
        -12    1    1    2    0    0  0.48120016185E+00 -0.18211926862E+02 -0.43328435972E+01  0.18726434986E+02  0.00000000000E+00 0.  1.
         11    1    3    3    0    0  0.26841305622E+01  0.17374661110E+02  0.89057768570E+01  0.19707771747E+02  0.51100000000E-03 0. -1.
        -11    1    3    3    0    0 -0.19516208221E+01  0.24903244596E+02  0.71137264930E+01  0.25972784219E+02  0.51100000000E-03 0.  1.
        -12    1    3    3    0    0 -0.12137099019E+01 -0.24065978843E+02 -0.11686659753E+02  0.26781009047E+02  0.00000000000E+00 0.  1.
</event>
<event>
 7    1  0.2489154E-013  0.7246157E+02  0.7816164E-02  0.1226708E+00
        -11   -1    0    0    0    0  0.00000000000E+00  0.00000000000E+00  0.45593999997E+02  0.45594000000E+02  0.51100000000E-03 0.  1.
         11   -1    0    0    0    0 -0.00000000000E+00 -0.00000000000E+00 -0.45593999997E+02  0.45594000000E+02  0.51100000000E-03 0. -1.
    9900012    2    1    2    0    0  0.14619423563E+02  0.11423242183E+02  0.25418888228E+01  0.72461569318E+02  0.69999998728E+02 0.  0.
        -12    1    1    2    0    0 -0.14619423563E+02 -0.11423242183E+02 -0.25418888228E+01  0.18726430682E+02  0.00000000000E+00 0.  1.
         11    1    3    3    0    0 -0.73051870581E+01 -0.28631179316E+01  0.11728154367E+02  0.14110733764E+02  0.51100000000E-03 0. -1.
        -11    1    3    3    0    0 -0.13894072394E+02  0.10958625424E+02  0.68371816114E+01  0.18970602824E+02  0.51100000000E-03 0.  1.
         12    1    3    3    0    0  0.35818683015E+02  0.33277346909E+01 -0.16023447156E+02  0.39380232729E+02  0.00000000000E+00 0. -1.
</event>
<event>
 7    1  0.2489154E-013  0.7246154E+02  0.7816164E-02  0.1226708E+00
        -11   -1    0    0    0    0  0.00000000000E+00  0.00000000000E+00  0.45593999997E+02  0.45594000000E+02  0.51100000000E-03 0.  1.
         11   -1    0    0    0    0 -0.00000000000E+00 -0.00000000000E+00 -0.45593999997E+02  0.45594000000E+02  0.51100000000E-03 0. -1.
    9900012    2    1    2    0    0  0.79707936217E+01 -0.13536477005E+02  0.10193658288E+02  0.72461536640E+02  0.69999956159E+02 0.  0.
        -12    1    1    2    0    0 -0.79707936217E+01  0.13536477005E+02 -0.10193658288E+02  0.18726463360E+02  0.00000000000E+00 0.  1.
         11    1    3    3    0    0 -0.61004515902E-01  0.15296988116E+02 -0.49591134498E+01  0.16080869797E+02  0.51100000000E-03 0. -1.
        -11    1    3    3    0    0 -0.13559114688E+02 -0.20993481390E+02 -0.53880805138E+01  0.25565743953E+02  0.51100000000E-03 0.  1.
         12    1    3    3    0    0  0.21590912825E+02 -0.78399837314E+01  0.20540852251E+02  0.30814922890E+02  0.00000000000E+00 0. -1.
</event>
<event>
 7    1  0.2489154E-013  0.7246159E+02  0.7816164E-02  0.1226708E+00
        -11   -1    0    0    0    0  0.00000000000E+00  0.00000000000E+00  0.45593999997E+02  0.45594000000E+02  0.51100000000E-03 0.  1.
         11   -1    0    0    0    0 -0.00000000000E+00 -0.00000000000E+00 -0.45593999997E+02  0.45594000000E+02  0.51100000000E-03 0. -1.
    9900012    2    1    2    0    0 -0.91348476110E+00 -0.40925103302E+01 -0.18250894609E+02  0.72461594866E+02  0.70000032009E+02 0.  0.
        -12    1    1    2    0    0  0.91348476110E+00  0.40925103302E+01  0.18250894609E+02  0.18726405134E+02  0.00000000000E+00 0.  1.
         11    1    3    3    0    0  0.56423650254E+01 -0.25258206117E+01 -0.21803398095E+01  0.65551456725E+01  0.51100000000E-03 0. -1.
        -11    1    3    3    0    0  0.28194615691E+02 -0.22704205969E+01 -0.12634678664E+02  0.30979449138E+02  0.51100000000E-03 0.  1.
         12    1    3    3    0    0 -0.34750465478E+02  0.70373087839E+00 -0.34358761359E+01  0.34927000056E+02  0.00000000000E+00 0. -1.
</event>
<event>
 7    1  0.2489154E-013  0.7246164E+02  0.7816164E-02  0.1226708E+00
        -11   -1    0    0    0    0  0.00000000000E+00  0.00000000000E+00  0.45593999997E+02  0.45594000000E+02  0.51100000000E-03 0. -1.
         11   -1    0    0    0    0 -0.00000000000E+00 -0.00000000000E+00 -0.45593999997E+02  0.45594000000E+02  0.51100000000E-03 0.  1.
    9900012    2    1    2    0    0  0.10509426982E+01 -0.12946940584E+02  0.13488833663E+02  0.72461644652E+02  0.70000096865E+02 0.  0.
        -12    1    1    2    0    0 -0.10509426982E+01  0.12946940584E+02 -0.13488833663E+02  0.18726355348E+02  0.00000000000E+00 0.  1.
         11    1    3    3    0    0  0.42177927170E+01  0.10179373064E+02 -0.10728333202E+01  0.11070699300E+02  0.51100000000E-03 0. -1.
        -11    1    3    3    0    0  0.24495501394E+01  0.16135641806E+02 -0.51329097262E+01  0.17108652633E+02  0.51100000000E-03 0.  1.
         12    1    3    3    0    0 -0.56164001582E+01 -0.39261955454E+02  0.19694576709E+02  0.44282292720E+02  0.00000000000E+00 0. -1.
</event>
<event>
 7    1  0.2489154E-013  0.7246174E+02  0.7816164E-02  0.1226708E+00
        -11   -1    0    0    0    0  0.00000000000E+00  0.00000000000E+00  0.45593999997E+02  0.45594000000E+02  0.51100000000E-03 0.  1.
         11   -1    0    0    0    0 -0.00000000000E+00 -0.00000000000E+00 -0.45593999997E+02  0.45594000000E+02  0.51100000000E-03 0. -1.
    9900012    2    1    2    0    0 -0.46508467960E+01 -0.18131740454E+02 -0.53156507910E+00  0.72461736378E+02  0.70000216354E+02 0.  0.
        -12    1    1    2    0    0  0.46508467960E+01  0.18131740454E+02  0.53156507910E+00  0.18726263622E+02  0.00000000000E+00 0.  1.
         11    1    3    3    0    0  0.21953775543E+02 -0.22554323490E-01  0.52489602834E+01  0.22572557533E+02  0.51100000000E-03 0. -1.
        -11    1    3    3    0    0 -0.15657134542E+02 -0.25558763841E+02  0.77481775083E+01  0.30958529133E+02  0.51100000000E-03 0.  1.
         12    1    3    3    0    0 -0.10947487797E+02  0.74495777103E+01 -0.13528702871E+02  0.18930649711E+02  0.00000000000E+00 0. -1.
</event>
<event>
 7    1  0.2489154E-013  0.7246158E+02  0.7816164E-02  0.1226708E+00
        -11   -1    0    0    0    0  0.00000000000E+00  0.00000000000E+00  0.45593999997E+02  0.45594000000E+02  0.51100000000E-03 0. -1.
         11   -1    0    0    0    0 -0.00000000000E+00 -0.00000000000E+00 -0.45593999997E+02  0.45594000000E+02  0.51100000000E-03 0.  1.
    9900012    2    1    2    0    0  0.13844125142E+02 -0.86402125131E+01  0.91850921079E+01  0.72461575081E+02  0.70000006236E+02 0.  0.
        -12    1    1    2    0    0 -0.13844125142E+02  0.86402125131E+01 -0.91850921079E+01  0.18726424919E+02  0.00000000000E+00 0.  1.
         11    1    3    3    0    0  0.19364866803E+01 -0.43348917943E+01 -0.50702669391E+00  0.47747611313E+01  0.51100000000E-03 0. -1.
        -11    1    3    3    0    0  0.14138417657E+02 -0.32600322468E+02  0.15413521071E+02  0.38733093227E+02  0.51100000000E-03 0.  1.
         12    1    3    3    0    0 -0.22307791958E+01  0.28295001749E+02 -0.57214022687E+01  0.28953720723E+02  0.00000000000E+00 0. -1.
</event>
<event>
 7    1  0.2489154E-013  0.7246157E+02  0.7816164E-02  0.1226708E+00
        -11   -1    0    0    0    0  0.00000000000E+00  0.00000000000E+00  0.45593999997E+02  0.45594000000E+02  0.51100000000E-03 0.  1.
         11   -1    0    0    0    0 -0.00000000000E+00 -0.00000000000E+00 -0.45593999997E+02  0.45594000000E+02  0.51100000000E-03 0. -1.
    9900012    2    1    2    0    0  0.16018881123E+02  0.77993169942E+01  0.57658640264E+01  0.72461572525E+02  0.70000002906E+02 0.  0.
        -12    1    1    2    0    0 -0.16018881123E+02 -0.77993169942E+01 -0.57658640264E+01  0.18726427475E+02  0.00000000000E+00 0.  1.
         11    1    3    3    0    0 -0.31549531705E+01  0.13447293210E+02  0.72754888931E+01  0.15611411310E+02  0.51100000000E-03 0. -1.
        -11    1    3    3    0    0  0.12404101873E+02  0.35439811230E+01  0.24919624375E+02  0.28060812973E+02  0.51100000000E-03 0.  1.
         12    1    3    3    0    0  0.67697324198E+01 -0.91919573387E+01 -0.26429249241E+02  0.28789348242E+02  0.00000000000E+00 0. -1.
</event>
<event>
 7    1  0.2489154E-013  0.7246192E+02  0.7816164E-02  0.1226707E+00
        -11   -1    0    0    0    0  0.00000000000E+00  0.00000000000E+00  0.45593999997E+02  0.45594000000E+02  0.51100000000E-03 0. -1.
         11   -1    0    0    0    0 -0.00000000000E+00 -0.00000000000E+00 -0.45593999997E+02  0.45594000000E+02  0.51100000000E-03 0.  1.
    9900012    2    1    2    0    0  0.11322753324E+02  0.67849499176E+01 -0.13282543430E+02  0.72461915300E+02  0.70000449432E+02 0.  0.
        -12    1    1    2    0    0 -0.11322753324E+02 -0.67849499176E+01  0.13282543430E+02  0.18726084700E+02  0.00000000000E+00 0.  1.
         11    1    3    3    0    0  0.79468850453E+01 -0.11205585931E+02  0.21558567452E+02  0.25563449861E+02  0.51100000000E-03 0. -1.
        -11    1    3    3    0    0  0.73968963235E+01  0.54994733649E+00  0.34125946625E+00  0.74251582864E+01  0.51100000000E-03 0.  1.
        -12    1    3    3    0    0 -0.40210280447E+01  0.17440588512E+02 -0.35182370348E+02  0.39473307152E+02  0.00000000000E+00 0.  1.
</event>
<event>
 7    1  0.2489154E-013  0.7246168E+02  0.7816164E-02  0.1226708E+00
        -11   -1    0    0    0    0  0.00000000000E+00  0.00000000000E+00  0.45593999997E+02  0.45594000000E+02  0.51100000000E-03 0. -1.
         11   -1    0    0    0    0 -0.00000000000E+00 -0.00000000000E+00 -0.45593999997E+02  0.45594000000E+02  0.51100000000E-03 0.  1.
    9900012    2    1    2    0    0 -0.96725515147E+00 -0.24492048256E+00  0.18699714947E+02  0.72461684087E+02  0.70000148236E+02 0.  0.
        -12    1    1    2    0    0  0.96725515147E+00  0.24492048256E+00 -0.18699714947E+02  0.18726315913E+02  0.00000000000E+00 0.  1.
         11    1    3    3    0    0 -0.14210379202E+02 -0.13790221255E+02 -0.78463165603E+01  0.21299524951E+02  0.51100000000E-03 0. -1.
        -11    1    3    3    0    0  0.45761248336E+01 -0.12708784069E+02  0.10420243313E+01  0.13547690799E+02  0.51100000000E-03 0.  1.
         12    1    3    3    0    0  0.86669992165E+01  0.26254084842E+02  0.25504007176E+02  0.37614468338E+02  0.00000000000E+00 0. -1.
</event>
<event>
 7    1  0.2489154E-013  0.7246158E+02  0.7816164E-02  0.1226708E+00
        -11   -1    0    0    0    0  0.00000000000E+00  0.00000000000E+00  0.45593999997E+02  0.45594000000E+02  0.51100000000E-03 0.  1.
         11   -1    0    0    0    0 -0.00000000000E+00 -0.00000000000E+00 -0.45593999997E+02  0.45594000000E+02  0.51100000000E-03 0. -1.
    9900012    2    1    2    0    0  0.15482962909E+02  0.47999969058E+01 -0.93763926944E+01  0.72461578807E+02  0.70000011090E+02 0.  0.
        -12    1    1    2    0    0 -0.15482962909E+02 -0.47999969058E+01  0.93763926944E+01  0.18726421193E+02  0.00000000000E+00 0.  1.
         11    1    3    3    0    0 -0.10194184759E+02  0.10139775344E+02 -0.96768918408E+01  0.17331436262E+02  0.51100000000E-03 0. -1.
        -11    1    3    3    0    0  0.19851887807E+02  0.14588344596E+00 -0.23065242565E+02  0.30432287892E+02  0.51100000000E-03 0.  1.
        -12    1    3    3    0    0  0.58252598604E+01 -0.54856618845E+01  0.23365741712E+02  0.24697854653E+02  0.00000000000E+00 0.  1.
</event>
<event>
 7    1  0.2489154E-013  0.7246159E+02  0.7816164E-02  0.1226708E+00
        -11   -1    0    0    0    0  0.00000000000E+00  0.00000000000E+00  0.45593999997E+02  0.45594000000E+02  0.51100000000E-03 0. -1.
         11   -1    0    0    0    0 -0.00000000000E+00 -0.00000000000E+00 -0.45593999997E+02  0.45594000000E+02  0.51100000000E-03 0.  1.
    9900012    2    1    2    0    0  0.15987341856E+02 -0.88615391423E+01  0.40689579386E+01  0.72461590993E+02  0.70000026964E+02 0.  0.
        -12    1    1    2    0    0 -0.15987341856E+02  0.88615391423E+01 -0.40689579386E+01  0.18726409007E+02  0.00000000000E+00 0.  1.
         11    1    3    3    0    0  0.22365819483E+02  0.20793393974E+02 -0.89870959801E+01  0.31833363135E+02  0.51100000000E-03 0. -1.
        -11    1    3    3    0    0  0.54819441152E+01 -0.27719901264E+01 -0.33274784909E+01  0.69862546411E+01  0.51100000000E-03 0.  1.
        -12    1    3    3    0    0 -0.11860421742E+02 -0.26882942990E+02  0.16383532410E+02  0.33641973217E+02  0.00000000000E+00 0.  1.
</event>
<event>
 7    1  0.2489154E-013  0.7246153E+02  0.7816164E-02  0.1226708E+00
        -11   -1    0    0    0    0  0.00000000000E+00  0.00000000000E+00  0.45593999997E+02  0.45594000000E+02  0.51100000000E-03 0.  1.
         11   -1    0    0    0    0 -0.00000000000E+00 -0.00000000000E+00 -0.45593999997E+02  0.45594000000E+02  0.51100000000E-03 0. -1.
    9900012    2    1    2    0    0 -0.13621938901E+02  0.18118986151E+01 -0.12721647479E+02  0.72461534488E+02  0.69999953355E+02 0.  0.
        -12    1    1    2    0    0  0.13621938901E+02 -0.18118986151E+01  0.12721647479E+02  0.18726465512E+02  0.00000000000E+00 0.  1.
         11    1    3    3    0    0 -0.71064556110E+01  0.33334904738E+01  0.12411071343E+02  0.14684977434E+02  0.51100000000E-03 0. -1.
        -11    1    3    3    0    0 -0.83098370640E+01 -0.14253022363E+02  0.10728596560E+02  0.19680061558E+02  0.51100000000E-03 0.  1.
         12    1    3    3    0    0  0.17943537743E+01  0.12731430504E+02 -0.35861315382E+02  0.38096495496E+02  0.00000000000E+00 0. -1.
</event>
<event>
 7    1  0.2489154E-013  0.7246229E+02  0.7816164E-02  0.1226706E+00
        -11   -1    0    0    0    0  0.00000000000E+00  0.00000000000E+00  0.45593999997E+02  0.45594000000E+02  0.51100000000E-03 0. -1.
         11   -1    0    0    0    0 -0.00000000000E+00 -0.00000000000E+00 -0.45593999997E+02  0.45594000000E+02  0.51100000000E-03 0.  1.
    9900012    2    1    2    0    0  0.11429897231E+02 -0.70199067186E+01  0.13066393386E+02  0.72462288341E+02  0.70000935382E+02 0.  0.
        -12    1    1    2    0    0 -0.11429897231E+02  0.70199067186E+01 -0.13066393386E+02  0.18725711659E+02  0.00000000000E+00 0.  1.
         11    1    3    3    0    0 -0.93250814857E+01 -0.12327148465E+02  0.28682887460E+01  0.15720776526E+02  0.51100000000E-03 0. -1.
        -11    1    3    3    0    0 -0.84246122297E+01 -0.81893672574E+01 -0.12676962901E+02  0.17284247625E+02  0.51100000000E-03 0.  1.
         12    1    3    3    0    0  0.29179590946E+02  0.13496609004E+02  0.22875067541E+02  0.39457264190E+02  0.00000000000E+00 0. -1.
</event>
<event>
 7    1  0.2489154E-013  0.7246161E+02  0.7816164E-02  0.1226708E+00
        -11   -1    0    0    0    0  0.00000000000E+00  0.00000000000E+00  0.45593999997E+02  0.45594000000E+02  0.51100000000E-03 0. -1.
         11   -1    0    0    0    0 -0.00000000000E+00 -0.00000000000E+00 -0.45593999997E+02  0.45594000000E+02  0.51100000000E-03 0.  1.
    9900012    2    1    2    0    0 -0.13155825017E+02  0.48165654492E+01  0.12425881546E+02  0.72461613087E+02  0.70000055746E+02 0.  0.
        -12    1    1    2    0    0  0.13155825017E+02 -0.48165654492E+01 -0.12425881546E+02  0.18726386913E+02  0.00000000000E+00 0.  1.
         11    1    3    3    0    0 -0.29474250403E+02  0.54392836137E+01  0.79885696225E+01  0.31018292795E+02  0.51100000000E-03 0. -1.
        -11    1    3    3    0    0  0.40813068472E+01  0.10237905376E+02 -0.13325915437E+02  0.17293114080E+02  0.51100000000E-03 0.  1.
         12    1    3    3    0    0  0.12237118539E+02 -0.10860623541E+02  0.17763227361E+02  0.24150206213E+02  0.00000000000E+00 0. -1.
</event>
<event>
 7    1  0.2489154E-013  0.7246152E+02  0.7816164E-02  0.1226708E+00
        -11   -1    0    0    0    0  0.00000000000E+00  0.00000000000E+00  0.45593999997E+02  0.45594000000E+02  0.51100000000E-03 0. -1.
         11   -1    0    0    0    0 -0.00000000000E+00 -0.00000000000E+00 -0.45593999997E+02  0.45594000000E+02  0.51100000000E-03 0.  1.
    9900012    2    1    2    0    0 -0.91901962338E+01  0.15515303697E+02 -0.50494367448E+01  0.72461516960E+02  0.69999930522E+02 0.  0.
        -12    1    1    2    0    0  0.91901962338E+01 -0.15515303697E+02  0.50494367448E+01  0.18726483040E+02  0.00000000000E+00 0.  1.
         11    1    3    3    0    0  0.69670008878E+01  0.10499250822E+02 -0.25740851118E+01  0.12860765281E+02  0.51100000000E-03 0. -1.
        -11    1    3    3    0    0  0.19783207441E+02  0.55333372538E+01  0.81789623258E+01  0.22110824109E+02  0.51100000000E-03 0.  1.
         12    1    3    3    0    0 -0.35940404562E+02 -0.51728437914E+00 -0.10654313959E+02  0.37489927569E+02  0.00000000000E+00 0. -1.
</event>
<event>
 7    1  0.2489154E-013  0.7246165E+02  0.7816164E-02  0.1226708E+00
        -11   -1    0    0    0    0  0.00000000000E+00  0.00000000000E+00  0.45593999997E+02  0.45594000000E+02  0.51100000000E-03 0.  1.
         11   -1    0    0    0    0 -0.00000000000E+00 -0.00000000000E+00 -0.45593999997E+02  0.45594000000E+02  0.51100000000E-03 0. -1.
    9900012    2    1    2    0    0 -0.74260657293E+01  0.13981945128E+02 -0.10001753881E+02  0.72461646312E+02  0.70000099027E+02 0.  0.
        -12    1    1    2    0    0  0.74260657293E+01 -0.13981945128E+02  0.10001753881E+02  0.18726353688E+02  0.00000000000E+00 0.  1.
         11    1    3    3    0    0  0.52367210361E+01  0.59723789665E+01 -0.24192779010E+02  0.25463368085E+02  0.51100000000E-03 0. -1.
        -11    1    3    3    0    0 -0.11894540248E+02 -0.15918871507E+02  0.11362551572E+02  0.22891005576E+02  0.51100000000E-03 0.  1.
         12    1    3    3    0    0 -0.76824651701E+00  0.23928437669E+02  0.28284735573E+01  0.24107272650E+02  0.00000000000E+00 0. -1.
</event>
<event>
 7    1  0.2489154E-013  0.7246156E+02  0.7816164E-02  0.1226708E+00
        -11   -1    0    0    0    0  0.00000000000E+00  0.00000000000E+00  0.45593999997E+02  0.45594000000E+02  0.51100000000E-03 0. -1.
         11   -1    0    0    0    0 -0.00000000000E+00 -0.00000000000E+00 -0.45593999997E+02  0.45594000000E+02  0.51100000000E-03 0.  1.
    9900012    2    1    2    0    0 -0.80745018004E+01 -0.19084175754E+01  0.16788083241E+02  0.72461564784E+02  0.69999992822E+02 0.  0.
        -12    1    1    2    0    0  0.80745018004E+01  0.19084175754E+01 -0.16788083241E+02  0.18726435216E+02  0.00000000000E+00 0.  1.
         11    1    3    3    0    0  0.26747560846E+02 -0.90533583587E+01  0.67034184548E+01  0.29022941409E+02  0.51100000000E-03 0. -1.
        -11    1    3    3    0    0 -0.13770942714E+01  0.83433873824E+01 -0.99721726820E-01  0.84568579466E+01  0.51100000000E-03 0.  1.
        -12    1    3    3    0    0 -0.33444968375E+02 -0.11984465992E+01  0.10184386514E+02  0.34981765429E+02  0.00000000000E+00 0.  1.
</event>
<event>
 7    1  0.2489154E-013  0.7246153E+02  0.7816164E-02  0.1226708E+00
        -11   -1    0    0    0    0  0.00000000000E+00  0.00000000000E+00  0.45593999997E+02  0.45594000000E+02  0.51100000000E-03 0.  1.
         11   -1    0    0    0    0 -0.00000000000E+00 -0.00000000000E+00 -0.45593999997E+02  0.45594000000E+02  0.51100000000E-03 0. -1.
    9900012    2    1    2    0    0 -0.80706703242E+01 -0.16725986332E+02  0.24054655569E+01  0.72461532025E+02  0.69999950148E+02 0.  0.
        -12    1    1    2    0    0  0.80706703242E+01  0.16725986332E+02 -0.24054655569E+01  0.18726467975E+02  0.00000000000E+00 0.  1.
         11    1    3    3    0    0  0.75537982706E+00 -0.26092812469E+02  0.61285515031E+01  0.26813515343E+02  0.51100000000E-03 0. -1.
        -11    1    3    3    0    0  0.11446894656E+02 -0.11447034805E+02 -0.36399273149E+01  0.16592621077E+02  0.51100000000E-03 0.  1.
        -12    1    3    3    0    0 -0.20272944807E+02  0.20813860942E+02 -0.83158631348E-01  0.29055395606E+02  0.00000000000E+00 0.  1.
</event>
<event>
 7    1  0.2489154E-013  0.7246156E+02  0.7816164E-02  0.1226708E+00
        -11   -1    0    0    0    0  0.00000000000E+00  0.00000000000E+00  0.45593999997E+02  0.45594000000E+02  0.51100000000E-03 0. -1.
         11   -1    0    0    0    0 -0.00000000000E+00 -0.00000000000E+00 -0.45593999997E+02  0.45594000000E+02  0.51100000000E-03 0.  1.
    9900012    2    1    2    0    0  0.11138048660E+02  0.14576329919E+02  0.37621692786E+01  0.72461563085E+02  0.69999990609E+02 0.  0.
        -12    1    1    2    0    0 -0.11138048660E+02 -0.14576329919E+02 -0.37621692786E+01  0.18726436915E+02  0.00000000000E+00 0.  1.
         11    1    3    3    0    0 -0.20817402187E+02  0.11881706251E+02 -0.52835386111E+01  0.24544957889E+02  0.51100000000E-03 0. -1.
        -11    1    3    3    0    0 -0.74599333501E+01 -0.69821188619E+00  0.15736996627E+01  0.76560196131E+01  0.51100000000E-03 0.  1.
        -12    1    3    3    0    0  0.39415384197E+02  0.33928355536E+01  0.74720082270E+01  0.40260585583E+02  0.00000000000E+00 0.  1.
</event>
<event>
 7    1  0.2489154E-013  0.7246157E+02  0.7816164E-02  0.1226708E+00
        -11   -1    0    0    0    0  0.00000000000E+00  0.00000000000E+00  0.45593999997E+02  0.45594000000E+02  0.51100000000E-03 0.  1.
         11   -1    0    0    0    0 -0.00000000000E+00 -0.00000000000E+00 -0.45593999997E+02  0.45594000000E+02  0.51100000000E-03 0. -1.
    9900012    2    1    2    0    0  0.12815534029E+02  0.42255057198E+01 -0.12984083349E+02  0.72461568640E+02  0.69999997845E+02 0.  0.
        -12    1    1    2    0    0 -0.12815534029E+02 -0.42255057198E+01  0.12984083349E+02  0.18726431360E+02  0.00000000000E+00 0.  1.
         11    1    3    3    0    0  0.13453345310E+02 -0.13328796599E+02  0.73606316054E+01  0.20318174541E+02  0.51100000000E-03 0. -1.
        -11    1    3    3    0    0 -0.19049019956E+02 -0.41101047087E+01 -0.98690856998E+01  0.21843923064E+02  0.51100000000E-03 0.  1.
         12    1    3    3    0    0  0.18411208676E+02  0.21664407027E+02 -0.10475629255E+02  0.30299471036E+02  0.00000000000E+00 0. -1.
</event>
<event>
 7    1  0.2489154E-013  0.7246167E+02  0.7816164E-02  0.1226708E+00
        -11   -1    0    0    0    0  0.00000000000E+00  0.00000000000E+00  0.45593999997E+02  0.45594000000E+02  0.51100000000E-03 0.  1.
         11   -1    0    0    0    0 -0.00000000000E+00 -0.00000000000E+00 -0.45593999997E+02  0.45594000000E+02  0.51100000000E-03 0. -1.
    9900012    2    1    2    0    0 -0.92539131180E+01 -0.15507674950E+02  0.49550569436E+01  0.72461668814E+02  0.70000128340E+02 0.  0.
        -12    1    1    2    0    0  0.92539131180E+01  0.15507674950E+02 -0.49550569436E+01  0.18726331186E+02  0.00000000000E+00 0.  1.
         11    1    3    3    0    0  0.24845858752E+02 -0.51020651790E+01 -0.35076467897E+01  0.25605689846E+02  0.51100000000E-03 0. -1.
        -11    1    3    3    0    0 -0.81668540866E+01  0.55652710272E+01 -0.75593824131E+01  0.12442427818E+02  0.51100000000E-03 0.  1.
        -12    1    3    3    0    0 -0.25932917784E+02 -0.15970880799E+02  0.16022086146E+02  0.34413551150E+02  0.00000000000E+00 0.  1.
</event>
<event>
 7    1  0.2489154E-013  0.7246160E+02  0.7816164E-02  0.1226708E+00
        -11   -1    0    0    0    0  0.00000000000E+00  0.00000000000E+00  0.45593999997E+02  0.45594000000E+02  0.51100000000E-03 0.  1.
         11   -1    0    0    0    0 -0.00000000000E+00 -0.00000000000E+00 -0.45593999997E+02  0.45594000000E+02  0.51100000000E-03 0. -1.
    9900012    2    1    2    0    0 -0.15292752676E+02 -0.39385318809E+01 -0.10064673143E+02  0.72461602502E+02  0.70000041956E+02 0.  0.
        -12    1    1    2    0    0  0.15292752676E+02  0.39385318809E+01  0.10064673143E+02  0.18726397498E+02  0.00000000000E+00 0.  1.
         11    1    3    3    0    0  0.80500641772E+01  0.15739478631E+02  0.74404937246E+01  0.19180606559E+02  0.51100000000E-03 0. -1.
        -11    1    3    3    0    0  0.50118879436E+01 -0.66639419289E+01  0.90539224343E+01  0.12308560212E+02  0.51100000000E-03 0.  1.
         12    1    3    3    0    0 -0.28354704797E+02 -0.13014068583E+02 -0.26559089302E+02  0.40972435731E+02  0.00000000000E+00 0. -1.
</event>
<event>
 7    1  0.2489154E-013  0.7246157E+02  0.7816164E-02  0.1226708E+00
        -11   -1    0    0    0    0  0.00000000000E+00  0.00000000000E+00  0.45593999997E+02  0.45594000000E+02  0.51100000000E-03 0. -1.
         11   -1    0    0    0    0 -0.00000000000E+00 -0.00000000000E+00 -0.45593999997E+02  0.45594000000E+02  0.51100000000E-03 0.  1.
    9900012    2    1    2    0    0  0.11394343329E+02  0.92363064854E+00  0.14832231637E+02  0.72461568177E+02  0.69999997242E+02 0.  0.
        -12    1    1    2    0    0 -0.11394343329E+02 -0.92363064854E+00 -0.14832231637E+02  0.18726431823E+02  0.00000000000E+00 0.  1.
         11    1    3    3    0    0  0.67296164792E+01 -0.85406898024E+01  0.11745735511E+02  0.16006043334E+02  0.51100000000E-03 0.  1.
        -11    1    3    3    0    0  0.25533445374E+02 -0.85479989266E+01  0.87506087918E+01  0.28312510888E+02  0.51100000000E-03 0. -1.
         12    1    3    3    0    0 -0.20868718524E+02  0.18012319378E+02 -0.56641126650E+01  0.28143013955E+02  0.00000000000E+00 0. -1.
</event>
<event>
 7    1  0.2489154E-013  0.7246152E+02  0.7816164E-02  0.1226708E+00
        -11   -1    0    0    0    0  0.00000000000E+00  0.00000000000E+00  0.45593999997E+02  0.45594000000E+02  0.51100000000E-03 0. -1.
         11   -1    0    0    0    0 -0.00000000000E+00 -0.00000000000E+00 -0.45593999997E+02  0.45594000000E+02  0.51100000000E-03 0.  1.
    9900012    2    1    2    0    0 -0.94926317791E+01  0.75182898890E+01  0.14284480909E+02  0.72461517794E+02  0.69999931609E+02 0.  0.
        -12    1    1    2    0    0  0.94926317791E+01 -0.75182898890E+01 -0.14284480909E+02  0.18726482206E+02  0.00000000000E+00 0.  1.
         11    1    3    3    0    0  0.85984664228E+01  0.14025499824E+01 -0.14253114106E+02  0.16704850591E+02  0.51100000000E-03 0. -1.
        -11    1    3    3    0    0 -0.28868285841E+02  0.70566878227E+01  0.53862130048E+01  0.30202418136E+02  0.51100000000E-03 0.  1.
         12    1    3    3    0    0  0.10777187639E+02 -0.94094791612E+00  0.23151382011E+02  0.25554249068E+02  0.00000000000E+00 0. -1.
</event>
<event>
 7    1  0.2489154E-013  0.7246156E+02  0.7816164E-02  0.1226708E+00
        -11   -1    0    0    0    0  0.00000000000E+00  0.00000000000E+00  0.45593999997E+02  0.45594000000E+02  0.51100000000E-03 0.  1.
         11   -1    0    0    0    0 -0.00000000000E+00 -0.00000000000E+00 -0.45593999997E+02  0.45594000000E+02  0.51100000000E-03 0. -1.
    9900012    2    1    2    0    0  0.18653233882E+02  0.96151612993E+00  0.13460968547E+01  0.72461558153E+02  0.69999984183E+02 0.  0.
        -12    1    1    2    0    0 -0.18653233882E+02 -0.96151612993E+00 -0.13460968547E+01  0.18726441847E+02  0.00000000000E+00 0.  1.
         11    1    3    3    0    0  0.53072673092E+01  0.13084203159E+02  0.87302530748E+01  0.16600625820E+02  0.51100000000E-03 0. -1.
        -11    1    3    3    0    0 -0.31650910285E+01  0.13595821581E+02  0.13039769120E+02  0.19102349192E+02  0.51100000000E-03 0.  1.
         12    1    3    3    0    0  0.16511057601E+02 -0.25718508610E+02 -0.20423925340E+02  0.36758583141E+02  0.00000000000E+00 0. -1.
</event>
<event>
 7    1  0.2489154E-013  0.7246165E+02  0.7816164E-02  0.1226708E+00
        -11   -1    0    0    0    0  0.00000000000E+00  0.00000000000E+00  0.45593999997E+02  0.45594000000E+02  0.51100000000E-03 0.  1.
         11   -1    0    0    0    0 -0.00000000000E+00 -0.00000000000E+00 -0.45593999997E+02  0.45594000000E+02  0.51100000000E-03 0. -1.
    9900012    2    1    2    0    0 -0.69605324994E+01 -0.11707225000E+02 -0.12851768749E+02  0.72461652522E+02  0.70000107117E+02 0.  0.
        -12    1    1    2    0    0  0.69605324994E+01  0.11707225000E+02  0.12851768749E+02  0.18726347478E+02  0.00000000000E+00 0.  1.
         11    1    3    3    0    0 -0.28519208590E+02 -0.74597204537E+01 -0.10721228029E+02  0.31367776755E+02  0.51100000000E-03 0. -1.
        -11    1    3    3    0    0  0.47996214409E+01 -0.18450314588E+02 -0.62802332492E+00  0.19074718554E+02  0.51100000000E-03 0.  1.
         12    1    3    3    0    0  0.16759054650E+02  0.14202810041E+02 -0.15025173951E+01  0.22019157212E+02  0.00000000000E+00 0. -1.
</event>
<event>
 7    1  0.2489154E-013  0.7246158E+02  0.7816164E-02  0.1226708E+00
        -11   -1    0    0    0    0  0.00000000000E+00  0.00000000000E+00  0.45593999997E+02  0.45594000000E+02  0.51100000000E-03 0. -1.
         11   -1    0    0    0    0 -0.00000000000E+00 -0.00000000000E+00 -0.45593999997E+02  0.45594000000E+02  0.51100000000E-03 0.  1.
    9900012    2    1    2    0    0 -0.55270394800E+01 -0.17792549121E+02  0.18856927800E+01  0.72461579977E+02  0.70000012613E+02 0.  0.
        -12    1    1    2    0    0  0.55270394800E+01  0.17792549121E+02 -0.18856927800E+01  0.18726420023E+02  0.00000000000E+00 0.  1.
         11    1    3    3    0    0  0.19491143383E+02  0.45169399842E+01  0.77616883242E+01  0.21460457197E+02  0.51100000000E-03 0. -1.
        -11    1    3    3    0    0  0.49870320379E+01 -0.19932451151E+02 -0.17663236235E+01  0.20622633121E+02  0.51100000000E-03 0.  1.
        -12    1    3    3    0    0 -0.30005214901E+02 -0.23770379542E+01 -0.41096719208E+01  0.30378489659E+02  0.00000000000E+00 0.  1.
</event>
<event>
 7    1  0.2489154E-013  0.7246216E+02  0.7816164E-02  0.1226706E+00
        -11   -1    0    0    0    0  0.00000000000E+00  0.00000000000E+00  0.45593999997E+02  0.45594000000E+02  0.51100000000E-03 0. -1.
         11   -1    0    0    0    0 -0.00000000000E+00 -0.00000000000E+00 -0.45593999997E+02  0.45594000000E+02  0.51100000000E-03 0.  1.
    9900012    2    1    2    0    0  0.12967275160E+02  0.13041651065E+02  0.35244948281E+01  0.72462163534E+02  0.70000772801E+02 0.  0.
        -12    1    1    2    0    0 -0.12967275160E+02 -0.13041651065E+02 -0.35244948281E+01  0.18725836466E+02  0.00000000000E+00 0.  1.
         11    1    3    3    0    0 -0.16780996292E+02  0.41996553508E+01  0.44899258435E+01  0.17871720005E+02  0.51100000000E-03 0. -1.
        -11    1    3    3    0    0  0.37385719208E+02  0.18484550083E+02  0.25900569278E+01  0.41786109984E+02  0.51100000000E-03 0.  1.
         12    1    3    3    0    0 -0.76374477567E+01 -0.96425543698E+01 -0.35554879432E+01  0.12804333545E+02  0.00000000000E+00 0. -1.
</event>
<event>
 7    1  0.2489154E-013  0.7246159E+02  0.7816164E-02  0.1226708E+00
        -11   -1    0    0    0    0  0.00000000000E+00  0.00000000000E+00  0.45593999997E+02  0.45594000000E+02  0.51100000000E-03 0. -1.
         11   -1    0    0    0    0 -0.00000000000E+00 -0.00000000000E+00 -0.45593999997E+02  0.45594000000E+02  0.51100000000E-03 0.  1.
    9900012    2    1    2    0    0  0.90291529234E+01 -0.84887423073E+01  0.14039023697E+02  0.72461587240E+02  0.70000022075E+02 0.  0.
        -12    1    1    2    0    0 -0.90291529234E+01  0.84887423073E+01 -0.14039023697E+02  0.18726412760E+02  0.00000000000E+00 0.  1.
         11    1    3    3    0    0 -0.20760612524E+02  0.83107002890E+01  0.15964569669E+02  0.27476139770E+02  0.51100000000E-03 0. -1.
        -11    1    3    3    0    0 -0.37485440144E+01  0.39817388919E+01  0.21336806850E+00  0.54727829324E+01  0.51100000000E-03 0.  1.
        -12    1    3    3    0    0  0.33538309462E+02 -0.20781181488E+02 -0.21389140404E+01  0.39512664538E+02  0.00000000000E+00 0.  1.
</event>
<event>
 7    1  0.2489154E-013  0.7246140E+02  0.7816164E-02  0.1226708E+00
        -11   -1    0    0    0    0  0.00000000000E+00  0.00000000000E+00  0.45593999997E+02  0.45594000000E+02  0.51100000000E-03 0. -1.
         11   -1    0    0    0    0 -0.00000000000E+00 -0.00000000000E+00 -0.45593999997E+02  0.45594000000E+02  0.51100000000E-03 0.  1.
    9900012    2    1    2    0    0  0.99501584152E+01  0.10341234342E+02  0.12030741308E+02  0.72461400826E+02  0.69999779235E+02 0.  0.
        -12    1    1    2    0    0 -0.99501584152E+01 -0.10341234342E+02 -0.12030741308E+02  0.18726599174E+02  0.00000000000E+00 0.  1.
         11    1    3    3    0    0  0.34205892033E+02  0.46889924750E+01 -0.16537941876E+01  0.34565369023E+02  0.51100000000E-03 0. -1.
        -11    1    3    3    0    0 -0.11312488998E+02 -0.30756623472E+01 -0.56766116059E+01  0.13025207322E+02  0.51100000000E-03 0.  1.
        -12    1    3    3    0    0 -0.12943244620E+02  0.87279042147E+01  0.19361147102E+02  0.24870824481E+02  0.00000000000E+00 0.  1.
</event>
<event>
 7    1  0.2489154E-013  0.7246155E+02  0.7816164E-02  0.1226708E+00
        -11   -1    0    0    0    0  0.00000000000E+00  0.00000000000E+00  0.45593999997E+02  0.45594000000E+02  0.51100000000E-03 0.  1.
         11   -1    0    0    0    0 -0.00000000000E+00 -0.00000000000E+00 -0.45593999997E+02  0.45594000000E+02  0.51100000000E-03 0. -1.
    9900012    2    1    2    0    0  0.73001565787E+01  0.19971138811E+01 -0.17128902384E+02  0.72461546871E+02  0.69999969486E+02 0.  0.
        -12    1    1    2    0    0 -0.73001565787E+01 -0.19971138811E+01  0.17128902384E+02  0.18726453129E+02  0.00000000000E+00 0.  1.
         11    1    3    3    0    0  0.27847440801E+02 -0.12796511348E+02 -0.25527265986E+02  0.39885736433E+02  0.51100000000E-03 0. -1.
        -11    1    3    3    0    0  0.17905505719E+01 -0.23775357498E+01  0.22670996016E+01  0.37414553929E+01  0.51100000000E-03 0.  1.
        -12    1    3    3    0    0 -0.22337834794E+02  0.17171160978E+02  0.61312640002E+01  0.28834355045E+02  0.00000000000E+00 0.  1.
</event>
<event>
 7    1  0.2489154E-013  0.7246163E+02  0.7816164E-02  0.1226708E+00
        -11   -1    0    0    0    0  0.00000000000E+00  0.00000000000E+00  0.45593999997E+02  0.45594000000E+02  0.51100000000E-03 0.  1.
         11   -1    0    0    0    0 -0.00000000000E+00 -0.00000000000E+00 -0.45593999997E+02  0.45594000000E+02  0.51100000000E-03 0. -1.
    9900012    2    1    2    0    0 -0.22006179749E-01 -0.11767635575E+02 -0.14567056328E+02  0.72461631923E+02  0.70000080283E+02 0.  0.
        -12    1    1    2    0    0  0.22006179749E-01  0.11767635575E+02  0.14567056328E+02  0.18726368077E+02  0.00000000000E+00 0.  1.
         11    1    3    3    0    0  0.10258302644E+02 -0.22120604011E+02 -0.43226579850E+01  0.24763668292E+02  0.51100000000E-03 0. -1.
        -11    1    3    3    0    0  0.12910624355E+02  0.16582352386E+01  0.94248211896E+01  0.16070507772E+02  0.51100000000E-03 0.  1.
         12    1    3    3    0    0 -0.23190933179E+02  0.86947331976E+01 -0.19669219532E+02  0.31627455859E+02  0.00000000000E+00 0. -1.
</event>
<event>
 7    1  0.2489154E-013  0.7246128E+02  0.7816164E-02  0.1226709E+00
        -11   -1    0    0    0    0  0.00000000000E+00  0.00000000000E+00  0.45593999997E+02  0.45594000000E+02  0.51100000000E-03 0. -1.
         11   -1    0    0    0    0 -0.00000000000E+00 -0.00000000000E+00 -0.45593999997E+02  0.45594000000E+02  0.51100000000E-03 0.  1.
    9900012    2    1    2    0    0  0.42607130044E+01  0.36026347605E+01  0.17876167063E+02  0.72461281084E+02  0.69999623248E+02 0.  0.
        -12    1    1    2    0    0 -0.42607130044E+01 -0.36026347605E+01 -0.17876167063E+02  0.18726718916E+02  0.00000000000E+00 0.  1.
         11    1    3    3    0    0  0.12404736306E+01  0.10167863021E+01 -0.66747625607E+01  0.68647712792E+01  0.51100000000E-03 0. -1.
        -11    1    3    3    0    0 -0.21770567052E+02  0.17743912024E+02  0.84967585179E+00  0.28098504462E+02  0.51100000000E-03 0.  1.
         12    1    3    3    0    0  0.24790806426E+02 -0.15158063566E+02  0.23701253772E+02  0.37498005342E+02  0.00000000000E+00 0. -1.
</event>
<event>
 7    1  0.2489154E-013  0.7246159E+02  0.7816164E-02  0.1226708E+00
        -11   -1    0    0    0    0  0.00000000000E+00  0.00000000000E+00  0.45593999997E+02  0.45594000000E+02  0.51100000000E-03 0.  1.
         11   -1    0    0    0    0 -0.00000000000E+00 -0.00000000000E+00 -0.45593999997E+02  0.45594000000E+02  0.51100000000E-03 0. -1.
    9900012    2    1    2    0    0  0.16014282614E+02  0.93679290114E+01  0.25422461335E+01  0.72461591989E+02  0.70000028261E+02 0.  0.
        -12    1    1    2    0    0 -0.16014282614E+02 -0.93679290114E+01 -0.25422461335E+01  0.18726408011E+02  0.00000000000E+00 0.  1.
         11    1    3    3    0    0 -0.11654798276E+01 -0.17216535330E+02 -0.54388897339E+01  0.18092787342E+02  0.51100000000E-03 0. -1.
        -11    1    3    3    0    0  0.83154507791E+00 -0.11918490455E+02  0.19884567016E+01  0.12111805904E+02  0.51100000000E-03 0.  1.
         12    1    3    3    0    0  0.16348217364E+02  0.38502954797E+02  0.59926791658E+01  0.42256998742E+02  0.00000000000E+00 0. -1.
</event>
<event>
 7    1  0.2489154E-013  0.7246155E+02  0.7816164E-02  0.1226708E+00
        -11   -1    0    0    0    0  0.00000000000E+00  0.00000000000E+00  0.45593999997E+02  0.45594000000E+02  0.51100000000E-03 0.  1.
         11   -1    0    0    0    0 -0.00000000000E+00 -0.00000000000E+00 -0.45593999997E+02  0.45594000000E+02  0.51100000000E-03 0. -1.
    9900012    2    1    2    0    0 -0.15189716398E+02  0.99965478179E+01 -0.44745178464E+01  0.72461554462E+02  0.69999979376E+02 0.  0.
        -12    1    1    2    0    0  0.15189716398E+02 -0.99965478179E+01  0.44745178464E+01  0.18726445538E+02  0.00000000000E+00 0.  1.
         11    1    3    3    0    0  0.23254893408E+01  0.20020719918E+01  0.61148571680E+01  0.68416132147E+01  0.51100000000E-03 0. -1.
        -11    1    3    3    0    0 -0.18545263281E+02  0.16873793465E+02  0.21052758935E+02  0.32739431197E+02  0.51100000000E-03 0.  1.
         12    1    3    3    0    0  0.10300575425E+01 -0.88793176386E+01 -0.31642133950E+02  0.32880510050E+02  0.00000000000E+00 0. -1.
</event>
<event>
 7    1  0.2489154E-013  0.7246154E+02  0.7816164E-02  0.1226708E+00
        -11   -1    0    0    0    0  0.00000000000E+00  0.00000000000E+00  0.45593999997E+02  0.45594000000E+02  0.51100000000E-03 0.  1.
         11   -1    0    0    0    0 -0.00000000000E+00 -0.00000000000E+00 -0.45593999997E+02  0.45594000000E+02  0.51100000000E-03 0. -1.
    9900012    2    1    2    0    0 -0.18481613252E+02  0.22688083068E+01  0.19906850175E+01  0.72461538872E+02  0.69999959067E+02 0.  0.
        -12    1    1    2    0    0  0.18481613252E+02 -0.22688083068E+01 -0.19906850175E+01  0.18726461128E+02  0.00000000000E+00 0.  1.
         11    1    3    3    0    0  0.40479797789E+01 -0.55276916019E+01 -0.11831318858E+02  0.13671928208E+02  0.51100000000E-03 0. -1.
        -11    1    3    3    0    0  0.14317583731E+02  0.13709050546E+02  0.49280804836E+01  0.20425896511E+02  0.51100000000E-03 0.  1.
         12    1    3    3    0    0 -0.36847176762E+02 -0.59125506371E+01  0.88939233921E+01  0.38363714154E+02  0.00000000000E+00 0. -1.
</event>
<event>
 7    1  0.2489154E-013  0.7246145E+02  0.7816164E-02  0.1226708E+00
        -11   -1    0    0    0    0  0.00000000000E+00  0.00000000000E+00  0.45593999997E+02  0.45594000000E+02  0.51100000000E-03 0.  1.
         11   -1    0    0    0    0 -0.00000000000E+00 -0.00000000000E+00 -0.45593999997E+02  0.45594000000E+02  0.51100000000E-03 0. -1.
    9900012    2    1    2    0    0 -0.17748562769E+02  0.46588553828E+01 -0.37372759115E+01  0.72461450796E+02  0.69999844331E+02 0.  0.
        -12    1    1    2    0    0  0.17748562769E+02 -0.46588553828E+01  0.37372759115E+01  0.18726549204E+02  0.00000000000E+00 0.  1.
         11    1    3    3    0    0  0.10604236389E+02  0.10160486445E+02 -0.25016481559E+02  0.29008785980E+02  0.51100000000E-03 0. -1.
        -11    1    3    3    0    0 -0.36657340791E+01  0.80742206275E+01  0.14132014622E+01  0.89792975067E+01  0.51100000000E-03 0.  1.
         12    1    3    3    0    0 -0.24687065079E+02 -0.13575851690E+02  0.19866004185E+02  0.34473367309E+02  0.00000000000E+00 0. -1.
</event>
<event>
 7    1  0.2489154E-013  0.7246157E+02  0.7816164E-02  0.1226708E+00
        -11   -1    0    0    0    0  0.00000000000E+00  0.00000000000E+00  0.45593999997E+02  0.45594000000E+02  0.51100000000E-03 0.  1.
         11   -1    0    0    0    0 -0.00000000000E+00 -0.00000000000E+00 -0.45593999997E+02  0.45594000000E+02  0.51100000000E-03 0. -1.
    9900012    2    1    2    0    0 -0.10184921901E+02  0.59606599511E+01 -0.14540189722E+02  0.72461568991E+02  0.69999998302E+02 0.  0.
        -12    1    1    2    0    0  0.10184921901E+02 -0.59606599511E+01  0.14540189722E+02  0.18726431009E+02  0.00000000000E+00 0.  1.
         11    1    3    3    0    0 -0.20088996514E+02 -0.83618196226E+01 -0.15066104398E+02  0.26466494107E+02  0.51100000000E-03 0. -1.
        -11    1    3    3    0    0 -0.15043071716E+02 -0.23788383673E+01 -0.37120970768E+01  0.15675858624E+02  0.51100000000E-03 0.  1.
        -12    1    3    3    0    0  0.24947146329E+02  0.16701317941E+02  0.42380117523E+01  0.30319216259E+02  0.00000000000E+00 0.  1.
</event>
<event>
 7    1  0.2489154E-013  0.7246149E+02  0.7816164E-02  0.1226708E+00
        -11   -1    0    0    0    0  0.00000000000E+00  0.00000000000E+00  0.45593999997E+02  0.45594000000E+02  0.51100000000E-03 0.  1.
         11   -1    0    0    0    0 -0.00000000000E+00 -0.00000000000E+00 -0.45593999997E+02  0.45594000000E+02  0.51100000000E-03 0. -1.
    9900012    2    1    2    0    0 -0.85511398098E+00  0.31256939390E+01 -0.18443998595E+02  0.72461487599E+02  0.69999892274E+02 0.  0.
        -12    1    1    2    0    0  0.85511398098E+00 -0.31256939390E+01  0.18443998595E+02  0.18726512401E+02  0.00000000000E+00 0.  1.
         11    1    3    3    0    0 -0.32148341655E+01 -0.25668786488E+01 -0.33817752311E+02  0.34067057348E+02  0.51100000000E-03 0. -1.
        -11    1    3    3    0    0  0.34772871134E+01  0.13103292744E+02 -0.66719246368E+01  0.15109678521E+02  0.51100000000E-03 0.  1.
        -12    1    3    3    0    0 -0.11175669289E+01 -0.74107201560E+01  0.22045678353E+02  0.23284751730E+02  0.00000000000E+00 0.  1.
</event>
<event>
 7    1  0.2489154E-013  0.7246087E+02  0.7816164E-02  0.1226710E+00
        -11   -1    0    0    0    0  0.00000000000E+00  0.00000000000E+00  0.45593999997E+02  0.45594000000E+02  0.51100000000E-03 0. -1.
         11   -1    0    0    0    0 -0.00000000000E+00 -0.00000000000E+00 -0.45593999997E+02  0.45594000000E+02  0.51100000000E-03 0.  1.
    9900012    2    1    2    0    0 -0.12140495184E+02  0.99601676470E+01  0.10203364961E+02  0.72460874769E+02  0.69999093944E+02 0.  0.
        -12    1    1    2    0    0  0.12140495184E+02 -0.99601676470E+01 -0.10203364961E+02  0.18727125231E+02  0.00000000000E+00 0.  1.
         11    1    3    3    0    0 -0.22935365597E+01  0.53564945076E+00 -0.13852288027E+02  0.14051089428E+02  0.51100000000E-03 0. -1.
        -11    1    3    3    0    0 -0.15886672982E+02  0.26503479156E+02  0.36370606305E+01  0.31113485759E+02  0.51100000000E-03 0.  1.
         12    1    3    3    0    0  0.60397143574E+01 -0.17078960960E+02  0.20418592358E+02  0.27296299582E+02  0.00000000000E+00 0. -1.
</event>
<event>
 7    1  0.2489154E-013  0.7246151E+02  0.7816164E-02  0.1226708E+00
        -11   -1    0    0    0    0  0.00000000000E+00  0.00000000000E+00  0.45593999997E+02  0.45594000000E+02  0.51100000000E-03 0.  1.
         11   -1    0    0    0    0 -0.00000000000E+00 -0.00000000000E+00 -0.45593999997E+02  0.45594000000E+02  0.51100000000E-03 0. -1.
    9900012    2    1    2    0    0 -0.12677816667E+02 -0.13775028767E+02 -0.45033436887E+00  0.72461514638E+02  0.69999927497E+02 0.  0.
        -12    1    1    2    0    0  0.12677816667E+02  0.13775028767E+02  0.45033436887E+00  0.18726485362E+02  0.00000000000E+00 0.  1.
         11    1    3    3    0    0 -0.96309854817E+01 -0.41458795088E+00 -0.25553012026E+02  0.27310880403E+02  0.51100000000E-03 0. -1.
        -11    1    3    3    0    0 -0.70936319742E+01  0.12310232273E+01 -0.67581427912E+01  0.98745899671E+01  0.51100000000E-03 0.  1.
        -12    1    3    3    0    0  0.40468007884E+01 -0.14591464043E+02  0.31860820448E+02  0.35276044268E+02  0.00000000000E+00 0.  1.
</event>
<event>
 7    1  0.2489154E-013  0.7246155E+02  0.7816164E-02  0.1226708E+00
        -11   -1    0    0    0    0  0.00000000000E+00  0.00000000000E+00  0.45593999997E+02  0.45594000000E+02  0.51100000000E-03 0.  1.
         11   -1    0    0    0    0 -0.00000000000E+00 -0.00000000000E+00 -0.45593999997E+02  0.45594000000E+02  0.51100000000E-03 0. -1.
    9900012    2    1    2    0    0 -0.17038624004E+02  0.77572042747E+01 -0.43697795901E+00  0.72461551435E+02  0.69999975432E+02 0.  0.
        -12    1    1    2    0    0  0.17038624004E+02 -0.77572042747E+01  0.43697795901E+00  0.18726448565E+02  0.00000000000E+00 0.  1.
         11    1    3    3    0    0  0.20623615590E+01 -0.67196746702E+01 -0.22153258034E+02  0.23241648062E+02  0.51100000000E-03 0. -1.
        -11    1    3    3    0    0  0.21193030245E+01  0.18988598398E+02  0.85969950505E+00  0.19125830647E+02  0.51100000000E-03 0.  1.
         12    1    3    3    0    0 -0.21220288588E+02 -0.45117194530E+01  0.20856580570E+02  0.30094072726E+02  0.00000000000E+00 0. -1.
</event>
<event>
 7    1  0.2489154E-013  0.7246157E+02  0.7816164E-02  0.1226708E+00
        -11   -1    0    0    0    0  0.00000000000E+00  0.00000000000E+00  0.45593999997E+02  0.45594000000E+02  0.51100000000E-03 0.  1.
         11   -1    0    0    0    0 -0.00000000000E+00 -0.00000000000E+00 -0.45593999997E+02  0.45594000000E+02  0.51100000000E-03 0. -1.
    9900012    2    1    2    0    0 -0.30958554071E+01  0.18430046114E+02 -0.11950257074E+01  0.72461574636E+02  0.70000005656E+02 0.  0.
        -12    1    1    2    0    0  0.30958554071E+01 -0.18430046114E+02  0.11950257074E+01  0.18726425364E+02  0.00000000000E+00 0.  1.
         11    1    3    3    0    0 -0.11497509091E+02  0.32959098680E+01  0.16944152410E+01  0.12080015746E+02  0.51100000000E-03 0. -1.
        -11    1    3    3    0    0 -0.13751133759E+02  0.27412511741E+02 -0.12735122478E+02  0.33207270656E+02  0.51100000000E-03 0.  1.
        -12    1    3    3    0    0  0.22152787443E+02 -0.12278375495E+02  0.98456815297E+01  0.27174288235E+02  0.00000000000E+00 0.  1.
</event>
<event>
 7    1  0.2489154E-013  0.7246161E+02  0.7816164E-02  0.1226708E+00
        -11   -1    0    0    0    0  0.00000000000E+00  0.00000000000E+00  0.45593999997E+02  0.45594000000E+02  0.51100000000E-03 0. -1.
         11   -1    0    0    0    0 -0.00000000000E+00 -0.00000000000E+00 -0.45593999997E+02  0.45594000000E+02  0.51100000000E-03 0.  1.
    9900012    2    1    2    0    0  0.52885132554E+01 -0.24833635156E+01  0.17791637005E+02  0.72461606484E+02  0.70000047143E+02 0.  0.
        -12    1    1    2    0    0 -0.52885132554E+01  0.24833635156E+01 -0.17791637005E+02  0.18726393516E+02  0.00000000000E+00 0.  1.
         11    1    3    3    0    0 -0.17682830928E+02 -0.13585159216E+01  0.68939338202E+01  0.19027727109E+02  0.51100000000E-03 0. -1.
        -11    1    3    3    0    0  0.11589247589E+02  0.47462161288E+00 -0.18518929266E+02  0.21851468298E+02  0.51100000000E-03 0.  1.
         12    1    3    3    0    0  0.11382096595E+02 -0.15994692068E+01  0.29416632451E+02  0.31582411077E+02  0.00000000000E+00 0. -1.
</event>
<event>
 7    1  0.2489154E-013  0.7246155E+02  0.7816164E-02  0.1226708E+00
        -11   -1    0    0    0    0  0.00000000000E+00  0.00000000000E+00  0.45593999997E+02  0.45594000000E+02  0.51100000000E-03 0.  1.
         11   -1    0    0    0    0 -0.00000000000E+00 -0.00000000000E+00 -0.45593999997E+02  0.45594000000E+02  0.51100000000E-03 0. -1.
    9900012    2    1    2    0    0  0.14694529153E+02  0.78965593554E+01 -0.85085320127E+01  0.72461549356E+02  0.69999972725E+02 0.  0.
        -12    1    1    2    0    0 -0.14694529153E+02 -0.78965593554E+01  0.85085320127E+01  0.18726450644E+02  0.00000000000E+00 0.  1.
         11    1    3    3    0    0  0.27635487829E+02  0.23177719710E+02 -0.10257997248E+02  0.37498711795E+02  0.51100000000E-03 0. -1.
        -11    1    3    3    0    0 -0.26711450929E+01  0.51023342181E+01  0.92854233993E+01  0.10926477865E+02  0.51100000000E-03 0.  1.
        -12    1    3    3    0    0 -0.10269813582E+02 -0.20383494572E+02 -0.75359581638E+01  0.24036359696E+02  0.00000000000E+00 0.  1.
</event>
<event>
 7    1  0.2489154E-013  0.7246158E+02  0.7816164E-02  0.1226708E+00
        -11   -1    0    0    0    0  0.00000000000E+00  0.00000000000E+00  0.45593999997E+02  0.45594000000E+02  0.51100000000E-03 0.  1.
         11   -1    0    0    0    0 -0.00000000000E+00 -0.00000000000E+00 -0.45593999997E+02  0.45594000000E+02  0.51100000000E-03 0. -1.
    9900012    2    1    2    0    0  0.15453064964E+01  0.18295775222E+02  0.36817600948E+01  0.72461582283E+02  0.70000015617E+02 0.  0.
        -12    1    1    2    0    0 -0.15453064964E+01 -0.18295775222E+02 -0.36817600948E+01  0.18726417717E+02  0.00000000000E+00 0.  1.
         11    1    3    3    0    0  0.31042868436E+01  0.15366110983E+02 -0.17133402163E+02  0.23222993638E+02  0.51100000000E-03 0. -1.
        -11    1    3    3    0    0  0.16991541779E+02  0.14853934756E+02  0.10711281112E+02  0.24981661536E+02  0.51100000000E-03 0.  1.
         12    1    3    3    0    0 -0.18550522126E+02 -0.11924270518E+02  0.10103881146E+02  0.24256927109E+02  0.00000000000E+00 0. -1.
</event>
<event>
 7    1  0.2489154E-013  0.7246157E+02  0.7816164E-02  0.1226708E+00
        -11   -1    0    0    0    0  0.00000000000E+00  0.00000000000E+00  0.45593999997E+02  0.45594000000E+02  0.51100000000E-03 0. -1.
         11   -1    0    0    0    0 -0.00000000000E+00 -0.00000000000E+00 -0.45593999997E+02  0.45594000000E+02  0.51100000000E-03 0.  1.
    9900012    2    1    2    0    0  0.37434618292E+01 -0.12279406101E+02  0.13633854430E+02  0.72461566616E+02  0.69999995209E+02 0.  0.
        -12    1    1    2    0    0 -0.37434618292E+01  0.12279406101E+02 -0.13633854430E+02  0.18726433384E+02  0.00000000000E+00 0.  1.
         11    1    3    3    0    0  0.15584698403E+02 -0.43186979526E+01 -0.20192297844E+02  0.25870115361E+02  0.51100000000E-03 0. -1.
        -11    1    3    3    0    0  0.82574224094E+01 -0.82595435961E+01  0.96472821391E+01  0.15148436824E+02  0.51100000000E-03 0.  1.
        -12    1    3    3    0    0 -0.20098658983E+02  0.29883544825E+00  0.24178870135E+02  0.31443014432E+02  0.00000000000E+00 0.  1.
</event>
<event>
 7    1  0.2489154E-013  0.7246154E+02  0.7816164E-02  0.1226708E+00
        -11   -1    0    0    0    0  0.00000000000E+00  0.00000000000E+00  0.45593999997E+02  0.45594000000E+02  0.51100000000E-03 0. -1.
         11   -1    0    0    0    0 -0.00000000000E+00 -0.00000000000E+00 -0.45593999997E+02  0.45594000000E+02  0.51100000000E-03 0.  1.
    9900012    2    1    2    0    0  0.10978687266E+02  0.10851154517E+02  0.10601936885E+02  0.72461542936E+02  0.69999964361E+02 0.  0.
        -12    1    1    2    0    0 -0.10978687266E+02 -0.10851154517E+02 -0.10601936885E+02  0.18726457064E+02  0.00000000000E+00 0.  1.
         11    1    3    3    0    0  0.80378998282E+00 -0.91010286981E+01 -0.12027825759E+02  0.15104416389E+02  0.51100000000E-03 0. -1.
        -11    1    3    3    0    0  0.24589222751E+02  0.26462469791E+01 -0.94974870284E+00  0.24749434770E+02  0.51100000000E-03 0.  1.
         12    1    3    3    0    0 -0.14414325468E+02  0.17305936236E+02  0.23579511347E+02  0.32607691777E+02  0.00000000000E+00 0. -1.
</event>
<event>
 7    1  0.2489154E-013  0.7246157E+02  0.7816164E-02  0.1226708E+00
        -11   -1    0    0    0    0  0.00000000000E+00  0.00000000000E+00  0.45593999997E+02  0.45594000000E+02  0.51100000000E-03 0. -1.
         11   -1    0    0    0    0 -0.00000000000E+00 -0.00000000000E+00 -0.45593999997E+02  0.45594000000E+02  0.51100000000E-03 0.  1.
    9900012    2    1    2    0    0 -0.30118668514E+01 -0.15257011197E+02  0.10432233118E+02  0.72461568936E+02  0.69999998230E+02 0.  0.
        -12    1    1    2    0    0  0.30118668514E+01  0.15257011197E+02 -0.10432233118E+02  0.18726431064E+02  0.00000000000E+00 0.  1.
         11    1    3    3    0    0 -0.21249353656E+02 -0.33890563793E+01  0.23935748328E+02  0.32186033962E+02  0.51100000000E-03 0. -1.
        -11    1    3    3    0    0 -0.21732628625E+01 -0.21858924035E+01  0.83154696918E+01  0.88683839298E+01  0.51100000000E-03 0.  1.
        -12    1    3    3    0    0  0.20410749667E+02 -0.96820624138E+01 -0.21818984901E+02  0.31407151044E+02  0.00000000000E+00 0.  1.
</event>
<event>
 7    1  0.2489154E-013  0.7246156E+02  0.7816164E-02  0.1226708E+00
        -11   -1    0    0    0    0  0.00000000000E+00  0.00000000000E+00  0.45593999997E+02  0.45594000000E+02  0.51100000000E-03 0.  1.
         11   -1    0    0    0    0 -0.00000000000E+00 -0.00000000000E+00 -0.45593999997E+02  0.45594000000E+02  0.51100000000E-03 0. -1.
    9900012    2    1    2    0    0 -0.14276818234E+02  0.31984200841E+01  0.11688542764E+02  0.72461562489E+02  0.69999989832E+02 0.  0.
        -12    1    1    2    0    0  0.14276818234E+02 -0.31984200841E+01 -0.11688542764E+02  0.18726437511E+02  0.00000000000E+00 0.  1.
         11    1    3    3    0    0  0.35679266470E+01  0.62838666997E+01  0.68857997867E+01  0.99815489890E+01  0.51100000000E-03 0. -1.
        -11    1    3    3    0    0  0.82828464761E+01  0.17212787851E+01  0.26727953355E+02  0.28034832570E+02  0.51100000000E-03 0.  1.
         12    1    3    3    0    0 -0.26127591357E+02 -0.48067254007E+01 -0.21925210378E+02  0.34445180930E+02  0.00000000000E+00 0. -1.
</event>
<event>
 7    1  0.2489154E-013  0.7246155E+02  0.7816164E-02  0.1226708E+00
        -11   -1    0    0    0    0  0.00000000000E+00  0.00000000000E+00  0.45593999997E+02  0.45594000000E+02  0.51100000000E-03 0. -1.
         11   -1    0    0    0    0 -0.00000000000E+00 -0.00000000000E+00 -0.45593999997E+02  0.45594000000E+02  0.51100000000E-03 0.  1.
    9900012    2    1    2    0    0 -0.14562286299E+01 -0.17549507116E+02  0.63697745964E+01  0.72461552653E+02  0.69999977018E+02 0.  0.
        -12    1    1    2    0    0  0.14562286299E+01  0.17549507116E+02 -0.63697745964E+01  0.18726447347E+02  0.00000000000E+00 0.  1.
         11    1    3    3    0    0 -0.11331631584E+02  0.12370489093E+02  0.13304481111E+02  0.21411307588E+02  0.51100000000E-03 0. -1.
        -11    1    3    3    0    0  0.14738343067E+02  0.44765450707E+01 -0.52408914782E+01  0.16270376636E+02  0.51100000000E-03 0.  1.
         12    1    3    3    0    0 -0.48629401124E+01 -0.34396541280E+02 -0.16938150363E+01  0.34779868429E+02  0.00000000000E+00 0. -1.
</event>
<event>
 7    1  0.2489154E-013  0.7246150E+02  0.7816164E-02  0.1226708E+00
        -11   -1    0    0    0    0  0.00000000000E+00  0.00000000000E+00  0.45593999997E+02  0.45594000000E+02  0.51100000000E-03 0.  1.
         11   -1    0    0    0    0 -0.00000000000E+00 -0.00000000000E+00 -0.45593999997E+02  0.45594000000E+02  0.51100000000E-03 0. -1.
    9900012    2    1    2    0    0 -0.30517269592E+01  0.17295054356E+02 -0.64999890275E+01  0.72461500061E+02  0.69999908508E+02 0.  0.
        -12    1    1    2    0    0  0.30517269592E+01 -0.17295054356E+02  0.64999890275E+01  0.18726499939E+02  0.00000000000E+00 0.  1.
         11    1    3    3    0    0  0.81663363339E+01  0.78537023564E+01 -0.42320344248E+00  0.11337935934E+02  0.51100000000E-03 0. -1.
        -11    1    3    3    0    0 -0.46009650077E+01 -0.15775136592E+02  0.18882679473E+02  0.25031568026E+02  0.51100000000E-03 0.  1.
         12    1    3    3    0    0 -0.66170982854E+01  0.25216488591E+02 -0.24959465058E+02  0.36091996101E+02  0.00000000000E+00 0. -1.
</event>
<event>
 7    1  0.2489154E-013  0.7246156E+02  0.7816164E-02  0.1226708E+00
        -11   -1    0    0    0    0  0.00000000000E+00  0.00000000000E+00  0.45593999997E+02  0.45594000000E+02  0.51100000000E-03 0.  1.
         11   -1    0    0    0    0 -0.00000000000E+00 -0.00000000000E+00 -0.45593999997E+02  0.45594000000E+02  0.51100000000E-03 0. -1.
    9900012    2    1    2    0    0 -0.19796522895E+01  0.13092943034E+02 -0.13241420431E+02  0.72461564260E+02  0.69999992140E+02 0.  0.
        -12    1    1    2    0    0  0.19796522895E+01 -0.13092943034E+02  0.13241420431E+02  0.18726435740E+02  0.00000000000E+00 0.  1.
         11    1    3    3    0    0 -0.11378188697E+01 -0.10000611259E+02 -0.88891206546E+00  0.10104307114E+02  0.51100000000E-03 0. -1.
        -11    1    3    3    0    0 -0.59387238118E+01 -0.17278143013E+02 -0.11631725573E+02  0.21658709717E+02  0.51100000000E-03 0.  1.
         12    1    3    3    0    0  0.50968903920E+01  0.40371697307E+02 -0.72078279174E+00  0.40698547430E+02  0.00000000000E+00 0. -1.
</event>
<event>
 7    1  0.2489154E-013  0.7246158E+02  0.7816164E-02  0.1226708E+00
        -11   -1    0    0    0    0  0.00000000000E+00  0.00000000000E+00  0.45593999997E+02  0.45594000000E+02  0.51100000000E-03 0. -1.
         11   -1    0    0    0    0 -0.00000000000E+00 -0.00000000000E+00 -0.45593999997E+02  0.45594000000E+02  0.51100000000E-03 0.  1.
    9900012    2    1    2    0    0  0.10151643394E+02  0.10436596429E+02  0.11777109291E+02  0.72461582514E+02  0.70000015918E+02 0.  0.
        -12    1    1    2    0    0 -0.10151643394E+02 -0.10436596429E+02 -0.11777109291E+02  0.18726417486E+02  0.00000000000E+00 0.  1.
         11    1    3    3    0    0  0.12935071427E+02  0.22821077806E+02  0.12069492104E+02  0.28875427356E+02  0.51100000000E-03 0. -1.
        -11    1    3    3    0    0  0.43717278325E+01  0.14025576918E+02  0.53744988852E+01  0.15643338858E+02  0.51100000000E-03 0.  1.
        -12    1    3    3    0    0 -0.71551558661E+01 -0.26410058294E+02 -0.56668816983E+01  0.27942816300E+02  0.00000000000E+00 0.  1.
</event>
<event>
 7    1  0.2489154E-013  0.7246163E+02  0.7816164E-02  0.1226708E+00
        -11   -1    0    0    0    0  0.00000000000E+00  0.00000000000E+00  0.45593999997E+02  0.45594000000E+02  0.51100000000E-03 0. -1.
         11   -1    0    0    0    0 -0.00000000000E+00 -0.00000000000E+00 -0.45593999997E+02  0.45594000000E+02  0.51100000000E-03 0.  1.
    9900012    2    1    2    0    0 -0.40015407617E+01 -0.80423699774E+01  0.16431213069E+02  0.72461633394E+02  0.70000082200E+02 0.  0.
        -12    1    1    2    0    0  0.40015407617E+01  0.80423699774E+01 -0.16431213069E+02  0.18726366606E+02  0.00000000000E+00 0.  1.
         11    1    3    3    0    0  0.15165315268E+02  0.10257375870E+02  0.14951065352E+02  0.23637573952E+02  0.51100000000E-03 0. -1.
        -11    1    3    3    0    0  0.80230235297E+01  0.51074422950E+01  0.79159089567E+01  0.12374024738E+02  0.51100000000E-03 0.  1.
         12    1    3    3    0    0 -0.27189879560E+02 -0.23407188142E+02 -0.64357612394E+01  0.36450034704E+02  0.00000000000E+00 0. -1.
</event>
<event>
 7    1  0.2489154E-013  0.7246139E+02  0.7816164E-02  0.1226709E+00
        -11   -1    0    0    0    0  0.00000000000E+00  0.00000000000E+00  0.45593999997E+02  0.45594000000E+02  0.51100000000E-03 0.  1.
         11   -1    0    0    0    0 -0.00000000000E+00 -0.00000000000E+00 -0.45593999997E+02  0.45594000000E+02  0.51100000000E-03 0. -1.
    9900012    2    1    2    0    0 -0.95441269659E+01  0.25343817524E+01  0.15911398087E+02  0.72461386866E+02  0.69999761050E+02 0.  0.
        -12    1    1    2    0    0  0.95441269659E+01 -0.25343817524E+01 -0.15911398087E+02  0.18726613134E+02  0.00000000000E+00 0.  1.
         11    1    3    3    0    0  0.57383142287E+01  0.19101375363E+02  0.62722218221E+01  0.20907691355E+02  0.51100000000E-03 0. -1.
        -11    1    3    3    0    0  0.65205432071E+01 -0.15982726715E+02  0.20819150271E+02  0.27044445922E+02  0.51100000000E-03 0.  1.
        -12    1    3    3    0    0 -0.21802984402E+02 -0.58426689622E+00 -0.11179974006E+02  0.24509249589E+02  0.00000000000E+00 0.  1.
</event>
<event>
 7    1  0.2489154E-013  0.7246157E+02  0.7816164E-02  0.1226708E+00
        -11   -1    0    0    0    0  0.00000000000E+00  0.00000000000E+00  0.45593999997E+02  0.45594000000E+02  0.51100000000E-03 0.  1.
         11   -1    0    0    0    0 -0.00000000000E+00 -0.00000000000E+00 -0.45593999997E+02  0.45594000000E+02  0.51100000000E-03 0. -1.
    9900012    2    1    2    0    0  0.12509797544E+02 -0.94714650287E+01 -0.10221332347E+02  0.72461566294E+02  0.69999994789E+02 0.  0.
        -12    1    1    2    0    0 -0.12509797544E+02  0.94714650287E+01  0.10221332347E+02  0.18726433706E+02  0.00000000000E+00 0.  1.
         11    1    3    3    0    0 -0.49186841356E+01  0.88412993633E+01  0.47878850610E+01  0.11193117156E+02  0.51100000000E-03 0. -1.
        -11    1    3    3    0    0  0.30824499065E+01  0.47514282540E+01  0.17797426585E+02  0.18676883069E+02  0.51100000000E-03 0.  1.
         12    1    3    3    0    0  0.14346031773E+02 -0.23064192646E+02 -0.32806643993E+02  0.42591566068E+02  0.00000000000E+00 0. -1.
</event>
<event>
 7    1  0.2489154E-013  0.7246152E+02  0.7816164E-02  0.1226708E+00
        -11   -1    0    0    0    0  0.00000000000E+00  0.00000000000E+00  0.45593999997E+02  0.45594000000E+02  0.51100000000E-03 0.  1.
         11   -1    0    0    0    0 -0.00000000000E+00 -0.00000000000E+00 -0.45593999997E+02  0.45594000000E+02  0.51100000000E-03 0. -1.
    9900012    2    1    2    0    0 -0.14423560629E+02  0.87509011388E+01 -0.81279464923E+01  0.72461524460E+02  0.69999940292E+02 0.  0.
        -12    1    1    2    0    0  0.14423560629E+02 -0.87509011388E+01  0.81279464923E+01  0.18726475540E+02  0.00000000000E+00 0.  1.
         11    1    3    3    0    0 -0.26322805602E+02  0.59458632537E+01  0.83476600127E+01  0.28247598350E+02  0.51100000000E-03 0. -1.
        -11    1    3    3    0    0 -0.14275932284E+02 -0.10418083995E+01 -0.81857430387E+01  0.16489208492E+02  0.51100000000E-03 0.  1.
        -12    1    3    3    0    0  0.26175177256E+02  0.38468462845E+01 -0.82898634662E+01  0.27724717619E+02  0.00000000000E+00 0.  1.
</event>
<event>
 7    1  0.2489154E-013  0.7246155E+02  0.7816164E-02  0.1226708E+00
        -11   -1    0    0    0    0  0.00000000000E+00  0.00000000000E+00  0.45593999997E+02  0.45594000000E+02  0.51100000000E-03 0.  1.
         11   -1    0    0    0    0 -0.00000000000E+00 -0.00000000000E+00 -0.45593999997E+02  0.45594000000E+02  0.51100000000E-03 0. -1.
    9900012    2    1    2    0    0 -0.16936158613E+02  0.78653441182E+01  0.14081013682E+01  0.72461551962E+02  0.69999976119E+02 0.  0.
        -12    1    1    2    0    0  0.16936158613E+02 -0.78653441182E+01 -0.14081013682E+01  0.18726448038E+02  0.00000000000E+00 0.  1.
         11    1    3    3    0    0 -0.29373908105E+02  0.12383241040E+02 -0.97935178548E+01  0.33347925397E+02  0.51100000000E-03 0. -1.
        -11    1    3    3    0    0 -0.11107593081E+02  0.30700529868E+00 -0.25809452873E+01  0.11407635826E+02  0.51100000000E-03 0.  1.
        -12    1    3    3    0    0  0.23545342574E+02 -0.48249022204E+01  0.13782564510E+02  0.27705990739E+02  0.00000000000E+00 0.  1.
</event>
<event>
 7    1  0.2489154E-013  0.7246155E+02  0.7816164E-02  0.1226708E+00
        -11   -1    0    0    0    0  0.00000000000E+00  0.00000000000E+00  0.45593999997E+02  0.45594000000E+02  0.51100000000E-03 0.  1.
         11   -1    0    0    0    0 -0.00000000000E+00 -0.00000000000E+00 -0.45593999997E+02  0.45594000000E+02  0.51100000000E-03 0. -1.
    9900012    2    1    2    0    0  0.13754981803E+02  0.11667957324E+02  0.50337865147E+01  0.72461554550E+02  0.69999979490E+02 0.  0.
        -12    1    1    2    0    0 -0.13754981803E+02 -0.11667957324E+02 -0.50337865147E+01  0.18726445450E+02  0.00000000000E+00 0.  1.
         11    1    3    3    0    0 -0.12277213649E+01  0.28538629613E+00 -0.55583938551E+01  0.56995164354E+01  0.51100000000E-03 0. -1.
        -11    1    3    3    0    0 -0.19355334726E+02 -0.95832687724E+01  0.14989482659E+02  0.26289781539E+02  0.51100000000E-03 0.  1.
         12    1    3    3    0    0  0.34338037894E+02  0.20965839800E+02 -0.43973022892E+01  0.40472256576E+02  0.00000000000E+00 0. -1.
</event>
<event>
 7    1  0.2489154E-013  0.7246158E+02  0.7816164E-02  0.1226708E+00
        -11   -1    0    0    0    0  0.00000000000E+00  0.00000000000E+00  0.45593999997E+02  0.45594000000E+02  0.51100000000E-03 0. -1.
         11   -1    0    0    0    0 -0.00000000000E+00 -0.00000000000E+00 -0.45593999997E+02  0.45594000000E+02  0.51100000000E-03 0.  1.
    9900012    2    1    2    0    0 -0.16075179428E+02  0.86361037662E+01 -0.42053740697E+01  0.72461578746E+02  0.70000011010E+02 0.  0.
        -12    1    1    2    0    0  0.16075179428E+02 -0.86361037662E+01  0.42053740697E+01  0.18726421254E+02  0.00000000000E+00 0.  1.
         11    1    3    3    0    0 -0.15619471830E+02  0.22295764457E+01  0.14593734420E+02  0.21492231061E+02  0.51100000000E-03 0. -1.
        -11    1    3    3    0    0  0.12394376714E+02 -0.12643285031E+02  0.44761129941E+01  0.18262223805E+02  0.51100000000E-03 0.  1.
        -12    1    3    3    0    0 -0.12850084312E+02  0.19049812351E+02 -0.23275221484E+02  0.32707123881E+02  0.00000000000E+00 0.  1.
</event>
<event>
 7    1  0.2489154E-013  0.7246157E+02  0.7816164E-02  0.1226708E+00
        -11   -1    0    0    0    0  0.00000000000E+00  0.00000000000E+00  0.45593999997E+02  0.45594000000E+02  0.51100000000E-03 0.  1.
         11   -1    0    0    0    0 -0.00000000000E+00 -0.00000000000E+00 -0.45593999997E+02  0.45594000000E+02  0.51100000000E-03 0. -1.
    9900012    2    1    2    0    0  0.84889520231E+00 -0.11742912014E+02 -0.14562362493E+02  0.72461574634E+02  0.70000005653E+02 0.  0.
        -12    1    1    2    0    0 -0.84889520231E+00  0.11742912014E+02  0.14562362493E+02  0.18726425366E+02  0.00000000000E+00 0.  1.
         11    1    3    3    0    0 -0.30278505706E+01  0.90643528424E+01  0.77974428680E+01  0.12334118820E+02  0.51100000000E-03 0. -1.
        -11    1    3    3    0    0  0.29753232020E+01  0.15810049575E+02 -0.16479445438E+02  0.23030031218E+02  0.51100000000E-03 0.  1.
         12    1    3    3    0    0  0.90142257091E+00 -0.36617314431E+02 -0.58803599233E+01  0.37097424595E+02  0.00000000000E+00 0. -1.
</event>
<event>
 7    1  0.2489154E-013  0.7246206E+02  0.7816164E-02  0.1226707E+00
        -11   -1    0    0    0    0  0.00000000000E+00  0.00000000000E+00  0.45593999997E+02  0.45594000000E+02  0.51100000000E-03 0. -1.
         11   -1    0    0    0    0 -0.00000000000E+00 -0.00000000000E+00 -0.45593999997E+02  0.45594000000E+02  0.51100000000E-03 0.  1.
    9900012    2    1    2    0    0  0.15959781179E+02 -0.82725361635E+00  0.97602150831E+01  0.72462061778E+02  0.70000640245E+02 0.  0.
        -12    1    1    2    0    0 -0.15959781179E+02  0.82725361635E+00 -0.97602150831E+01  0.18725938222E+02  0.00000000000E+00 0.  1.
         11    1    3    3    0    0  0.86246004840E+01  0.48652960001E+01 -0.14230550985E+02  0.17336764988E+02  0.51100000000E-03 0. -1.
        -11    1    3    3    0    0  0.83261111480E+01 -0.26684186364E+02  0.92036165030E+01  0.29429177456E+02  0.51100000000E-03 0.  1.
         12    1    3    3    0    0 -0.99093045273E+00  0.20991636748E+02  0.14787149565E+02  0.25696119333E+02  0.00000000000E+00 0. -1.
</event>
<event>
 7    1  0.2489154E-013  0.7246156E+02  0.7816164E-02  0.1226708E+00
        -11   -1    0    0    0    0  0.00000000000E+00  0.00000000000E+00  0.45593999997E+02  0.45594000000E+02  0.51100000000E-03 0.  1.
         11   -1    0    0    0    0 -0.00000000000E+00 -0.00000000000E+00 -0.45593999997E+02  0.45594000000E+02  0.51100000000E-03 0. -1.
    9900012    2    1    2    0    0  0.10077146925E+01  0.15097391147E+02 -0.11033261331E+02  0.72461559763E+02  0.69999986281E+02 0.  0.
        -12    1    1    2    0    0 -0.10077146925E+01 -0.15097391147E+02  0.11033261331E+02  0.18726440237E+02  0.00000000000E+00 0.  1.
         11    1    3    3    0    0  0.10770666173E+02  0.16397068155E+02  0.31968006005E+01  0.19876886784E+02  0.51100000000E-03 0. -1.
        -11    1    3    3    0    0  0.15279201246E+02 -0.14203695985E+02  0.34923907191E+00  0.20864346109E+02  0.51100000000E-03 0.  1.
         12    1    3    3    0    0 -0.25042152727E+02  0.12904018978E+02 -0.14579301003E+02  0.31720326870E+02  0.00000000000E+00 0. -1.
</event>
<event>
 7    1  0.2489154E-013  0.7246174E+02  0.7816164E-02  0.1226708E+00
        -11   -1    0    0    0    0  0.00000000000E+00  0.00000000000E+00  0.45593999997E+02  0.45594000000E+02  0.51100000000E-03 0. -1.
         11   -1    0    0    0    0 -0.00000000000E+00 -0.00000000000E+00 -0.45593999997E+02  0.45594000000E+02  0.51100000000E-03 0.  1.
    9900012    2    1    2    0    0  0.16794662521E+02  0.80389927300E+01  0.19967202871E+01  0.72461735418E+02  0.70000215103E+02 0.  0.
        -12    1    1    2    0    0 -0.16794662521E+02 -0.80389927300E+01 -0.19967202871E+01  0.18726264582E+02  0.00000000000E+00 0.  1.
         11    1    3    3    0    0  0.39453375299E+01  0.20522003948E+02  0.16581857862E+01  0.20963490039E+02  0.51100000000E-03 0. -1.
        -11    1    3    3    0    0 -0.11929115526E+01  0.10315421820E+02  0.17029679750E+02  0.19945950916E+02  0.51100000000E-03 0.  1.
        -12    1    3    3    0    0  0.14042236544E+02 -0.22798433038E+02 -0.16691145249E+02  0.31552294463E+02  0.00000000000E+00 0.  1.
</event>
<event>
 7    1  0.2489154E-013  0.7246155E+02  0.7816164E-02  0.1226708E+00
        -11   -1    0    0    0    0  0.00000000000E+00  0.00000000000E+00  0.45593999997E+02  0.45594000000E+02  0.51100000000E-03 0.  1.
         11   -1    0    0    0    0 -0.00000000000E+00 -0.00000000000E+00 -0.45593999997E+02  0.45594000000E+02  0.51100000000E-03 0. -1.
    9900012    2    1    2    0    0 -0.12072592666E+02 -0.11596084903E+02  0.83942482332E+01  0.72461545927E+02  0.69999968257E+02 0.  0.
        -12    1    1    2    0    0  0.12072592666E+02  0.11596084903E+02 -0.83942482332E+01  0.18726454073E+02  0.00000000000E+00 0.  1.
         11    1    3    3    0    0 -0.20532664667E+02  0.15993670925E+02  0.17935684877E+02  0.31608173314E+02  0.51100000000E-03 0. -1.
        -11    1    3    3    0    0  0.70366050798E+01 -0.59775216410E+01  0.85870306817E+01  0.12608793448E+02  0.51100000000E-03 0.  1.
        -12    1    3    3    0    0  0.14234669215E+01 -0.21612234187E+02 -0.18128467326E+02  0.28244579165E+02  0.00000000000E+00 0.  1.
</event>
<event>
 7    1  0.2489154E-013  0.7246158E+02  0.7816164E-02  0.1226708E+00
        -11   -1    0    0    0    0  0.00000000000E+00  0.00000000000E+00  0.45593999997E+02  0.45594000000E+02  0.51100000000E-03 0. -1.
         11   -1    0    0    0    0 -0.00000000000E+00 -0.00000000000E+00 -0.45593999997E+02  0.45594000000E+02  0.51100000000E-03 0.  1.
    9900012    2    1    2    0    0  0.12245950622E+02  0.13109074892E+02 -0.53728778049E+01  0.72461575700E+02  0.70000007042E+02 0.  0.
        -12    1    1    2    0    0 -0.12245950622E+02 -0.13109074892E+02  0.53728778049E+01  0.18726424300E+02  0.00000000000E+00 0.  1.
         11    1    3    3    0    0 -0.12266733233E+00  0.40159697896E+01 -0.59108732697E+01  0.71471311515E+01  0.51100000000E-03 0. -1.
        -11    1    3    3    0    0  0.34304527103E+01  0.25272435545E+02 -0.23711254784E+02  0.34823664481E+02  0.51100000000E-03 0.  1.
         12    1    3    3    0    0  0.89381652443E+01 -0.16179330443E+02  0.24249250249E+02  0.30490780068E+02  0.00000000000E+00 0. -1.
</event>
<event>
 7    1  0.2489154E-013  0.7246167E+02  0.7816164E-02  0.1226708E+00
        -11   -1    0    0    0    0  0.00000000000E+00  0.00000000000E+00  0.45593999997E+02  0.45594000000E+02  0.51100000000E-03 0. -1.
         11   -1    0    0    0    0 -0.00000000000E+00 -0.00000000000E+00 -0.45593999997E+02  0.45594000000E+02  0.51100000000E-03 0.  1.
    9900012    2    1    2    0    0 -0.10209923992E+02  0.14257932659E+02  0.65684174284E+01  0.72461673635E+02  0.70000134620E+02 0.  0.
        -12    1    1    2    0    0  0.10209923992E+02 -0.14257932659E+02 -0.65684174284E+01  0.18726326365E+02  0.00000000000E+00 0.  1.
         11    1    3    3    0    0 -0.29223517687E+01  0.19149341262E+02  0.14920190501E+02  0.24450961034E+02  0.51100000000E-03 0. -1.
        -11    1    3    3    0    0  0.13279757885E+02 -0.25795023332E+01 -0.20087563674E+02  0.24218092748E+02  0.51100000000E-03 0.  1.
         12    1    3    3    0    0 -0.20567330109E+02 -0.23119062707E+01  0.11735790601E+02  0.23792619852E+02  0.00000000000E+00 0. -1.
</event>
<event>
 7    1  0.2489154E-013  0.7246158E+02  0.7816164E-02  0.1226708E+00
        -11   -1    0    0    0    0  0.00000000000E+00  0.00000000000E+00  0.45593999997E+02  0.45594000000E+02  0.51100000000E-03 0.  1.
         11   -1    0    0    0    0 -0.00000000000E+00 -0.00000000000E+00 -0.45593999997E+02  0.45594000000E+02  0.51100000000E-03 0. -1.
    9900012    2    1    2    0    0  0.15978312552E+02  0.86989677587E+01 -0.44384874503E+01  0.72461583287E+02  0.70000016925E+02 0.  0.
        -12    1    1    2    0    0 -0.15978312552E+02 -0.86989677587E+01  0.44384874503E+01  0.18726416713E+02  0.00000000000E+00 0.  1.
         11    1    3    3    0    0 -0.16798786529E+02  0.16564748058E+02  0.16685857352E+02  0.28896503991E+02  0.51100000000E-03 0. -1.
        -11    1    3    3    0    0  0.33516416803E+01 -0.28707743006E+01  0.28746953188E+01  0.52667561625E+01  0.51100000000E-03 0.  1.
         12    1    3    3    0    0  0.29425457400E+02 -0.49950059989E+01 -0.23999040121E+02  0.38298323134E+02  0.00000000000E+00 0. -1.
</event>
<event>
 7    1  0.2489154E-013  0.7246158E+02  0.7816164E-02  0.1226708E+00
        -11   -1    0    0    0    0  0.00000000000E+00  0.00000000000E+00  0.45593999997E+02  0.45594000000E+02  0.51100000000E-03 0.  1.
         11   -1    0    0    0    0 -0.00000000000E+00 -0.00000000000E+00 -0.45593999997E+02  0.45594000000E+02  0.51100000000E-03 0. -1.
    9900012    2    1    2    0    0  0.11086009185E+02  0.52686549284E+01  0.14142859656E+02  0.72461580063E+02  0.70000012725E+02 0.  0.
        -12    1    1    2    0    0 -0.11086009185E+02 -0.52686549284E+01 -0.14142859656E+02  0.18726419937E+02  0.00000000000E+00 0.  1.
         11    1    3    3    0    0  0.66961300599E+01 -0.21830931844E+01  0.34835233777E+01  0.78574161793E+01  0.51100000000E-03 0. -1.
        -11    1    3    3    0    0  0.30690754931E+02 -0.93621655932E+01  0.90854378713E+01  0.33348429714E+02  0.51100000000E-03 0.  1.
         12    1    3    3    0    0 -0.26300875806E+02  0.16813913706E+02  0.15738984069E+01  0.31255734169E+02  0.00000000000E+00 0. -1.
</event>
<event>
 7    1  0.2489154E-013  0.7246150E+02  0.7816164E-02  0.1226708E+00
        -11   -1    0    0    0    0  0.00000000000E+00  0.00000000000E+00  0.45593999997E+02  0.45594000000E+02  0.51100000000E-03 0. -1.
         11   -1    0    0    0    0 -0.00000000000E+00 -0.00000000000E+00 -0.45593999997E+02  0.45594000000E+02  0.51100000000E-03 0.  1.
    9900012    2    1    2    0    0 -0.12556818778E+02 -0.12884002492E+01  0.13832857557E+02  0.72461504833E+02  0.69999914725E+02 0.  0.
        -12    1    1    2    0    0  0.12556818778E+02  0.12884002492E+01 -0.13832857557E+02  0.18726495167E+02  0.00000000000E+00 0.  1.
         11    1    3    3    0    0  0.80629363340E+01 -0.63390953959E+01  0.22361707538E+01  0.10497405997E+02  0.51100000000E-03 0. -1.
        -11    1    3    3    0    0  0.17430473109E+02 -0.83285854940E+01 -0.19495808495E+01  0.19416168388E+02  0.51100000000E-03 0.  1.
         12    1    3    3    0    0 -0.38050228221E+02  0.13379280641E+02  0.13546267653E+02  0.42547930448E+02  0.00000000000E+00 0. -1.
</event>
<event>
 7    1  0.2489154E-013  0.7246157E+02  0.7816164E-02  0.1226708E+00
        -11   -1    0    0    0    0  0.00000000000E+00  0.00000000000E+00  0.45593999997E+02  0.45594000000E+02  0.51100000000E-03 0.  1.
         11   -1    0    0    0    0 -0.00000000000E+00 -0.00000000000E+00 -0.45593999997E+02  0.45594000000E+02  0.51100000000E-03 0. -1.
    9900012    2    1    2    0    0 -0.82746907926E+01 -0.11288574596E+02 -0.12440934147E+02  0.72461567703E+02  0.69999996624E+02 0.  0.
        -12    1    1    2    0    0  0.82746907926E+01  0.11288574596E+02  0.12440934147E+02  0.18726432297E+02  0.00000000000E+00 0.  1.
         11    1    3    3    0    0 -0.23393671897E+02 -0.80915522794E+01  0.19473705244E+01  0.24830009169E+02  0.51100000000E-03 0. -1.
        -11    1    3    3    0    0 -0.34503265328E+01 -0.19588251535E+02 -0.10713523133E+02  0.22591678326E+02  0.51100000000E-03 0.  1.
        -12    1    3    3    0    0  0.18569307638E+02  0.16391229219E+02 -0.36747815383E+01  0.25039880207E+02  0.00000000000E+00 0.  1.
</event>
<event>
 7    1  0.2489154E-013  0.7246161E+02  0.7816164E-02  0.1226708E+00
        -11   -1    0    0    0    0  0.00000000000E+00  0.00000000000E+00  0.45593999997E+02  0.45594000000E+02  0.51100000000E-03 0.  1.
         11   -1    0    0    0    0 -0.00000000000E+00 -0.00000000000E+00 -0.45593999997E+02  0.45594000000E+02  0.51100000000E-03 0. -1.
    9900012    2    1    2    0    0  0.11529492690E+01  0.96316438085E+01 -0.16018107204E+02  0.72461611857E+02  0.70000054143E+02 0.  0.
        -12    1    1    2    0    0 -0.11529492690E+01 -0.96316438085E+01  0.16018107204E+02  0.18726388143E+02  0.00000000000E+00 0.  1.
         11    1    3    3    0    0 -0.21647352411E+02  0.18286320778E+02 -0.31409008588E+02  0.42302756586E+02  0.51100000000E-03 0. -1.
        -11    1    3    3    0    0 -0.39824121436E+00 -0.13294037257E+01  0.18626873773E+01  0.23228247582E+01  0.51100000000E-03 0.  1.
        -12    1    3    3    0    0  0.23198542895E+02 -0.73252732435E+01  0.13528214006E+02  0.27836030513E+02  0.00000000000E+00 0.  1.
</event>
<event>
 7    1  0.2489154E-013  0.7246216E+02  0.7816164E-02  0.1226706E+00
        -11   -1    0    0    0    0  0.00000000000E+00  0.00000000000E+00  0.45593999997E+02  0.45594000000E+02  0.51100000000E-03 0.  1.
         11   -1    0    0    0    0 -0.00000000000E+00 -0.00000000000E+00 -0.45593999997E+02  0.45594000000E+02  0.51100000000E-03 0. -1.
    9900012    2    1    2    0    0  0.25496119753E+01 -0.11002828376E+01 -0.18518797881E+02  0.72462161741E+02  0.70000770465E+02 0.  0.
        -12    1    1    2    0    0 -0.25496119753E+01  0.11002828376E+01  0.18518797881E+02  0.18725838259E+02  0.00000000000E+00 0.  1.
         11    1    3    3    0    0 -0.15732575463E+02  0.85767308525E+01 -0.12416685565E+02  0.21800190905E+02  0.51100000000E-03 0. -1.
        -11    1    3    3    0    0  0.30376182897E+01 -0.26238826297E+02  0.25714169568E+01  0.26538939613E+02  0.51100000000E-03 0.  1.
        -12    1    3    3    0    0  0.15244569148E+02  0.16561812607E+02 -0.86735292730E+01  0.24123031223E+02  0.00000000000E+00 0.  1.
</event>
<event>
 7    1  0.2489154E-013  0.7246160E+02  0.7816164E-02  0.1226708E+00
        -11   -1    0    0    0    0  0.00000000000E+00  0.00000000000E+00  0.45593999997E+02  0.45594000000E+02  0.51100000000E-03 0.  1.
         11   -1    0    0    0    0 -0.00000000000E+00 -0.00000000000E+00 -0.45593999997E+02  0.45594000000E+02  0.51100000000E-03 0. -1.
    9900012    2    1    2    0    0  0.45922648060E+00 -0.18000082399E+02 -0.51443392578E+01  0.72461599339E+02  0.70000037836E+02 0.  0.
        -12    1    1    2    0    0 -0.45922648060E+00  0.18000082399E+02  0.51443392578E+01  0.18726400661E+02  0.00000000000E+00 0.  1.
         11    1    3    3    0    0 -0.10499263104E+02 -0.81437259917E+01 -0.46485960428E+01  0.14077082233E+02  0.51100000000E-03 0. -1.
        -11    1    3    3    0    0 -0.17300974966E+02 -0.21680713895E+02  0.33654988694E+00  0.27739689181E+02  0.51100000000E-03 0.  1.
        -12    1    3    3    0    0  0.28259464551E+02  0.11824357488E+02 -0.83229310194E+00  0.30644827925E+02  0.00000000000E+00 0.  1.
</event>
<event>
 7    1  0.2489154E-013  0.7246156E+02  0.7816164E-02  0.1226708E+00
        -11   -1    0    0    0    0  0.00000000000E+00  0.00000000000E+00  0.45593999997E+02  0.45594000000E+02  0.51100000000E-03 0.  1.
         11   -1    0    0    0    0 -0.00000000000E+00 -0.00000000000E+00 -0.45593999997E+02  0.45594000000E+02  0.51100000000E-03 0. -1.
    9900012    2    1    2    0    0 -0.14217439453E+01  0.14099840596E+02 -0.12241432844E+02  0.72461560436E+02  0.69999987157E+02 0.  0.
        -12    1    1    2    0    0  0.14217439453E+01 -0.14099840596E+02  0.12241432844E+02  0.18726439564E+02  0.00000000000E+00 0.  1.
         11    1    3    3    0    0 -0.95627358765E+01  0.17872604099E+01 -0.33679716547E+01  0.10294826397E+02  0.51100000000E-03 0. -1.
        -11    1    3    3    0    0 -0.76111052546E+01 -0.52430271231E+01 -0.29450031078E+02  0.30866204616E+02  0.51100000000E-03 0.  1.
        -12    1    3    3    0    0  0.15752097186E+02  0.17555607310E+02  0.20576569889E+02  0.31300529423E+02  0.00000000000E+00 0.  1.
</event>
<event>
 7    1  0.2489154E-013  0.7246156E+02  0.7816164E-02  0.1226708E+00
        -11   -1    0    0    0    0  0.00000000000E+00  0.00000000000E+00  0.45593999997E+02  0.45594000000E+02  0.51100000000E-03 0. -1.
         11   -1    0    0    0    0 -0.00000000000E+00 -0.00000000000E+00 -0.45593999997E+02  0.45594000000E+02  0.51100000000E-03 0.  1.
    9900012    2    1    2    0    0  0.17104583207E+02  0.42124127900E+01  0.63536045535E+01  0.72461562031E+02  0.69999989235E+02 0.  0.
        -12    1    1    2    0    0 -0.17104583207E+02 -0.42124127900E+01 -0.63536045535E+01  0.18726437969E+02  0.00000000000E+00 0.  1.
         11    1    3    3    0    0  0.68992657213E+00 -0.20609360474E+01  0.10089406313E+02  0.10320832141E+02  0.51100000000E-03 0. -1.
        -11    1    3    3    0    0 -0.18640383632E+02  0.15980862348E+02  0.42029155338E+01  0.24910165848E+02  0.51100000000E-03 0.  1.
         12    1    3    3    0    0  0.35055040267E+02 -0.97075135102E+01 -0.79387172932E+01  0.37230564042E+02  0.00000000000E+00 0. -1.
</event>
<event>
 7    1  0.2489154E-013  0.7246155E+02  0.7816164E-02  0.1226708E+00
        -11   -1    0    0    0    0  0.00000000000E+00  0.00000000000E+00  0.45593999997E+02  0.45594000000E+02  0.51100000000E-03 0.  1.
         11   -1    0    0    0    0 -0.00000000000E+00 -0.00000000000E+00 -0.45593999997E+02  0.45594000000E+02  0.51100000000E-03 0. -1.
    9900012    2    1    2    0    0  0.11015501928E+02 -0.64328558759E+01 -0.13709737846E+02  0.72461552679E+02  0.69999977053E+02 0.  0.
        -12    1    1    2    0    0 -0.11015501928E+02  0.64328558759E+01  0.13709737846E+02  0.18726447321E+02  0.00000000000E+00 0.  1.
         11    1    3    3    0    0  0.34135885366E+01 -0.40062388894E+01 -0.10538110806E+01  0.53677793165E+01  0.51100000000E-03 0. -1.
        -11    1    3    3    0    0  0.16082403396E+02 -0.20582101607E+02  0.17099854847E+02  0.31219731607E+02  0.51100000000E-03 0.  1.
         12    1    3    3    0    0 -0.84804900048E+01  0.18155484621E+02 -0.29755781613E+02  0.35874041756E+02  0.00000000000E+00 0. -1.
</event>
<event>
 7    1  0.2489154E-013  0.7246159E+02  0.7816164E-02  0.1226708E+00
        -11   -1    0    0    0    0  0.00000000000E+00  0.00000000000E+00  0.45593999997E+02  0.45594000000E+02  0.51100000000E-03 0.  1.
         11   -1    0    0    0    0 -0.00000000000E+00 -0.00000000000E+00 -0.45593999997E+02  0.45594000000E+02  0.51100000000E-03 0. -1.
    9900012    2    1    2    0    0 -0.15622561016E+02 -0.31492590518E+01 -0.98334245952E+01  0.72461588583E+02  0.70000023825E+02 0.  0.
        -12    1    1    2    0    0  0.15622561016E+02  0.31492590518E+01  0.98334245952E+01  0.18726411417E+02  0.00000000000E+00 0.  1.
         11    1    3    3    0    0 -0.21136393585E+02 -0.12242405212E+02  0.12364323465E+02  0.27376999729E+02  0.51100000000E-03 0. -1.
        -11    1    3    3    0    0  0.10201088429E+01  0.81885313022E+01  0.97707854231E+01  0.12789093595E+02  0.51100000000E-03 0.  1.
         12    1    3    3    0    0  0.44937237260E+01  0.90461485835E+00 -0.31968533483E+02  0.32295495259E+02  0.00000000000E+00 0. -1.
</event>
<event>
 7    1  0.2489154E-013  0.7246161E+02  0.7816164E-02  0.1226708E+00
        -11   -1    0    0    0    0  0.00000000000E+00  0.00000000000E+00  0.45593999997E+02  0.45594000000E+02  0.51100000000E-03 0.  1.
         11   -1    0    0    0    0 -0.00000000000E+00 -0.00000000000E+00 -0.45593999997E+02  0.45594000000E+02  0.51100000000E-03 0. -1.
    9900012    2    1    2    0    0 -0.12871092688E+02 -0.12087642115E+02 -0.62371051380E+01  0.72461612217E+02  0.70000054612E+02 0.  0.
        -12    1    1    2    0    0  0.12871092688E+02  0.12087642115E+02  0.62371051380E+01  0.18726387783E+02  0.00000000000E+00 0.  1.
         11    1    3    3    0    0 -0.97452322068E+01  0.74224013421E+01  0.12854731158E+02  0.17756849548E+02  0.51100000000E-03 0. -1.
        -11    1    3    3    0    0 -0.64726852157E+01  0.14462135637E+02 -0.11907960191E+02  0.19820407091E+02  0.51100000000E-03 0.  1.
         12    1    3    3    0    0  0.33468247346E+01 -0.33972179094E+02 -0.71838761052E+01  0.34884355578E+02  0.00000000000E+00 0. -1.
</event>
<event>
 7    1  0.2489154E-013  0.7246158E+02  0.7816164E-02  0.1226708E+00
        -11   -1    0    0    0    0  0.00000000000E+00  0.00000000000E+00  0.45593999997E+02  0.45594000000E+02  0.51100000000E-03 0.  1.
         11   -1    0    0    0    0 -0.00000000000E+00 -0.00000000000E+00 -0.45593999997E+02  0.45594000000E+02  0.51100000000E-03 0. -1.
    9900012    2    1    2    0    0 -0.23571402864E+01 -0.36201848955E+01 -0.18221328887E+02  0.72461583487E+02  0.70000017186E+02 0.  0.
        -12    1    1    2    0    0  0.23571402864E+01  0.36201848955E+01  0.18221328887E+02  0.18726416513E+02  0.00000000000E+00 0.  1.
         11    1    3    3    0    0 -0.92304028411E+01 -0.46822920230E+01 -0.15624744213E+02  0.18741846952E+02  0.51100000000E-03 0. -1.
        -11    1    3    3    0    0  0.15079471725E+01  0.23470244447E+02  0.12041124951E+02  0.26421865366E+02  0.51100000000E-03 0.  1.
         12    1    3    3    0    0  0.53653153822E+01 -0.22408137320E+02 -0.14637709625E+02  0.27297871169E+02  0.00000000000E+00 0. -1.
</event>
<event>
 7    1  0.2489154E-013  0.7246112E+02  0.7816164E-02  0.1226709E+00
        -11   -1    0    0    0    0  0.00000000000E+00  0.00000000000E+00  0.45593999997E+02  0.45594000000E+02  0.51100000000E-03 0. -1.
         11   -1    0    0    0    0 -0.00000000000E+00 -0.00000000000E+00 -0.45593999997E+02  0.45594000000E+02  0.51100000000E-03 0.  1.
    9900012    2    1    2    0    0  0.17886825802E+02 -0.43180543934E+01  0.34802282891E+01  0.72461117719E+02  0.69999410435E+02 0.  0.
        -12    1    1    2    0    0 -0.17886825802E+02  0.43180543934E+01 -0.34802282891E+01  0.18726882281E+02  0.00000000000E+00 0.  1.
         11    1    3    3    0    0 -0.65286958424E+01 -0.11564230503E+02  0.12884340671E+02  0.18503014114E+02  0.51100000000E-03 0. -1.
        -11    1    3    3    0    0  0.15572017010E+02 -0.96543462335E+01  0.14507796045E+02  0.23370285862E+02  0.51100000000E-03 0.  1.
        -12    1    3    3    0    0  0.88435046343E+01  0.16900522343E+02 -0.23911908427E+02  0.30587817743E+02  0.00000000000E+00 0.  1.
</event>
<event>
 7    1  0.2489154E-013  0.7246154E+02  0.7816164E-02  0.1226708E+00
        -11   -1    0    0    0    0  0.00000000000E+00  0.00000000000E+00  0.45593999997E+02  0.45594000000E+02  0.51100000000E-03 0.  1.
         11   -1    0    0    0    0 -0.00000000000E+00 -0.00000000000E+00 -0.45593999997E+02  0.45594000000E+02  0.51100000000E-03 0. -1.
    9900012    2    1    2    0    0 -0.15232138235E+02  0.57319227640E+01 -0.92632303859E+01  0.72461537148E+02  0.69999956821E+02 0.  0.
        -12    1    1    2    0    0  0.15232138235E+02 -0.57319227640E+01  0.92632303859E+01  0.18726462852E+02  0.00000000000E+00 0.  1.
         11    1    3    3    0    0 -0.18494677589E+02  0.17069253539E+02  0.50147783369E+01  0.25662433975E+02  0.51100000000E-03 0. -1.
        -11    1    3    3    0    0 -0.60065333891E+01  0.12075638851E+02 -0.16741015143E+02  0.21497932116E+02  0.51100000000E-03 0.  1.
        -12    1    3    3    0    0  0.92690727433E+01 -0.23412969626E+02  0.24630064201E+01  0.25301171057E+02  0.00000000000E+00 0.  1.
</event>
<event>
 7    1  0.2489154E-013  0.7246155E+02  0.7816164E-02  0.1226708E+00
        -11   -1    0    0    0    0  0.00000000000E+00  0.00000000000E+00  0.45593999997E+02  0.45594000000E+02  0.51100000000E-03 0.  1.
         11   -1    0    0    0    0 -0.00000000000E+00 -0.00000000000E+00 -0.45593999997E+02  0.45594000000E+02  0.51100000000E-03 0. -1.
    9900012    2    1    2    0    0 -0.83222986974E+00 -0.16705222897E+02 -0.84215615485E+01  0.72461554061E+02  0.69999978853E+02 0.  0.
        -12    1    1    2    0    0  0.83222986974E+00  0.16705222897E+02  0.84215615485E+01  0.18726445939E+02  0.00000000000E+00 0.  1.
         11    1    3    3    0    0 -0.71287983446E+01  0.12956330331E+01 -0.90829165313E+00  0.73022890098E+01  0.51100000000E-03 0. -1.
        -11    1    3    3    0    0 -0.12177203723E+01 -0.80408963116E+01  0.27137940123E+02  0.28330313285E+02  0.51100000000E-03 0.  1.
         12    1    3    3    0    0  0.75142888472E+01 -0.99599596181E+01 -0.34651210019E+02  0.36828951767E+02  0.00000000000E+00 0. -1.
</event>
<event>
 7    1  0.2489154E-013  0.7246156E+02  0.7816164E-02  0.1226708E+00
        -11   -1    0    0    0    0  0.00000000000E+00  0.00000000000E+00  0.45593999997E+02  0.45594000000E+02  0.51100000000E-03 0. -1.
         11   -1    0    0    0    0 -0.00000000000E+00 -0.00000000000E+00 -0.45593999997E+02  0.45594000000E+02  0.51100000000E-03 0.  1.
    9900012    2    1    2    0    0  0.16697002157E+01 -0.47635474564E+01  0.18033313527E+02  0.72461556666E+02  0.69999982247E+02 0.  0.
        -12    1    1    2    0    0 -0.16697002157E+01  0.47635474564E+01 -0.18033313527E+02  0.18726443334E+02  0.00000000000E+00 0.  1.
         11    1    3    3    0    0  0.14183384284E+02  0.25406233896E+01 -0.11761775527E+01  0.14457058859E+02  0.51100000000E-03 0. -1.
        -11    1    3    3    0    0 -0.98375240223E+00  0.10928149282E+02 -0.14377811918E+02  0.18086284619E+02  0.51100000000E-03 0.  1.
         12    1    3    3    0    0 -0.11529931666E+02 -0.18232320128E+02  0.33587302998E+02  0.39918213188E+02  0.00000000000E+00 0. -1.
</event>
<event>
 7    1  0.2489154E-013  0.7246159E+02  0.7816164E-02  0.1226708E+00
        -11   -1    0    0    0    0  0.00000000000E+00  0.00000000000E+00  0.45593999997E+02  0.45594000000E+02  0.51100000000E-03 0.  1.
         11   -1    0    0    0    0 -0.00000000000E+00 -0.00000000000E+00 -0.45593999997E+02  0.45594000000E+02  0.51100000000E-03 0. -1.
    9900012    2    1    2    0    0  0.61085555077E+01 -0.59057135488E+01 -0.16687914677E+02  0.72461590862E+02  0.70000026794E+02 0.  0.
        -12    1    1    2    0    0 -0.61085555077E+01  0.59057135488E+01  0.16687914677E+02  0.18726409138E+02  0.00000000000E+00 0.  1.
         11    1    3    3    0    0  0.71981129155E+01 -0.12451634235E+02 -0.27633279912E+02  0.31152113630E+02  0.51100000000E-03 0. -1.
        -11    1    3    3    0    0  0.12982332959E+02  0.17261795510E+02  0.26089250059E+01  0.21755850781E+02  0.51100000000E-03 0.  1.
        -12    1    3    3    0    0 -0.14071890366E+02 -0.10715874823E+02  0.83364402285E+01  0.19553626451E+02  0.00000000000E+00 0.  1.
</event>
<event>
 7    1  0.2489154E-013  0.7246160E+02  0.7816164E-02  0.1226708E+00
        -11   -1    0    0    0    0  0.00000000000E+00  0.00000000000E+00  0.45593999997E+02  0.45594000000E+02  0.51100000000E-03 0.  1.
         11   -1    0    0    0    0 -0.00000000000E+00 -0.00000000000E+00 -0.45593999997E+02  0.45594000000E+02  0.51100000000E-03 0. -1.
    9900012    2    1    2    0    0  0.12639978070E+02 -0.13521422252E+02 -0.28425539719E+01  0.72461601029E+02  0.70000040038E+02 0.  0.
        -12    1    1    2    0    0 -0.12639978070E+02  0.13521422252E+02  0.28425539719E+01  0.18726398971E+02  0.00000000000E+00 0.  1.
         11    1    3    3    0    0  0.13264825529E+02 -0.11618617584E+02  0.14211243461E+02  0.22647457073E+02  0.51100000000E-03 0. -1.
        -11    1    3    3    0    0 -0.20461491087E+02 -0.97173619439E+00  0.40011008918E+01  0.20871648170E+02  0.51100000000E-03 0.  1.
         12    1    3    3    0    0  0.19836643628E+02 -0.93106847297E+00 -0.21054898324E+02  0.28942495787E+02  0.00000000000E+00 0. -1.
</event>
<event>
 7    1  0.2489154E-013  0.7246156E+02  0.7816164E-02  0.1226708E+00
        -11   -1    0    0    0    0  0.00000000000E+00  0.00000000000E+00  0.45593999997E+02  0.45594000000E+02  0.51100000000E-03 0.  1.
         11   -1    0    0    0    0 -0.00000000000E+00 -0.00000000000E+00 -0.45593999997E+02  0.45594000000E+02  0.51100000000E-03 0. -1.
    9900012    2    1    2    0    0 -0.10260903233E+02  0.13017473020E+02 -0.87142934011E+01  0.72461557506E+02  0.69999983341E+02 0.  0.
        -12    1    1    2    0    0  0.10260903233E+02 -0.13017473020E+02  0.87142934011E+01  0.18726442494E+02  0.00000000000E+00 0.  1.
         11    1    3    3    0    0 -0.41134580837E+01 -0.30467993160E+01 -0.75073072605E+01  0.90864286738E+01  0.51100000000E-03 0. -1.
        -11    1    3    3    0    0 -0.32973072930E+02  0.87950151287E+01 -0.73565902693E+01  0.34909815957E+02  0.51100000000E-03 0.  1.
         12    1    3    3    0    0  0.26825627780E+02  0.72692572074E+01  0.61496041287E+01  0.28465312875E+02  0.00000000000E+00 0. -1.
</event>
<event>
 7    1  0.2489154E-013  0.7246162E+02  0.7816164E-02  0.1226708E+00
        -11   -1    0    0    0    0  0.00000000000E+00  0.00000000000E+00  0.45593999997E+02  0.45594000000E+02  0.51100000000E-03 0.  1.
         11   -1    0    0    0    0 -0.00000000000E+00 -0.00000000000E+00 -0.45593999997E+02  0.45594000000E+02  0.51100000000E-03 0. -1.
    9900012    2    1    2    0    0 -0.72764435227E+01 -0.59072038618E+01 -0.16212201223E+02  0.72461624048E+02  0.70000070024E+02 0.  0.
        -12    1    1    2    0    0  0.72764435227E+01  0.59072038618E+01  0.16212201223E+02  0.18726375952E+02  0.00000000000E+00 0.  1.
         11    1    3    3    0    0  0.27649142885E+01  0.16004589444E+02  0.54971638025E+01  0.17146732762E+02  0.51100000000E-03 0. -1.
        -11    1    3    3    0    0 -0.32863062375E+01 -0.53206941041E+01  0.14017134452E+02  0.15348930026E+02  0.51100000000E-03 0.  1.
         12    1    3    3    0    0 -0.67550515736E+01 -0.16591099202E+02 -0.35726499477E+02  0.39965961260E+02  0.00000000000E+00 0. -1.
</event>
<event>
 7    1  0.2489154E-013  0.7246157E+02  0.7816164E-02  0.1226708E+00
        -11   -1    0    0    0    0  0.00000000000E+00  0.00000000000E+00  0.45593999997E+02  0.45594000000E+02  0.51100000000E-03 0.  1.
         11   -1    0    0    0    0 -0.00000000000E+00 -0.00000000000E+00 -0.45593999997E+02  0.45594000000E+02  0.51100000000E-03 0. -1.
    9900012    2    1    2    0    0  0.14878760979E+02 -0.58916863509E+01 -0.97257194005E+01  0.72461571772E+02  0.70000001925E+02 0.  0.
        -12    1    1    2    0    0 -0.14878760979E+02  0.58916863509E+01  0.97257194005E+01  0.18726428228E+02  0.00000000000E+00 0.  1.
         11    1    3    3    0    0 -0.16557148633E+01  0.13458083891E+02 -0.21632324402E+02  0.25530743683E+02  0.51100000000E-03 0. -1.
        -11    1    3    3    0    0  0.11540462100E+02 -0.29304685529E+02  0.12554579461E+01  0.31520200417E+02  0.51100000000E-03 0.  1.
         12    1    3    3    0    0  0.49940137421E+01  0.99549152871E+01  0.10651147055E+02  0.15410627671E+02  0.00000000000E+00 0. -1.
</event>
<event>
 7    1  0.2489154E-013  0.7246164E+02  0.7816164E-02  0.1226708E+00
        -11   -1    0    0    0    0  0.00000000000E+00  0.00000000000E+00  0.45593999997E+02  0.45594000000E+02  0.51100000000E-03 0.  1.
         11   -1    0    0    0    0 -0.00000000000E+00 -0.00000000000E+00 -0.45593999997E+02  0.45594000000E+02  0.51100000000E-03 0. -1.
    9900012    2    1    2    0    0  0.10645046001E+02 -0.11923013952E+01 -0.15360270417E+02  0.72461641725E+02  0.70000093051E+02 0.  0.
        -12    1    1    2    0    0 -0.10645046001E+02  0.11923013952E+01  0.15360270417E+02  0.18726358275E+02  0.00000000000E+00 0.  1.
         11    1    3    3    0    0 -0.12084869481E+02  0.47992038685E+01 -0.16546085943E+02  0.21043986990E+02  0.51100000000E-03 0. -1.
        -11    1    3    3    0    0  0.16001500642E+02  0.17814609014E+02  0.88343334091E+01  0.25523592305E+02  0.51100000000E-03 0.  1.
         12    1    3    3    0    0  0.67284148401E+01 -0.23806114278E+02 -0.76485178828E+01  0.25894062429E+02  0.00000000000E+00 0. -1.
</event>
<event>
 7    1  0.2489154E-013  0.7246162E+02  0.7816164E-02  0.1226708E+00
        -11   -1    0    0    0    0  0.00000000000E+00  0.00000000000E+00  0.45593999997E+02  0.45594000000E+02  0.51100000000E-03 0. -1.
         11   -1    0    0    0    0 -0.00000000000E+00 -0.00000000000E+00 -0.45593999997E+02  0.45594000000E+02  0.51100000000E-03 0.  1.
    9900012    2    1    2    0    0 -0.12189532343E+02 -0.14126252783E+02 -0.15942705451E+01  0.72461617141E+02  0.70000061026E+02 0.  0.
        -12    1    1    2    0    0  0.12189532343E+02  0.14126252783E+02  0.15942705451E+01  0.18726382859E+02  0.00000000000E+00 0.  1.
         11    1    3    3    0    0  0.10627006603E+02 -0.20695861125E+02  0.70990640282E+01  0.24323828798E+02  0.51100000000E-03 0. -1.
        -11    1    3    3    0    0 -0.91165828302E+01 -0.11077727607E+02  0.11217778190E+02  0.18211718184E+02  0.51100000000E-03 0.  1.
        -12    1    3    3    0    0 -0.13699956116E+02  0.17647335949E+02 -0.19911112764E+02  0.29926070159E+02  0.00000000000E+00 0.  1.
</event>
<event>
 7    1  0.2489154E-013  0.7246159E+02  0.7816164E-02  0.1226708E+00
        -11   -1    0    0    0    0  0.00000000000E+00  0.00000000000E+00  0.45593999997E+02  0.45594000000E+02  0.51100000000E-03 0.  1.
         11   -1    0    0    0    0 -0.00000000000E+00 -0.00000000000E+00 -0.45593999997E+02  0.45594000000E+02  0.51100000000E-03 0. -1.
    9900012    2    1    2    0    0 -0.97558133055E+01 -0.71497671189E+01 -0.14296269794E+02  0.72461591024E+02  0.70000027005E+02 0.  0.
        -12    1    1    2    0    0  0.97558133055E+01  0.71497671189E+01  0.14296269794E+02  0.18726408976E+02  0.00000000000E+00 0.  1.
         11    1    3    3    0    0  0.12886945840E+02 -0.20958826277E+02 -0.71523951636E+01  0.25622305299E+02  0.51100000000E-03 0. -1.
        -11    1    3    3    0    0  0.59853317393E+00  0.61077448971E+01  0.13489872460E+02  0.14820237816E+02  0.51100000000E-03 0.  1.
        -12    1    3    3    0    0 -0.23241292319E+02  0.77013142610E+01 -0.20633747090E+02  0.32019047909E+02  0.00000000000E+00 0.  1.
</event>
<event>
 7    1  0.2489154E-013  0.7246156E+02  0.7816164E-02  0.1226708E+00
        -11   -1    0    0    0    0  0.00000000000E+00  0.00000000000E+00  0.45593999997E+02  0.45594000000E+02  0.51100000000E-03 0. -1.
         11   -1    0    0    0    0 -0.00000000000E+00 -0.00000000000E+00 -0.45593999997E+02  0.45594000000E+02  0.51100000000E-03 0.  1.
    9900012    2    1    2    0    0  0.14508027519E+01  0.18300078474E+02  0.36988899583E+01  0.72461561798E+02  0.69999988932E+02 0.  0.
        -12    1    1    2    0    0 -0.14508027519E+01 -0.18300078474E+02 -0.36988899583E+01  0.18726438202E+02  0.00000000000E+00 0.  1.
         11    1    3    3    0    0 -0.73270178656E+01  0.50636957191E+01 -0.15470518594E+01  0.90398879891E+01  0.51100000000E-03 0. -1.
        -11    1    3    3    0    0 -0.22030985073E+02  0.11772733232E+01 -0.13031804307E+02  0.25623781913E+02  0.51100000000E-03 0.  1.
        -12    1    3    3    0    0  0.30808805691E+02  0.12059109432E+02  0.18277746125E+02  0.37797891896E+02  0.00000000000E+00 0.  1.
</event>
<event>
 7    1  0.2489154E-013  0.7246109E+02  0.7816164E-02  0.1226709E+00
        -11   -1    0    0    0    0  0.00000000000E+00  0.00000000000E+00  0.45593999997E+02  0.45594000000E+02  0.51100000000E-03 0. -1.
         11   -1    0    0    0    0 -0.00000000000E+00 -0.00000000000E+00 -0.45593999997E+02  0.45594000000E+02  0.51100000000E-03 0.  1.
    9900012    2    1    2    0    0  0.79535084859E+01 -0.14274165354E+02  0.91480678047E+01  0.72461087859E+02  0.69999371535E+02 0.  0.
        -12    1    1    2    0    0 -0.79535084859E+01  0.14274165354E+02 -0.91480678047E+01  0.18726912141E+02  0.00000000000E+00 0.  1.
         11    1    3    3    0    0 -0.69066411650E+01  0.12297393571E+01  0.10662541189E+02  0.12763374786E+02  0.51100000000E-03 0. -1.
        -11    1    3    3    0    0 -0.89696633110E+01  0.16987367425E+02 -0.26289591405E+01  0.19389093284E+02  0.51100000000E-03 0.  1.
         12    1    3    3    0    0  0.23829812962E+02 -0.32491272136E+02  0.11144857566E+01  0.40308619789E+02  0.00000000000E+00 0. -1.
</event>
<event>
 7    1  0.2489154E-013  0.7246159E+02  0.7816164E-02  0.1226708E+00
        -11   -1    0    0    0    0  0.00000000000E+00  0.00000000000E+00  0.45593999997E+02  0.45594000000E+02  0.51100000000E-03 0. -1.
         11   -1    0    0    0    0 -0.00000000000E+00 -0.00000000000E+00 -0.45593999997E+02  0.45594000000E+02  0.51100000000E-03 0.  1.
    9900012    2    1    2    0    0 -0.65761676854E+01  0.13903715021E+02 -0.10682664130E+02  0.72461585882E+02  0.70000020306E+02 0.  0.
        -12    1    1    2    0    0  0.65761676854E+01 -0.13903715021E+02  0.10682664130E+02  0.18726414118E+02  0.00000000000E+00 0.  1.
         11    1    3    3    0    0 -0.13600611940E+02 -0.81735845958E+01  0.23518754944E+01  0.16041055105E+02  0.51100000000E-03 0. -1.
        -11    1    3    3    0    0 -0.13405765161E+02 -0.50485682391E+01  0.80663663868E+01  0.16439855467E+02  0.51100000000E-03 0.  1.
        -12    1    3    3    0    0  0.20430209416E+02  0.27125867856E+02 -0.21100906011E+02  0.39980675310E+02  0.00000000000E+00 0.  1.
</event>
<event>
 7    1  0.2489154E-013  0.7246159E+02  0.7816164E-02  0.1226708E+00
        -11   -1    0    0    0    0  0.00000000000E+00  0.00000000000E+00  0.45593999997E+02  0.45594000000E+02  0.51100000000E-03 0.  1.
         11   -1    0    0    0    0 -0.00000000000E+00 -0.00000000000E+00 -0.45593999997E+02  0.45594000000E+02  0.51100000000E-03 0. -1.
    9900012    2    1    2    0    0 -0.73576105191E+01  0.92442736796E+01 -0.14528843302E+02  0.72461593080E+02  0.70000029683E+02 0.  0.
        -12    1    1    2    0    0  0.73576105191E+01 -0.92442736796E+01  0.14528843302E+02  0.18726406920E+02  0.00000000000E+00 0.  1.
         11    1    3    3    0    0  0.62896458566E+00 -0.46622130518E+01 -0.27950318081E+02  0.28343466761E+02  0.51100000000E-03 0. -1.
        -11    1    3    3    0    0  0.94893628901E+01 -0.63895470246E+01  0.13020086261E+02  0.17331963702E+02  0.51100000000E-03 0.  1.
         12    1    3    3    0    0 -0.17475937995E+02  0.20296033756E+02  0.40138851679E+00  0.26786162617E+02  0.00000000000E+00 0. -1.
</event>
<event>
 7    1  0.2489154E-013  0.7246159E+02  0.7816164E-02  0.1226708E+00
        -11   -1    0    0    0    0  0.00000000000E+00  0.00000000000E+00  0.45593999997E+02  0.45594000000E+02  0.51100000000E-03 0.  1.
         11   -1    0    0    0    0 -0.00000000000E+00 -0.00000000000E+00 -0.45593999997E+02  0.45594000000E+02  0.51100000000E-03 0. -1.
    9900012    2    1    2    0    0 -0.54051922633E+01  0.93349274356E+01 -0.15307565488E+02  0.72461587241E+02  0.70000022077E+02 0.  0.
        -12    1    1    2    0    0  0.54051922633E+01 -0.93349274356E+01  0.15307565488E+02  0.18726412759E+02  0.00000000000E+00 0.  1.
         11    1    3    3    0    0  0.28214641476E+01 -0.76460776912E+00 -0.14700521626E+02  0.14988349520E+02  0.51100000000E-03 0. -1.
        -11    1    3    3    0    0  0.49329771569E+01  0.31552106492E+02 -0.35607119676E+01  0.32133290489E+02  0.51100000000E-03 0.  1.
        -12    1    3    3    0    0 -0.13159633568E+02 -0.21452571287E+02  0.29536681055E+01  0.25339947232E+02  0.00000000000E+00 0.  1.
</event>
<event>
 7    1  0.2489154E-013  0.7246156E+02  0.7816164E-02  0.1226708E+00
        -11   -1    0    0    0    0  0.00000000000E+00  0.00000000000E+00  0.45593999997E+02  0.45594000000E+02  0.51100000000E-03 0. -1.
         11   -1    0    0    0    0 -0.00000000000E+00 -0.00000000000E+00 -0.45593999997E+02  0.45594000000E+02  0.51100000000E-03 0.  1.
    9900012    2    1    2    0    0 -0.15901369656E+02  0.75044955248E+01  0.64427083088E+01  0.72461561460E+02  0.69999988492E+02 0.  0.
        -12    1    1    2    0    0  0.15901369656E+02 -0.75044955248E+01 -0.64427083088E+01  0.18726438540E+02  0.00000000000E+00 0.  1.
         11    1    3    3    0    0  0.83593316711E+01 -0.98430885497E+01  0.12145091305E+01  0.12970730545E+02  0.51100000000E-03 0. -1.
        -11    1    3    3    0    0 -0.37142156421E+01  0.32475516570E+02 -0.26309048644E+01  0.32792929650E+02  0.51100000000E-03 0.  1.
         12    1    3    3    0    0 -0.20546485685E+02 -0.15127932496E+02  0.78591040427E+01  0.26697901265E+02  0.00000000000E+00 0. -1.
</event>
<event>
 7    1  0.2489154E-013  0.7246154E+02  0.7816164E-02  0.1226708E+00
        -11   -1    0    0    0    0  0.00000000000E+00  0.00000000000E+00  0.45593999997E+02  0.45594000000E+02  0.51100000000E-03 0. -1.
         11   -1    0    0    0    0 -0.00000000000E+00 -0.00000000000E+00 -0.45593999997E+02  0.45594000000E+02  0.51100000000E-03 0.  1.
    9900012    2    1    2    0    0  0.78368500508E+01 -0.17007754807E+02  0.20135386450E-01  0.72461538836E+02  0.69999959020E+02 0.  0.
        -12    1    1    2    0    0 -0.78368500508E+01  0.17007754807E+02 -0.20135386450E-01  0.18726461164E+02  0.00000000000E+00 0.  1.
         11    1    3    3    0    0 -0.57283135304E+01 -0.36849258654E+02 -0.10755678560E+02  0.38811931939E+02  0.51100000000E-03 0. -1.
        -11    1    3    3    0    0 -0.28189995066E+00 -0.35950467279E+01 -0.13486375246E+01  0.38500197392E+01  0.51100000000E-03 0.  1.
        -12    1    3    3    0    0  0.13847063532E+02  0.23436550575E+02  0.12124451471E+02  0.29799587158E+02  0.00000000000E+00 0.  1.
</event>
<event>
 7    1  0.2489154E-013  0.7246150E+02  0.7816164E-02  0.1226708E+00
        -11   -1    0    0    0    0  0.00000000000E+00  0.00000000000E+00  0.45593999997E+02  0.45594000000E+02  0.51100000000E-03 0.  1.
         11   -1    0    0    0    0 -0.00000000000E+00 -0.00000000000E+00 -0.45593999997E+02  0.45594000000E+02  0.51100000000E-03 0. -1.
    9900012    2    1    2    0    0 -0.90732257663E+01 -0.16286920429E+02 -0.17590959731E+01  0.72461504826E+02  0.69999914715E+02 0.  0.
        -12    1    1    2    0    0  0.90732257663E+01  0.16286920429E+02  0.17590959731E+01  0.18726495174E+02  0.00000000000E+00 0.  1.
         11    1    3    3    0    0  0.14796932532E+02  0.12045436215E+02 -0.16345676783E+01  0.19149766519E+02  0.51100000000E-03 0. -1.
        -11    1    3    3    0    0 -0.13476983679E+02  0.75279461418E+01  0.34089990994E+01  0.15808868945E+02  0.51100000000E-03 0.  1.
        -12    1    3    3    0    0 -0.10393174619E+02 -0.35860302786E+02 -0.35335273942E+01  0.37502869362E+02  0.00000000000E+00 0.  1.
</event>
<event>
 7    1  0.2489154E-013  0.7246145E+02  0.7816164E-02  0.1226708E+00
        -11   -1    0    0    0    0  0.00000000000E+00  0.00000000000E+00  0.45593999997E+02  0.45594000000E+02  0.51100000000E-03 0.  1.
         11   -1    0    0    0    0 -0.00000000000E+00 -0.00000000000E+00 -0.45593999997E+02  0.45594000000E+02  0.51100000000E-03 0. -1.
    9900012    2    1    2    0    0 -0.35193171733E+01  0.83628305049E+01  0.16381727613E+02  0.72461453949E+02  0.69999848438E+02 0.  0.
        -12    1    1    2    0    0  0.35193171733E+01 -0.83628305049E+01 -0.16381727613E+02  0.18726546051E+02  0.00000000000E+00 0.  1.
         11    1    3    3    0    0  0.17975133560E+00 -0.16593183136E+02  0.10230601966E+01  0.16625663582E+02  0.51100000000E-03 0. -1.
        -11    1    3    3    0    0  0.25364184863E+01  0.46910725970E+01  0.29741087694E+02  0.30215424510E+02  0.51100000000E-03 0.  1.
         12    1    3    3    0    0 -0.62354869952E+01  0.20264941044E+02 -0.14382420278E+02  0.25620365856E+02  0.00000000000E+00 0. -1.
</event>
<event>
 7    1  0.2489154E-013  0.7246152E+02  0.7816164E-02  0.1226708E+00
        -11   -1    0    0    0    0  0.00000000000E+00  0.00000000000E+00  0.45593999997E+02  0.45594000000E+02  0.51100000000E-03 0.  1.
         11   -1    0    0    0    0 -0.00000000000E+00 -0.00000000000E+00 -0.45593999997E+02  0.45594000000E+02  0.51100000000E-03 0. -1.
    9900012    2    1    2    0    0 -0.17501497026E+02  0.34474140375E+01  0.57003392049E+01  0.72461523322E+02  0.69999938810E+02 0.  0.
        -12    1    1    2    0    0  0.17501497026E+02 -0.34474140375E+01 -0.57003392049E+01  0.18726476678E+02  0.00000000000E+00 0.  1.
         11    1    3    3    0    0  0.13592643168E+01  0.12855203714E+02  0.23139168579E+01  0.13132329325E+02  0.51100000000E-03 0. -1.
        -11    1    3    3    0    0 -0.10789238242E+02  0.20845773941E+02 -0.96935325549E+01  0.25395246144E+02  0.51100000000E-03 0.  1.
        -12    1    3    3    0    0 -0.80715231012E+01 -0.30253563617E+02  0.13079954902E+02  0.33933947854E+02  0.00000000000E+00 0.  1.
</event>
<event>
 7    1  0.2489154E-013  0.7246157E+02  0.7816164E-02  0.1226708E+00
        -11   -1    0    0    0    0  0.00000000000E+00  0.00000000000E+00  0.45593999997E+02  0.45594000000E+02  0.51100000000E-03 0.  1.
         11   -1    0    0    0    0 -0.00000000000E+00 -0.00000000000E+00 -0.45593999997E+02  0.45594000000E+02  0.51100000000E-03 0. -1.
    9900012    2    1    2    0    0  0.72013028607E+01 -0.15574663623E+02 -0.75000110851E+01  0.72461572788E+02  0.70000003248E+02 0.  0.
        -12    1    1    2    0    0 -0.72013028607E+01  0.15574663623E+02  0.75000110851E+01  0.18726427212E+02  0.00000000000E+00 0.  1.
         11    1    3    3    0    0 -0.17317630589E+02  0.89422484393E+01 -0.16923641665E+02  0.25812279710E+02  0.51100000000E-03 0. -1.
        -11    1    3    3    0    0  0.85620537251E+01  0.65288615012E+01  0.27091648591E+01  0.11102899215E+02  0.51100000000E-03 0.  1.
        -12    1    3    3    0    0  0.15956879724E+02 -0.31045773564E+02  0.67144657206E+01  0.35546393862E+02  0.00000000000E+00 0.  1.
</event>
<event>
 7    1  0.2489154E-013  0.7246157E+02  0.7816164E-02  0.1226708E+00
        -11   -1    0    0    0    0  0.00000000000E+00  0.00000000000E+00  0.45593999997E+02  0.45594000000E+02  0.51100000000E-03 0. -1.
         11   -1    0    0    0    0 -0.00000000000E+00 -0.00000000000E+00 -0.45593999997E+02  0.45594000000E+02  0.51100000000E-03 0.  1.
    9900012    2    1    2    0    0  0.13021191963E+02  0.13271575535E+02  0.22345189443E+01  0.72461568620E+02  0.69999997819E+02 0.  0.
        -12    1    1    2    0    0 -0.13021191963E+02 -0.13271575535E+02 -0.22345189443E+01  0.18726431380E+02  0.00000000000E+00 0.  1.
         11    1    3    3    0    0  0.85931722320E+01  0.12757460273E+02 -0.99135943698E+00  0.15413571793E+02  0.51100000000E-03 0. -1.
        -11    1    3    3    0    0 -0.25595518181E+02  0.18299701326E+01 -0.44188586646E+01  0.26038541699E+02  0.51100000000E-03 0.  1.
         12    1    3    3    0    0  0.30023537913E+02 -0.13158548703E+01  0.76447370459E+01  0.31009455128E+02  0.00000000000E+00 0. -1.
</event>
<event>
 7    1  0.2489154E-013  0.7246156E+02  0.7816164E-02  0.1226708E+00
        -11   -1    0    0    0    0  0.00000000000E+00  0.00000000000E+00  0.45593999997E+02  0.45594000000E+02  0.51100000000E-03 0. -1.
         11   -1    0    0    0    0 -0.00000000000E+00 -0.00000000000E+00 -0.45593999997E+02  0.45594000000E+02  0.51100000000E-03 0.  1.
    9900012    2    1    2    0    0 -0.90558709795E+01 -0.14155663680E+02  0.82636543738E+01  0.72461558880E+02  0.69999985130E+02 0.  0.
        -12    1    1    2    0    0  0.90558709795E+01  0.14155663680E+02 -0.82636543738E+01  0.18726441120E+02  0.00000000000E+00 0.  1.
         11    1    3    3    0    0 -0.59649584021E+01 -0.28740755626E+00  0.18521035287E+02  0.19460012338E+02  0.51100000000E-03 0. -1.
        -11    1    3    3    0    0 -0.75817796838E+01 -0.28295572464E+02  0.69445666860E+01  0.30105644171E+02  0.51100000000E-03 0.  1.
        -12    1    3    3    0    0  0.44908671065E+01  0.14427316340E+02 -0.17201947599E+02  0.22895902370E+02  0.00000000000E+00 0.  1.
</event>
<event>
 7    1  0.2489154E-013  0.7246138E+02  0.7816164E-02  0.1226709E+00
        -11   -1    0    0    0    0  0.00000000000E+00  0.00000000000E+00  0.45593999997E+02  0.45594000000E+02  0.51100000000E-03 0.  1.
         11   -1    0    0    0    0 -0.00000000000E+00 -0.00000000000E+00 -0.45593999997E+02  0.45594000000E+02  0.51100000000E-03 0. -1.
    9900012    2    1    2    0    0  0.93805884857E+01  0.97246097892E+01 -0.12966212878E+02  0.72461383854E+02  0.69999757126E+02 0.  0.
        -12    1    1    2    0    0 -0.93805884857E+01 -0.97246097892E+01  0.12966212878E+02  0.18726616146E+02  0.00000000000E+00 0.  1.
         11    1    3    3    0    0  0.77525258642E+01 -0.13938096542E+02  0.14560310156E+01  0.16015374459E+02  0.51100000000E-03 0. -1.
        -11    1    3    3    0    0  0.11330214198E+02 -0.12094392056E+02  0.30754293898E+00  0.16575362919E+02  0.51100000000E-03 0.  1.
         12    1    3    3    0    0 -0.97021515766E+01  0.35757098387E+02 -0.14729786832E+02  0.39870646476E+02  0.00000000000E+00 0. -1.
</event>
<event>
 7    1  0.2489154E-013  0.7246156E+02  0.7816164E-02  0.1226708E+00
        -11   -1    0    0    0    0  0.00000000000E+00  0.00000000000E+00  0.45593999997E+02  0.45594000000E+02  0.51100000000E-03 0.  1.
         11   -1    0    0    0    0 -0.00000000000E+00 -0.00000000000E+00 -0.45593999997E+02  0.45594000000E+02  0.51100000000E-03 0. -1.
    9900012    2    1    2    0    0 -0.32560544744E+01  0.83229718060E+01 -0.16456180667E+02  0.72461557931E+02  0.69999983894E+02 0.  0.
        -12    1    1    2    0    0  0.32560544744E+01 -0.83229718060E+01  0.16456180667E+02  0.18726442069E+02  0.00000000000E+00 0.  1.
         11    1    3    3    0    0  0.20524111920E+02  0.68448763427E+01 -0.22412153792E+01  0.21751196493E+02  0.51100000000E-03 0. -1.
        -11    1    3    3    0    0 -0.37597821941E+01  0.18510244838E+02  0.32307998694E+01  0.19162546651E+02  0.51100000000E-03 0.  1.
         12    1    3    3    0    0 -0.20020384200E+02 -0.17032149375E+02 -0.17445765157E+02  0.31547814786E+02  0.00000000000E+00 0. -1.
</event>
<event>
 7    1  0.2489154E-013  0.7246160E+02  0.7816164E-02  0.1226708E+00
        -11   -1    0    0    0    0  0.00000000000E+00  0.00000000000E+00  0.45593999997E+02  0.45594000000E+02  0.51100000000E-03 0.  1.
         11   -1    0    0    0    0 -0.00000000000E+00 -0.00000000000E+00 -0.45593999997E+02  0.45594000000E+02  0.51100000000E-03 0. -1.
    9900012    2    1    2    0    0 -0.20483712736E+01  0.47146872767E+01  0.18007055473E+02  0.72461597574E+02  0.70000035537E+02 0.  0.
        -12    1    1    2    0    0  0.20483712736E+01 -0.47146872767E+01 -0.18007055473E+02  0.18726402426E+02  0.00000000000E+00 0.  1.
         11    1    3    3    0    0  0.27255745943E+02 -0.28481506126E+01  0.22098490475E+02  0.35204132291E+02  0.51100000000E-03 0. -1.
        -11    1    3    3    0    0  0.18622278290E+01 -0.10632595145E+01  0.34402904973E+01  0.40538885344E+01  0.51100000000E-03 0.  1.
        -12    1    3    3    0    0 -0.31166345046E+02  0.86260974038E+01 -0.75317254988E+01  0.33203576749E+02  0.00000000000E+00 0.  1.
</event>
<event>
 7    1  0.2489154E-013  0.7246156E+02  0.7816164E-02  0.1226708E+00
        -11   -1    0    0    0    0  0.00000000000E+00  0.00000000000E+00  0.45593999997E+02  0.45594000000E+02  0.51100000000E-03 0.  1.
         11   -1    0    0    0    0 -0.00000000000E+00 -0.00000000000E+00 -0.45593999997E+02  0.45594000000E+02  0.51100000000E-03 0. -1.
    9900012    2    1    2    0    0 -0.22548538798E+01 -0.14012644141E+02 -0.12216427884E+02  0.72461556875E+02  0.69999982519E+02 0.  0.
        -12    1    1    2    0    0  0.22548538798E+01  0.14012644141E+02  0.12216427884E+02  0.18726443125E+02  0.00000000000E+00 0.  1.
         11    1    3    3    0    0  0.11743627121E+02  0.10596538433E+02 -0.24375798599E+02  0.29058199571E+02  0.51100000000E-03 0. -1.
        -11    1    3    3    0    0  0.87550184089E+01 -0.13974291912E+02  0.59506445888E+01  0.17531153786E+02  0.51100000000E-03 0.  1.
         12    1    3    3    0    0 -0.22753499410E+02 -0.10634890663E+02  0.62087261262E+01  0.25872203518E+02  0.00000000000E+00 0. -1.
</event>
<event>
 7    1  0.2489154E-013  0.7246153E+02  0.7816164E-02  0.1226708E+00
        -11   -1    0    0    0    0  0.00000000000E+00  0.00000000000E+00  0.45593999997E+02  0.45594000000E+02  0.51100000000E-03 0.  1.
         11   -1    0    0    0    0 -0.00000000000E+00 -0.00000000000E+00 -0.45593999997E+02  0.45594000000E+02  0.51100000000E-03 0. -1.
    9900012    2    1    2    0    0 -0.45149908087E+01 -0.10201288457E+02 -0.15040915663E+02  0.72461532844E+02  0.69999951214E+02 0.  0.
        -12    1    1    2    0    0  0.45149908087E+01  0.10201288457E+02  0.15040915663E+02  0.18726467156E+02  0.00000000000E+00 0.  1.
         11    1    3    3    0    0  0.73558548125E+01 -0.36183880425E+02 -0.63989650189E+01  0.37474371992E+02  0.51100000000E-03 0.  1.
        -11    1    3    3    0    0 -0.42001585794E+01  0.77858661485E+01 -0.12049104321E+02  0.14947975079E+02  0.51100000000E-03 0. -1.
        -12    1    3    3    0    0 -0.76706870418E+01  0.18196725820E+02  0.34071536771E+01  0.20039185772E+02  0.00000000000E+00 0.  1.
</event>
<event>
 7    1  0.2489154E-013  0.7246158E+02  0.7816164E-02  0.1226708E+00
        -11   -1    0    0    0    0  0.00000000000E+00  0.00000000000E+00  0.45593999997E+02  0.45594000000E+02  0.51100000000E-03 0.  1.
         11   -1    0    0    0    0 -0.00000000000E+00 -0.00000000000E+00 -0.45593999997E+02  0.45594000000E+02  0.51100000000E-03 0. -1.
    9900012    2    1    2    0    0  0.82979234469E+01 -0.69919986714E+01  0.15262213782E+02  0.72461581536E+02  0.70000014644E+02 0.  0.
        -12    1    1    2    0    0 -0.82979234469E+01  0.69919986714E+01 -0.15262213782E+02  0.18726418464E+02  0.00000000000E+00 0.  1.
         11    1    3    3    0    0 -0.46224654138E+01 -0.57318272753E+00  0.15928903275E+02  0.16595953866E+02  0.51100000000E-03 0. -1.
        -11    1    3    3    0    0 -0.19837446656E+02 -0.78090653057E+01  0.65319428077E+01  0.22297355625E+02  0.51100000000E-03 0.  1.
         12    1    3    3    0    0  0.32757835517E+02  0.13902493619E+01 -0.71986322998E+01  0.33568272044E+02  0.00000000000E+00 0. -1.
</event>
<event>
 7    1  0.2489154E-013  0.7246162E+02  0.7816164E-02  0.1226708E+00
        -11   -1    0    0    0    0  0.00000000000E+00  0.00000000000E+00  0.45593999997E+02  0.45594000000E+02  0.51100000000E-03 0.  1.
         11   -1    0    0    0    0 -0.00000000000E+00 -0.00000000000E+00 -0.45593999997E+02  0.45594000000E+02  0.51100000000E-03 0. -1.
    9900012    2    1    2    0    0  0.12152927093E+02  0.44505073461E+01 -0.13534279952E+02  0.72461617905E+02  0.70000062021E+02 0.  0.
        -12    1    1    2    0    0 -0.12152927093E+02 -0.44505073461E+01  0.13534279952E+02  0.18726382095E+02  0.00000000000E+00 0.  1.
         11    1    3    3    0    0  0.78547060057E+00  0.15742356816E+01 -0.13627097762E+02  0.13740195622E+02  0.51100000000E-03 0. -1.
        -11    1    3    3    0    0 -0.13012335046E+02  0.94545991151E+01  0.20639406275E+02  0.26166684915E+02  0.51100000000E-03 0.  1.
         12    1    3    3    0    0  0.24379791539E+02 -0.65783274507E+01 -0.20546588465E+02  0.32554737368E+02  0.00000000000E+00 0. -1.
</event>
<event>
 7    1  0.2489154E-013  0.7246156E+02  0.7816164E-02  0.1226708E+00
        -11   -1    0    0    0    0  0.00000000000E+00  0.00000000000E+00  0.45593999997E+02  0.45594000000E+02  0.51100000000E-03 0.  1.
         11   -1    0    0    0    0 -0.00000000000E+00 -0.00000000000E+00 -0.45593999997E+02  0.45594000000E+02  0.51100000000E-03 0. -1.
    9900012    2    1    2    0    0 -0.15818153863E+02 -0.24066153670E+01 -0.97300387556E+01  0.72461562983E+02  0.69999990476E+02 0.  0.
        -12    1    1    2    0    0  0.15818153863E+02  0.24066153670E+01  0.97300387556E+01  0.18726437017E+02  0.00000000000E+00 0.  1.
         11    1    3    3    0    0 -0.23841140048E+02  0.17147132252E+02 -0.17018172145E+02  0.33941748432E+02  0.51100000000E-03 0. -1.
        -11    1    3    3    0    0  0.69404140582E+01 -0.36970581066E+01 -0.11486989411E+02  0.13920794228E+02  0.51100000000E-03 0.  1.
        -12    1    3    3    0    0  0.10825721268E+01 -0.15856689512E+02  0.18775122800E+02  0.24599020323E+02  0.00000000000E+00 0.  1.
</event>
<event>
 7    1  0.2489154E-013  0.7246138E+02  0.7816164E-02  0.1226709E+00
        -11   -1    0    0    0    0  0.00000000000E+00  0.00000000000E+00  0.45593999997E+02  0.45594000000E+02  0.51100000000E-03 0.  1.
         11   -1    0    0    0    0 -0.00000000000E+00 -0.00000000000E+00 -0.45593999997E+02  0.45594000000E+02  0.51100000000E-03 0. -1.
    9900012    2    1    2    0    0 -0.33717675962E+01  0.17458925574E+02  0.58739489517E+01  0.72461383241E+02  0.69999756328E+02 0.  0.
        -12    1    1    2    0    0  0.33717675962E+01 -0.17458925574E+02 -0.58739489517E+01  0.18726616759E+02  0.00000000000E+00 0.  1.
         11    1    3    3    0    0  0.27946354086E+02  0.15258926464E+02 -0.10340878893E+01  0.31857540419E+02  0.51100000000E-03 0. -1.
        -11    1    3    3    0    0 -0.97586653228E+01  0.71870294316E+01  0.12877844677E+02  0.17683999116E+02  0.51100000000E-03 0.  1.
        -12    1    3    3    0    0 -0.21559456359E+02 -0.49870303210E+01 -0.59698078360E+01  0.22919843707E+02  0.00000000000E+00 0.  1.
</event>
<event>
 7    1  0.2489154E-013  0.7246159E+02  0.7816164E-02  0.1226708E+00
        -11   -1    0    0    0    0  0.00000000000E+00  0.00000000000E+00  0.45593999997E+02  0.45594000000E+02  0.51100000000E-03 0.  1.
         11   -1    0    0    0    0 -0.00000000000E+00 -0.00000000000E+00 -0.45593999997E+02  0.45594000000E+02  0.51100000000E-03 0. -1.
    9900012    2    1    2    0    0 -0.25731598601E+01  0.20897611916E+00 -0.18547607668E+02  0.72461586225E+02  0.70000020752E+02 0.  0.
        -12    1    1    2    0    0  0.25731598601E+01 -0.20897611916E+00  0.18547607668E+02  0.18726413775E+02  0.00000000000E+00 0.  1.
         11    1    3    3    0    0 -0.65618039980E+01  0.19267131694E+02 -0.15315482663E+02  0.25472409484E+02  0.51100000000E-03 0. -1.
        -11    1    3    3    0    0 -0.17467891427E+02 -0.10004347737E+01 -0.66919334635E+01  0.18732593905E+02  0.51100000000E-03 0.  1.
        -12    1    3    3    0    0  0.21456535565E+02 -0.18057720802E+02  0.34598084589E+01  0.28256582836E+02  0.00000000000E+00 0.  1.
</event>
<event>
 7    1  0.2489154E-013  0.7246148E+02  0.7816164E-02  0.1226708E+00
        -11   -1    0    0    0    0  0.00000000000E+00  0.00000000000E+00  0.45593999997E+02  0.45594000000E+02  0.51100000000E-03 0. -1.
         11   -1    0    0    0    0 -0.00000000000E+00 -0.00000000000E+00 -0.45593999997E+02  0.45594000000E+02  0.51100000000E-03 0.  1.
    9900012    2    1    2    0    0 -0.58754905873E+01 -0.15878719249E+02  0.80017191036E+01  0.72461478079E+02  0.69999879873E+02 0.  0.
        -12    1    1    2    0    0  0.58754905873E+01  0.15878719249E+02 -0.80017191036E+01  0.18726521921E+02  0.00000000000E+00 0.  1.
         11    1    3    3    0    0 -0.25135576062E+02 -0.32658844896E+01  0.11315630449E+02  0.27758002057E+02  0.51100000000E-03 0. -1.
        -11    1    3    3    0    0 -0.94517490931E+01  0.45532065073E+01 -0.40432158491E+01  0.11243435644E+02  0.51100000000E-03 0.  1.
        -12    1    3    3    0    0  0.28711834568E+02 -0.17166041267E+02  0.72930450411E+00  0.33460040378E+02  0.00000000000E+00 0.  1.
</event>
<event>
 7    1  0.2489154E-013  0.7246199E+02  0.7816164E-02  0.1226707E+00
        -11   -1    0    0    0    0  0.00000000000E+00  0.00000000000E+00  0.45593999997E+02  0.45594000000E+02  0.51100000000E-03 0. -1.
         11   -1    0    0    0    0 -0.00000000000E+00 -0.00000000000E+00 -0.45593999997E+02  0.45594000000E+02  0.51100000000E-03 0.  1.
    9900012    2    1    2    0    0  0.17416018309E+02 -0.60650368110E+01  0.32497607632E+01  0.72461993745E+02  0.70000551621E+02 0.  0.
        -12    1    1    2    0    0 -0.17416018309E+02  0.60650368110E+01 -0.32497607632E+01  0.18726006255E+02  0.00000000000E+00 0.  1.
         11    1    3    3    0    0  0.36690773564E+01  0.13452098836E+02  0.18519307711E+02  0.23181584288E+02  0.51100000000E-03 0. -1.
        -11    1    3    3    0    0  0.17294033021E+02 -0.10687640383E+02  0.97247004817E+01  0.22536171698E+02  0.51100000000E-03 0.  1.
        -12    1    3    3    0    0 -0.35470920686E+01 -0.88294952633E+01 -0.24994247429E+02  0.26744237759E+02  0.00000000000E+00 0.  1.
</event>
<event>
 7    1  0.2489154E-013  0.7246174E+02  0.7816164E-02  0.1226708E+00
        -11   -1    0    0    0    0  0.00000000000E+00  0.00000000000E+00  0.45593999997E+02  0.45594000000E+02  0.51100000000E-03 0.  1.
         11   -1    0    0    0    0 -0.00000000000E+00 -0.00000000000E+00 -0.45593999997E+02  0.45594000000E+02  0.51100000000E-03 0. -1.
    9900012    2    1    2    0    0 -0.14009950191E+02 -0.90153117112E+01 -0.85509190817E+01  0.72461741250E+02  0.70000222702E+02 0.  0.
        -12    1    1    2    0    0  0.14009950191E+02  0.90153117112E+01  0.85509190817E+01  0.18726258750E+02  0.00000000000E+00 0.  1.
         11    1    3    3    0    0 -0.29194406184E+01 -0.56305425376E+01 -0.85698760734E+00  0.64000445946E+01  0.51100000000E-03 0. -1.
        -11    1    3    3    0    0  0.10532891274E+01 -0.30123828458E+02  0.10021683454E+02  0.31764580880E+02  0.51100000000E-03 0.  1.
        -12    1    3    3    0    0 -0.12143798700E+02  0.26739059284E+02 -0.17715614928E+02  0.34297115776E+02  0.00000000000E+00 0.  1.
</event>
<event>
 7    1  0.2489154E-013  0.7246153E+02  0.7816164E-02  0.1226708E+00
        -11   -1    0    0    0    0  0.00000000000E+00  0.00000000000E+00  0.45593999997E+02  0.45594000000E+02  0.51100000000E-03 0. -1.
         11   -1    0    0    0    0 -0.00000000000E+00 -0.00000000000E+00 -0.45593999997E+02  0.45594000000E+02  0.51100000000E-03 0.  1.
    9900012    2    1    2    0    0 -0.14590356552E+02 -0.10710765953E+02  0.48043427748E+01  0.72461528867E+02  0.69999946033E+02 0.  0.
        -12    1    1    2    0    0  0.14590356552E+02  0.10710765953E+02 -0.48043427748E+01  0.18726471133E+02  0.00000000000E+00 0.  1.
         11    1    3    3    0    0 -0.20880735458E+02  0.16403588251E+02  0.36732477514E+01  0.26806259905E+02  0.51100000000E-03 0. -1.
        -11    1    3    3    0    0  0.50004918582E+01  0.56268983010E+01 -0.86432869394E+01  0.11461819781E+02  0.51100000000E-03 0.  1.
        -12    1    3    3    0    0  0.12898870483E+01 -0.32741252504E+02  0.97743819629E+01  0.34193449181E+02  0.00000000000E+00 0.  1.
</event>
<event>
 7    1  0.2489154E-013  0.7246172E+02  0.7816164E-02  0.1226708E+00
        -11   -1    0    0    0    0  0.00000000000E+00  0.00000000000E+00  0.45593999997E+02  0.45594000000E+02  0.51100000000E-03 0. -1.
         11   -1    0    0    0    0 -0.00000000000E+00 -0.00000000000E+00 -0.45593999997E+02  0.45594000000E+02  0.51100000000E-03 0.  1.
    9900012    2    1    2    0    0 -0.21886303508E+01 -0.91502323860E+01  0.16191255719E+02  0.72461718540E+02  0.70000193118E+02 0.  0.
        -12    1    1    2    0    0  0.21886303508E+01  0.91502323860E+01 -0.16191255719E+02  0.18726281460E+02  0.00000000000E+00 0.  1.
         11    1    3    3    0    0  0.31490093861E+01 -0.26737861700E+02 -0.14494774750E+01  0.26961648570E+02  0.51100000000E-03 0. -1.
        -11    1    3    3    0    0 -0.13815100203E+02 -0.72511816696E+01  0.51219532266E+01  0.16421663568E+02  0.51100000000E-03 0.  1.
        -12    1    3    3    0    0  0.84774604663E+01  0.24838810983E+02  0.12518779968E+02  0.29078406402E+02  0.00000000000E+00 0.  1.
</event>
<event>
 7    1  0.2489154E-013  0.7246160E+02  0.7816164E-02  0.1226708E+00
        -11   -1    0    0    0    0  0.00000000000E+00  0.00000000000E+00  0.45593999997E+02  0.45594000000E+02  0.51100000000E-03 0.  1.
         11   -1    0    0    0    0 -0.00000000000E+00 -0.00000000000E+00 -0.45593999997E+02  0.45594000000E+02  0.51100000000E-03 0. -1.
    9900012    2    1    2    0    0  0.55544629694E+01  0.17601656781E+02  0.31634990047E+01  0.72461598683E+02  0.70000036982E+02 0.  0.
        -12    1    1    2    0    0 -0.55544629694E+01 -0.17601656781E+02 -0.31634990047E+01  0.18726401317E+02  0.00000000000E+00 0.  1.
         11    1    3    3    0    0 -0.16599562777E+02  0.84052453601E+01 -0.68426237451E+01  0.19824609301E+02  0.51100000000E-03 0. -1.
        -11    1    3    3    0    0  0.16579695558E+02  0.54448689247E+01  0.28244280930E+02  0.33200486561E+02  0.51100000000E-03 0.  1.
         12    1    3    3    0    0  0.55743301885E+01  0.37515424962E+01 -0.18238158180E+02  0.19436502822E+02  0.00000000000E+00 0. -1.
</event>
