<event>
 7    1  0.1052674E-011  0.5930189E+02  0.7816164E-02  0.1266605E+00
        -11   -1    0    0    0    0  0.00000000000E+00  0.00000000000E+00  0.45593999997E+02  0.45594000000E+02  0.51100000000E-03 0.  1.
         11   -1    0    0    0    0 -0.00000000000E+00 -0.00000000000E+00 -0.45593999997E+02  0.45594000000E+02  0.51100000000E-03 0. -1.
    9900012    2    1    2    0    0  0.55976594301E+01  0.11178073361E+02 -0.29333277735E+02  0.59301885502E+02  0.49999893262E+02 0.  0.
        -12    1    1    2    0    0 -0.55976594301E+01 -0.11178073361E+02  0.29333277735E+02  0.31886114498E+02  0.00000000000E+00 0.  1.
         11    1    3    3    0    0  0.22118745916E+02  0.45298803453E+01 -0.12091296509E+02  0.25611680702E+02  0.51100000000E-03 0. -1.
        -11    1    3    3    0    0 -0.10616210859E+02 -0.58263862103E+01 -0.67665270071E+00  0.12128832113E+02  0.51100000000E-03 0.  1.
         12    1    3    3    0    0 -0.59048756262E+01  0.12474579226E+02 -0.16565328525E+02  0.21561372687E+02  0.00000000000E+00 0. -1.
</event>
<event>
 7    1  0.1052674E-011  0.5930191E+02  0.7816164E-02  0.1266605E+00
        -11   -1    0    0    0    0  0.00000000000E+00  0.00000000000E+00  0.45593999997E+02  0.45594000000E+02  0.51100000000E-03 0.  1.
         11   -1    0    0    0    0 -0.00000000000E+00 -0.00000000000E+00 -0.45593999997E+02  0.45594000000E+02  0.51100000000E-03 0. -1.
    9900012    2    1    2    0    0  0.27378656545E+02 -0.10959740012E+01  0.16307385300E+02  0.59301908854E+02  0.49999935852E+02 0.  0.
        -12    1    1    2    0    0 -0.27378656545E+02  0.10959740012E+01 -0.16307385300E+02  0.31886091146E+02  0.00000000000E+00 0.  1.
         11    1    3    3    0    0  0.10473080268E+02 -0.20358193773E+02  0.17993105011E+02  0.29118607319E+02  0.51100000000E-03 0.  1.
        -11    1    3    3    0    0  0.29224452912E+01  0.12573892998E+02 -0.57910415299E+01  0.14148485214E+02  0.51100000000E-03 0. -1.
        -12    1    3    3    0    0  0.13983130986E+02  0.66883267744E+01  0.41053218185E+01  0.16034816321E+02  0.00000000000E+00 0.  1.
</event>
<event>
 7    1  0.1052674E-011  0.5930194E+02  0.7816164E-02  0.1266605E+00
        -11   -1    0    0    0    0  0.00000000000E+00  0.00000000000E+00  0.45593999997E+02  0.45594000000E+02  0.51100000000E-03 0.  1.
         11   -1    0    0    0    0 -0.00000000000E+00 -0.00000000000E+00 -0.45593999997E+02  0.45594000000E+02  0.51100000000E-03 0. -1.
    9900012    2    1    2    0    0  0.41591947332E+01  0.49529327147E+01 -0.31223236133E+02  0.59301938501E+02  0.49999989921E+02 0.  0.
        -12    1    1    2    0    0 -0.41591947332E+01 -0.49529327147E+01  0.31223236133E+02  0.31886061499E+02  0.00000000000E+00 0.  1.
         11    1    3    3    0    0  0.15197409993E+02  0.16261053904E+02 -0.32860792389E+01  0.22498476872E+02  0.51100000000E-03 0. -1.
        -11    1    3    3    0    0 -0.47745538137E+01 -0.76607779849E+01 -0.28140027702E+02  0.29552411793E+02  0.51100000000E-03 0.  1.
        -12    1    3    3    0    0 -0.62636614456E+01 -0.36473432041E+01  0.20287080833E+00  0.72510498356E+01  0.00000000000E+00 0.  1.
</event>
<event>
 7    1  0.1052674E-011  0.5930194E+02  0.7816164E-02  0.1266605E+00
        -11   -1    0    0    0    0  0.00000000000E+00  0.00000000000E+00  0.45593999997E+02  0.45594000000E+02  0.51100000000E-03 0. -1.
         11   -1    0    0    0    0 -0.00000000000E+00 -0.00000000000E+00 -0.45593999997E+02  0.45594000000E+02  0.51100000000E-03 0.  1.
    9900012    2    1    2    0    0 -0.83022355097E+01  0.14645514119E+02  0.27079564749E+02  0.59301936818E+02  0.49999986851E+02 0.  0.
        -12    1    1    2    0    0  0.83022355097E+01 -0.14645514119E+02 -0.27079564749E+02  0.31886063182E+02  0.00000000000E+00 0.  1.
         11    1    3    3    0    0  0.46555526164E+01 -0.42854757626E+01  0.27186375543E-01  0.63277335623E+01  0.51100000000E-03 0. -1.
        -11    1    3    3    0    0 -0.26047425291E+02  0.53421005790E+01  0.17441453672E+02  0.31799539452E+02  0.51100000000E-03 0.  1.
        -12    1    3    3    0    0  0.13089637165E+02  0.13588889302E+02  0.96109247015E+01  0.21174663803E+02  0.00000000000E+00 0.  1.
</event>
<event>
 7    1  0.1052674E-011  0.5930194E+02  0.7816164E-02  0.1266605E+00
        -11   -1    0    0    0    0  0.00000000000E+00  0.00000000000E+00  0.45593999997E+02  0.45594000000E+02  0.51100000000E-03 0.  1.
         11   -1    0    0    0    0 -0.00000000000E+00 -0.00000000000E+00 -0.45593999997E+02  0.45594000000E+02  0.51100000000E-03 0. -1.
    9900012    2    1    2    0    0  0.13314361512E+02  0.28473889424E+02  0.53559802631E+01  0.59301935238E+02  0.49999983970E+02 0.  0.
        -12    1    1    2    0    0 -0.13314361512E+02 -0.28473889424E+02 -0.53559802631E+01  0.31886064762E+02  0.00000000000E+00 0.  1.
         11    1    3    3    0    0  0.11001180953E+02  0.35431951667E+02  0.18531908242E+02  0.41471445654E+02  0.51100000000E-03 0. -1.
        -11    1    3    3    0    0  0.15075889155E+01 -0.90963586716E+00  0.12552101021E+01  0.21623631542E+01  0.51100000000E-03 0.  1.
         12    1    3    3    0    0  0.80559164358E+00 -0.60484263758E+01 -0.14431138081E+02  0.15668126430E+02  0.00000000000E+00 0. -1.
</event>
<event>
 7    1  0.1052674E-011  0.5930193E+02  0.7816164E-02  0.1266605E+00
        -11   -1    0    0    0    0  0.00000000000E+00  0.00000000000E+00  0.45593999997E+02  0.45594000000E+02  0.51100000000E-03 0.  1.
         11   -1    0    0    0    0 -0.00000000000E+00 -0.00000000000E+00 -0.45593999997E+02  0.45594000000E+02  0.51100000000E-03 0. -1.
    9900012    2    1    2    0    0  0.46511013706E+01 -0.17178606893E+02 -0.26457212889E+02  0.59301931058E+02  0.49999976346E+02 0.  0.
        -12    1    1    2    0    0 -0.46511013706E+01  0.17178606893E+02  0.26457212889E+02  0.31886068942E+02  0.00000000000E+00 0.  1.
         11    1    3    3    0    0 -0.67765445963E+01 -0.16521760808E+02 -0.10462124360E+02  0.20696525874E+02  0.51100000000E-03 0. -1.
        -11    1    3    3    0    0  0.43362189005E+01  0.14350573949E+02  0.77304859161E+00  0.15011308117E+02  0.51100000000E-03 0.  1.
         12    1    3    3    0    0  0.70914270664E+01 -0.15007420034E+02 -0.16768137120E+02  0.23594097067E+02  0.00000000000E+00 0. -1.
</event>
<event>
 7    1  0.1052674E-011  0.5930195E+02  0.7816164E-02  0.1266605E+00
        -11   -1    0    0    0    0  0.00000000000E+00  0.00000000000E+00  0.45593999997E+02  0.45594000000E+02  0.51100000000E-03 0.  1.
         11   -1    0    0    0    0 -0.00000000000E+00 -0.00000000000E+00 -0.45593999997E+02  0.45594000000E+02  0.51100000000E-03 0. -1.
    9900012    2    1    2    0    0 -0.11325010143E+01 -0.16803499724E+02 -0.27075449602E+02  0.59301950814E+02  0.50000012377E+02 0.  0.
        -12    1    1    2    0    0  0.11325010143E+01  0.16803499724E+02  0.27075449602E+02  0.31886049186E+02  0.00000000000E+00 0.  1.
         11    1    3    3    0    0  0.12247281501E+02 -0.24478838851E+02 -0.14645541439E+02  0.31043539424E+02  0.51100000000E-03 0. -1.
        -11    1    3    3    0    0 -0.11254470358E+01  0.10516115708E+02 -0.11531502020E+02  0.15647071921E+02  0.51100000000E-03 0.  1.
         12    1    3    3    0    0 -0.12254335479E+02 -0.28407765816E+01 -0.89840614260E+00  0.12611339470E+02  0.00000000000E+00 0. -1.
</event>
<event>
 7    1  0.1052674E-011  0.5930192E+02  0.7816164E-02  0.1266605E+00
        -11   -1    0    0    0    0  0.00000000000E+00  0.00000000000E+00  0.45593999997E+02  0.45594000000E+02  0.51100000000E-03 0.  1.
         11   -1    0    0    0    0 -0.00000000000E+00 -0.00000000000E+00 -0.45593999997E+02  0.45594000000E+02  0.51100000000E-03 0. -1.
    9900012    2    1    2    0    0  0.16829930114E+02 -0.15397052485E+02 -0.22280183612E+02  0.59301915972E+02  0.49999948833E+02 0.  0.
        -12    1    1    2    0    0 -0.16829930114E+02  0.15397052485E+02  0.22280183612E+02  0.31886084028E+02  0.00000000000E+00 0.  1.
         11    1    3    3    0    0 -0.96724637405E+01 -0.18013359421E+02 -0.11332189428E+01  0.20477349874E+02  0.51100000000E-03 0. -1.
        -11    1    3    3    0    0  0.12614120094E+02  0.10786090327E+01 -0.21382590724E+02  0.24849438817E+02  0.51100000000E-03 0.  1.
         12    1    3    3    0    0  0.13888273760E+02  0.15376979035E+01  0.23562605458E+00  0.13975127281E+02  0.00000000000E+00 0. -1.
</event>
<event>
 7    1  0.1267840E-011  0.5930194E+02  0.7816164E-02  0.1266605E+00
        -11   -1    0    0    0    0  0.00000000000E+00  0.00000000000E+00  0.45593999997E+02  0.45594000000E+02  0.51100000000E-03 0.  1.
         11   -1    0    0    0    0 -0.00000000000E+00 -0.00000000000E+00 -0.45593999997E+02  0.45594000000E+02  0.51100000000E-03 0. -1.
    9900012    2    1    2    0    0  0.27605142058E+02  0.42118013533E+00 -0.15953048864E+02  0.59301936762E+02  0.49999986749E+02 0.  0.
        -12    1    1    2    0    0 -0.27605142058E+02 -0.42118013533E+00  0.15953048864E+02  0.31886063238E+02  0.00000000000E+00 0.  1.
         11    1    3    3    0    0 -0.13725945178E-01  0.60373124358E+01 -0.17675630324E+02  0.18678255739E+02  0.51100000000E-03 0. -1.
        -11    1    3    3    0    0  0.38108938017E+01 -0.56660725911E+01  0.12690335661E+02  0.14410826126E+02  0.51100000000E-03 0.  1.
         12    1    3    3    0    0  0.23807974202E+02  0.49940290687E-01 -0.10967754201E+02  0.26212854897E+02  0.00000000000E+00 0. -1.
</event>
<event>
 7    1  0.1052674E-011  0.5930195E+02  0.7816164E-02  0.1266605E+00
        -11   -1    0    0    0    0  0.00000000000E+00  0.00000000000E+00  0.45593999997E+02  0.45594000000E+02  0.51100000000E-03 0. -1.
         11   -1    0    0    0    0 -0.00000000000E+00 -0.00000000000E+00 -0.45593999997E+02  0.45594000000E+02  0.51100000000E-03 0.  1.
    9900012    2    1    2    0    0  0.11239243289E+02 -0.73229921861E+01  0.28927031828E+02  0.59301953293E+02  0.50000016897E+02 0.  0.
        -12    1    1    2    0    0 -0.11239243289E+02  0.73229921861E+01 -0.28927031828E+02  0.31886046707E+02  0.00000000000E+00 0.  1.
         11    1    3    3    0    0  0.76230405940E+01 -0.11286207541E+02  0.11341950801E+02  0.17723686885E+02  0.51100000000E-03 0. -1.
        -11    1    3    3    0    0 -0.65873898124E+01  0.11956420290E+02  0.23619629682E+02  0.27280700088E+02  0.51100000000E-03 0.  1.
        -12    1    3    3    0    0  0.10203592507E+02 -0.79932049356E+01 -0.60345486554E+01  0.14297566320E+02  0.00000000000E+00 0.  1.
</event>
<event>
 7    1  0.1052674E-011  0.5930194E+02  0.7816164E-02  0.1266605E+00
        -11   -1    0    0    0    0  0.00000000000E+00  0.00000000000E+00  0.45593999997E+02  0.45594000000E+02  0.51100000000E-03 0.  1.
         11   -1    0    0    0    0 -0.00000000000E+00 -0.00000000000E+00 -0.45593999997E+02  0.45594000000E+02  0.51100000000E-03 0. -1.
    9900012    2    1    2    0    0  0.19145961046E+02 -0.91339439382E+01 -0.23805968170E+02  0.59301939147E+02  0.49999991098E+02 0.  0.
        -12    1    1    2    0    0 -0.19145961046E+02  0.91339439382E+01  0.23805968170E+02  0.31886060853E+02  0.00000000000E+00 0.  1.
         11    1    3    3    0    0  0.88024889692E+01 -0.45763277520E+01 -0.24805574960E+02  0.26715971574E+02  0.51100000000E-03 0. -1.
        -11    1    3    3    0    0  0.18216828296E+02 -0.11826791935E+02  0.20651707945E+01  0.21817212730E+02  0.51100000000E-03 0.  1.
        -12    1    3    3    0    0 -0.78733562193E+01  0.72691757486E+01 -0.10655640039E+01  0.10768754843E+02  0.00000000000E+00 0.  1.
</event>
<event>
 7    1  0.1052674E-011  0.5930194E+02  0.7816164E-02  0.1266605E+00
        -11   -1    0    0    0    0  0.00000000000E+00  0.00000000000E+00  0.45593999997E+02  0.45594000000E+02  0.51100000000E-03 0. -1.
         11   -1    0    0    0    0 -0.00000000000E+00 -0.00000000000E+00 -0.45593999997E+02  0.45594000000E+02  0.51100000000E-03 0.  1.
    9900012    2    1    2    0    0  0.12904311249E+02 -0.50658731334E+01  0.28714739021E+02  0.59301944169E+02  0.50000000257E+02 0.  0.
        -12    1    1    2    0    0 -0.12904311249E+02  0.50658731334E+01 -0.28714739021E+02  0.31886055831E+02  0.00000000000E+00 0.  1.
         11    1    3    3    0    0  0.99148633003E+01 -0.25604443081E+02  0.19303135537E+02  0.33563418502E+02  0.51100000000E-03 0. -1.
        -11    1    3    3    0    0 -0.25929769360E+01  0.20362785076E+00 -0.10546998601E+00  0.26030977453E+01  0.51100000000E-03 0.  1.
         12    1    3    3    0    0  0.55824248852E+01  0.20334942096E+02  0.95170734705E+01  0.23135427921E+02  0.00000000000E+00 0. -1.
</event>
<event>
 7    1  0.1052674E-011  0.5930196E+02  0.7816164E-02  0.1266605E+00
        -11   -1    0    0    0    0  0.00000000000E+00  0.00000000000E+00  0.45593999997E+02  0.45594000000E+02  0.51100000000E-03 0.  1.
         11   -1    0    0    0    0 -0.00000000000E+00 -0.00000000000E+00 -0.45593999997E+02  0.45594000000E+02  0.51100000000E-03 0. -1.
    9900012    2    1    2    0    0 -0.32436442368E+01  0.25962590423E+02 -0.18224764148E+02  0.59301962967E+02  0.50000034540E+02 0.  0.
        -12    1    1    2    0    0  0.32436442368E+01 -0.25962590423E+02  0.18224764148E+02  0.31886037033E+02  0.00000000000E+00 0.  1.
         11    1    3    3    0    0  0.70021902536E+00 -0.10226509981E+02 -0.13882406479E+02  0.17256680532E+02  0.51100000000E-03 0. -1.
        -11    1    3    3    0    0  0.12493811313E+01  0.36453623178E+02 -0.49521845968E+01  0.36809668955E+02  0.51100000000E-03 0.  1.
         12    1    3    3    0    0 -0.51932443934E+01 -0.26452277448E+00  0.60982692736E+00  0.52356134798E+01  0.00000000000E+00 0. -1.
</event>
<event>
 7    1  0.1052674E-011  0.5930200E+02  0.7816164E-02  0.1266605E+00
        -11   -1    0    0    0    0  0.00000000000E+00  0.00000000000E+00  0.45593999997E+02  0.45594000000E+02  0.51100000000E-03 0.  1.
         11   -1    0    0    0    0 -0.00000000000E+00 -0.00000000000E+00 -0.45593999997E+02  0.45594000000E+02  0.51100000000E-03 0. -1.
    9900012    2    1    2    0    0  0.10553851740E+02 -0.22380588433E+02  0.20110750427E+02  0.59302002949E+02  0.50000107459E+02 0.  0.
        -12    1    1    2    0    0 -0.10553851740E+02  0.22380588433E+02 -0.20110750427E+02  0.31885997051E+02  0.00000000000E+00 0.  1.
         11    1    3    3    0    0 -0.75989694007E+01  0.98191365056E+01  0.63431507834E+01  0.13942572926E+02  0.51100000000E-03 0.  1.
        -11    1    3    3    0    0  0.21455840175E+02 -0.17408704509E+02  0.11921161984E+02  0.30092028407E+02  0.51100000000E-03 0. -1.
        -12    1    3    3    0    0 -0.33030190343E+01 -0.14791020430E+02  0.18464376600E+01  0.15267401617E+02  0.00000000000E+00 0.  1.
</event>
<event>
 7    1  0.1052674E-011  0.5930193E+02  0.7816164E-02  0.1266605E+00
        -11   -1    0    0    0    0  0.00000000000E+00  0.00000000000E+00  0.45593999997E+02  0.45594000000E+02  0.51100000000E-03 0. -1.
         11   -1    0    0    0    0 -0.00000000000E+00 -0.00000000000E+00 -0.45593999997E+02  0.45594000000E+02  0.51100000000E-03 0.  1.
    9900012    2    1    2    0    0  0.78353408096E+00  0.23414177552E+02  0.21630623221E+02  0.59301929421E+02  0.49999973360E+02 0.  0.
        -12    1    1    2    0    0 -0.78353408096E+00 -0.23414177552E+02 -0.21630623221E+02  0.31886070579E+02  0.00000000000E+00 0.  1.
         11    1    3    3    0    0 -0.65181106364E+01 -0.73800726070E+01  0.12212999419E+02  0.15687848578E+02  0.51100000000E-03 0. -1.
        -11    1    3    3    0    0 -0.88450242777E+00  0.28051594269E+02 -0.32830691901E+01  0.28256907636E+02  0.51100000000E-03 0.  1.
        -12    1    3    3    0    0  0.81861471451E+01  0.27426558895E+01  0.12700692992E+02  0.15357173206E+02  0.00000000000E+00 0.  1.
</event>
<event>
 7    1  0.1052674E-011  0.5930195E+02  0.7816164E-02  0.1266605E+00
        -11   -1    0    0    0    0  0.00000000000E+00  0.00000000000E+00  0.45593999997E+02  0.45594000000E+02  0.51100000000E-03 0. -1.
         11   -1    0    0    0    0 -0.00000000000E+00 -0.00000000000E+00 -0.45593999997E+02  0.45594000000E+02  0.51100000000E-03 0.  1.
    9900012    2    1    2    0    0  0.26076214976E+02  0.18239404595E+02 -0.20187719602E+01  0.59301948070E+02  0.50000007373E+02 0.  0.
        -12    1    1    2    0    0 -0.26076214976E+02 -0.18239404595E+02  0.20187719602E+01  0.31886051930E+02  0.00000000000E+00 0.  1.
         11    1    3    3    0    0  0.11583086207E+02 -0.87053634742E+00 -0.19639932634E+02  0.22817814832E+02  0.51100000000E-03 0.  1.
        -11    1    3    3    0    0  0.68413910279E+01  0.12719034494E+02  0.21404225380E+02  0.25820908854E+02  0.51100000000E-03 0. -1.
         12    1    3    3    0    0  0.76517377414E+01  0.63909064482E+01 -0.37830647067E+01  0.10663224384E+02  0.00000000000E+00 0. -1.
</event>
<event>
 7    1  0.1052674E-011  0.5930195E+02  0.7816164E-02  0.1266605E+00
        -11   -1    0    0    0    0  0.00000000000E+00  0.00000000000E+00  0.45593999997E+02  0.45594000000E+02  0.51100000000E-03 0. -1.
         11   -1    0    0    0    0 -0.00000000000E+00 -0.00000000000E+00 -0.45593999997E+02  0.45594000000E+02  0.51100000000E-03 0.  1.
    9900012    2    1    2    0    0 -0.19093977511E+02  0.20989471885E+02  0.14545878793E+02  0.59301945100E+02  0.50000001956E+02 0.  0.
        -12    1    1    2    0    0  0.19093977511E+02 -0.20989471885E+02 -0.14545878793E+02  0.31886054900E+02  0.00000000000E+00 0.  1.
         11    1    3    3    0    0 -0.43333390483E+01 -0.52134317779E+01  0.32087209926E+01  0.75002392548E+01  0.51100000000E-03 0. -1.
        -11    1    3    3    0    0 -0.84047127395E+01  0.30540712141E+02  0.22061957477E+02  0.38601868638E+02  0.51100000000E-03 0.  1.
        -12    1    3    3    0    0 -0.63559257235E+01 -0.43378084787E+01 -0.10724799677E+02  0.13199837208E+02  0.00000000000E+00 0.  1.
</event>
<event>
 7    1  0.1052674E-011  0.5930197E+02  0.7816164E-02  0.1266605E+00
        -11   -1    0    0    0    0  0.00000000000E+00  0.00000000000E+00  0.45593999997E+02  0.45594000000E+02  0.51100000000E-03 0.  1.
         11   -1    0    0    0    0 -0.00000000000E+00 -0.00000000000E+00 -0.45593999997E+02  0.45594000000E+02  0.51100000000E-03 0. -1.
    9900012    2    1    2    0    0  0.17179263501E+02 -0.72908288403E+01 -0.25854123993E+02  0.59301968465E+02  0.50000044568E+02 0.  0.
        -12    1    1    2    0    0 -0.17179263501E+02  0.72908288403E+01  0.25854123993E+02  0.31886031535E+02  0.00000000000E+00 0.  1.
         11    1    3    3    0    0  0.67154156224E+01 -0.64532300801E+01 -0.15792361868E+02  0.18334112443E+02  0.51100000000E-03 0. -1.
        -11    1    3    3    0    0 -0.98966898327E+01 -0.16279600448E+01  0.86944598210E+01  0.13273596174E+02  0.51100000000E-03 0.  1.
         12    1    3    3    0    0  0.20360537711E+02  0.79036128455E+00 -0.18756221946E+02  0.27694259848E+02  0.00000000000E+00 0. -1.
</event>
<event>
 7    1  0.1052674E-011  0.5930197E+02  0.7816164E-02  0.1266605E+00
        -11   -1    0    0    0    0  0.00000000000E+00  0.00000000000E+00  0.45593999997E+02  0.45594000000E+02  0.51100000000E-03 0.  1.
         11   -1    0    0    0    0 -0.00000000000E+00 -0.00000000000E+00 -0.45593999997E+02  0.45594000000E+02  0.51100000000E-03 0. -1.
    9900012    2    1    2    0    0  0.10231663443E+02 -0.19185941905E+02 -0.23322347933E+02  0.59301965177E+02  0.50000038572E+02 0.  0.
        -12    1    1    2    0    0 -0.10231663443E+02  0.19185941905E+02  0.23322347933E+02  0.31886034823E+02  0.00000000000E+00 0.  1.
         11    1    3    3    0    0 -0.81070386825E+01 -0.94956104904E+01  0.50209253000E+01  0.13457354343E+02  0.51100000000E-03 0. -1.
        -11    1    3    3    0    0 -0.58827660137E+01  0.22258537046E+01 -0.13837657967E+02  0.15200070360E+02  0.51100000000E-03 0.  1.
         12    1    3    3    0    0  0.24221468139E+02 -0.11916185119E+02 -0.14505615266E+02  0.30644540474E+02  0.00000000000E+00 0. -1.
</event>
<event>
 7    1  0.1052674E-011  0.5930194E+02  0.7816164E-02  0.1266605E+00
        -11   -1    0    0    0    0  0.00000000000E+00  0.00000000000E+00  0.45593999997E+02  0.45594000000E+02  0.51100000000E-03 0.  1.
         11   -1    0    0    0    0 -0.00000000000E+00 -0.00000000000E+00 -0.45593999997E+02  0.45594000000E+02  0.51100000000E-03 0. -1.
    9900012    2    1    2    0    0  0.25995161503E+02  0.12876613053E+02  0.13234999266E+02  0.59301940493E+02  0.49999993554E+02 0.  0.
        -12    1    1    2    0    0 -0.25995161503E+02 -0.12876613053E+02 -0.13234999266E+02  0.31886059507E+02  0.00000000000E+00 0.  1.
         11    1    3    3    0    0 -0.36266783792E+00 -0.16494610568E+00 -0.16689761987E+01  0.17158720789E+01  0.51100000000E-03 0. -1.
        -11    1    3    3    0    0  0.11908816498E+02  0.29680479462E+02  0.15505021530E+02  0.35540912543E+02  0.51100000000E-03 0.  1.
        -12    1    3    3    0    0  0.14449012843E+02 -0.16638920304E+02 -0.60104606476E+00  0.22045155871E+02  0.00000000000E+00 0.  1.
</event>
<event>
 7    1  0.1052674E-011  0.5930196E+02  0.7816164E-02  0.1266605E+00
        -11   -1    0    0    0    0  0.00000000000E+00  0.00000000000E+00  0.45593999997E+02  0.45594000000E+02  0.51100000000E-03 0. -1.
         11   -1    0    0    0    0 -0.00000000000E+00 -0.00000000000E+00 -0.45593999997E+02  0.45594000000E+02  0.51100000000E-03 0.  1.
    9900012    2    1    2    0    0  0.84796840091E+01 -0.24469368545E+02  0.18602805215E+02  0.59301962307E+02  0.50000033338E+02 0.  0.
        -12    1    1    2    0    0 -0.84796840091E+01  0.24469368545E+02 -0.18602805215E+02  0.31886037693E+02  0.00000000000E+00 0.  1.
         11    1    3    3    0    0  0.18664589137E+02 -0.84179722818E+01  0.27543275673E+02  0.34319982227E+02  0.51100000000E-03 0. -1.
        -11    1    3    3    0    0 -0.91190095226E+01 -0.92958062715E+01  0.83841301739E+00  0.13048803990E+02  0.51100000000E-03 0.  1.
         12    1    3    3    0    0 -0.10658956052E+01 -0.67555899915E+01 -0.97788834758E+01  0.11933176091E+02  0.00000000000E+00 0. -1.
</event>
<event>
 7    1  0.1052674E-011  0.5930194E+02  0.7816164E-02  0.1266605E+00
        -11   -1    0    0    0    0  0.00000000000E+00  0.00000000000E+00  0.45593999997E+02  0.45594000000E+02  0.51100000000E-03 0.  1.
         11   -1    0    0    0    0 -0.00000000000E+00 -0.00000000000E+00 -0.45593999997E+02  0.45594000000E+02  0.51100000000E-03 0. -1.
    9900012    2    1    2    0    0 -0.19969398706E+01  0.16536563145E+02 -0.27189613578E+02  0.59301940727E+02  0.49999993980E+02 0.  0.
        -12    1    1    2    0    0  0.19969398706E+01 -0.16536563145E+02  0.27189613578E+02  0.31886059273E+02  0.00000000000E+00 0.  1.
         11    1    3    3    0    0 -0.22758013885E+02  0.14178658937E+02 -0.11904733578E+02  0.29337420594E+02  0.51100000000E-03 0. -1.
        -11    1    3    3    0    0  0.99164385031E+01 -0.11479781985E+01  0.10595252256E+01  0.10038735005E+02  0.51100000000E-03 0.  1.
         12    1    3    3    0    0  0.10844635512E+02  0.35058824065E+01 -0.16344405225E+02  0.19925785128E+02  0.00000000000E+00 0. -1.
</event>
<event>
 7    1  0.1052674E-011  0.5930193E+02  0.7816164E-02  0.1266605E+00
        -11   -1    0    0    0    0  0.00000000000E+00  0.00000000000E+00  0.45593999997E+02  0.45594000000E+02  0.51100000000E-03 0. -1.
         11   -1    0    0    0    0 -0.00000000000E+00 -0.00000000000E+00 -0.45593999997E+02  0.45594000000E+02  0.51100000000E-03 0.  1.
    9900012    2    1    2    0    0 -0.60311344447E+01 -0.17114184276E+02  0.26219292075E+02  0.59301934657E+02  0.49999982910E+02 0.  0.
        -12    1    1    2    0    0  0.60311344447E+01  0.17114184276E+02 -0.26219292075E+02  0.31886065343E+02  0.00000000000E+00 0.  1.
         11    1    3    3    0    0  0.13492037900E+00 -0.16432816971E+02  0.19475065960E+02  0.25482030365E+02  0.51100000000E-03 0. -1.
        -11    1    3    3    0    0 -0.19458295000E-01 -0.12169216578E+02 -0.76741680452E+01  0.14386906068E+02  0.51100000000E-03 0.  1.
        -12    1    3    3    0    0 -0.61465965287E+01  0.11487849273E+02  0.14418394160E+02  0.19432998224E+02  0.00000000000E+00 0.  1.
</event>
<event>
 7    1  0.1052674E-011  0.5930203E+02  0.7816164E-02  0.1266604E+00
        -11   -1    0    0    0    0  0.00000000000E+00  0.00000000000E+00  0.45593999997E+02  0.45594000000E+02  0.51100000000E-03 0. -1.
         11   -1    0    0    0    0 -0.00000000000E+00 -0.00000000000E+00 -0.45593999997E+02  0.45594000000E+02  0.51100000000E-03 0.  1.
    9900012    2    1    2    0    0 -0.28360137029E+02 -0.12434718741E+02  0.76023328772E+01  0.59302030238E+02  0.50000157227E+02 0.  0.
        -12    1    1    2    0    0  0.28360137029E+02  0.12434718741E+02 -0.76023328772E+01  0.31885969762E+02  0.00000000000E+00 0.  1.
         11    1    3    3    0    0 -0.24203008914E+02 -0.12252509775E+02  0.39374554676E+01  0.27411916972E+02  0.51100000000E-03 0. -1.
        -11    1    3    3    0    0 -0.20644181494E-01 -0.16836527043E+01 -0.13788294743E+02  0.13890722976E+02  0.51100000000E-03 0.  1.
        -12    1    3    3    0    0 -0.41364839340E+01  0.15014437378E+01  0.17453172153E+02  0.17999390290E+02  0.00000000000E+00 0.  1.
</event>
<event>
 7    1  0.1052674E-011  0.5930183E+02  0.7816164E-02  0.1266605E+00
        -11   -1    0    0    0    0  0.00000000000E+00  0.00000000000E+00  0.45593999997E+02  0.45594000000E+02  0.51100000000E-03 0.  1.
         11   -1    0    0    0    0 -0.00000000000E+00 -0.00000000000E+00 -0.45593999997E+02  0.45594000000E+02  0.51100000000E-03 0. -1.
    9900012    2    1    2    0    0 -0.24556887496E+02  0.51120879107E+01 -0.19686377121E+02  0.59301833556E+02  0.49999798526E+02 0.  0.
        -12    1    1    2    0    0  0.24556887496E+02 -0.51120879107E+01  0.19686377121E+02  0.31886166444E+02  0.00000000000E+00 0.  1.
         11    1    3    3    0    0 -0.31222001352E+02  0.12844537716E+02 -0.19192781493E+02  0.38835014862E+02  0.51100000000E-03 0. -1.
        -11    1    3    3    0    0  0.10273198408E+02 -0.96616628563E+01 -0.44371148737E+01  0.14784259310E+02  0.51100000000E-03 0.  1.
         12    1    3    3    0    0 -0.36080845515E+01  0.19292130507E+01  0.39435192456E+01  0.56825593852E+01  0.00000000000E+00 0. -1.
</event>
<event>
 7    1  0.1052674E-011  0.5930194E+02  0.7816164E-02  0.1266605E+00
        -11   -1    0    0    0    0  0.00000000000E+00  0.00000000000E+00  0.45593999997E+02  0.45594000000E+02  0.51100000000E-03 0.  1.
         11   -1    0    0    0    0 -0.00000000000E+00 -0.00000000000E+00 -0.45593999997E+02  0.45594000000E+02  0.51100000000E-03 0. -1.
    9900012    2    1    2    0    0  0.15342376205E+01  0.62475689416E+01 -0.31230355908E+02  0.59301935129E+02  0.49999983772E+02 0.  0.
        -12    1    1    2    0    0 -0.15342376205E+01 -0.62475689416E+01  0.31230355908E+02  0.31886064871E+02  0.00000000000E+00 0.  1.
         11    1    3    3    0    0  0.11230519687E+02  0.16622589299E+02 -0.30559836661E+02  0.36555966195E+02  0.51100000000E-03 0. -1.
        -11    1    3    3    0    0 -0.35151078333E+01 -0.38073103717E+01  0.84544096267E+01  0.99160797568E+01  0.51100000000E-03 0.  1.
         12    1    3    3    0    0 -0.61811742336E+01 -0.65677099853E+01 -0.91249288743E+01  0.12829889178E+02  0.00000000000E+00 0. -1.
</event>
<event>
 7    1  0.1052674E-011  0.5930224E+02  0.7816164E-02  0.1266604E+00
        -11   -1    0    0    0    0  0.00000000000E+00  0.00000000000E+00  0.45593999997E+02  0.45594000000E+02  0.51100000000E-03 0. -1.
         11   -1    0    0    0    0 -0.00000000000E+00 -0.00000000000E+00 -0.45593999997E+02  0.45594000000E+02  0.51100000000E-03 0.  1.
    9900012    2    1    2    0    0  0.11763093764E+02  0.17746650952E+02  0.23735785944E+02  0.59302242532E+02  0.50000544397E+02 0.  0.
        -12    1    1    2    0    0 -0.11763093764E+02 -0.17746650952E+02 -0.23735785944E+02  0.31885757468E+02  0.00000000000E+00 0.  1.
         11    1    3    3    0    0  0.42961149049E+01  0.88508594024E+01  0.68645920394E+01  0.11996538649E+02  0.51100000000E-03 0. -1.
        -11    1    3    3    0    0  0.45489288883E+01 -0.16905418291E+01 -0.13852816856E+02  0.14678256736E+02  0.51100000000E-03 0.  1.
        -12    1    3    3    0    0  0.29180499707E+01  0.10586333379E+02  0.30724010761E+02  0.32627447146E+02  0.00000000000E+00 0.  1.
</event>
<event>
 7    1  0.1052674E-011  0.5930195E+02  0.7816164E-02  0.1266605E+00
        -11   -1    0    0    0    0  0.00000000000E+00  0.00000000000E+00  0.45593999997E+02  0.45594000000E+02  0.51100000000E-03 0. -1.
         11   -1    0    0    0    0 -0.00000000000E+00 -0.00000000000E+00 -0.45593999997E+02  0.45594000000E+02  0.51100000000E-03 0.  1.
    9900012    2    1    2    0    0  0.11907537441E+02  0.72955998675E+00  0.29570230781E+02  0.59301948910E+02  0.50000008904E+02 0.  0.
        -12    1    1    2    0    0 -0.11907537441E+02 -0.72955998675E+00 -0.29570230781E+02  0.31886051090E+02  0.00000000000E+00 0.  1.
         11    1    3    3    0    0  0.49710316381E+01  0.17665586581E+01  0.18557735926E+02  0.19293041440E+02  0.51100000000E-03 0. -1.
        -11    1    3    3    0    0  0.88486795594E+01  0.16002682742E+02 -0.21232127430E+01  0.18409047164E+02  0.51100000000E-03 0.  1.
        -12    1    3    3    0    0 -0.19121737563E+01 -0.17039681413E+02  0.13135707598E+02  0.21599860306E+02  0.00000000000E+00 0.  1.
</event>
<event>
 7    1  0.1052674E-011  0.5930195E+02  0.7816164E-02  0.1266605E+00
        -11   -1    0    0    0    0  0.00000000000E+00  0.00000000000E+00  0.45593999997E+02  0.45594000000E+02  0.51100000000E-03 0.  1.
         11   -1    0    0    0    0 -0.00000000000E+00 -0.00000000000E+00 -0.45593999997E+02  0.45594000000E+02  0.51100000000E-03 0. -1.
    9900012    2    1    2    0    0  0.16022860187E+02 -0.14134718434E+02 -0.23668501967E+02  0.59301948203E+02  0.50000007616E+02 0.  0.
        -12    1    1    2    0    0 -0.16022860187E+02  0.14134718434E+02  0.23668501967E+02  0.31886051797E+02  0.00000000000E+00 0.  1.
         11    1    3    3    0    0  0.21862085885E+02 -0.22828642840E+02 -0.12798498639E+02  0.34101309371E+02  0.51100000000E-03 0. -1.
        -11    1    3    3    0    0  0.48636523838E+01  0.49747742087E+01  0.27523820394E+01  0.74819182092E+01  0.51100000000E-03 0.  1.
         12    1    3    3    0    0 -0.10702878082E+02  0.37191501967E+01 -0.13622385368E+02  0.17718720623E+02  0.00000000000E+00 0. -1.
</event>
<event>
 7    1  0.1052674E-011  0.5930207E+02  0.7816164E-02  0.1266604E+00
        -11   -1    0    0    0    0  0.00000000000E+00  0.00000000000E+00  0.45593999997E+02  0.45594000000E+02  0.51100000000E-03 0.  1.
         11   -1    0    0    0    0 -0.00000000000E+00 -0.00000000000E+00 -0.45593999997E+02  0.45594000000E+02  0.51100000000E-03 0. -1.
    9900012    2    1    2    0    0  0.16339758091E+02  0.28421707209E+01 -0.27233194327E+02  0.59302070468E+02  0.50000230595E+02 0.  0.
        -12    1    1    2    0    0 -0.16339758091E+02 -0.28421707209E+01  0.27233194327E+02  0.31885929532E+02  0.00000000000E+00 0.  1.
         11    1    3    3    0    0  0.22043846227E+02 -0.38677663888E+01 -0.37829481200E+02  0.43954071728E+02  0.51100000000E-03 0. -1.
        -11    1    3    3    0    0 -0.82979037487E+00  0.45437252506E+01  0.83866921259E+01  0.95744762935E+01  0.51100000000E-03 0.  1.
        -12    1    3    3    0    0 -0.48742977612E+01  0.21662118592E+01  0.22095947475E+01  0.57735224458E+01  0.00000000000E+00 0.  1.
</event>
<event>
 7    1  0.1052674E-011  0.5930192E+02  0.7816164E-02  0.1266605E+00
        -11   -1    0    0    0    0  0.00000000000E+00  0.00000000000E+00  0.45593999997E+02  0.45594000000E+02  0.51100000000E-03 0.  1.
         11   -1    0    0    0    0 -0.00000000000E+00 -0.00000000000E+00 -0.45593999997E+02  0.45594000000E+02  0.51100000000E-03 0. -1.
    9900012    2    1    2    0    0  0.27346002182E+02 -0.14481466977E+02 -0.76945183157E+01  0.59301916307E+02  0.49999949444E+02 0.  0.
        -12    1    1    2    0    0 -0.27346002182E+02  0.14481466977E+02  0.76945183157E+01  0.31886083693E+02  0.00000000000E+00 0.  1.
         11    1    3    3    0    0  0.37895510554E+00 -0.23481446189E+01  0.15708769469E+02  0.15887820134E+02  0.51100000000E-03 0.  1.
        -11    1    3    3    0    0  0.28327625883E+02 -0.55354650950E+01 -0.14649630452E+02  0.32368309109E+02  0.51100000000E-03 0. -1.
        -12    1    3    3    0    0 -0.13605788058E+01 -0.65978572633E+01 -0.87536573326E+01  0.11045787063E+02  0.00000000000E+00 0.  1.
</event>
<event>
 7    1  0.1052674E-011  0.5930194E+02  0.7816164E-02  0.1266605E+00
        -11   -1    0    0    0    0  0.00000000000E+00  0.00000000000E+00  0.45593999997E+02  0.45594000000E+02  0.51100000000E-03 0.  1.
         11   -1    0    0    0    0 -0.00000000000E+00 -0.00000000000E+00 -0.45593999997E+02  0.45594000000E+02  0.51100000000E-03 0. -1.
    9900012    2    1    2    0    0 -0.23393993564E+02 -0.14306913314E+02  0.16271269437E+02  0.59301938585E+02  0.49999990074E+02 0.  0.
        -12    1    1    2    0    0  0.23393993564E+02  0.14306913314E+02 -0.16271269437E+02  0.31886061415E+02  0.00000000000E+00 0.  1.
         11    1    3    3    0    0 -0.22251090818E+02 -0.26038284491E+02 -0.45031608617E+00  0.34253555826E+02  0.51100000000E-03 0. -1.
        -11    1    3    3    0    0 -0.12087384683E+01  0.15110006424E+02  0.12546566911E+02  0.19677136080E+02  0.51100000000E-03 0.  1.
        -12    1    3    3    0    0  0.65835722586E-01 -0.33786352469E+01  0.41750186124E+01  0.53712466791E+01  0.00000000000E+00 0.  1.
</event>
<event>
 7    1  0.1052674E-011  0.5930196E+02  0.7816164E-02  0.1266605E+00
        -11   -1    0    0    0    0  0.00000000000E+00  0.00000000000E+00  0.45593999997E+02  0.45594000000E+02  0.51100000000E-03 0. -1.
         11   -1    0    0    0    0 -0.00000000000E+00 -0.00000000000E+00 -0.45593999997E+02  0.45594000000E+02  0.51100000000E-03 0.  1.
    9900012    2    1    2    0    0 -0.66392486174E+01  0.22019502988E+02 -0.22085775347E+02  0.59301959062E+02  0.50000027419E+02 0.  0.
        -12    1    1    2    0    0  0.66392486174E+01 -0.22019502988E+02  0.22085775347E+02  0.31886040938E+02  0.00000000000E+00 0.  1.
         11    1    3    3    0    0 -0.78561794807E+01  0.12128668674E+02  0.14606108831E+02  0.20546595224E+02  0.51100000000E-03 0. -1.
        -11    1    3    3    0    0 -0.24420414723E+01  0.65761257597E+01 -0.26757971528E+02  0.27662213164E+02  0.51100000000E-03 0.  1.
         12    1    3    3    0    0  0.36589723357E+01  0.33147085543E+01 -0.99339126495E+01  0.11093150674E+02  0.00000000000E+00 0. -1.
</event>
<event>
 7    1  0.1052674E-011  0.5930195E+02  0.7816164E-02  0.1266605E+00
        -11   -1    0    0    0    0  0.00000000000E+00  0.00000000000E+00  0.45593999997E+02  0.45594000000E+02  0.51100000000E-03 0.  1.
         11   -1    0    0    0    0 -0.00000000000E+00 -0.00000000000E+00 -0.45593999997E+02  0.45594000000E+02  0.51100000000E-03 0. -1.
    9900012    2    1    2    0    0  0.20635158018E+02  0.23362364593E+02  0.67164024567E+01  0.59301954654E+02  0.50000019380E+02 0.  0.
        -12    1    1    2    0    0 -0.20635158018E+02 -0.23362364593E+02 -0.67164024567E+01  0.31886045346E+02  0.00000000000E+00 0.  1.
         11    1    3    3    0    0  0.14819557012E+02  0.50185934755E+01 -0.11127670869E+02  0.19199755460E+02  0.51100000000E-03 0. -1.
        -11    1    3    3    0    0 -0.87230740635E+01  0.18314308707E+02  0.54690324776E+01  0.21009908163E+02  0.51100000000E-03 0.  1.
        -12    1    3    3    0    0  0.14538675070E+02  0.29462411264E-01  0.12375040848E+02  0.19092291031E+02  0.00000000000E+00 0.  1.
</event>
<event>
 7    1  0.1052674E-011  0.5930188E+02  0.7816164E-02  0.1266605E+00
        -11   -1    0    0    0    0  0.00000000000E+00  0.00000000000E+00  0.45593999997E+02  0.45594000000E+02  0.51100000000E-03 0. -1.
         11   -1    0    0    0    0 -0.00000000000E+00 -0.00000000000E+00 -0.45593999997E+02  0.45594000000E+02  0.51100000000E-03 0.  1.
    9900012    2    1    2    0    0  0.48467146956E+01  0.15871526035E+02  0.27227352637E+02  0.59301878981E+02  0.49999881371E+02 0.  0.
        -12    1    1    2    0    0 -0.48467146956E+01 -0.15871526035E+02 -0.27227352637E+02  0.31886121019E+02  0.00000000000E+00 0.  1.
         11    1    3    3    0    0 -0.82687337249E+01 -0.13757607442E+02  0.37992319025E+01  0.16494783516E+02  0.51100000000E-03 0. -1.
        -11    1    3    3    0    0  0.43409253632E+01  0.24100576983E+02  0.20746202588E+02  0.32094958576E+02  0.51100000000E-03 0.  1.
        -12    1    3    3    0    0  0.87745230572E+01  0.55285564934E+01  0.26819181465E+01  0.10712136889E+02  0.00000000000E+00 0.  1.
</event>
<event>
 7    1  0.1052674E-011  0.5930195E+02  0.7816164E-02  0.1266605E+00
        -11   -1    0    0    0    0  0.00000000000E+00  0.00000000000E+00  0.45593999997E+02  0.45594000000E+02  0.51100000000E-03 0. -1.
         11   -1    0    0    0    0 -0.00000000000E+00 -0.00000000000E+00 -0.45593999997E+02  0.45594000000E+02  0.51100000000E-03 0.  1.
    9900012    2    1    2    0    0  0.20136792763E+02 -0.12831617423E+02  0.21132418055E+02  0.59301954128E+02  0.50000018420E+02 0.  0.
        -12    1    1    2    0    0 -0.20136792763E+02  0.12831617423E+02 -0.21132418055E+02  0.31886045872E+02  0.00000000000E+00 0.  1.
         11    1    3    3    0    0  0.29526818539E+02 -0.18428392157E+01  0.10220657403E+02  0.31300014496E+02  0.51100000000E-03 0. -1.
        -11    1    3    3    0    0 -0.98207615639E+01 -0.13941482660E+02  0.38195345242E+00  0.17057496450E+02  0.51100000000E-03 0.  1.
         12    1    3    3    0    0  0.43073578813E+00  0.29527044518E+01  0.10529807200E+02  0.10944443182E+02  0.00000000000E+00 0. -1.
</event>
<event>
 7    1  0.1052674E-011  0.5930197E+02  0.7816164E-02  0.1266605E+00
        -11   -1    0    0    0    0  0.00000000000E+00  0.00000000000E+00  0.45593999997E+02  0.45594000000E+02  0.51100000000E-03 0. -1.
         11   -1    0    0    0    0 -0.00000000000E+00 -0.00000000000E+00 -0.45593999997E+02  0.45594000000E+02  0.51100000000E-03 0.  1.
    9900012    2    1    2    0    0 -0.22835123982E+02 -0.20436997425E+02  0.88093616845E+01  0.59301974780E+02  0.50000056086E+02 0.  0.
        -12    1    1    2    0    0  0.22835123982E+02  0.20436997425E+02 -0.88093616845E+01  0.31886025220E+02  0.00000000000E+00 0.  1.
         11    1    3    3    0    0 -0.78239932004E+00 -0.28534159358E+02  0.71364981558E+01  0.29423460116E+02  0.51100000000E-03 0. -1.
        -11    1    3    3    0    0 -0.22579862160E+02  0.13443710929E+01  0.34363409762E+01  0.22879378233E+02  0.51100000000E-03 0.  1.
        -12    1    3    3    0    0  0.52713749754E+00  0.67527908407E+01 -0.17634774476E+01  0.69991364315E+01  0.00000000000E+00 0.  1.
</event>
<event>
 7    1  0.1052674E-011  0.5930196E+02  0.7816164E-02  0.1266605E+00
        -11   -1    0    0    0    0  0.00000000000E+00  0.00000000000E+00  0.45593999997E+02  0.45594000000E+02  0.51100000000E-03 0.  1.
         11   -1    0    0    0    0 -0.00000000000E+00 -0.00000000000E+00 -0.45593999997E+02  0.45594000000E+02  0.51100000000E-03 0. -1.
    9900012    2    1    2    0    0  0.20928423124E+02  0.12717743655E+02 -0.20420084715E+02  0.59301956691E+02  0.50000023095E+02 0.  0.
        -12    1    1    2    0    0 -0.20928423124E+02 -0.12717743655E+02  0.20420084715E+02  0.31886043309E+02  0.00000000000E+00 0.  1.
         11    1    3    3    0    0  0.35493661701E+01  0.13220661485E+01 -0.65560692556E+01  0.75715192303E+01  0.51100000000E-03 0. -1.
        -11    1    3    3    0    0 -0.64343511878E+01  0.15935403477E+02  0.81176090745E+01  0.19006144705E+02  0.51100000000E-03 0.  1.
        -12    1    3    3    0    0  0.23813408142E+02 -0.45397259708E+01 -0.21981624534E+02  0.32724292756E+02  0.00000000000E+00 0.  1.
</event>
<event>
 7    1  0.1052674E-011  0.5930194E+02  0.7816164E-02  0.1266605E+00
        -11   -1    0    0    0    0  0.00000000000E+00  0.00000000000E+00  0.45593999997E+02  0.45594000000E+02  0.51100000000E-03 0. -1.
         11   -1    0    0    0    0 -0.00000000000E+00 -0.00000000000E+00 -0.45593999997E+02  0.45594000000E+02  0.51100000000E-03 0.  1.
    9900012    2    1    2    0    0  0.65203716040E+01  0.27839411696E+02  0.14112864975E+02  0.59301936474E+02  0.49999986223E+02 0.  0.
        -12    1    1    2    0    0 -0.65203716040E+01 -0.27839411696E+02 -0.14112864975E+02  0.31886063526E+02  0.00000000000E+00 0.  1.
         11    1    3    3    0    0 -0.13204449029E+02  0.17963703978E+02  0.23103907425E+02  0.32106738752E+02  0.51100000000E-03 0. -1.
        -11    1    3    3    0    0  0.67683160538E+01  0.49278796582E+01  0.29673164118E+01  0.88825146822E+01  0.51100000000E-03 0.  1.
         12    1    3    3    0    0  0.12956504579E+02  0.49478280598E+01 -0.11958358862E+02  0.18312683039E+02  0.00000000000E+00 0. -1.
</event>
<event>
 7    1  0.1052674E-011  0.5930190E+02  0.7816164E-02  0.1266605E+00
        -11   -1    0    0    0    0  0.00000000000E+00  0.00000000000E+00  0.45593999997E+02  0.45594000000E+02  0.51100000000E-03 0. -1.
         11   -1    0    0    0    0 -0.00000000000E+00 -0.00000000000E+00 -0.45593999997E+02  0.45594000000E+02  0.51100000000E-03 0.  1.
    9900012    2    1    2    0    0 -0.23164423553E+02  0.10761200583E+02  0.19087412588E+02  0.59301901527E+02  0.49999922488E+02 0.  0.
        -12    1    1    2    0    0  0.23164423553E+02 -0.10761200583E+02 -0.19087412588E+02  0.31886098473E+02  0.00000000000E+00 0.  1.
         11    1    3    3    0    0 -0.11986446540E+02  0.13674155699E+02  0.27117005549E+01  0.18385068803E+02  0.51100000000E-03 0. -1.
        -11    1    3    3    0    0 -0.10430226761E+02 -0.18167588747E+02  0.41559364559E+01  0.21357029739E+02  0.51100000000E-03 0.  1.
         12    1    3    3    0    0 -0.74775025237E+00  0.15254633630E+02  0.12219775578E+02  0.19559802985E+02  0.00000000000E+00 0. -1.
</event>
<event>
 7    1  0.1052674E-011  0.5930190E+02  0.7816164E-02  0.1266605E+00
        -11   -1    0    0    0    0  0.00000000000E+00  0.00000000000E+00  0.45593999997E+02  0.45594000000E+02  0.51100000000E-03 0.  1.
         11   -1    0    0    0    0 -0.00000000000E+00 -0.00000000000E+00 -0.45593999997E+02  0.45594000000E+02  0.51100000000E-03 0. -1.
    9900012    2    1    2    0    0 -0.28709446028E+02  0.47812980734E+01  0.13024222084E+02  0.59301898586E+02  0.49999917125E+02 0.  0.
        -12    1    1    2    0    0  0.28709446028E+02 -0.47812980734E+01 -0.13024222084E+02  0.31886101414E+02  0.00000000000E+00 0.  1.
         11    1    3    3    0    0 -0.17759216739E+02  0.16421194220E+02  0.11725664511E+02  0.26880041057E+02  0.51100000000E-03 0. -1.
        -11    1    3    3    0    0 -0.19789672244E+02 -0.11863133638E+02  0.34293070178E+01  0.23326491680E+02  0.51100000000E-03 0.  1.
        -12    1    3    3    0    0  0.88394429542E+01  0.22323749172E+00 -0.21307494444E+01  0.90953658483E+01  0.00000000000E+00 0.  1.
</event>
<event>
 7    1  0.1052674E-011  0.5930220E+02  0.7816164E-02  0.1266604E+00
        -11   -1    0    0    0    0  0.00000000000E+00  0.00000000000E+00  0.45593999997E+02  0.45594000000E+02  0.51100000000E-03 0.  1.
         11   -1    0    0    0    0 -0.00000000000E+00 -0.00000000000E+00 -0.45593999997E+02  0.45594000000E+02  0.51100000000E-03 0. -1.
    9900012    2    1    2    0    0 -0.44304567290E+01  0.10537064853E+02 -0.29766513722E+02  0.59302203449E+02  0.50000473120E+02 0.  0.
        -12    1    1    2    0    0  0.44304567290E+01 -0.10537064853E+02  0.29766513722E+02  0.31885796551E+02  0.00000000000E+00 0.  1.
         11    1    3    3    0    0  0.89861276083E+01  0.38998938069E+01 -0.27169319749E+02  0.28881336482E+02  0.51100000000E-03 0. -1.
        -11    1    3    3    0    0 -0.16269530429E+02  0.12566401280E+02  0.41764600530E+01  0.20977485082E+02  0.51100000000E-03 0.  1.
        -12    1    3    3    0    0  0.28529460920E+01 -0.59292302339E+01 -0.67736540262E+01  0.94433818856E+01  0.00000000000E+00 0.  1.
</event>
<event>
 7    1  0.1052674E-011  0.5930195E+02  0.7816164E-02  0.1266605E+00
        -11   -1    0    0    0    0  0.00000000000E+00  0.00000000000E+00  0.45593999997E+02  0.45594000000E+02  0.51100000000E-03 0.  1.
         11   -1    0    0    0    0 -0.00000000000E+00 -0.00000000000E+00 -0.45593999997E+02  0.45594000000E+02  0.51100000000E-03 0. -1.
    9900012    2    1    2    0    0 -0.18565294143E+02  0.19298847244E+02 -0.17309082945E+02  0.59301952833E+02  0.50000016058E+02 0.  0.
        -12    1    1    2    0    0  0.18565294143E+02 -0.19298847244E+02  0.17309082945E+02  0.31886047167E+02  0.00000000000E+00 0.  1.
         11    1    3    3    0    0 -0.22284675862E+02 -0.45072681735E+01 -0.23309152267E+02  0.32561308701E+02  0.51100000000E-03 0. -1.
        -11    1    3    3    0    0  0.67294008601E+01  0.15293855135E+02  0.58729680954E+01  0.17710973868E+02  0.51100000000E-03 0.  1.
         12    1    3    3    0    0 -0.30100191417E+01  0.85122602823E+01  0.12710122724E+00  0.90296702636E+01  0.00000000000E+00 0. -1.
</event>
<event>
 7    1  0.1052674E-011  0.5930196E+02  0.7816164E-02  0.1266605E+00
        -11   -1    0    0    0    0  0.00000000000E+00  0.00000000000E+00  0.45593999997E+02  0.45594000000E+02  0.51100000000E-03 0. -1.
         11   -1    0    0    0    0 -0.00000000000E+00 -0.00000000000E+00 -0.45593999997E+02  0.45594000000E+02  0.51100000000E-03 0.  1.
    9900012    2    1    2    0    0  0.11465573328E+02  0.24277054688E+02  0.17201305237E+02  0.59301958258E+02  0.50000025953E+02 0.  0.
        -12    1    1    2    0    0 -0.11465573328E+02 -0.24277054688E+02 -0.17201305237E+02  0.31886041742E+02  0.00000000000E+00 0.  1.
         11    1    3    3    0    0 -0.11652557629E+02  0.42395165772E+01 -0.95367730030E+01  0.15643070021E+02  0.51100000000E-03 0. -1.
        -11    1    3    3    0    0  0.16649414550E+02  0.11461899066E+02  0.73766381140E+01  0.21517270394E+02  0.51100000000E-03 0.  1.
         12    1    3    3    0    0  0.64687164065E+01  0.85756390457E+01  0.19361440126E+02  0.22141617844E+02  0.00000000000E+00 0. -1.
</event>
<event>
 7    1  0.1052674E-011  0.5930192E+02  0.7816164E-02  0.1266605E+00
        -11   -1    0    0    0    0  0.00000000000E+00  0.00000000000E+00  0.45593999997E+02  0.45594000000E+02  0.51100000000E-03 0. -1.
         11   -1    0    0    0    0 -0.00000000000E+00 -0.00000000000E+00 -0.45593999997E+02  0.45594000000E+02  0.51100000000E-03 0.  1.
    9900012    2    1    2    0    0 -0.22905825777E+02 -0.15883553603E+02  0.15484122389E+02  0.59301918777E+02  0.49999953948E+02 0.  0.
        -12    1    1    2    0    0  0.22905825777E+02  0.15883553603E+02 -0.15484122389E+02  0.31886081223E+02  0.00000000000E+00 0.  1.
         11    1    3    3    0    0  0.15592397773E+02 -0.85458466653E+01  0.49108399815E+01  0.18446428194E+02  0.51100000000E-03 0. -1.
        -11    1    3    3    0    0 -0.20726855519E+02 -0.18811640468E+01  0.67208174720E+01  0.21870315627E+02  0.51100000000E-03 0.  1.
         12    1    3    3    0    0 -0.17771368031E+02 -0.54565428912E+01  0.38524649358E+01  0.18985174956E+02  0.00000000000E+00 0. -1.
</event>
<event>
 7    1  0.1052674E-011  0.5930195E+02  0.7816164E-02  0.1266605E+00
        -11   -1    0    0    0    0  0.00000000000E+00  0.00000000000E+00  0.45593999997E+02  0.45594000000E+02  0.51100000000E-03 0. -1.
         11   -1    0    0    0    0 -0.00000000000E+00 -0.00000000000E+00 -0.45593999997E+02  0.45594000000E+02  0.51100000000E-03 0.  1.
    9900012    2    1    2    0    0 -0.26527548316E+02  0.19348389182E+01  0.17585950764E+02  0.59301951553E+02  0.50000013725E+02 0.  0.
        -12    1    1    2    0    0  0.26527548316E+02 -0.19348389182E+01 -0.17585950764E+02  0.31886048447E+02  0.00000000000E+00 0.  1.
         11    1    3    3    0    0 -0.22310803157E+01 -0.19624703703E+01  0.18198634369E+02  0.18439612319E+02  0.51100000000E-03 0. -1.
        -11    1    3    3    0    0 -0.22550121692E+02  0.18844520780E+00 -0.14213955268E+02  0.26656706934E+02  0.51100000000E-03 0.  1.
        -12    1    3    3    0    0 -0.17463463074E+01  0.37088640807E+01  0.13601271663E+02  0.14205632300E+02  0.00000000000E+00 0.  1.
</event>
<event>
 7    1  0.1052674E-011  0.5930192E+02  0.7816164E-02  0.1266605E+00
        -11   -1    0    0    0    0  0.00000000000E+00  0.00000000000E+00  0.45593999997E+02  0.45594000000E+02  0.51100000000E-03 0. -1.
         11   -1    0    0    0    0 -0.00000000000E+00 -0.00000000000E+00 -0.45593999997E+02  0.45594000000E+02  0.51100000000E-03 0.  1.
    9900012    2    1    2    0    0 -0.10249606678E+02  0.29066786168E+02  0.81724839494E+01  0.59301921704E+02  0.49999959288E+02 0.  0.
        -12    1    1    2    0    0  0.10249606678E+02 -0.29066786168E+02 -0.81724839494E+01  0.31886078296E+02  0.00000000000E+00 0.  1.
         11    1    3    3    0    0 -0.62774882049E+01  0.29912928123E+02  0.50029804838E+01  0.30971276064E+02  0.51100000000E-03 0. -1.
        -11    1    3    3    0    0 -0.67747059027E+01 -0.85166126777E+00 -0.11511683076E+02  0.13384349610E+02  0.51100000000E-03 0.  1.
        -12    1    3    3    0    0  0.28025874297E+01  0.55193122610E-02  0.14681186541E+02  0.14946296030E+02  0.00000000000E+00 0.  1.
</event>
<event>
 7    1  0.1052674E-011  0.5930196E+02  0.7816164E-02  0.1266605E+00
        -11   -1    0    0    0    0  0.00000000000E+00  0.00000000000E+00  0.45593999997E+02  0.45594000000E+02  0.51100000000E-03 0.  1.
         11   -1    0    0    0    0 -0.00000000000E+00 -0.00000000000E+00 -0.45593999997E+02  0.45594000000E+02  0.51100000000E-03 0. -1.
    9900012    2    1    2    0    0  0.28758787368E+02 -0.41839061852E+01 -0.13120466327E+02  0.59301959818E+02  0.50000028798E+02 0.  0.
        -12    1    1    2    0    0 -0.28758787368E+02  0.41839061852E+01  0.13120466327E+02  0.31886040182E+02  0.00000000000E+00 0.  1.
         11    1    3    3    0    0  0.73119027708E+01 -0.26427188777E-01 -0.93508587068E+01  0.11870264502E+02  0.51100000000E-03 0. -1.
        -11    1    3    3    0    0  0.26866234904E+02 -0.11075166901E+02  0.10310422841E+02  0.30834375609E+02  0.51100000000E-03 0.  1.
        -12    1    3    3    0    0 -0.54193503064E+01  0.69176879044E+01 -0.14080030461E+02  0.16597319708E+02  0.00000000000E+00 0.  1.
</event>
<event>
 7    1  0.1052674E-011  0.5930195E+02  0.7816164E-02  0.1266605E+00
        -11   -1    0    0    0    0  0.00000000000E+00  0.00000000000E+00  0.45593999997E+02  0.45594000000E+02  0.51100000000E-03 0. -1.
         11   -1    0    0    0    0 -0.00000000000E+00 -0.00000000000E+00 -0.45593999997E+02  0.45594000000E+02  0.51100000000E-03 0.  1.
    9900012    2    1    2    0    0 -0.31181406070E+02  0.44705485392E+01  0.49451264463E+01  0.59301950318E+02  0.50000011473E+02 0.  0.
        -12    1    1    2    0    0  0.31181406070E+02 -0.44705485392E+01 -0.49451264463E+01  0.31886049682E+02  0.00000000000E+00 0.  1.
         11    1    3    3    0    0 -0.16391382953E+02  0.11021704213E+02  0.15692293681E+01  0.19814587555E+02  0.51100000000E-03 0. -1.
        -11    1    3    3    0    0 -0.20379916721E+01 -0.17276447186E+02 -0.81661354774E+01  0.19217565047E+02  0.51100000000E-03 0.  1.
        -12    1    3    3    0    0 -0.12752031444E+02  0.10725291512E+02  0.11542032556E+02  0.20269797717E+02  0.00000000000E+00 0.  1.
</event>
<event>
 7    1  0.1052674E-011  0.5930195E+02  0.7816164E-02  0.1266605E+00
        -11   -1    0    0    0    0  0.00000000000E+00  0.00000000000E+00  0.45593999997E+02  0.45594000000E+02  0.51100000000E-03 0.  1.
         11   -1    0    0    0    0 -0.00000000000E+00 -0.00000000000E+00 -0.45593999997E+02  0.45594000000E+02  0.51100000000E-03 0. -1.
    9900012    2    1    2    0    0  0.23850427500E+01  0.21920788283E+02 -0.23032821712E+02  0.59301948757E+02  0.50000008625E+02 0.  0.
        -12    1    1    2    0    0 -0.23850427500E+01 -0.21920788283E+02  0.23032821712E+02  0.31886051243E+02  0.00000000000E+00 0.  1.
         11    1    3    3    0    0 -0.91885468179E+01  0.81942034320E+01  0.91216729061E+00  0.12345299184E+02  0.51100000000E-03 0. -1.
        -11    1    3    3    0    0  0.96580265600E+01 -0.32722473601E+00 -0.30012280997E+02  0.31529693369E+02  0.51100000000E-03 0.  1.
        -12    1    3    3    0    0  0.19155630079E+01  0.14053809587E+02  0.60672919949E+01  0.15426956204E+02  0.00000000000E+00 0.  1.
</event>
<event>
 7    1  0.1232277E-011  0.5930194E+02  0.7816164E-02  0.1266605E+00
        -11   -1    0    0    0    0  0.00000000000E+00  0.00000000000E+00  0.45593999997E+02  0.45594000000E+02  0.51100000000E-03 0.  1.
         11   -1    0    0    0    0 -0.00000000000E+00 -0.00000000000E+00 -0.45593999997E+02  0.45594000000E+02  0.51100000000E-03 0. -1.
    9900012    2    1    2    0    0 -0.30515606736E+02 -0.68191074963E+01 -0.62464522989E+01  0.59301942736E+02  0.49999997644E+02 0.  0.
        -12    1    1    2    0    0  0.30515606736E+02  0.68191074963E+01  0.62464522989E+01  0.31886057264E+02  0.00000000000E+00 0.  1.
         11    1    3    3    0    0 -0.17359386699E+02 -0.36433017578E+01 -0.23409970593E+02  0.29370881459E+02  0.51100000000E-03 0. -1.
        -11    1    3    3    0    0  0.38355416195E+01 -0.50225893479E+01  0.89807851902E+01  0.10981451915E+02  0.51100000000E-03 0.  1.
         12    1    3    3    0    0 -0.16991761657E+02  0.18467836093E+01  0.81827331044E+01  0.18949609362E+02  0.00000000000E+00 0. -1.
</event>
<event>
 7    1  0.1052674E-011  0.5930194E+02  0.7816164E-02  0.1266605E+00
        -11   -1    0    0    0    0  0.00000000000E+00  0.00000000000E+00  0.45593999997E+02  0.45594000000E+02  0.51100000000E-03 0.  1.
         11   -1    0    0    0    0 -0.00000000000E+00 -0.00000000000E+00 -0.45593999997E+02  0.45594000000E+02  0.51100000000E-03 0. -1.
    9900012    2    1    2    0    0  0.89216339124E+01 -0.30272262139E+02  0.45514470108E+01  0.59301936013E+02  0.49999985383E+02 0.  0.
        -12    1    1    2    0    0 -0.89216339124E+01  0.30272262139E+02 -0.45514470108E+01  0.31886063987E+02  0.00000000000E+00 0.  1.
         11    1    3    3    0    0  0.48473821844E+01 -0.70603998429E+00 -0.38079437537E+01  0.62045179018E+01  0.51100000000E-03 0. -1.
        -11    1    3    3    0    0 -0.81808319481E+01 -0.25385750004E+01  0.19579285960E+02  0.21370980636E+02  0.51100000000E-03 0.  1.
        -12    1    3    3    0    0  0.12255083676E+02 -0.27027647155E+02 -0.11219895196E+02  0.31726437475E+02  0.00000000000E+00 0.  1.
</event>
<event>
 7    1  0.1052674E-011  0.5930194E+02  0.7816164E-02  0.1266605E+00
        -11   -1    0    0    0    0  0.00000000000E+00  0.00000000000E+00  0.45593999997E+02  0.45594000000E+02  0.51100000000E-03 0.  1.
         11   -1    0    0    0    0 -0.00000000000E+00 -0.00000000000E+00 -0.45593999997E+02  0.45594000000E+02  0.51100000000E-03 0. -1.
    9900012    2    1    2    0    0 -0.30703322005E+02  0.61677471065E+01 -0.59988207369E+01  0.59301938206E+02  0.49999989382E+02 0.  0.
        -12    1    1    2    0    0  0.30703322005E+02 -0.61677471065E+01  0.59988207369E+01  0.31886061794E+02  0.00000000000E+00 0.  1.
         11    1    3    3    0    0 -0.12032622246E+01  0.12461147982E+02  0.31177549204E+01  0.12901490031E+02  0.51100000000E-03 0. -1.
        -11    1    3    3    0    0 -0.25491949679E+02  0.59813022540E+01 -0.17049449044E+02  0.31245786724E+02  0.51100000000E-03 0.  1.
        -12    1    3    3    0    0 -0.40081101017E+01 -0.12274703130E+02  0.79328733864E+01  0.15154661450E+02  0.00000000000E+00 0.  1.
</event>
<event>
 7    1  0.1052674E-011  0.5930195E+02  0.7816164E-02  0.1266605E+00
        -11   -1    0    0    0    0  0.00000000000E+00  0.00000000000E+00  0.45593999997E+02  0.45594000000E+02  0.51100000000E-03 0.  1.
         11   -1    0    0    0    0 -0.00000000000E+00 -0.00000000000E+00 -0.45593999997E+02  0.45594000000E+02  0.51100000000E-03 0. -1.
    9900012    2    1    2    0    0 -0.54766908500E+01  0.24074757856E+02 -0.20177517254E+02  0.59301948018E+02  0.50000007277E+02 0.  0.
        -12    1    1    2    0    0  0.54766908500E+01 -0.24074757856E+02  0.20177517254E+02  0.31886051982E+02  0.00000000000E+00 0.  1.
         11    1    3    3    0    0 -0.20106741594E+02  0.84500662795E+01 -0.17604180466E+02  0.28028411439E+02  0.51100000000E-03 0. -1.
        -11    1    3    3    0    0  0.48875482833E+01 -0.44216299443E+01  0.43943569409E+01  0.79214463813E+01  0.51100000000E-03 0.  1.
        -12    1    3    3    0    0  0.97425024606E+01  0.20046321520E+02 -0.69676937283E+01  0.23352090197E+02  0.00000000000E+00 0.  1.
</event>
<event>
 7    1  0.1052674E-011  0.5930180E+02  0.7816164E-02  0.1266605E+00
        -11   -1    0    0    0    0  0.00000000000E+00  0.00000000000E+00  0.45593999997E+02  0.45594000000E+02  0.51100000000E-03 0.  1.
         11   -1    0    0    0    0 -0.00000000000E+00 -0.00000000000E+00 -0.45593999997E+02  0.45594000000E+02  0.51100000000E-03 0. -1.
    9900012    2    1    2    0    0 -0.21734355950E+01 -0.19386391047E+02 -0.25222484621E+02  0.59301800625E+02  0.49999738468E+02 0.  0.
        -12    1    1    2    0    0  0.21734355950E+01  0.19386391047E+02  0.25222484621E+02  0.31886199375E+02  0.00000000000E+00 0.  1.
         11    1    3    3    0    0  0.10185318739E+02 -0.30925803918E+01 -0.69389294043E+01  0.12706435883E+02  0.51100000000E-03 0. -1.
        -11    1    3    3    0    0 -0.18194258183E+02 -0.12315915739E+02 -0.27363414062E+02  0.35092296031E+02  0.51100000000E-03 0.  1.
        -12    1    3    3    0    0  0.58355038488E+01 -0.39778949167E+01  0.90798588455E+01  0.11503068712E+02  0.00000000000E+00 0.  1.
</event>
<event>
 7    1  0.1052674E-011  0.5930196E+02  0.7816164E-02  0.1266605E+00
        -11   -1    0    0    0    0  0.00000000000E+00  0.00000000000E+00  0.45593999997E+02  0.45594000000E+02  0.51100000000E-03 0. -1.
         11   -1    0    0    0    0 -0.00000000000E+00 -0.00000000000E+00 -0.45593999997E+02  0.45594000000E+02  0.51100000000E-03 0.  1.
    9900012    2    1    2    0    0  0.23624587728E+02  0.14619501505E+02  0.15648281073E+02  0.59301958068E+02  0.50000025606E+02 0.  0.
        -12    1    1    2    0    0 -0.23624587728E+02 -0.14619501505E+02 -0.15648281073E+02  0.31886041932E+02  0.00000000000E+00 0.  1.
         11    1    3    3    0    0  0.10422523958E+02 -0.11345235376E+01  0.22253270621E+02  0.24599272406E+02  0.51100000000E-03 0. -1.
        -11    1    3    3    0    0 -0.91260817124E+00 -0.29025574498E+01 -0.10548337957E+02  0.10978393660E+02  0.51100000000E-03 0.  1.
        -12    1    3    3    0    0  0.14114671941E+02  0.18656582493E+02  0.39433484087E+01  0.23724292002E+02  0.00000000000E+00 0.  1.
</event>
<event>
 7    1  0.1052674E-011  0.5930187E+02  0.7816164E-02  0.1266605E+00
        -11   -1    0    0    0    0  0.00000000000E+00  0.00000000000E+00  0.45593999997E+02  0.45594000000E+02  0.51100000000E-03 0.  1.
         11   -1    0    0    0    0 -0.00000000000E+00 -0.00000000000E+00 -0.45593999997E+02  0.45594000000E+02  0.51100000000E-03 0. -1.
    9900012    2    1    2    0    0  0.22973794177E+02  0.19006958182E+02 -0.11298923997E+02  0.59301868818E+02  0.49999862836E+02 0.  0.
        -12    1    1    2    0    0 -0.22973794177E+02 -0.19006958182E+02  0.11298923997E+02  0.31886131182E+02  0.00000000000E+00 0.  1.
         11    1    3    3    0    0  0.23489608498E+02  0.12172497059E+02  0.12958434353E+02  0.29459334908E+02  0.51100000000E-03 0. -1.
        -11    1    3    3    0    0 -0.71938032279E+01  0.43775910953E-01 -0.65153088857E+01  0.97057700029E+01  0.51100000000E-03 0.  1.
         12    1    3    3    0    0  0.66779889069E+01  0.67906852116E+01 -0.17742049464E+02  0.20136763908E+02  0.00000000000E+00 0. -1.
</event>
<event>
 7    1  0.1052674E-011  0.5930195E+02  0.7816164E-02  0.1266605E+00
        -11   -1    0    0    0    0  0.00000000000E+00  0.00000000000E+00  0.45593999997E+02  0.45594000000E+02  0.51100000000E-03 0.  1.
         11   -1    0    0    0    0 -0.00000000000E+00 -0.00000000000E+00 -0.45593999997E+02  0.45594000000E+02  0.51100000000E-03 0. -1.
    9900012    2    1    2    0    0 -0.20055744207E+02 -0.13863858588E+02 -0.20549467093E+02  0.59301952135E+02  0.50000014785E+02 0.  0.
        -12    1    1    2    0    0  0.20055744207E+02  0.13863858588E+02  0.20549467093E+02  0.31886047865E+02  0.00000000000E+00 0.  1.
         11    1    3    3    0    0 -0.11902395892E+02 -0.19996816357E+01 -0.85210464009E+00  0.12099249448E+02  0.51100000000E-03 0. -1.
        -11    1    3    3    0    0  0.14141046854E+02  0.43158281173E+01 -0.10600995196E+02  0.18192764437E+02  0.51100000000E-03 0.  1.
        -12    1    3    3    0    0 -0.22294395169E+02 -0.16180005070E+02 -0.90963672567E+01  0.29009938250E+02  0.00000000000E+00 0.  1.
</event>
<event>
 7    1  0.1052674E-011  0.5930193E+02  0.7816164E-02  0.1266605E+00
        -11   -1    0    0    0    0  0.00000000000E+00  0.00000000000E+00  0.45593999997E+02  0.45594000000E+02  0.51100000000E-03 0.  1.
         11   -1    0    0    0    0 -0.00000000000E+00 -0.00000000000E+00 -0.45593999997E+02  0.45594000000E+02  0.51100000000E-03 0. -1.
    9900012    2    1    2    0    0  0.11697907072E+02  0.16452816336E+02 -0.24681679931E+02  0.59301929068E+02  0.49999972717E+02 0.  0.
        -12    1    1    2    0    0 -0.11697907072E+02 -0.16452816336E+02  0.24681679931E+02  0.31886070932E+02  0.00000000000E+00 0.  1.
         11    1    3    3    0    0  0.23027674575E+01  0.52653023984E+00 -0.36937053659E+02  0.37012510119E+02  0.51100000000E-03 0. -1.
        -11    1    3    3    0    0  0.63035790365E+01  0.89155525050E+01  0.65076430038E+01  0.12711081892E+02  0.51100000000E-03 0.  1.
         12    1    3    3    0    0  0.30915605781E+01  0.70107335911E+01  0.57477307241E+01  0.95783370566E+01  0.00000000000E+00 0. -1.
</event>
<event>
 7    1  0.1052674E-011  0.5930197E+02  0.7816164E-02  0.1266605E+00
        -11   -1    0    0    0    0  0.00000000000E+00  0.00000000000E+00  0.45593999997E+02  0.45594000000E+02  0.51100000000E-03 0.  1.
         11   -1    0    0    0    0 -0.00000000000E+00 -0.00000000000E+00 -0.45593999997E+02  0.45594000000E+02  0.51100000000E-03 0. -1.
    9900012    2    1    2    0    0 -0.12030330291E+02  0.29527919331E+02  0.30390940412E+00  0.59301965002E+02  0.50000038253E+02 0.  0.
        -12    1    1    2    0    0  0.12030330291E+02 -0.29527919331E+02 -0.30390940412E+00  0.31886034998E+02  0.00000000000E+00 0.  1.
         11    1    3    3    0    0 -0.69232369861E+01  0.26818220330E+02 -0.68626995828E+01  0.28534974993E+02  0.51100000000E-03 0. -1.
        -11    1    3    3    0    0  0.32403154320E+00 -0.11836891309E+02  0.93488108238E+01  0.15086989639E+02  0.51100000000E-03 0.  1.
        -12    1    3    3    0    0 -0.54311248476E+01  0.14546590310E+02 -0.21822018368E+01  0.15680000370E+02  0.00000000000E+00 0.  1.
</event>
<event>
 7    1  0.1052674E-011  0.5930197E+02  0.7816164E-02  0.1266605E+00
        -11   -1    0    0    0    0  0.00000000000E+00  0.00000000000E+00  0.45593999997E+02  0.45594000000E+02  0.51100000000E-03 0.  1.
         11   -1    0    0    0    0 -0.00000000000E+00 -0.00000000000E+00 -0.45593999997E+02  0.45594000000E+02  0.51100000000E-03 0. -1.
    9900012    2    1    2    0    0 -0.75284465419E+01  0.13894588635E+02 -0.27694438197E+02  0.59301968455E+02  0.50000044549E+02 0.  0.
        -12    1    1    2    0    0  0.75284465419E+01 -0.13894588635E+02  0.27694438197E+02  0.31886031545E+02  0.00000000000E+00 0.  1.
         11    1    3    3    0    0 -0.61182973380E+01  0.14641451463E+02 -0.19089836430E+02  0.24823930359E+02  0.51100000000E-03 0. -1.
        -11    1    3    3    0    0 -0.73046142827E+01 -0.13533594068E+02  0.36564737342E+01  0.15807762607E+02  0.51100000000E-03 0.  1.
        -12    1    3    3    0    0  0.58944650788E+01  0.12786731240E+02 -0.12261075501E+02  0.18670275488E+02  0.00000000000E+00 0.  1.
</event>
<event>
 7    1  0.1052674E-011  0.5930195E+02  0.7816164E-02  0.1266605E+00
        -11   -1    0    0    0    0  0.00000000000E+00  0.00000000000E+00  0.45593999997E+02  0.45594000000E+02  0.51100000000E-03 0. -1.
         11   -1    0    0    0    0 -0.00000000000E+00 -0.00000000000E+00 -0.45593999997E+02  0.45594000000E+02  0.51100000000E-03 0.  1.
    9900012    2    1    2    0    0 -0.30849186350E+02 -0.83618465643E+00  0.80217771572E+01  0.59301946434E+02  0.50000004388E+02 0.  0.
        -12    1    1    2    0    0  0.30849186350E+02  0.83618465643E+00 -0.80217771572E+01  0.31886053566E+02  0.00000000000E+00 0.  1.
         11    1    3    3    0    0  0.89515841408E+01  0.43320530364E+01  0.33480430841E+01  0.10493185164E+02  0.51100000000E-03 0. -1.
        -11    1    3    3    0    0 -0.30482967669E+02  0.29651436895E+01 -0.74174250933E+01  0.31512245084E+02  0.51100000000E-03 0.  1.
         12    1    3    3    0    0 -0.93178028226E+01 -0.81333813824E+01  0.12091159166E+02  0.17296516185E+02  0.00000000000E+00 0. -1.
</event>
<event>
 7    1  0.1052674E-011  0.5930194E+02  0.7816164E-02  0.1266605E+00
        -11   -1    0    0    0    0  0.00000000000E+00  0.00000000000E+00  0.45593999997E+02  0.45594000000E+02  0.51100000000E-03 0. -1.
         11   -1    0    0    0    0 -0.00000000000E+00 -0.00000000000E+00 -0.45593999997E+02  0.45594000000E+02  0.51100000000E-03 0.  1.
    9900012    2    1    2    0    0 -0.14548244275E+02 -0.84719316330E+01  0.27079430534E+02  0.59301943562E+02  0.49999999151E+02 0.  0.
        -12    1    1    2    0    0  0.14548244275E+02  0.84719316330E+01 -0.27079430534E+02  0.31886056438E+02  0.00000000000E+00 0.  1.
         11    1    3    3    0    0 -0.27041712329E+02 -0.37058623345E+01  0.19407666868E+02  0.33490971244E+02  0.51100000000E-03 0. -1.
        -11    1    3    3    0    0  0.12963469550E+02 -0.71450086416E+01 -0.27978367567E+01  0.15064215281E+02  0.51100000000E-03 0.  1.
        -12    1    3    3    0    0 -0.47000149509E+00  0.23789393431E+01  0.10469600423E+02  0.10746757038E+02  0.00000000000E+00 0.  1.
</event>
<event>
 7    1  0.1052674E-011  0.5930196E+02  0.7816164E-02  0.1266605E+00
        -11   -1    0    0    0    0  0.00000000000E+00  0.00000000000E+00  0.45593999997E+02  0.45594000000E+02  0.51100000000E-03 0.  1.
         11   -1    0    0    0    0 -0.00000000000E+00 -0.00000000000E+00 -0.45593999997E+02  0.45594000000E+02  0.51100000000E-03 0. -1.
    9900012    2    1    2    0    0 -0.63729354327E+01 -0.29775229441E+02 -0.94626072479E+01  0.59301960261E+02  0.50000029606E+02 0.  0.
        -12    1    1    2    0    0  0.63729354327E+01  0.29775229441E+02  0.94626072479E+01  0.31886039739E+02  0.00000000000E+00 0.  1.
         11    1    3    3    0    0  0.28259267654E+01 -0.20389499069E+02 -0.17233390812E+02  0.26845992131E+02  0.51100000000E-03 0. -1.
        -11    1    3    3    0    0 -0.45808077697E+01  0.98823275337E+01 -0.68375220408E+00  0.10913831346E+02  0.51100000000E-03 0.  1.
        -12    1    3    3    0    0 -0.46180544284E+01 -0.19268057906E+02  0.84545357681E+01  0.21542136784E+02  0.00000000000E+00 0.  1.
</event>
<event>
 7    1  0.1052674E-011  0.5930194E+02  0.7816164E-02  0.1266605E+00
        -11   -1    0    0    0    0  0.00000000000E+00  0.00000000000E+00  0.45593999997E+02  0.45594000000E+02  0.51100000000E-03 0.  1.
         11   -1    0    0    0    0 -0.00000000000E+00 -0.00000000000E+00 -0.45593999997E+02  0.45594000000E+02  0.51100000000E-03 0. -1.
    9900012    2    1    2    0    0  0.12808125696E+02  0.10875312177E+02 -0.27099815970E+02  0.59301944672E+02  0.50000001175E+02 0.  0.
        -12    1    1    2    0    0 -0.12808125696E+02 -0.10875312177E+02  0.27099815970E+02  0.31886055328E+02  0.00000000000E+00 0.  1.
         11    1    3    3    0    0 -0.35803461374E+01  0.29731268589E+01 -0.15049300742E+02  0.15752454249E+02  0.51100000000E-03 0. -1.
        -11    1    3    3    0    0  0.93446998850E+01 -0.50956240614E+01  0.11546540553E+02  0.15703865751E+02  0.51100000000E-03 0.  1.
        -12    1    3    3    0    0  0.70437719481E+01  0.12997809379E+02 -0.23597055781E+02  0.27845624673E+02  0.00000000000E+00 0.  1.
</event>
<event>
 7    1  0.1052674E-011  0.5930193E+02  0.7816164E-02  0.1266605E+00
        -11   -1    0    0    0    0  0.00000000000E+00  0.00000000000E+00  0.45593999997E+02  0.45594000000E+02  0.51100000000E-03 0.  1.
         11   -1    0    0    0    0 -0.00000000000E+00 -0.00000000000E+00 -0.45593999997E+02  0.45594000000E+02  0.51100000000E-03 0. -1.
    9900012    2    1    2    0    0 -0.29816439722E+01 -0.11669140685E+02 -0.29523930398E+02  0.59301929197E+02  0.49999972952E+02 0.  0.
        -12    1    1    2    0    0  0.29816439722E+01  0.11669140685E+02  0.29523930398E+02  0.31886070803E+02  0.00000000000E+00 0.  1.
         11    1    3    3    0    0 -0.13622989051E+02  0.12938651670E+02 -0.84503300059E+01  0.20601034323E+02  0.51100000000E-03 0. -1.
        -11    1    3    3    0    0  0.12996869205E+02 -0.11007504313E+02 -0.17549296670E+02  0.24455297467E+02  0.51100000000E-03 0.  1.
         12    1    3    3    0    0 -0.23555241265E+01 -0.13600288042E+02 -0.35243037225E+01  0.14245597406E+02  0.00000000000E+00 0. -1.
</event>
<event>
 7    1  0.1052674E-011  0.5930191E+02  0.7816164E-02  0.1266605E+00
        -11   -1    0    0    0    0  0.00000000000E+00  0.00000000000E+00  0.45593999997E+02  0.45594000000E+02  0.51100000000E-03 0.  1.
         11   -1    0    0    0    0 -0.00000000000E+00 -0.00000000000E+00 -0.45593999997E+02  0.45594000000E+02  0.51100000000E-03 0. -1.
    9900012    2    1    2    0    0 -0.37979696969E+01 -0.19554488094E+02 -0.24898200318E+02  0.59301906518E+02  0.49999931592E+02 0.  0.
        -12    1    1    2    0    0  0.37979696969E+01  0.19554488094E+02  0.24898200318E+02  0.31886093482E+02  0.00000000000E+00 0.  1.
         11    1    3    3    0    0 -0.22299745918E+00 -0.19819522111E+02 -0.21140665803E+02  0.28979146561E+02  0.51100000000E-03 0. -1.
        -11    1    3    3    0    0  0.23142177373E+01  0.10474368486E+02 -0.11881942285E+02  0.16007765355E+02  0.51100000000E-03 0.  1.
         12    1    3    3    0    0 -0.58891899750E+01 -0.10209334469E+02  0.81244077698E+01  0.14314994603E+02  0.00000000000E+00 0. -1.
</event>
<event>
 7    1  0.1052674E-011  0.5930193E+02  0.7816164E-02  0.1266605E+00
        -11   -1    0    0    0    0  0.00000000000E+00  0.00000000000E+00  0.45593999997E+02  0.45594000000E+02  0.51100000000E-03 0.  1.
         11   -1    0    0    0    0 -0.00000000000E+00 -0.00000000000E+00 -0.45593999997E+02  0.45594000000E+02  0.51100000000E-03 0. -1.
    9900012    2    1    2    0    0 -0.15530266133E+02  0.80022801855E+01 -0.26673874104E+02  0.59301933858E+02  0.49999981452E+02 0.  0.
        -12    1    1    2    0    0  0.15530266133E+02 -0.80022801855E+01  0.26673874104E+02  0.31886066142E+02  0.00000000000E+00 0.  1.
         11    1    3    3    0    0  0.22896495061E+01 -0.11086459112E+02 -0.16836344847E+02  0.20288286733E+02  0.51100000000E-03 0. -1.
        -11    1    3    3    0    0 -0.10163475969E+02  0.61679378868E+01  0.90076970205E+01  0.14915706736E+02  0.51100000000E-03 0.  1.
        -12    1    3    3    0    0 -0.76564396699E+01  0.12920801411E+02 -0.18845226278E+02  0.24097940389E+02  0.00000000000E+00 0.  1.
</event>
<event>
 7    1  0.1292636E-011  0.5930195E+02  0.7816164E-02  0.1266605E+00
        -11   -1    0    0    0    0  0.00000000000E+00  0.00000000000E+00  0.45593999997E+02  0.45594000000E+02  0.51100000000E-03 0.  1.
         11   -1    0    0    0    0 -0.00000000000E+00 -0.00000000000E+00 -0.45593999997E+02  0.45594000000E+02  0.51100000000E-03 0. -1.
    9900012    2    1    2    0    0  0.11205737967E+02 -0.19713777200E+02 -0.22416931182E+02  0.59301946960E+02  0.50000005347E+02 0.  0.
        -12    1    1    2    0    0 -0.11205737967E+02  0.19713777200E+02  0.22416931182E+02  0.31886053040E+02  0.00000000000E+00 0.  1.
         11    1    3    3    0    0 -0.11514414331E+02  0.51192487739E+01 -0.48587784440E+01  0.13505412752E+02  0.51100000000E-03 0.  1.
        -11    1    3    3    0    0  0.11068060081E+02 -0.20504977774E+02  0.11564795862E+01  0.23330098859E+02  0.51100000000E-03 0. -1.
         12    1    3    3    0    0  0.11652092217E+02 -0.43280482007E+01 -0.18714632324E+02  0.22466435349E+02  0.00000000000E+00 0. -1.
</event>
<event>
 7    1  0.1052674E-011  0.5930195E+02  0.7816164E-02  0.1266605E+00
        -11   -1    0    0    0    0  0.00000000000E+00  0.00000000000E+00  0.45593999997E+02  0.45594000000E+02  0.51100000000E-03 0.  1.
         11   -1    0    0    0    0 -0.00000000000E+00 -0.00000000000E+00 -0.45593999997E+02  0.45594000000E+02  0.51100000000E-03 0. -1.
    9900012    2    1    2    0    0 -0.18375623958E+02  0.10215009463E+02 -0.23973112259E+02  0.59301951554E+02  0.50000013726E+02 0.  0.
        -12    1    1    2    0    0  0.18375623958E+02 -0.10215009463E+02  0.23973112259E+02  0.31886048446E+02  0.00000000000E+00 0.  1.
         11    1    3    3    0    0  0.51070704536E+01 -0.68387229711E+01 -0.27081642975E+02  0.28394817960E+02  0.51100000000E-03 0. -1.
        -11    1    3    3    0    0 -0.13940531502E+01 -0.12738508405E+01  0.97663567134E+00  0.21260050906E+01  0.51100000000E-03 0.  1.
         12    1    3    3    0    0 -0.22088641261E+02  0.18327583274E+02  0.21318950450E+01  0.28781128503E+02  0.00000000000E+00 0. -1.
</event>
<event>
 7    1  0.1052674E-011  0.5930196E+02  0.7816164E-02  0.1266605E+00
        -11   -1    0    0    0    0  0.00000000000E+00  0.00000000000E+00  0.45593999997E+02  0.45594000000E+02  0.51100000000E-03 0.  1.
         11   -1    0    0    0    0 -0.00000000000E+00 -0.00000000000E+00 -0.45593999997E+02  0.45594000000E+02  0.51100000000E-03 0. -1.
    9900012    2    1    2    0    0 -0.16033850955E+02  0.25913053307E+02 -0.93887582061E+01  0.59301960911E+02  0.50000030790E+02 0.  0.
        -12    1    1    2    0    0  0.16033850955E+02 -0.25913053307E+02  0.93887582061E+01  0.31886039089E+02  0.00000000000E+00 0.  1.
         11    1    3    3    0    0 -0.48179206239E+01 -0.93432727091E+01  0.94685201477E+01  0.14147861255E+02  0.51100000000E-03 0. -1.
        -11    1    3    3    0    0 -0.66973107903E+01  0.25264859052E+02 -0.36285467177E+01  0.26388130405E+02  0.51100000000E-03 0.  1.
         12    1    3    3    0    0 -0.45186195409E+01  0.99914669648E+01 -0.15228731636E+02  0.18765969250E+02  0.00000000000E+00 0. -1.
</event>
<event>
 7    1  0.1052674E-011  0.5930229E+02  0.7816164E-02  0.1266604E+00
        -11   -1    0    0    0    0  0.00000000000E+00  0.00000000000E+00  0.45593999997E+02  0.45594000000E+02  0.51100000000E-03 0.  1.
         11   -1    0    0    0    0 -0.00000000000E+00 -0.00000000000E+00 -0.45593999997E+02  0.45594000000E+02  0.51100000000E-03 0. -1.
    9900012    2    1    2    0    0  0.70163889855E+01 -0.26301083346E+02 -0.16604867823E+02  0.59302292622E+02  0.50000635748E+02 0.  0.
        -12    1    1    2    0    0 -0.70163889855E+01  0.26301083346E+02  0.16604867823E+02  0.31885707378E+02  0.00000000000E+00 0.  1.
         11    1    3    3    0    0  0.90799062140E+01  0.31204910191E+01 -0.20812309851E+02  0.22920174577E+02  0.51100000000E-03 0. -1.
        -11    1    3    3    0    0 -0.10560665505E+02 -0.21918977773E+02  0.11520373740E+00  0.24330690797E+02  0.51100000000E-03 0.  1.
         12    1    3    3    0    0  0.84971482763E+01 -0.75025965929E+01  0.40922382906E+01  0.12051427247E+02  0.00000000000E+00 0. -1.
</event>
<event>
 7    1  0.1052674E-011  0.5930171E+02  0.7816164E-02  0.1266606E+00
        -11   -1    0    0    0    0  0.00000000000E+00  0.00000000000E+00  0.45593999997E+02  0.45594000000E+02  0.51100000000E-03 0. -1.
         11   -1    0    0    0    0 -0.00000000000E+00 -0.00000000000E+00 -0.45593999997E+02  0.45594000000E+02  0.51100000000E-03 0.  1.
    9900012    2    1    2    0    0  0.34947136866E+01 -0.30465682831E+02  0.87387014464E+01  0.59301705811E+02  0.49999565549E+02 0.  0.
        -12    1    1    2    0    0 -0.34947136866E+01  0.30465682831E+02 -0.87387014464E+01  0.31886294189E+02  0.00000000000E+00 0.  1.
         11    1    3    3    0    0  0.17426975375E+01 -0.27641857961E+02  0.29228364134E+01  0.27850534631E+02  0.51100000000E-03 0. -1.
        -11    1    3    3    0    0 -0.37510400869E+01  0.22386702553E+00  0.17651825943E+02  0.18047364837E+02  0.51100000000E-03 0.  1.
         12    1    3    3    0    0  0.55030562361E+01 -0.30476918953E+01 -0.11835960910E+02  0.13403806343E+02  0.00000000000E+00 0. -1.
</event>
<event>
 7    1  0.1052674E-011  0.5930202E+02  0.7816164E-02  0.1266605E+00
        -11   -1    0    0    0    0  0.00000000000E+00  0.00000000000E+00  0.45593999997E+02  0.45594000000E+02  0.51100000000E-03 0.  1.
         11   -1    0    0    0    0 -0.00000000000E+00 -0.00000000000E+00 -0.45593999997E+02  0.45594000000E+02  0.51100000000E-03 0. -1.
    9900012    2    1    2    0    0  0.10285680872E+02  0.27370013278E+02 -0.12720184091E+02  0.59302016542E+02  0.50000132248E+02 0.  0.
        -12    1    1    2    0    0 -0.10285680872E+02 -0.27370013278E+02  0.12720184091E+02  0.31885983458E+02  0.00000000000E+00 0.  1.
         11    1    3    3    0    0  0.12680967607E+02  0.13017216088E+02  0.87602202059E+01  0.20174149609E+02  0.51100000000E-03 0. -1.
        -11    1    3    3    0    0 -0.14466643554E+02  0.54400166972E+01 -0.37572963354E+01  0.15905811309E+02  0.51100000000E-03 0.  1.
         12    1    3    3    0    0  0.12071356819E+02  0.89127804921E+01 -0.17723107961E+02  0.23222055623E+02  0.00000000000E+00 0. -1.
</event>
<event>
 7    1  0.1052674E-011  0.5930193E+02  0.7816164E-02  0.1266605E+00
        -11   -1    0    0    0    0  0.00000000000E+00  0.00000000000E+00  0.45593999997E+02  0.45594000000E+02  0.51100000000E-03 0.  1.
         11   -1    0    0    0    0 -0.00000000000E+00 -0.00000000000E+00 -0.45593999997E+02  0.45594000000E+02  0.51100000000E-03 0. -1.
    9900012    2    1    2    0    0 -0.89991994739E+01 -0.30369806297E+02 -0.36620968974E+01  0.59301926561E+02  0.49999968144E+02 0.  0.
        -12    1    1    2    0    0  0.89991994739E+01  0.30369806297E+02  0.36620968974E+01  0.31886073439E+02  0.00000000000E+00 0.  1.
         11    1    3    3    0    0 -0.52241115316E+01 -0.33638904007E+01 -0.69737056494E+01  0.93402179133E+01  0.51100000000E-03 0. -1.
        -11    1    3    3    0    0  0.14836436635E+02 -0.38294111684E+01  0.11467563209E+02  0.19138684598E+02  0.51100000000E-03 0.  1.
        -12    1    3    3    0    0 -0.18611524577E+02 -0.23176504728E+02 -0.81559544572E+01  0.30823024050E+02  0.00000000000E+00 0.  1.
</event>
<event>
 7    1  0.1052674E-011  0.5930187E+02  0.7816164E-02  0.1266605E+00
        -11   -1    0    0    0    0  0.00000000000E+00  0.00000000000E+00  0.45593999997E+02  0.45594000000E+02  0.51100000000E-03 0.  1.
         11   -1    0    0    0    0 -0.00000000000E+00 -0.00000000000E+00 -0.45593999997E+02  0.45594000000E+02  0.51100000000E-03 0. -1.
    9900012    2    1    2    0    0  0.31395302635E+02 -0.45013746856E+01  0.32859875769E+01  0.59301872672E+02  0.49999869865E+02 0.  0.
        -12    1    1    2    0    0 -0.31395302635E+02  0.45013746856E+01 -0.32859875769E+01  0.31886127328E+02  0.00000000000E+00 0.  1.
         11    1    3    3    0    0  0.84241628488E+01 -0.15326072397E+02 -0.13491369631E+02  0.22087826276E+02  0.51100000000E-03 0. -1.
        -11    1    3    3    0    0  0.60911647603E+01  0.78348770186E+01  0.17431857411E+02  0.20058844411E+02  0.51100000000E-03 0.  1.
         12    1    3    3    0    0  0.16879975026E+02  0.29898206926E+01 -0.65450020352E+00  0.17155201985E+02  0.00000000000E+00 0. -1.
</event>
<event>
 7    1  0.1052674E-011  0.5930194E+02  0.7816164E-02  0.1266605E+00
        -11   -1    0    0    0    0  0.00000000000E+00  0.00000000000E+00  0.45593999997E+02  0.45594000000E+02  0.51100000000E-03 0.  1.
         11   -1    0    0    0    0 -0.00000000000E+00 -0.00000000000E+00 -0.45593999997E+02  0.45594000000E+02  0.51100000000E-03 0. -1.
    9900012    2    1    2    0    0 -0.17255361426E+02  0.19972378650E+02 -0.17890707773E+02  0.59301939856E+02  0.49999992392E+02 0.  0.
        -12    1    1    2    0    0  0.17255361426E+02 -0.19972378650E+02  0.17890707773E+02  0.31886060144E+02  0.00000000000E+00 0.  1.
         11    1    3    3    0    0  0.65611020958E+01 -0.19614962946E+01 -0.84861780329E+01  0.10904620410E+02  0.51100000000E-03 0. -1.
        -11    1    3    3    0    0 -0.32612010881E+02  0.15294923073E+02 -0.43793470682E+01  0.36285763139E+02  0.51100000000E-03 0.  1.
        -12    1    3    3    0    0  0.87955473592E+01  0.66389518710E+01 -0.50251826722E+01  0.12111556307E+02  0.00000000000E+00 0.  1.
</event>
<event>
 7    1  0.1052674E-011  0.5930195E+02  0.7816164E-02  0.1266605E+00
        -11   -1    0    0    0    0  0.00000000000E+00  0.00000000000E+00  0.45593999997E+02  0.45594000000E+02  0.51100000000E-03 0.  1.
         11   -1    0    0    0    0 -0.00000000000E+00 -0.00000000000E+00 -0.45593999997E+02  0.45594000000E+02  0.51100000000E-03 0. -1.
    9900012    2    1    2    0    0 -0.20082782434E+02  0.19796896412E+02 -0.14882359403E+02  0.59301954789E+02  0.50000019625E+02 0.  0.
        -12    1    1    2    0    0  0.20082782434E+02 -0.19796896412E+02  0.14882359403E+02  0.31886045211E+02  0.00000000000E+00 0.  1.
         11    1    3    3    0    0 -0.25519996195E+02  0.24844553737E+02 -0.21411136323E+02  0.41556693987E+02  0.51100000000E-03 0. -1.
        -11    1    3    3    0    0  0.79706170261E+01 -0.25595583081E+01  0.98197430737E+01  0.12903853254E+02  0.51100000000E-03 0.  1.
        -12    1    3    3    0    0 -0.25334032646E+01 -0.24880990171E+01 -0.32909661532E+01  0.48414075476E+01  0.00000000000E+00 0.  1.
</event>
<event>
 7    1  0.1052674E-011  0.5930198E+02  0.7816164E-02  0.1266605E+00
        -11   -1    0    0    0    0  0.00000000000E+00  0.00000000000E+00  0.45593999997E+02  0.45594000000E+02  0.51100000000E-03 0.  1.
         11   -1    0    0    0    0 -0.00000000000E+00 -0.00000000000E+00 -0.45593999997E+02  0.45594000000E+02  0.51100000000E-03 0. -1.
    9900012    2    1    2    0    0  0.11818633982E+02  0.12452267326E+02 -0.26869674999E+02  0.59301976332E+02  0.50000058916E+02 0.  0.
        -12    1    1    2    0    0 -0.11818633982E+02 -0.12452267326E+02  0.26869674999E+02  0.31886023668E+02  0.00000000000E+00 0.  1.
         11    1    3    3    0    0 -0.37243545415E-01 -0.69991128267E+01 -0.15940968634E+01  0.71784477788E+01  0.51100000000E-03 0. -1.
        -11    1    3    3    0    0  0.17233732273E+01  0.17083513339E+02 -0.34294980082E+02  0.38353123763E+02  0.51100000000E-03 0.  1.
        -12    1    3    3    0    0  0.10132504300E+02  0.23678668135E+01  0.90194019460E+01  0.13770404791E+02  0.00000000000E+00 0.  1.
</event>
<event>
 7    1  0.1052674E-011  0.5930206E+02  0.7816164E-02  0.1266604E+00
        -11   -1    0    0    0    0  0.00000000000E+00  0.00000000000E+00  0.45593999997E+02  0.45594000000E+02  0.51100000000E-03 0. -1.
         11   -1    0    0    0    0 -0.00000000000E+00 -0.00000000000E+00 -0.45593999997E+02  0.45594000000E+02  0.51100000000E-03 0.  1.
    9900012    2    1    2    0    0 -0.17408984205E+02 -0.25928182346E+02  0.64319146146E+01  0.59302064285E+02  0.50000219320E+02 0.  0.
        -12    1    1    2    0    0  0.17408984205E+02  0.25928182346E+02 -0.64319146146E+01  0.31885935715E+02  0.00000000000E+00 0.  1.
         11    1    3    3    0    0 -0.13707116621E+02  0.92070228590E+01  0.14766882066E+02  0.22152090696E+02  0.51100000000E-03 0. -1.
        -11    1    3    3    0    0 -0.44201294561E+01 -0.11252938555E+02 -0.47495265490E+01  0.12989386946E+02  0.51100000000E-03 0.  1.
         12    1    3    3    0    0  0.71826187231E+00 -0.23882266651E+02 -0.35854409020E+01  0.24160586644E+02  0.00000000000E+00 0. -1.
</event>
<event>
 7    1  0.1052674E-011  0.5930200E+02  0.7816164E-02  0.1266605E+00
        -11   -1    0    0    0    0  0.00000000000E+00  0.00000000000E+00  0.45593999997E+02  0.45594000000E+02  0.51100000000E-03 0.  1.
         11   -1    0    0    0    0 -0.00000000000E+00 -0.00000000000E+00 -0.45593999997E+02  0.45594000000E+02  0.51100000000E-03 0. -1.
    9900012    2    1    2    0    0 -0.51176231254E+01 -0.13210972835E+02 -0.28565667054E+02  0.59301996740E+02  0.50000096134E+02 0.  0.
        -12    1    1    2    0    0  0.51176231254E+01  0.13210972835E+02  0.28565667054E+02  0.31886003260E+02  0.00000000000E+00 0.  1.
         11    1    3    3    0    0 -0.39499170745E+01  0.54046277044E+01 -0.30584013600E+02  0.31308045830E+02  0.51100000000E-03 0. -1.
        -11    1    3    3    0    0 -0.10076979429E+02 -0.58522992207E+01 -0.22184226295E+01  0.11862390982E+02  0.51100000000E-03 0.  1.
         12    1    3    3    0    0  0.89092733780E+01 -0.12763301318E+02  0.42367691763E+01  0.16131559928E+02  0.00000000000E+00 0. -1.
</event>
<event>
 7    1  0.1052674E-011  0.5930194E+02  0.7816164E-02  0.1266605E+00
        -11   -1    0    0    0    0  0.00000000000E+00  0.00000000000E+00  0.45593999997E+02  0.45594000000E+02  0.51100000000E-03 0. -1.
         11   -1    0    0    0    0 -0.00000000000E+00 -0.00000000000E+00 -0.45593999997E+02  0.45594000000E+02  0.51100000000E-03 0.  1.
    9900012    2    1    2    0    0  0.13868341106E+02  0.14932104925E+02  0.24523909494E+02  0.59301940673E+02  0.49999993882E+02 0.  0.
        -12    1    1    2    0    0 -0.13868341106E+02 -0.14932104925E+02 -0.24523909494E+02  0.31886059327E+02  0.00000000000E+00 0.  1.
         11    1    3    3    0    0  0.10844903729E+02  0.26415182279E+02  0.18780040420E+02  0.34176947057E+02  0.51100000000E-03 0. -1.
        -11    1    3    3    0    0 -0.22394938567E+01 -0.11162742338E+02 -0.55463237280E+01  0.12664274808E+02  0.51100000000E-03 0.  1.
        -12    1    3    3    0    0  0.52629312336E+01 -0.32033501587E+00  0.11290192803E+02  0.12460718808E+02  0.00000000000E+00 0.  1.
</event>
<event>
 7    1  0.1052674E-011  0.5930199E+02  0.7816164E-02  0.1266605E+00
        -11   -1    0    0    0    0  0.00000000000E+00  0.00000000000E+00  0.45593999997E+02  0.45594000000E+02  0.51100000000E-03 0.  1.
         11   -1    0    0    0    0 -0.00000000000E+00 -0.00000000000E+00 -0.45593999997E+02  0.45594000000E+02  0.51100000000E-03 0. -1.
    9900012    2    1    2    0    0  0.17263560630E+02 -0.20409225853E+00 -0.26807559339E+02  0.59301993399E+02  0.50000090041E+02 0.  0.
        -12    1    1    2    0    0 -0.17263560630E+02  0.20409225853E+00  0.26807559339E+02  0.31886006601E+02  0.00000000000E+00 0.  1.
         11    1    3    3    0    0  0.17159064978E+02 -0.43387688416E+01 -0.60727058032E+01  0.18711926198E+02  0.51100000000E-03 0. -1.
        -11    1    3    3    0    0 -0.95840894125E+01  0.14559864059E+02 -0.27365240592E+01  0.17644630217E+02  0.51100000000E-03 0.  1.
        -12    1    3    3    0    0  0.96885850640E+01 -0.10425187476E+02 -0.17998329477E+02  0.22945436984E+02  0.00000000000E+00 0.  1.
</event>
<event>
 7    1  0.1052674E-011  0.5930194E+02  0.7816164E-02  0.1266605E+00
        -11   -1    0    0    0    0  0.00000000000E+00  0.00000000000E+00  0.45593999997E+02  0.45594000000E+02  0.51100000000E-03 0. -1.
         11   -1    0    0    0    0 -0.00000000000E+00 -0.00000000000E+00 -0.45593999997E+02  0.45594000000E+02  0.51100000000E-03 0.  1.
    9900012    2    1    2    0    0  0.30260576410E+02 -0.61911530471E+01 -0.79175888344E+01  0.59301936058E+02  0.49999985466E+02 0.  0.
        -12    1    1    2    0    0 -0.30260576410E+02  0.61911530471E+01  0.79175888344E+01  0.31886063942E+02  0.00000000000E+00 0.  1.
         11    1    3    3    0    0  0.14689354201E+02  0.32177981425E+01  0.14906148172E+02  0.21173677180E+02  0.51100000000E-03 0. -1.
        -11    1    3    3    0    0  0.34976283848E+01  0.54311464906E+01 -0.16913224707E+02  0.18104914437E+02  0.51100000000E-03 0.  1.
        -12    1    3    3    0    0  0.12073593824E+02 -0.14840097680E+02 -0.59105122993E+01  0.20023344442E+02  0.00000000000E+00 0.  1.
</event>
<event>
 7    1  0.1052674E-011  0.5930195E+02  0.7816164E-02  0.1266605E+00
        -11   -1    0    0    0    0  0.00000000000E+00  0.00000000000E+00  0.45593999997E+02  0.45594000000E+02  0.51100000000E-03 0. -1.
         11   -1    0    0    0    0 -0.00000000000E+00 -0.00000000000E+00 -0.45593999997E+02  0.45594000000E+02  0.51100000000E-03 0.  1.
    9900012    2    1    2    0    0 -0.22086464076E+02 -0.63479428081E+01  0.22104565233E+02  0.59301951681E+02  0.50000013958E+02 0.  0.
        -12    1    1    2    0    0  0.22086464076E+02  0.63479428081E+01 -0.22104565233E+02  0.31886048319E+02  0.00000000000E+00 0.  1.
         11    1    3    3    0    0 -0.59245385079E+01  0.79701718760E+01  0.27563298492E+01  0.10306364575E+02  0.51100000000E-03 0. -1.
        -11    1    3    3    0    0 -0.92347251309E+01 -0.15465405920E+02  0.30731234490E+02  0.35621169297E+02  0.51100000000E-03 0.  1.
        -12    1    3    3    0    0 -0.69272004371E+01  0.11472912356E+01 -0.11382999106E+02  0.13374417809E+02  0.00000000000E+00 0.  1.
</event>
<event>
 7    1  0.1052674E-011  0.5930192E+02  0.7816164E-02  0.1266605E+00
        -11   -1    0    0    0    0  0.00000000000E+00  0.00000000000E+00  0.45593999997E+02  0.45594000000E+02  0.51100000000E-03 0.  1.
         11   -1    0    0    0    0 -0.00000000000E+00 -0.00000000000E+00 -0.45593999997E+02  0.45594000000E+02  0.51100000000E-03 0. -1.
    9900012    2    1    2    0    0 -0.14976220922E+02  0.62520019408E+01 -0.27447168653E+02  0.59301924851E+02  0.49999965025E+02 0.  0.
        -12    1    1    2    0    0  0.14976220922E+02 -0.62520019408E+01  0.27447168653E+02  0.31886075149E+02  0.00000000000E+00 0.  1.
         11    1    3    3    0    0 -0.28437309222E+01  0.97199490171E+01 -0.29973495320E+02  0.31638183203E+02  0.51100000000E-03 0. -1.
        -11    1    3    3    0    0 -0.13563060434E+01 -0.13043890141E+02  0.70692406114E+00  0.13133254660E+02  0.51100000000E-03 0.  1.
        -12    1    3    3    0    0 -0.10776183957E+02  0.95759430643E+01  0.18194026058E+01  0.14530486987E+02  0.00000000000E+00 0.  1.
</event>
<event>
 7    1  0.1052674E-011  0.5930170E+02  0.7816164E-02  0.1266606E+00
        -11   -1    0    0    0    0  0.00000000000E+00  0.00000000000E+00  0.45593999997E+02  0.45594000000E+02  0.51100000000E-03 0. -1.
         11   -1    0    0    0    0 -0.00000000000E+00 -0.00000000000E+00 -0.45593999997E+02  0.45594000000E+02  0.51100000000E-03 0.  1.
    9900012    2    1    2    0    0 -0.58680044777E+01  0.47874359818E+01  0.30973909838E+02  0.59301700269E+02  0.49999555441E+02 0.  0.
        -12    1    1    2    0    0  0.58680044777E+01 -0.47874359818E+01 -0.30973909838E+02  0.31886299731E+02  0.00000000000E+00 0.  1.
         11    1    3    3    0    0  0.95922199986E+01 -0.16781955487E+02  0.17384770828E+02  0.25997595494E+02  0.51100000000E-03 0. -1.
        -11    1    3    3    0    0 -0.72866399355E+01  0.57189092587E-01  0.21033807163E+01  0.75843656848E+01  0.51100000000E-03 0.  1.
         12    1    3    3    0    0 -0.81735845409E+01  0.21512202376E+02  0.11485758294E+02  0.25719739091E+02  0.00000000000E+00 0. -1.
</event>
<event>
 7    1  0.1052674E-011  0.5930192E+02  0.7816164E-02  0.1266605E+00
        -11   -1    0    0    0    0  0.00000000000E+00  0.00000000000E+00  0.45593999997E+02  0.45594000000E+02  0.51100000000E-03 0.  1.
         11   -1    0    0    0    0 -0.00000000000E+00 -0.00000000000E+00 -0.45593999997E+02  0.45594000000E+02  0.51100000000E-03 0. -1.
    9900012    2    1    2    0    0 -0.31339768354E+01  0.16859408005E+02 -0.26882346748E+02  0.59301921286E+02  0.49999958525E+02 0.  0.
        -12    1    1    2    0    0  0.31339768354E+01 -0.16859408005E+02  0.26882346748E+02  0.31886078714E+02  0.00000000000E+00 0.  1.
         11    1    3    3    0    0  0.12290070910E+02  0.25034065060E+02 -0.21404319925E+02  0.35155300712E+02  0.51100000000E-03 0. -1.
        -11    1    3    3    0    0 -0.10075769422E+02  0.34740594228E+01 -0.17754557840E+01  0.10804742562E+02  0.51100000000E-03 0.  1.
         12    1    3    3    0    0 -0.53482783228E+01 -0.11648716478E+02 -0.37025710385E+01  0.13341878012E+02  0.00000000000E+00 0. -1.
</event>
<event>
 7    1  0.1052674E-011  0.5930193E+02  0.7816164E-02  0.1266605E+00
        -11   -1    0    0    0    0  0.00000000000E+00  0.00000000000E+00  0.45593999997E+02  0.45594000000E+02  0.51100000000E-03 0.  1.
         11   -1    0    0    0    0 -0.00000000000E+00 -0.00000000000E+00 -0.45593999997E+02  0.45594000000E+02  0.51100000000E-03 0. -1.
    9900012    2    1    2    0    0  0.10469407904E+02 -0.29393279678E+02  0.65686992426E+01  0.59301934049E+02  0.49999981801E+02 0.  0.
        -12    1    1    2    0    0 -0.10469407904E+02  0.29393279678E+02 -0.65686992426E+01  0.31886065951E+02  0.00000000000E+00 0.  1.
         11    1    3    3    0    0  0.12517492986E+02 -0.47735618460E+00 -0.15748052664E+02  0.20122541156E+02  0.51100000000E-03 0. -1.
        -11    1    3    3    0    0 -0.36042059895E+01 -0.26504099862E+01  0.81479770456E+01  0.92954023101E+01  0.51100000000E-03 0.  1.
         12    1    3    3    0    0  0.15561209078E+01 -0.26265513508E+02  0.14168774861E+02  0.29883990583E+02  0.00000000000E+00 0. -1.
</event>
<event>
 7    1  0.1052674E-011  0.5930196E+02  0.7816164E-02  0.1266605E+00
        -11   -1    0    0    0    0  0.00000000000E+00  0.00000000000E+00  0.45593999997E+02  0.45594000000E+02  0.51100000000E-03 0.  1.
         11   -1    0    0    0    0 -0.00000000000E+00 -0.00000000000E+00 -0.45593999997E+02  0.45594000000E+02  0.51100000000E-03 0. -1.
    9900012    2    1    2    0    0 -0.89647470570E+00 -0.11916766689E+02 -0.29561910941E+02  0.59301959579E+02  0.50000028362E+02 0.  0.
        -12    1    1    2    0    0  0.89647470570E+00  0.11916766689E+02  0.29561910941E+02  0.31886040421E+02  0.00000000000E+00 0.  1.
         11    1    3    3    0    0  0.28428414669E+01  0.14572125223E+02  0.15471921311E+01  0.14927236345E+02  0.51100000000E-03 0. -1.
        -11    1    3    3    0    0  0.52214325192E+01 -0.44643528110E+01 -0.12174888991E+02  0.13979332094E+02  0.51100000000E-03 0.  1.
         12    1    3    3    0    0 -0.89607486918E+01 -0.22024539102E+02 -0.18934214081E+02  0.30395391141E+02  0.00000000000E+00 0. -1.
</event>
<event>
 7    1  0.1052674E-011  0.5930195E+02  0.7816164E-02  0.1266605E+00
        -11   -1    0    0    0    0  0.00000000000E+00  0.00000000000E+00  0.45593999997E+02  0.45594000000E+02  0.51100000000E-03 0.  1.
         11   -1    0    0    0    0 -0.00000000000E+00 -0.00000000000E+00 -0.45593999997E+02  0.45594000000E+02  0.51100000000E-03 0. -1.
    9900012    2    1    2    0    0  0.26961164477E+02 -0.14160008887E+02 -0.94504076355E+01  0.59301945899E+02  0.50000003413E+02 0.  0.
        -12    1    1    2    0    0 -0.26961164477E+02  0.14160008887E+02  0.94504076355E+01  0.31886054101E+02  0.00000000000E+00 0.  1.
         11    1    3    3    0    0  0.10209219795E+02 -0.12359158780E+02 -0.11112873224E+02  0.19505715217E+02  0.51100000000E-03 0. -1.
        -11    1    3    3    0    0  0.36313783742E+01  0.15646968401E+02  0.66799377351E+01  0.17396439217E+02  0.51100000000E-03 0.  1.
        -12    1    3    3    0    0  0.13120566308E+02 -0.17447818508E+02 -0.50174721470E+01  0.22399791465E+02  0.00000000000E+00 0.  1.
</event>
<event>
 7    1  0.1052674E-011  0.5930194E+02  0.7816164E-02  0.1266605E+00
        -11   -1    0    0    0    0  0.00000000000E+00  0.00000000000E+00  0.45593999997E+02  0.45594000000E+02  0.51100000000E-03 0. -1.
         11   -1    0    0    0    0 -0.00000000000E+00 -0.00000000000E+00 -0.45593999997E+02  0.45594000000E+02  0.51100000000E-03 0.  1.
    9900012    2    1    2    0    0 -0.31389092961E+01  0.23268631173E+02  0.21574029368E+02  0.59301942053E+02  0.49999996398E+02 0.  0.
        -12    1    1    2    0    0  0.31389092961E+01 -0.23268631173E+02 -0.21574029368E+02  0.31886057947E+02  0.00000000000E+00 0.  1.
         11    1    3    3    0    0  0.26889344632E+01  0.12550009416E+02  0.39509116715E+01  0.13429177495E+02  0.51100000000E-03 0. -1.
        -11    1    3    3    0    0 -0.15303599566E+02  0.15816471155E+02  0.24631676534E+02  0.33031506303E+02  0.51100000000E-03 0.  1.
        -12    1    3    3    0    0  0.94757558069E+01 -0.50978493974E+01 -0.70085588384E+01  0.12841258255E+02  0.00000000000E+00 0.  1.
</event>
<event>
 7    1  0.1052674E-011  0.5930195E+02  0.7816164E-02  0.1266605E+00
        -11   -1    0    0    0    0  0.00000000000E+00  0.00000000000E+00  0.45593999997E+02  0.45594000000E+02  0.51100000000E-03 0.  1.
         11   -1    0    0    0    0 -0.00000000000E+00 -0.00000000000E+00 -0.45593999997E+02  0.45594000000E+02  0.51100000000E-03 0. -1.
    9900012    2    1    2    0    0  0.28005933090E+02 -0.24391855866E+01  0.15047867650E+02  0.59301949204E+02  0.50000009440E+02 0.  0.
        -12    1    1    2    0    0 -0.28005933090E+02  0.24391855866E+01 -0.15047867650E+02  0.31886050796E+02  0.00000000000E+00 0.  1.
         11    1    3    3    0    0  0.29860556203E+02 -0.11685078632E+02  0.13501936619E+02  0.34792185503E+02  0.51100000000E-03 0. -1.
        -11    1    3    3    0    0  0.10040537112E+01  0.10878303977E+02 -0.85615656592E+01  0.13879698414E+02  0.51100000000E-03 0.  1.
        -12    1    3    3    0    0 -0.28586768246E+01 -0.16324109321E+01  0.10107496691E+02  0.10630065286E+02  0.00000000000E+00 0.  1.
</event>
<event>
 7    1  0.1052674E-011  0.5930209E+02  0.7816164E-02  0.1266604E+00
        -11   -1    0    0    0    0  0.00000000000E+00  0.00000000000E+00  0.45593999997E+02  0.45594000000E+02  0.51100000000E-03 0.  1.
         11   -1    0    0    0    0 -0.00000000000E+00 -0.00000000000E+00 -0.45593999997E+02  0.45594000000E+02  0.51100000000E-03 0. -1.
    9900012    2    1    2    0    0 -0.16156436480E+02  0.11179352382E+02 -0.25113801551E+02  0.59302087942E+02  0.50000262464E+02 0.  0.
        -12    1    1    2    0    0  0.16156436480E+02 -0.11179352382E+02  0.25113801551E+02  0.31885912058E+02  0.00000000000E+00 0.  1.
         11    1    3    3    0    0 -0.20848328122E+02  0.15856084198E+02  0.51370156047E+01  0.26691892424E+02  0.51100000000E-03 0. -1.
        -11    1    3    3    0    0  0.23137013271E+01  0.11948065703E+01 -0.22265504434E+02  0.22417258185E+02  0.51100000000E-03 0.  1.
         12    1    3    3    0    0  0.23781903146E+01 -0.58715383864E+01 -0.79853127224E+01  0.10192937333E+02  0.00000000000E+00 0. -1.
</event>
<event>
 7    1  0.1052674E-011  0.5930195E+02  0.7816164E-02  0.1266605E+00
        -11   -1    0    0    0    0  0.00000000000E+00  0.00000000000E+00  0.45593999997E+02  0.45594000000E+02  0.51100000000E-03 0.  1.
         11   -1    0    0    0    0 -0.00000000000E+00 -0.00000000000E+00 -0.45593999997E+02  0.45594000000E+02  0.51100000000E-03 0. -1.
    9900012    2    1    2    0    0 -0.27335237542E+02  0.15575677795E+02 -0.51868439968E+01  0.59301948176E+02  0.50000007566E+02 0.  0.
        -12    1    1    2    0    0  0.27335237542E+02 -0.15575677795E+02  0.51868439968E+01  0.31886051824E+02  0.00000000000E+00 0.  1.
         11    1    3    3    0    0 -0.14613520985E+02  0.17362575118E+02  0.12632099344E+01  0.22729049912E+02  0.51100000000E-03 0. -1.
        -11    1    3    3    0    0  0.11510579114E+02 -0.22981210637E+01 -0.27346071107E+01  0.12052089789E+02  0.51100000000E-03 0.  1.
        -12    1    3    3    0    0 -0.24232295671E+02  0.51122374107E+00 -0.37154468206E+01  0.24520808475E+02  0.00000000000E+00 0.  1.
</event>
<event>
 7    1  0.1052674E-011  0.5930195E+02  0.7816164E-02  0.1266605E+00
        -11   -1    0    0    0    0  0.00000000000E+00  0.00000000000E+00  0.45593999997E+02  0.45594000000E+02  0.51100000000E-03 0.  1.
         11   -1    0    0    0    0 -0.00000000000E+00 -0.00000000000E+00 -0.45593999997E+02  0.45594000000E+02  0.51100000000E-03 0. -1.
    9900012    2    1    2    0    0 -0.15196252182E+02  0.70212092630E+01 -0.27138475970E+02  0.59301947597E+02  0.50000006509E+02 0.  0.
        -12    1    1    2    0    0  0.15196252182E+02 -0.70212092630E+01  0.27138475970E+02  0.31886052403E+02  0.00000000000E+00 0.  1.
         11    1    3    3    0    0 -0.13621041831E+02  0.81295678936E+01  0.17669373129E+00  0.15863602228E+02  0.51100000000E-03 0. -1.
        -11    1    3    3    0    0  0.99156854576E+01 -0.13514582178E+02 -0.15293532082E+02  0.22690457760E+02  0.51100000000E-03 0.  1.
        -12    1    3    3    0    0 -0.11490895808E+02  0.12406223548E+02 -0.12021637619E+02  0.20747887609E+02  0.00000000000E+00 0.  1.
</event>
<event>
 7    1  0.1052674E-011  0.5930193E+02  0.7816164E-02  0.1266605E+00
        -11   -1    0    0    0    0  0.00000000000E+00  0.00000000000E+00  0.45593999997E+02  0.45594000000E+02  0.51100000000E-03 0.  1.
         11   -1    0    0    0    0 -0.00000000000E+00 -0.00000000000E+00 -0.45593999997E+02  0.45594000000E+02  0.51100000000E-03 0. -1.
    9900012    2    1    2    0    0  0.21053210748E+02 -0.96337173774E+01 -0.21924312250E+02  0.59301926849E+02  0.49999968671E+02 0.  0.
        -12    1    1    2    0    0 -0.21053210748E+02  0.96337173774E+01  0.21924312250E+02  0.31886073151E+02  0.00000000000E+00 0.  1.
         11    1    3    3    0    0  0.22008202091E+02 -0.13816176730E+02 -0.11036098936E+02  0.28231953151E+02  0.51100000000E-03 0. -1.
        -11    1    3    3    0    0 -0.95138576293E+01 -0.46985321807E+01  0.43480783335E+01  0.11467147732E+02  0.51100000000E-03 0.  1.
        -12    1    3    3    0    0  0.85588662866E+01  0.88809915333E+01 -0.15236291648E+02  0.19602825967E+02  0.00000000000E+00 0.  1.
</event>
<event>
 7    1  0.1052674E-011  0.5930194E+02  0.7816164E-02  0.1266605E+00
        -11   -1    0    0    0    0  0.00000000000E+00  0.00000000000E+00  0.45593999997E+02  0.45594000000E+02  0.51100000000E-03 0.  1.
         11   -1    0    0    0    0 -0.00000000000E+00 -0.00000000000E+00 -0.45593999997E+02  0.45594000000E+02  0.51100000000E-03 0. -1.
    9900012    2    1    2    0    0  0.10049735985E+02  0.12453720354E+02 -0.27579490823E+02  0.59301942575E+02  0.49999997351E+02 0.  0.
        -12    1    1    2    0    0 -0.10049735985E+02 -0.12453720354E+02  0.27579490823E+02  0.31886057425E+02  0.00000000000E+00 0.  1.
         11    1    3    3    0    0 -0.49103280478E+01  0.16362053211E+02 -0.28066246031E+01  0.17311997249E+02  0.51100000000E-03 0. -1.
        -11    1    3    3    0    0  0.16295858125E+02 -0.13235562759E+02 -0.74611490193E+01  0.22280122498E+02  0.51100000000E-03 0.  1.
        -12    1    3    3    0    0 -0.13357940919E+01  0.93272299012E+01 -0.17311717201E+02  0.19709822829E+02  0.00000000000E+00 0.  1.
</event>
<event>
 7    1  0.1052674E-011  0.5930195E+02  0.7816164E-02  0.1266605E+00
        -11   -1    0    0    0    0  0.00000000000E+00  0.00000000000E+00  0.45593999997E+02  0.45594000000E+02  0.51100000000E-03 0.  1.
         11   -1    0    0    0    0 -0.00000000000E+00 -0.00000000000E+00 -0.45593999997E+02  0.45594000000E+02  0.51100000000E-03 0. -1.
    9900012    2    1    2    0    0 -0.14641690994E+02 -0.28323390386E+02 -0.35619612256E+00  0.59301946093E+02  0.50000003766E+02 0.  0.
        -12    1    1    2    0    0  0.14641690994E+02  0.28323390386E+02  0.35619612256E+00  0.31886053907E+02  0.00000000000E+00 0.  1.
         11    1    3    3    0    0 -0.11840978647E+02 -0.29712930088E+02 -0.13577217025E+02  0.34747774204E+02  0.51100000000E-03 0. -1.
        -11    1    3    3    0    0 -0.99487863842E+01  0.64953242725E+01  0.81973084580E+01  0.14434800107E+02  0.51100000000E-03 0.  1.
        -12    1    3    3    0    0  0.71480740378E+01 -0.51057845708E+01  0.50237124440E+01  0.10119371782E+02  0.00000000000E+00 0.  1.
</event>
<event>
 7    1  0.1052674E-011  0.5930195E+02  0.7816164E-02  0.1266605E+00
        -11   -1    0    0    0    0  0.00000000000E+00  0.00000000000E+00  0.45593999997E+02  0.45594000000E+02  0.51100000000E-03 0.  1.
         11   -1    0    0    0    0 -0.00000000000E+00 -0.00000000000E+00 -0.45593999997E+02  0.45594000000E+02  0.51100000000E-03 0. -1.
    9900012    2    1    2    0    0 -0.31010952575E+02  0.32290824249E+01 -0.66793817060E+01  0.59301948302E+02  0.50000007795E+02 0.  0.
        -12    1    1    2    0    0  0.31010952575E+02 -0.32290824249E+01  0.66793817060E+01  0.31886051698E+02  0.00000000000E+00 0.  1.
         11    1    3    3    0    0 -0.17645785559E+02  0.50378733375E-01 -0.20779754310E+02  0.27261226595E+02  0.51100000000E-03 0. -1.
        -11    1    3    3    0    0 -0.18461127258E+02  0.59888589110E+01  0.16759122780E+02  0.25642695789E+02  0.51100000000E-03 0.  1.
        -12    1    3    3    0    0  0.50959602422E+01 -0.28101552196E+01 -0.26587501758E+01  0.63980259178E+01  0.00000000000E+00 0.  1.
</event>
<event>
 7    1  0.1052674E-011  0.5930195E+02  0.7816164E-02  0.1266605E+00
        -11   -1    0    0    0    0  0.00000000000E+00  0.00000000000E+00  0.45593999997E+02  0.45594000000E+02  0.51100000000E-03 0.  1.
         11   -1    0    0    0    0 -0.00000000000E+00 -0.00000000000E+00 -0.45593999997E+02  0.45594000000E+02  0.51100000000E-03 0. -1.
    9900012    2    1    2    0    0  0.25930628014E+02  0.10488426418E+02 -0.15307367244E+02  0.59301952113E+02  0.50000014747E+02 0.  0.
        -12    1    1    2    0    0 -0.25930628014E+02 -0.10488426418E+02  0.15307367244E+02  0.31886047887E+02  0.00000000000E+00 0.  1.
         11    1    3    3    0    0 -0.14364799958E+02  0.23350904978E+01 -0.13768174627E+01  0.14618336159E+02  0.51100000000E-03 0. -1.
        -11    1    3    3    0    0  0.27962704048E+02  0.77873897578E+01 -0.14261345674E+02  0.32341030249E+02  0.51100000000E-03 0.  1.
         12    1    3    3    0    0  0.12332723924E+02  0.36594616196E+00  0.33079589285E+00  0.12342585705E+02  0.00000000000E+00 0. -1.
</event>
<event>
 7    1  0.1052674E-011  0.5930195E+02  0.7816164E-02  0.1266605E+00
        -11   -1    0    0    0    0  0.00000000000E+00  0.00000000000E+00  0.45593999997E+02  0.45594000000E+02  0.51100000000E-03 0.  1.
         11   -1    0    0    0    0 -0.00000000000E+00 -0.00000000000E+00 -0.45593999997E+02  0.45594000000E+02  0.51100000000E-03 0. -1.
    9900012    2    1    2    0    0 -0.73029470311E+01 -0.36700981189E+01 -0.30820734749E+02  0.59301947469E+02  0.50000006276E+02 0.  0.
        -12    1    1    2    0    0  0.73029470311E+01  0.36700981189E+01  0.30820734749E+02  0.31886052531E+02  0.00000000000E+00 0.  1.
         11    1    3    3    0    0  0.47944370418E+01  0.14158982604E+02 -0.17555173684E+02  0.23057483346E+02  0.51100000000E-03 0. -1.
        -11    1    3    3    0    0  0.52193012536E+01 -0.14459855563E+02 -0.24924256178E+01  0.15573718702E+02  0.51100000000E-03 0.  1.
         12    1    3    3    0    0 -0.17316685326E+02 -0.33692251595E+01 -0.10773135448E+02  0.20670745421E+02  0.00000000000E+00 0. -1.
</event>
<event>
 7    1  0.1052674E-011  0.5930196E+02  0.7816164E-02  0.1266605E+00
        -11   -1    0    0    0    0  0.00000000000E+00  0.00000000000E+00  0.45593999997E+02  0.45594000000E+02  0.51100000000E-03 0.  1.
         11   -1    0    0    0    0 -0.00000000000E+00 -0.00000000000E+00 -0.45593999997E+02  0.45594000000E+02  0.51100000000E-03 0. -1.
    9900012    2    1    2    0    0 -0.17133247850E+02  0.25082428568E+02 -0.96975777840E+01  0.59301961995E+02  0.50000032768E+02 0.  0.
        -12    1    1    2    0    0  0.17133247850E+02 -0.25082428568E+02  0.96975777840E+01  0.31886038005E+02  0.00000000000E+00 0.  1.
         11    1    3    3    0    0 -0.26844777789E+02  0.10225398824E+02 -0.44827931268E+01  0.29073979950E+02  0.51100000000E-03 0. -1.
        -11    1    3    3    0    0  0.16786397255E+02  0.92483795481E+01  0.11211724360E+01  0.19198246924E+02  0.51100000000E-03 0.  1.
        -12    1    3    3    0    0 -0.70748673154E+01  0.56086501966E+01 -0.63359570932E+01  0.11029735121E+02  0.00000000000E+00 0.  1.
</event>
<event>
 7    1  0.1052674E-011  0.5930215E+02  0.7816164E-02  0.1266604E+00
        -11   -1    0    0    0    0  0.00000000000E+00  0.00000000000E+00  0.45593999997E+02  0.45594000000E+02  0.51100000000E-03 0.  1.
         11   -1    0    0    0    0 -0.00000000000E+00 -0.00000000000E+00 -0.45593999997E+02  0.45594000000E+02  0.51100000000E-03 0. -1.
    9900012    2    1    2    0    0  0.53103209784E+01 -0.26080626106E+02 -0.17558718401E+02  0.59302154255E+02  0.50000383403E+02 0.  0.
        -12    1    1    2    0    0 -0.53103209784E+01  0.26080626106E+02  0.17558718401E+02  0.31885845745E+02  0.00000000000E+00 0.  1.
         11    1    3    3    0    0 -0.17367720252E+02  0.41491732938E+00 -0.10664671595E+02  0.20384922949E+02  0.51100000000E-03 0. -1.
        -11    1    3    3    0    0  0.10231987932E+02 -0.22727497796E+02 -0.19340214295E+01  0.24999463439E+02  0.51100000000E-03 0.  1.
         12    1    3    3    0    0  0.12446053299E+02 -0.37680456393E+01 -0.49600253765E+01  0.13917767867E+02  0.00000000000E+00 0. -1.
</event>
<event>
 7    1  0.1052674E-011  0.5930195E+02  0.7816164E-02  0.1266605E+00
        -11   -1    0    0    0    0  0.00000000000E+00  0.00000000000E+00  0.45593999997E+02  0.45594000000E+02  0.51100000000E-03 0. -1.
         11   -1    0    0    0    0 -0.00000000000E+00 -0.00000000000E+00 -0.45593999997E+02  0.45594000000E+02  0.51100000000E-03 0.  1.
    9900012    2    1    2    0    0  0.22136266823E+02 -0.20743181670E+02 -0.98197005563E+01  0.59301946408E+02  0.50000004341E+02 0.  0.
        -12    1    1    2    0    0 -0.22136266823E+02  0.20743181670E+02  0.98197005563E+01  0.31886053592E+02  0.00000000000E+00 0.  1.
         11    1    3    3    0    0  0.20970931540E+02 -0.82027413920E+01 -0.12016455839E+02  0.25523717346E+02  0.51100000000E-03 0. -1.
        -11    1    3    3    0    0 -0.64037937540E+01  0.65763714927E+01  0.82533116543E+01  0.12344002186E+02  0.51100000000E-03 0.  1.
        -12    1    3    3    0    0  0.75691290368E+01 -0.19116811771E+02 -0.60565563718E+01  0.21434226875E+02  0.00000000000E+00 0.  1.
</event>
<event>
 7    1  0.1052674E-011  0.5930194E+02  0.7816164E-02  0.1266605E+00
        -11   -1    0    0    0    0  0.00000000000E+00  0.00000000000E+00  0.45593999997E+02  0.45594000000E+02  0.51100000000E-03 0.  1.
         11   -1    0    0    0    0 -0.00000000000E+00 -0.00000000000E+00 -0.45593999997E+02  0.45594000000E+02  0.51100000000E-03 0. -1.
    9900012    2    1    2    0    0  0.22687475122E+01 -0.19274108501E+02 -0.25299846492E+02  0.59301941820E+02  0.49999995973E+02 0.  0.
        -12    1    1    2    0    0 -0.22687475122E+01  0.19274108501E+02  0.25299846492E+02  0.31886058180E+02  0.00000000000E+00 0.  1.
         11    1    3    3    0    0  0.65119147005E+01 -0.79878228846E+01  0.14246866173E+02  0.17583615769E+02  0.51100000000E-03 0.  1.
        -11    1    3    3    0    0 -0.33889533275E+01 -0.10260742804E+02 -0.26719459335E+02  0.28821820813E+02  0.51100000000E-03 0. -1.
        -12    1    3    3    0    0 -0.85421386085E+00 -0.10255428119E+01 -0.12827253329E+02  0.12896505238E+02  0.00000000000E+00 0.  1.
</event>
<event>
 7    1  0.1052674E-011  0.5930196E+02  0.7816164E-02  0.1266605E+00
        -11   -1    0    0    0    0  0.00000000000E+00  0.00000000000E+00  0.45593999997E+02  0.45594000000E+02  0.51100000000E-03 0.  1.
         11   -1    0    0    0    0 -0.00000000000E+00 -0.00000000000E+00 -0.45593999997E+02  0.45594000000E+02  0.51100000000E-03 0. -1.
    9900012    2    1    2    0    0 -0.26680783301E+02 -0.16313892120E+02 -0.62219352160E+01  0.59301956791E+02  0.50000023277E+02 0.  0.
        -12    1    1    2    0    0  0.26680783301E+02  0.16313892120E+02  0.62219352160E+01  0.31886043209E+02  0.00000000000E+00 0.  1.
         11    1    3    3    0    0  0.11136202864E+02 -0.69352421730E+01 -0.95124422026E+01  0.16204911451E+02  0.51100000000E-03 0. -1.
        -11    1    3    3    0    0 -0.19342519874E+02 -0.48625676257E+01  0.10763108402E+02  0.22663233258E+02  0.51100000000E-03 0.  1.
         12    1    3    3    0    0 -0.18474466291E+02 -0.45160823217E+01 -0.74726014155E+01  0.20433812082E+02  0.00000000000E+00 0. -1.
</event>
<event>
 7    1  0.1052674E-011  0.5930197E+02  0.7816164E-02  0.1266605E+00
        -11   -1    0    0    0    0  0.00000000000E+00  0.00000000000E+00  0.45593999997E+02  0.45594000000E+02  0.51100000000E-03 0.  1.
         11   -1    0    0    0    0 -0.00000000000E+00 -0.00000000000E+00 -0.45593999997E+02  0.45594000000E+02  0.51100000000E-03 0. -1.
    9900012    2    1    2    0    0 -0.53368518387E+01  0.13734973781E+02 -0.28276980710E+02  0.59301966531E+02  0.50000041041E+02 0.  0.
        -12    1    1    2    0    0  0.53368518387E+01 -0.13734973781E+02  0.28276980710E+02  0.31886033469E+02  0.00000000000E+00 0.  1.
         11    1    3    3    0    0 -0.11649037244E+01 -0.58146836869E+01  0.56556844861E+01  0.81947735987E+01  0.51100000000E-03 0.  1.
        -11    1    3    3    0    0  0.10997796550E+01  0.27114655740E+02 -0.17578965123E+02  0.32333173155E+02  0.51100000000E-03 0. -1.
         12    1    3    3    0    0 -0.52717277694E+01 -0.75649982724E+01 -0.16353700073E+02  0.18774019778E+02  0.00000000000E+00 0. -1.
</event>
<event>
 7    1  0.1052674E-011  0.5930195E+02  0.7816164E-02  0.1266605E+00
        -11   -1    0    0    0    0  0.00000000000E+00  0.00000000000E+00  0.45593999997E+02  0.45594000000E+02  0.51100000000E-03 0.  1.
         11   -1    0    0    0    0 -0.00000000000E+00 -0.00000000000E+00 -0.45593999997E+02  0.45594000000E+02  0.51100000000E-03 0. -1.
    9900012    2    1    2    0    0  0.24880104224E+01  0.24038348292E+02 -0.20801154553E+02  0.59301946384E+02  0.50000004297E+02 0.  0.
        -12    1    1    2    0    0 -0.24880104224E+01 -0.24038348292E+02  0.20801154553E+02  0.31886053616E+02  0.00000000000E+00 0.  1.
         11    1    3    3    0    0  0.16693941166E+02 -0.83058931738E+01 -0.10771593881E+02  0.21533758801E+02  0.51100000000E-03 0. -1.
        -11    1    3    3    0    0 -0.13935427264E+02  0.23962145765E+02 -0.97252847293E+01  0.29376210205E+02  0.51100000000E-03 0.  1.
        -12    1    3    3    0    0 -0.27050347967E+00  0.83820957005E+01 -0.30427594309E+00  0.83919773781E+01  0.00000000000E+00 0.  1.
</event>
<event>
 7    1  0.1052674E-011  0.5930196E+02  0.7816164E-02  0.1266605E+00
        -11   -1    0    0    0    0  0.00000000000E+00  0.00000000000E+00  0.45593999997E+02  0.45594000000E+02  0.51100000000E-03 0.  1.
         11   -1    0    0    0    0 -0.00000000000E+00 -0.00000000000E+00 -0.45593999997E+02  0.45594000000E+02  0.51100000000E-03 0. -1.
    9900012    2    1    2    0    0  0.23072451994E+02  0.21679408876E+02 -0.37926827187E+01  0.59301964618E+02  0.50000037551E+02 0.  0.
        -12    1    1    2    0    0 -0.23072451994E+02 -0.21679408876E+02  0.37926827187E+01  0.31886035382E+02  0.00000000000E+00 0.  1.
         11    1    3    3    0    0  0.15808730611E+02  0.58555803267E+01 -0.19268967117E+02  0.25602673269E+02  0.51100000000E-03 0. -1.
        -11    1    3    3    0    0  0.76367845421E+01  0.19738287994E+01  0.17967000112E+02  0.19622170409E+02  0.51100000000E-03 0.  1.
         12    1    3    3    0    0 -0.37306315916E+00  0.13849999749E+02 -0.24907157133E+01  0.14077120939E+02  0.00000000000E+00 0. -1.
</event>
<event>
 7    1  0.1052674E-011  0.5930194E+02  0.7816164E-02  0.1266605E+00
        -11   -1    0    0    0    0  0.00000000000E+00  0.00000000000E+00  0.45593999997E+02  0.45594000000E+02  0.51100000000E-03 0.  1.
         11   -1    0    0    0    0 -0.00000000000E+00 -0.00000000000E+00 -0.45593999997E+02  0.45594000000E+02  0.51100000000E-03 0. -1.
    9900012    2    1    2    0    0  0.35103209949E+01 -0.16980030193E+02 -0.26759610655E+02  0.59301944408E+02  0.50000000693E+02 0.  0.
        -12    1    1    2    0    0 -0.35103209949E+01  0.16980030193E+02  0.26759610655E+02  0.31886055592E+02  0.00000000000E+00 0.  1.
         11    1    3    3    0    0 -0.15122860638E+02 -0.19616405408E+01 -0.20148498218E+02  0.25268773777E+02  0.51100000000E-03 0. -1.
        -11    1    3    3    0    0  0.71869493548E+01 -0.17841638787E+02  0.21364008041E+01  0.19353049483E+02  0.51100000000E-03 0.  1.
         12    1    3    3    0    0  0.11446232278E+02  0.28232491345E+01 -0.87475132407E+01  0.14680121148E+02  0.00000000000E+00 0. -1.
</event>
<event>
 7    1  0.1052674E-011  0.5930187E+02  0.7816164E-02  0.1266605E+00
        -11   -1    0    0    0    0  0.00000000000E+00  0.00000000000E+00  0.45593999997E+02  0.45594000000E+02  0.51100000000E-03 0. -1.
         11   -1    0    0    0    0 -0.00000000000E+00 -0.00000000000E+00 -0.45593999997E+02  0.45594000000E+02  0.51100000000E-03 0.  1.
    9900012    2    1    2    0    0 -0.10828212647E+02  0.29585298970E+02 -0.49178381904E+01  0.59301870778E+02  0.49999866410E+02 0.  0.
        -12    1    1    2    0    0  0.10828212647E+02 -0.29585298970E+02  0.49178381904E+01  0.31886129222E+02  0.00000000000E+00 0.  1.
         11    1    3    3    0    0 -0.26012423135E+02  0.76355526747E+01 -0.89291624916E+01  0.28542560591E+02  0.51100000000E-03 0.  1.
        -11    1    3    3    0    0  0.10710071934E+02  0.23091352244E+02  0.14887478684E+01  0.25497697146E+02  0.51100000000E-03 0. -1.
        -12    1    3    3    0    0  0.44741385537E+01 -0.11416059479E+01  0.25225764328E+01  0.52616130414E+01  0.00000000000E+00 0.  1.
</event>
<event>
 7    1  0.1052674E-011  0.5930194E+02  0.7816164E-02  0.1266605E+00
        -11   -1    0    0    0    0  0.00000000000E+00  0.00000000000E+00  0.45593999997E+02  0.45594000000E+02  0.51100000000E-03 0.  1.
         11   -1    0    0    0    0 -0.00000000000E+00 -0.00000000000E+00 -0.45593999997E+02  0.45594000000E+02  0.51100000000E-03 0. -1.
    9900012    2    1    2    0    0  0.30745540609E+02  0.71141648803E+01 -0.45630364976E+01  0.59301938604E+02  0.49999990108E+02 0.  0.
        -12    1    1    2    0    0 -0.30745540609E+02 -0.71141648803E+01  0.45630364976E+01  0.31886061396E+02  0.00000000000E+00 0.  1.
         11    1    3    3    0    0 -0.35532783315E+01  0.31228206567E+01  0.16671043355E+02  0.17329208942E+02  0.51100000000E-03 0. -1.
        -11    1    3    3    0    0  0.29187470872E+02 -0.27602829978E+00 -0.14854203571E+02  0.32751061228E+02  0.51100000000E-03 0.  1.
         12    1    3    3    0    0  0.51113480683E+01  0.42673725234E+01 -0.63798762820E+01  0.92216684338E+01  0.00000000000E+00 0. -1.
</event>
<event>
 7    1  0.1052674E-011  0.5930193E+02  0.7816164E-02  0.1266605E+00
        -11   -1    0    0    0    0  0.00000000000E+00  0.00000000000E+00  0.45593999997E+02  0.45594000000E+02  0.51100000000E-03 0.  1.
         11   -1    0    0    0    0 -0.00000000000E+00 -0.00000000000E+00 -0.45593999997E+02  0.45594000000E+02  0.51100000000E-03 0. -1.
    9900012    2    1    2    0    0  0.27804311681E+01 -0.10466155800E+02 -0.29990833414E+02  0.59301932454E+02  0.49999978892E+02 0.  0.
        -12    1    1    2    0    0 -0.27804311681E+01  0.10466155800E+02  0.29990833414E+02  0.31886067546E+02  0.00000000000E+00 0.  1.
         11    1    3    3    0    0 -0.47472403289E+01 -0.11950298443E+02 -0.34247979968E+02  0.36582373567E+02  0.51100000000E-03 0. -1.
        -11    1    3    3    0    0  0.35223561974E+01 -0.97549247422E+01  0.15738600742E+01  0.10490118479E+02  0.51100000000E-03 0.  1.
         12    1    3    3    0    0  0.40053152996E+01  0.11239067386E+02  0.26832864799E+01  0.12229440408E+02  0.00000000000E+00 0. -1.
</event>
<event>
 7    1  0.1052674E-011  0.5930194E+02  0.7816164E-02  0.1266605E+00
        -11   -1    0    0    0    0  0.00000000000E+00  0.00000000000E+00  0.45593999997E+02  0.45594000000E+02  0.51100000000E-03 0.  1.
         11   -1    0    0    0    0 -0.00000000000E+00 -0.00000000000E+00 -0.45593999997E+02  0.45594000000E+02  0.51100000000E-03 0. -1.
    9900012    2    1    2    0    0 -0.21408960466E+02 -0.18196261800E+02 -0.15075585135E+02  0.59301940367E+02  0.49999993324E+02 0.  0.
        -12    1    1    2    0    0  0.21408960466E+02  0.18196261800E+02  0.15075585135E+02  0.31886059633E+02  0.00000000000E+00 0.  1.
         11    1    3    3    0    0 -0.57433618094E+01 -0.91293903298E+01 -0.29915911020E+02  0.31800844408E+02  0.51100000000E-03 0. -1.
        -11    1    3    3    0    0 -0.69293023691E+01 -0.42244111362E+01  0.15494433410E+02  0.17491093383E+02  0.51100000000E-03 0.  1.
         12    1    3    3    0    0 -0.87362962877E+01 -0.48424603342E+01 -0.65410752578E+00  0.10010002576E+02  0.00000000000E+00 0. -1.
</event>
<event>
 7    1  0.1052674E-011  0.5930209E+02  0.7816164E-02  0.1266604E+00
        -11   -1    0    0    0    0  0.00000000000E+00  0.00000000000E+00  0.45593999997E+02  0.45594000000E+02  0.51100000000E-03 0.  1.
         11   -1    0    0    0    0 -0.00000000000E+00 -0.00000000000E+00 -0.45593999997E+02  0.45594000000E+02  0.51100000000E-03 0. -1.
    9900012    2    1    2    0    0 -0.65926480088E+01 -0.14829011079E+01 -0.31161665061E+02  0.59302088177E+02  0.50000262892E+02 0.  0.
        -12    1    1    2    0    0  0.65926480088E+01  0.14829011079E+01  0.31161665061E+02  0.31885911823E+02  0.00000000000E+00 0.  1.
         11    1    3    3    0    0 -0.12548447797E+02 -0.99777043131E+00 -0.32481542165E+02  0.34835465687E+02  0.51100000000E-03 0. -1.
        -11    1    3    3    0    0  0.10995553719E+01  0.44539846840E+01  0.11370057607E+02  0.12260718242E+02  0.51100000000E-03 0.  1.
         12    1    3    3    0    0  0.48562444159E+01 -0.49391153605E+01 -0.10050180502E+02  0.12205904248E+02  0.00000000000E+00 0. -1.
</event>
<event>
 7    1  0.1052674E-011  0.5930192E+02  0.7816164E-02  0.1266605E+00
        -11   -1    0    0    0    0  0.00000000000E+00  0.00000000000E+00  0.45593999997E+02  0.45594000000E+02  0.51100000000E-03 0.  1.
         11   -1    0    0    0    0 -0.00000000000E+00 -0.00000000000E+00 -0.45593999997E+02  0.45594000000E+02  0.51100000000E-03 0. -1.
    9900012    2    1    2    0    0 -0.89277711773E+01 -0.29846424189E+02 -0.67976397232E+01  0.59301920892E+02  0.49999957807E+02 0.  0.
        -12    1    1    2    0    0  0.89277711773E+01  0.29846424189E+02  0.67976397232E+01  0.31886079108E+02  0.00000000000E+00 0.  1.
         11    1    3    3    0    0 -0.17340183195E+01 -0.13887567113E+02 -0.80214452671E+01  0.16131178639E+02  0.51100000000E-03 0. -1.
        -11    1    3    3    0    0 -0.85975047440E+01 -0.93053022016E+01  0.19734163484E+02  0.23450862363E+02  0.51100000000E-03 0.  1.
        -12    1    3    3    0    0  0.14037518861E+01 -0.66535548746E+01 -0.18510357940E+02  0.19719879891E+02  0.00000000000E+00 0.  1.
</event>
<event>
 7    1  0.1052674E-011  0.5930192E+02  0.7816164E-02  0.1266605E+00
        -11   -1    0    0    0    0  0.00000000000E+00  0.00000000000E+00  0.45593999997E+02  0.45594000000E+02  0.51100000000E-03 0. -1.
         11   -1    0    0    0    0 -0.00000000000E+00 -0.00000000000E+00 -0.45593999997E+02  0.45594000000E+02  0.51100000000E-03 0.  1.
    9900012    2    1    2    0    0 -0.44053081507E+01  0.19037976748E+02  0.25196642538E+02  0.59301920063E+02  0.49999956294E+02 0.  0.
        -12    1    1    2    0    0  0.44053081507E+01 -0.19037976748E+02 -0.25196642538E+02  0.31886079937E+02  0.00000000000E+00 0.  1.
         11    1    3    3    0    0 -0.67968424844E+00  0.19974159245E+02  0.27851989032E+02  0.34280640331E+02  0.51100000000E-03 0. -1.
        -11    1    3    3    0    0 -0.11678058976E+02 -0.56017192577E+01  0.41065347205E+01  0.13587492328E+02  0.51100000000E-03 0.  1.
        -12    1    3    3    0    0  0.79524350734E+01  0.46655367608E+01 -0.67618812135E+01  0.11433787404E+02  0.00000000000E+00 0.  1.
</event>
<event>
 7    1  0.1052674E-011  0.5930197E+02  0.7816164E-02  0.1266605E+00
        -11   -1    0    0    0    0  0.00000000000E+00  0.00000000000E+00  0.45593999997E+02  0.45594000000E+02  0.51100000000E-03 0.  1.
         11   -1    0    0    0    0 -0.00000000000E+00 -0.00000000000E+00 -0.45593999997E+02  0.45594000000E+02  0.51100000000E-03 0. -1.
    9900012    2    1    2    0    0  0.12951530898E+02  0.22201111676E+01 -0.29052501015E+02  0.59301970749E+02  0.50000048733E+02 0.  0.
        -12    1    1    2    0    0 -0.12951530898E+02 -0.22201111676E+01  0.29052501015E+02  0.31886029251E+02  0.00000000000E+00 0.  1.
         11    1    3    3    0    0  0.45183035208E+01  0.28106205554E+01 -0.59005013369E+01  0.79454748694E+01  0.51100000000E-03 0. -1.
        -11    1    3    3    0    0 -0.10903495317E+02 -0.43926157455E+01  0.81948756181E+01  0.14329594198E+02  0.51100000000E-03 0.  1.
        -12    1    3    3    0    0  0.19336722694E+02  0.38021063577E+01 -0.31346875296E+02  0.37026901681E+02  0.00000000000E+00 0.  1.
</event>
<event>
 7    1  0.1052674E-011  0.5930193E+02  0.7816164E-02  0.1266605E+00
        -11   -1    0    0    0    0  0.00000000000E+00  0.00000000000E+00  0.45593999997E+02  0.45594000000E+02  0.51100000000E-03 0. -1.
         11   -1    0    0    0    0 -0.00000000000E+00 -0.00000000000E+00 -0.45593999997E+02  0.45594000000E+02  0.51100000000E-03 0.  1.
    9900012    2    1    2    0    0  0.24336696909E+02 -0.16479217215E+02 -0.12364547176E+02  0.59301930263E+02  0.49999974896E+02 0.  0.
        -12    1    1    2    0    0 -0.24336696909E+02  0.16479217215E+02  0.12364547176E+02  0.31886069737E+02  0.00000000000E+00 0.  1.
         11    1    3    3    0    0  0.12404468517E+02 -0.78770358824E+01 -0.21783593696E+02  0.26276291368E+02  0.51100000000E-03 0. -1.
        -11    1    3    3    0    0  0.13967629532E+02  0.46846408743E+01  0.12401239179E+02  0.19256979729E+02  0.51100000000E-03 0.  1.
         12    1    3    3    0    0 -0.20354011407E+01 -0.13286822207E+02 -0.29821926586E+01  0.13768659165E+02  0.00000000000E+00 0. -1.
</event>
<event>
 7    1  0.1052674E-011  0.5930192E+02  0.7816164E-02  0.1266605E+00
        -11   -1    0    0    0    0  0.00000000000E+00  0.00000000000E+00  0.45593999997E+02  0.45594000000E+02  0.51100000000E-03 0. -1.
         11   -1    0    0    0    0 -0.00000000000E+00 -0.00000000000E+00 -0.45593999997E+02  0.45594000000E+02  0.51100000000E-03 0.  1.
    9900012    2    1    2    0    0  0.74899642070E+01  0.28369344425E+02  0.12482089943E+02  0.59301924101E+02  0.49999963658E+02 0.  0.
        -12    1    1    2    0    0 -0.74899642070E+01 -0.28369344425E+02 -0.12482089943E+02  0.31886075899E+02  0.00000000000E+00 0.  1.
         11    1    3    3    0    0 -0.42371460069E+01 -0.16029828321E+01  0.13274585180E+02  0.14026317129E+02  0.51100000000E-03 0. -1.
        -11    1    3    3    0    0  0.20391507516E+02  0.16208132979E+02 -0.83324965538E+01  0.27348631639E+02  0.51100000000E-03 0.  1.
        -12    1    3    3    0    0 -0.86643973020E+01  0.13764194278E+02  0.75400013164E+01  0.17926975333E+02  0.00000000000E+00 0.  1.
</event>
<event>
 7    1  0.1052674E-011  0.5930193E+02  0.7816164E-02  0.1266605E+00
        -11   -1    0    0    0    0  0.00000000000E+00  0.00000000000E+00  0.45593999997E+02  0.45594000000E+02  0.51100000000E-03 0.  1.
         11   -1    0    0    0    0 -0.00000000000E+00 -0.00000000000E+00 -0.45593999997E+02  0.45594000000E+02  0.51100000000E-03 0. -1.
    9900012    2    1    2    0    0 -0.31670417968E+02 -0.23874439452E+01 -0.28295363430E+01  0.59301928765E+02  0.49999972165E+02 0.  0.
        -12    1    1    2    0    0  0.31670417968E+02  0.23874439452E+01  0.28295363430E+01  0.31886071235E+02  0.00000000000E+00 0.  1.
         11    1    3    3    0    0 -0.23721775136E+02  0.20437193109E+02  0.88902333329E+00  0.31323981875E+02  0.51100000000E-03 0. -1.
        -11    1    3    3    0    0 -0.11615762310E+02 -0.14339243224E+02 -0.31108677565E+01  0.18714094387E+02  0.51100000000E-03 0.  1.
         12    1    3    3    0    0  0.36671194784E+01 -0.84853938302E+01 -0.60769191976E+00  0.92638525027E+01  0.00000000000E+00 0. -1.
</event>
<event>
 7    1  0.1052674E-011  0.5930194E+02  0.7816164E-02  0.1266605E+00
        -11   -1    0    0    0    0  0.00000000000E+00  0.00000000000E+00  0.45593999997E+02  0.45594000000E+02  0.51100000000E-03 0.  1.
         11   -1    0    0    0    0 -0.00000000000E+00 -0.00000000000E+00 -0.45593999997E+02  0.45594000000E+02  0.51100000000E-03 0. -1.
    9900012    2    1    2    0    0  0.15431974735E+02  0.21331234392E+02 -0.17987594685E+02  0.59301937724E+02  0.49999988503E+02 0.  0.
        -12    1    1    2    0    0 -0.15431974735E+02 -0.21331234392E+02  0.17987594685E+02  0.31886062276E+02  0.00000000000E+00 0.  1.
         11    1    3    3    0    0 -0.10512555640E+02 -0.56784937454E+01 -0.62341523086E+01  0.13476786433E+02  0.51100000000E-03 0. -1.
        -11    1    3    3    0    0  0.21096346244E+02  0.25251607311E+02  0.93351721451E-01  0.32904531777E+02  0.51100000000E-03 0.  1.
         12    1    3    3    0    0  0.48481841315E+01  0.17581208264E+01 -0.11846794098E+02  0.12920619514E+02  0.00000000000E+00 0. -1.
</event>
<event>
 7    1  0.1052674E-011  0.5930191E+02  0.7816164E-02  0.1266605E+00
        -11   -1    0    0    0    0  0.00000000000E+00  0.00000000000E+00  0.45593999997E+02  0.45594000000E+02  0.51100000000E-03 0. -1.
         11   -1    0    0    0    0 -0.00000000000E+00 -0.00000000000E+00 -0.45593999997E+02  0.45594000000E+02  0.51100000000E-03 0.  1.
    9900012    2    1    2    0    0 -0.31470790507E+02  0.27953080638E+01  0.43009895764E+01  0.59301907207E+02  0.49999932847E+02 0.  0.
        -12    1    1    2    0    0  0.31470790507E+02 -0.27953080638E+01 -0.43009895764E+01  0.31886092793E+02  0.00000000000E+00 0.  1.
         11    1    3    3    0    0 -0.45197746846E+01 -0.12651044444E+02 -0.25600088414E+01  0.13675925353E+02  0.51100000000E-03 0. -1.
        -11    1    3    3    0    0 -0.21162677597E+02  0.41450603844E+01  0.18491271656E+02  0.28407174734E+02  0.51100000000E-03 0.  1.
        -12    1    3    3    0    0 -0.57883382253E+01  0.11301292123E+02 -0.11630273238E+02  0.17218807120E+02  0.00000000000E+00 0.  1.
</event>
<event>
 7    1  0.1052674E-011  0.5930194E+02  0.7816164E-02  0.1266605E+00
        -11   -1    0    0    0    0  0.00000000000E+00  0.00000000000E+00  0.45593999997E+02  0.45594000000E+02  0.51100000000E-03 0. -1.
         11   -1    0    0    0    0 -0.00000000000E+00 -0.00000000000E+00 -0.45593999997E+02  0.45594000000E+02  0.51100000000E-03 0.  1.
    9900012    2    1    2    0    0  0.39621106832E+01 -0.23144105274E+02  0.21572504905E+02  0.59301938815E+02  0.49999990494E+02 0.  0.
        -12    1    1    2    0    0 -0.39621106832E+01  0.23144105274E+02 -0.21572504905E+02  0.31886061185E+02  0.00000000000E+00 0.  1.
         11    1    3    3    0    0  0.34336650576E+01  0.69667871720E+01  0.16869458731E+02  0.18571613214E+02  0.51100000000E-03 0. -1.
        -11    1    3    3    0    0 -0.59133745389E+01 -0.20394773322E+02 -0.87167191815E+01  0.22954214664E+02  0.51100000000E-03 0.  1.
        -12    1    3    3    0    0  0.64418201645E+01 -0.97161191235E+01  0.13419765356E+02  0.17776110937E+02  0.00000000000E+00 0.  1.
</event>
<event>
 7    1  0.1052674E-011  0.5930195E+02  0.7816164E-02  0.1266605E+00
        -11   -1    0    0    0    0  0.00000000000E+00  0.00000000000E+00  0.45593999997E+02  0.45594000000E+02  0.51100000000E-03 0.  1.
         11   -1    0    0    0    0 -0.00000000000E+00 -0.00000000000E+00 -0.45593999997E+02  0.45594000000E+02  0.51100000000E-03 0. -1.
    9900012    2    1    2    0    0 -0.62737608519E+01  0.19679650223E+00 -0.31262143630E+02  0.59301946176E+02  0.50000003918E+02 0.  0.
        -12    1    1    2    0    0  0.62737608519E+01 -0.19679650223E+00  0.31262143630E+02  0.31886053824E+02  0.00000000000E+00 0.  1.
         11    1    3    3    0    0  0.49537201656E+01  0.19091124152E+02 -0.10807274604E+02  0.22490165617E+02  0.51100000000E-03 0. -1.
        -11    1    3    3    0    0 -0.16048645274E+02 -0.13267909359E+02 -0.79746621554E+01  0.22297795196E+02  0.51100000000E-03 0.  1.
         12    1    3    3    0    0  0.48211642561E+01 -0.56264182909E+01 -0.12480206871E+02  0.14513985363E+02  0.00000000000E+00 0. -1.
</event>
<event>
 7    1  0.1052674E-011  0.5930199E+02  0.7816164E-02  0.1266605E+00
        -11   -1    0    0    0    0  0.00000000000E+00  0.00000000000E+00  0.45593999997E+02  0.45594000000E+02  0.51100000000E-03 0.  1.
         11   -1    0    0    0    0 -0.00000000000E+00 -0.00000000000E+00 -0.45593999997E+02  0.45594000000E+02  0.51100000000E-03 0. -1.
    9900012    2    1    2    0    0  0.31651726901E+01 -0.30516872193E+02 -0.86844479971E+01  0.59301992981E+02  0.50000089278E+02 0.  0.
        -12    1    1    2    0    0 -0.31651726901E+01  0.30516872193E+02  0.86844479971E+01  0.31886007019E+02  0.00000000000E+00 0.  1.
         11    1    3    3    0    0 -0.15074023037E+02 -0.18273815006E+02  0.99287636798E+01  0.25685381715E+02  0.51100000000E-03 0. -1.
        -11    1    3    3    0    0  0.11286159970E+02 -0.69141202857E+01 -0.21290015872E+00  0.13237363519E+02  0.51100000000E-03 0.  1.
         12    1    3    3    0    0  0.69530357570E+01 -0.53289369016E+01 -0.18400311518E+02  0.20379247746E+02  0.00000000000E+00 0. -1.
</event>
<event>
 7    1  0.1052674E-011  0.5930191E+02  0.7816164E-02  0.1266605E+00
        -11   -1    0    0    0    0  0.00000000000E+00  0.00000000000E+00  0.45593999997E+02  0.45594000000E+02  0.51100000000E-03 0.  1.
         11   -1    0    0    0    0 -0.00000000000E+00 -0.00000000000E+00 -0.45593999997E+02  0.45594000000E+02  0.51100000000E-03 0. -1.
    9900012    2    1    2    0    0  0.30744231385E+02 -0.84019399142E+01  0.96030756763E+00  0.59301912934E+02  0.49999943293E+02 0.  0.
        -12    1    1    2    0    0 -0.30744231385E+02  0.84019399142E+01 -0.96030756763E+00  0.31886087066E+02  0.00000000000E+00 0.  1.
         11    1    3    3    0    0  0.16970653737E+02  0.70419991379E+01 -0.17308736634E+02  0.25242527691E+02  0.51100000000E-03 0. -1.
        -11    1    3    3    0    0  0.48278930707E+01 -0.17843785066E+02  0.16176467989E+02  0.24563943776E+02  0.51100000000E-03 0.  1.
         12    1    3    3    0    0  0.89456845770E+01  0.23998460135E+01  0.20925762127E+01  0.94954414666E+01  0.00000000000E+00 0. -1.
</event>
<event>
 7    1  0.1052674E-011  0.5930195E+02  0.7816164E-02  0.1266605E+00
        -11   -1    0    0    0    0  0.00000000000E+00  0.00000000000E+00  0.45593999997E+02  0.45594000000E+02  0.51100000000E-03 0. -1.
         11   -1    0    0    0    0 -0.00000000000E+00 -0.00000000000E+00 -0.45593999997E+02  0.45594000000E+02  0.51100000000E-03 0.  1.
    9900012    2    1    2    0    0  0.21000977501E+02  0.92545089470E+01  0.22136690137E+02  0.59301952235E+02  0.50000014968E+02 0.  0.
        -12    1    1    2    0    0 -0.21000977501E+02 -0.92545089470E+01 -0.22136690137E+02  0.31886047765E+02  0.00000000000E+00 0.  1.
         11    1    3    3    0    0  0.77701793236E+01 -0.18790100151E+02  0.54262469717E+01  0.21044897407E+02  0.51100000000E-03 0. -1.
        -11    1    3    3    0    0  0.15050619200E+02  0.15846058142E+02  0.12757205570E+02  0.25305434024E+02  0.51100000000E-03 0.  1.
        -12    1    3    3    0    0 -0.18198210226E+01  0.12198550956E+02  0.39532375957E+01  0.12951620805E+02  0.00000000000E+00 0.  1.
</event>
<event>
 7    1  0.1052674E-011  0.5930196E+02  0.7816164E-02  0.1266605E+00
        -11   -1    0    0    0    0  0.00000000000E+00  0.00000000000E+00  0.45593999997E+02  0.45594000000E+02  0.51100000000E-03 0. -1.
         11   -1    0    0    0    0 -0.00000000000E+00 -0.00000000000E+00 -0.45593999997E+02  0.45594000000E+02  0.51100000000E-03 0.  1.
    9900012    2    1    2    0    0  0.11666206616E+01  0.29385875302E+01  0.31728903970E+02  0.59301958421E+02  0.50000026251E+02 0.  0.
        -12    1    1    2    0    0 -0.11666206616E+01 -0.29385875302E+01 -0.31728903970E+02  0.31886041579E+02  0.00000000000E+00 0.  1.
         11    1    3    3    0    0 -0.80012384035E+01  0.11973554946E+02  0.25260863353E+02  0.29077431998E+02  0.51100000000E-03 0. -1.
        -11    1    3    3    0    0 -0.98778587609E+00 -0.11073061791E+02 -0.70727834047E+01  0.13176216594E+02  0.51100000000E-03 0.  1.
         12    1    3    3    0    0  0.10155644941E+02  0.20380943755E+01  0.13540824022E+02  0.17048309830E+02  0.00000000000E+00 0. -1.
</event>
<event>
 7    1  0.1052674E-011  0.5930196E+02  0.7816164E-02  0.1266605E+00
        -11   -1    0    0    0    0  0.00000000000E+00  0.00000000000E+00  0.45593999997E+02  0.45594000000E+02  0.51100000000E-03 0.  1.
         11   -1    0    0    0    0 -0.00000000000E+00 -0.00000000000E+00 -0.45593999997E+02  0.45594000000E+02  0.51100000000E-03 0. -1.
    9900012    2    1    2    0    0  0.30351679260E+01  0.50617621679E+01 -0.31335057946E+02  0.59301960154E+02  0.50000029411E+02 0.  0.
        -12    1    1    2    0    0 -0.30351679260E+01 -0.50617621679E+01  0.31335057946E+02  0.31886039846E+02  0.00000000000E+00 0.  1.
         11    1    3    3    0    0 -0.83181270926E+01  0.15556360293E+02 -0.28772809574E+02  0.33750054147E+02  0.51100000000E-03 0. -1.
        -11    1    3    3    0    0 -0.79606556433E+00 -0.11108258509E+02  0.38714966960E+01  0.11790488303E+02  0.51100000000E-03 0.  1.
         12    1    3    3    0    0  0.12149360583E+02  0.61366038374E+00 -0.64337450674E+01  0.13761417704E+02  0.00000000000E+00 0. -1.
</event>
<event>
 7    1  0.1052674E-011  0.5930193E+02  0.7816164E-02  0.1266605E+00
        -11   -1    0    0    0    0  0.00000000000E+00  0.00000000000E+00  0.45593999997E+02  0.45594000000E+02  0.51100000000E-03 0.  1.
         11   -1    0    0    0    0 -0.00000000000E+00 -0.00000000000E+00 -0.45593999997E+02  0.45594000000E+02  0.51100000000E-03 0. -1.
    9900012    2    1    2    0    0  0.14669104980E+01 -0.43361100171E+01 -0.31555784219E+02  0.59301934169E+02  0.49999982021E+02 0.  0.
        -12    1    1    2    0    0 -0.14669104980E+01  0.43361100171E+01  0.31555784219E+02  0.31886065831E+02  0.00000000000E+00 0.  1.
         11    1    3    3    0    0 -0.85964827695E+00  0.81335533745E+01  0.64900170161E+01  0.10440977291E+02  0.51100000000E-03 0. -1.
        -11    1    3    3    0    0  0.93913143148E+01 -0.17764805606E+02 -0.18083049699E+02  0.27032975964E+02  0.51100000000E-03 0.  1.
         12    1    3    3    0    0 -0.70647555399E+01  0.52951422148E+01 -0.19962751536E+02  0.21827980914E+02  0.00000000000E+00 0. -1.
</event>
<event>
 7    1  0.1052674E-011  0.5930184E+02  0.7816164E-02  0.1266605E+00
        -11   -1    0    0    0    0  0.00000000000E+00  0.00000000000E+00  0.45593999997E+02  0.45594000000E+02  0.51100000000E-03 0.  1.
         11   -1    0    0    0    0 -0.00000000000E+00 -0.00000000000E+00 -0.45593999997E+02  0.45594000000E+02  0.51100000000E-03 0. -1.
    9900012    2    1    2    0    0  0.40458839963E+01  0.18092892870E+01 -0.31576646557E+02  0.59301838224E+02  0.49999807039E+02 0.  0.
        -12    1    1    2    0    0 -0.40458839963E+01 -0.18092892870E+01  0.31576646557E+02  0.31886161776E+02  0.00000000000E+00 0.  1.
         11    1    3    3    0    0  0.13945833795E+01 -0.88846576153E+01 -0.40052759307E+02  0.41050036932E+02  0.51100000000E-03 0. -1.
        -11    1    3    3    0    0 -0.31985853120E+01  0.90939350798E+01  0.30419194496E+01  0.10108604129E+02  0.51100000000E-03 0.  1.
        -12    1    3    3    0    0  0.58498859288E+01  0.16000118225E+01  0.54341933009E+01  0.81431971635E+01  0.00000000000E+00 0.  1.
</event>
<event>
 7    1  0.1052674E-011  0.5930179E+02  0.7816164E-02  0.1266605E+00
        -11   -1    0    0    0    0  0.00000000000E+00  0.00000000000E+00  0.45593999997E+02  0.45594000000E+02  0.51100000000E-03 0.  1.
         11   -1    0    0    0    0 -0.00000000000E+00 -0.00000000000E+00 -0.45593999997E+02  0.45594000000E+02  0.51100000000E-03 0. -1.
    9900012    2    1    2    0    0  0.18528405788E+01  0.31655502021E+02  0.33505822835E+01  0.59301792511E+02  0.49999723669E+02 0.  0.
        -12    1    1    2    0    0 -0.18528405788E+01 -0.31655502021E+02 -0.33505822835E+01  0.31886207489E+02  0.00000000000E+00 0.  1.
         11    1    3    3    0    0 -0.65181116509E+01  0.83962975451E+01 -0.21530436238E+02  0.24011315600E+02  0.51100000000E-03 0.  1.
        -11    1    3    3    0    0  0.23407967161E+01  0.12030714591E+02  0.11402260685E+02  0.16740040975E+02  0.51100000000E-03 0. -1.
        -12    1    3    3    0    0  0.60301555137E+01  0.11228489885E+02  0.13478757836E+02  0.18550435936E+02  0.00000000000E+00 0.  1.
</event>
<event>
 7    1  0.1156726E-011  0.5930194E+02  0.7816164E-02  0.1266605E+00
        -11   -1    0    0    0    0  0.00000000000E+00  0.00000000000E+00  0.45593999997E+02  0.45594000000E+02  0.51100000000E-03 0. -1.
         11   -1    0    0    0    0 -0.00000000000E+00 -0.00000000000E+00 -0.45593999997E+02  0.45594000000E+02  0.51100000000E-03 0.  1.
    9900012    2    1    2    0    0 -0.89870295397E+01  0.26871711052E+02  0.14624132045E+02  0.59301940462E+02  0.49999993497E+02 0.  0.
        -12    1    1    2    0    0  0.89870295397E+01 -0.26871711052E+02 -0.14624132045E+02  0.31886059538E+02  0.00000000000E+00 0.  1.
         11    1    3    3    0    0 -0.19336914903E+02  0.32325943145E+02  0.24140291628E+01  0.37745336338E+02  0.51100000000E-03 0. -1.
        -11    1    3    3    0    0  0.12516328956E+01 -0.26491229033E+01 -0.26218946467E+01  0.39317640903E+01  0.51100000000E-03 0.  1.
         12    1    3    3    0    0  0.90982524673E+01 -0.28051091903E+01  0.14831997529E+02  0.17624840034E+02  0.00000000000E+00 0. -1.
</event>
<event>
 7    1  0.1052674E-011  0.5930190E+02  0.7816164E-02  0.1266605E+00
        -11   -1    0    0    0    0  0.00000000000E+00  0.00000000000E+00  0.45593999997E+02  0.45594000000E+02  0.51100000000E-03 0.  1.
         11   -1    0    0    0    0 -0.00000000000E+00 -0.00000000000E+00 -0.45593999997E+02  0.45594000000E+02  0.51100000000E-03 0. -1.
    9900012    2    1    2    0    0  0.11567049141E+02 -0.13968416694E+02 -0.26226127508E+02  0.59301904992E+02  0.49999928809E+02 0.  0.
        -12    1    1    2    0    0 -0.11567049141E+02  0.13968416694E+02  0.26226127508E+02  0.31886095008E+02  0.00000000000E+00 0.  1.
         11    1    3    3    0    0  0.80407506540E+01 -0.13190732070E+02 -0.20001664027E+01  0.15577218928E+02  0.51100000000E-03 0. -1.
        -11    1    3    3    0    0  0.20364457779E+01 -0.39879796272E+01 -0.33500176150E+02  0.33798119700E+02  0.51100000000E-03 0.  1.
        -12    1    3    3    0    0  0.14898527088E+01  0.32102950030E+01  0.92742150445E+01  0.99265663646E+01  0.00000000000E+00 0.  1.
</event>
<event>
 7    1  0.1052674E-011  0.5930199E+02  0.7816164E-02  0.1266605E+00
        -11   -1    0    0    0    0  0.00000000000E+00  0.00000000000E+00  0.45593999997E+02  0.45594000000E+02  0.51100000000E-03 0.  1.
         11   -1    0    0    0    0 -0.00000000000E+00 -0.00000000000E+00 -0.45593999997E+02  0.45594000000E+02  0.51100000000E-03 0. -1.
    9900012    2    1    2    0    0  0.27538570835E+02 -0.14013182016E+02 -0.78724467831E+01  0.59301990965E+02  0.50000085602E+02 0.  0.
        -12    1    1    2    0    0 -0.27538570835E+02  0.14013182016E+02  0.78724467831E+01  0.31886009035E+02  0.00000000000E+00 0.  1.
         11    1    3    3    0    0  0.10521205305E+02 -0.89941998474E+01 -0.14363989493E+02  0.19947821595E+02  0.51100000000E-03 0. -1.
        -11    1    3    3    0    0  0.54053364050E+01 -0.15493734684E+02  0.14398080318E+02  0.21830670929E+02  0.51100000000E-03 0.  1.
        -12    1    3    3    0    0  0.11612029125E+02  0.10474752515E+02 -0.79065376082E+01  0.17523498441E+02  0.00000000000E+00 0.  1.
</event>
<event>
 7    1  0.1052674E-011  0.5930191E+02  0.7816164E-02  0.1266605E+00
        -11   -1    0    0    0    0  0.00000000000E+00  0.00000000000E+00  0.45593999997E+02  0.45594000000E+02  0.51100000000E-03 0.  1.
         11   -1    0    0    0    0 -0.00000000000E+00 -0.00000000000E+00 -0.45593999997E+02  0.45594000000E+02  0.51100000000E-03 0. -1.
    9900012    2    1    2    0    0  0.12990816830E+02  0.29118112078E+02  0.31122601687E+00  0.59301911584E+02  0.49999940830E+02 0.  0.
        -12    1    1    2    0    0 -0.12990816830E+02 -0.29118112078E+02 -0.31122601687E+00  0.31886088416E+02  0.00000000000E+00 0.  1.
         11    1    3    3    0    0  0.22277153427E+02  0.28744075019E+02 -0.16016287760E+02  0.39736820298E+02  0.51100000000E-03 0. -1.
        -11    1    3    3    0    0 -0.17552000732E+01  0.26936789581E+00  0.85724917081E+01  0.87544788941E+01  0.51100000000E-03 0.  1.
         12    1    3    3    0    0 -0.75311365243E+01  0.10466916228E+00  0.77550220687E+01  0.10810612391E+02  0.00000000000E+00 0. -1.
</event>
<event>
 7    1  0.1052674E-011  0.5930201E+02  0.7816164E-02  0.1266605E+00
        -11   -1    0    0    0    0  0.00000000000E+00  0.00000000000E+00  0.45593999997E+02  0.45594000000E+02  0.51100000000E-03 0.  1.
         11   -1    0    0    0    0 -0.00000000000E+00 -0.00000000000E+00 -0.45593999997E+02  0.45594000000E+02  0.51100000000E-03 0. -1.
    9900012    2    1    2    0    0 -0.10316399632E+02 -0.29222821854E+02 -0.75043331002E+01  0.59302008817E+02  0.50000118159E+02 0.  0.
        -12    1    1    2    0    0  0.10316399632E+02  0.29222821854E+02  0.75043331002E+01  0.31885991183E+02  0.00000000000E+00 0.  1.
         11    1    3    3    0    0  0.14193128818E+02 -0.17217521152E+02 -0.22360919904E+01  0.22425165505E+02  0.51100000000E-03 0. -1.
        -11    1    3    3    0    0 -0.12667508014E+02 -0.80640464240E+01  0.93236390942E+01  0.17675543846E+02  0.51100000000E-03 0.  1.
         12    1    3    3    0    0 -0.11842020436E+02 -0.39412542772E+01 -0.14591880204E+02  0.19201299466E+02  0.00000000000E+00 0. -1.
</event>
<event>
 7    1  0.1052674E-011  0.5930197E+02  0.7816164E-02  0.1266605E+00
        -11   -1    0    0    0    0  0.00000000000E+00  0.00000000000E+00  0.45593999997E+02  0.45594000000E+02  0.51100000000E-03 0. -1.
         11   -1    0    0    0    0 -0.00000000000E+00 -0.00000000000E+00 -0.45593999997E+02  0.45594000000E+02  0.51100000000E-03 0.  1.
    9900012    2    1    2    0    0 -0.21202796870E+02 -0.12834079581E+02  0.20061068614E+02  0.59301973786E+02  0.50000054272E+02 0.  0.
        -12    1    1    2    0    0  0.21202796870E+02  0.12834079581E+02 -0.20061068614E+02  0.31886026214E+02  0.00000000000E+00 0.  1.
         11    1    3    3    0    0 -0.29770728038E+02  0.35171450099E+01  0.17252715023E+02  0.34587898648E+02  0.51100000000E-03 0. -1.
        -11    1    3    3    0    0  0.62968883590E+01 -0.12848066082E+02 -0.55692567316E+01  0.15353834239E+02  0.51100000000E-03 0.  1.
         12    1    3    3    0    0  0.22710428089E+01 -0.35031585089E+01  0.83776103224E+01  0.93602408992E+01  0.00000000000E+00 0. -1.
</event>
<event>
 7    1  0.1052674E-011  0.5930192E+02  0.7816164E-02  0.1266605E+00
        -11   -1    0    0    0    0  0.00000000000E+00  0.00000000000E+00  0.45593999997E+02  0.45594000000E+02  0.51100000000E-03 0. -1.
         11   -1    0    0    0    0 -0.00000000000E+00 -0.00000000000E+00 -0.45593999997E+02  0.45594000000E+02  0.51100000000E-03 0.  1.
    9900012    2    1    2    0    0  0.21448557193E+02  0.12471832848E+01  0.23561107293E+02  0.59301923905E+02  0.49999963302E+02 0.  0.
        -12    1    1    2    0    0 -0.21448557193E+02 -0.12471832848E+01 -0.23561107293E+02  0.31886076095E+02  0.00000000000E+00 0.  1.
         11    1    3    3    0    0  0.15686731343E+02 -0.28901572297E+01  0.37501974959E+02  0.40753216746E+02  0.51100000000E-03 0. -1.
        -11    1    3    3    0    0  0.84215843021E+01  0.22394591767E+01 -0.83264894892E+01  0.12052746037E+02  0.51100000000E-03 0.  1.
         12    1    3    3    0    0 -0.26597584514E+01  0.18978813377E+01 -0.56143781767E+01  0.64959611224E+01  0.00000000000E+00 0. -1.
</event>
<event>
 7    1  0.1052674E-011  0.5930192E+02  0.7816164E-02  0.1266605E+00
        -11   -1    0    0    0    0  0.00000000000E+00  0.00000000000E+00  0.45593999997E+02  0.45594000000E+02  0.51100000000E-03 0.  1.
         11   -1    0    0    0    0 -0.00000000000E+00 -0.00000000000E+00 -0.45593999997E+02  0.45594000000E+02  0.51100000000E-03 0. -1.
    9900012    2    1    2    0    0 -0.19345980737E+01 -0.26717664851E+02 -0.17295827131E+02  0.59301922773E+02  0.49999961237E+02 0.  0.
        -12    1    1    2    0    0  0.19345980737E+01  0.26717664851E+02  0.17295827131E+02  0.31886077227E+02  0.00000000000E+00 0.  1.
         11    1    3    3    0    0  0.51718650137E+01 -0.84399793438E+01  0.49799244907E+00  0.99110764191E+01  0.51100000000E-03 0. -1.
        -11    1    3    3    0    0 -0.18681473211E+02 -0.65646691106E+01 -0.24593989269E+02  0.31574620034E+02  0.51100000000E-03 0.  1.
        -12    1    3    3    0    0  0.11575010124E+02 -0.11713016396E+02  0.68001696899E+01  0.17816226320E+02  0.00000000000E+00 0.  1.
</event>
<event>
 7    1  0.1052674E-011  0.5930195E+02  0.7816164E-02  0.1266605E+00
        -11   -1    0    0    0    0  0.00000000000E+00  0.00000000000E+00  0.45593999997E+02  0.45594000000E+02  0.51100000000E-03 0. -1.
         11   -1    0    0    0    0 -0.00000000000E+00 -0.00000000000E+00 -0.45593999997E+02  0.45594000000E+02  0.51100000000E-03 0.  1.
    9900012    2    1    2    0    0  0.22978447242E+02  0.45278103571E+01  0.21638161921E+02  0.59301950454E+02  0.50000011721E+02 0.  0.
        -12    1    1    2    0    0 -0.22978447242E+02 -0.45278103571E+01 -0.21638161921E+02  0.31886049546E+02  0.00000000000E+00 0.  1.
         11    1    3    3    0    0  0.16305614613E+00  0.11824811371E+02  0.95373775389E+01  0.15192574563E+02  0.51100000000E-03 0. -1.
        -11    1    3    3    0    0  0.47563614773E+01 -0.16876790058E+02 -0.41215978024E+01  0.18012123303E+02  0.51100000000E-03 0.  1.
        -12    1    3    3    0    0  0.18059029619E+02  0.95797890441E+01  0.16222382185E+02  0.26097252588E+02  0.00000000000E+00 0.  1.
</event>
<event>
 7    1  0.1052674E-011  0.5930192E+02  0.7816164E-02  0.1266605E+00
        -11   -1    0    0    0    0  0.00000000000E+00  0.00000000000E+00  0.45593999997E+02  0.45594000000E+02  0.51100000000E-03 0.  1.
         11   -1    0    0    0    0 -0.00000000000E+00 -0.00000000000E+00 -0.45593999997E+02  0.45594000000E+02  0.51100000000E-03 0. -1.
    9900012    2    1    2    0    0  0.13708585493E+02  0.16662141582E+02 -0.23477001356E+02  0.59301923556E+02  0.49999962664E+02 0.  0.
        -12    1    1    2    0    0 -0.13708585493E+02 -0.16662141582E+02  0.23477001356E+02  0.31886076444E+02  0.00000000000E+00 0.  1.
         11    1    3    3    0    0  0.11145380807E+02  0.22710274073E+02 -0.73624264691E+01  0.26347322171E+02  0.51100000000E-03 0. -1.
        -11    1    3    3    0    0  0.14272366243E+02 -0.77793142080E+01 -0.58125714044E+01  0.17262796827E+02  0.51100000000E-03 0.  1.
        -12    1    3    3    0    0 -0.11709161557E+02  0.17311817166E+01 -0.10302003483E+02  0.15691804557E+02  0.00000000000E+00 0.  1.
</event>
<event>
 7    1  0.1052674E-011  0.5930195E+02  0.7816164E-02  0.1266605E+00
        -11   -1    0    0    0    0  0.00000000000E+00  0.00000000000E+00  0.45593999997E+02  0.45594000000E+02  0.51100000000E-03 0.  1.
         11   -1    0    0    0    0 -0.00000000000E+00 -0.00000000000E+00 -0.45593999997E+02  0.45594000000E+02  0.51100000000E-03 0. -1.
    9900012    2    1    2    0    0  0.13634811592E+01  0.29584094602E+02 -0.11817044872E+02  0.59301948444E+02  0.50000008055E+02 0.  0.
        -12    1    1    2    0    0 -0.13634811592E+01 -0.29584094602E+02  0.11817044872E+02  0.31886051556E+02  0.00000000000E+00 0.  1.
         11    1    3    3    0    0  0.97239601579E+01 -0.70087869557E+01 -0.14044909256E+02  0.18464505734E+02  0.51100000000E-03 0. -1.
        -11    1    3    3    0    0 -0.88923150026E+01  0.17049782219E+02  0.74169499017E+01  0.20610179182E+02  0.51100000000E-03 0.  1.
         12    1    3    3    0    0  0.53183600383E+00  0.19543099339E+02 -0.51890855172E+01  0.20227263528E+02  0.00000000000E+00 0. -1.
</event>
<event>
 7    1  0.1052674E-011  0.5930194E+02  0.7816164E-02  0.1266605E+00
        -11   -1    0    0    0    0  0.00000000000E+00  0.00000000000E+00  0.45593999997E+02  0.45594000000E+02  0.51100000000E-03 0. -1.
         11   -1    0    0    0    0 -0.00000000000E+00 -0.00000000000E+00 -0.45593999997E+02  0.45594000000E+02  0.51100000000E-03 0.  1.
    9900012    2    1    2    0    0  0.10640624666E+02  0.18484501635E+02  0.23702770296E+02  0.59301937000E+02  0.49999987182E+02 0.  0.
        -12    1    1    2    0    0 -0.10640624666E+02 -0.18484501635E+02 -0.23702770296E+02  0.31886063000E+02  0.00000000000E+00 0.  1.
         11    1    3    3    0    0 -0.14830225862E+02  0.91534203547E+01  0.20524717635E+02  0.26925540618E+02  0.51100000000E-03 0. -1.
        -11    1    3    3    0    0  0.10128508358E+02 -0.11205107945E+01 -0.58322433301E+01  0.11741264349E+02  0.51100000000E-03 0.  1.
         12    1    3    3    0    0  0.15342342170E+02  0.10451592074E+02  0.90102959908E+01  0.20635132032E+02  0.00000000000E+00 0. -1.
</event>
<event>
 7    1  0.1052674E-011  0.5930194E+02  0.7816164E-02  0.1266605E+00
        -11   -1    0    0    0    0  0.00000000000E+00  0.00000000000E+00  0.45593999997E+02  0.45594000000E+02  0.51100000000E-03 0. -1.
         11   -1    0    0    0    0 -0.00000000000E+00 -0.00000000000E+00 -0.45593999997E+02  0.45594000000E+02  0.51100000000E-03 0.  1.
    9900012    2    1    2    0    0 -0.19116424783E+02  0.23363686648E+02 -0.10267476734E+02  0.59301943036E+02  0.49999998191E+02 0.  0.
        -12    1    1    2    0    0  0.19116424783E+02 -0.23363686648E+02  0.10267476734E+02  0.31886056964E+02  0.00000000000E+00 0.  1.
         11    1    3    3    0    0  0.41736751967E+01  0.20204207084E+02  0.30449784384E+01  0.20854290745E+02  0.51100000000E-03 0. -1.
        -11    1    3    3    0    0 -0.15717593718E+02 -0.54412161870E+01  0.45332975379E+01  0.17239500361E+02  0.51100000000E-03 0.  1.
         12    1    3    3    0    0 -0.75725062624E+01  0.86006957508E+01 -0.17845752710E+02  0.21208151930E+02  0.00000000000E+00 0. -1.
</event>
<event>
 7    1  0.1052674E-011  0.5930193E+02  0.7816164E-02  0.1266605E+00
        -11   -1    0    0    0    0  0.00000000000E+00  0.00000000000E+00  0.45593999997E+02  0.45594000000E+02  0.51100000000E-03 0. -1.
         11   -1    0    0    0    0 -0.00000000000E+00 -0.00000000000E+00 -0.45593999997E+02  0.45594000000E+02  0.51100000000E-03 0.  1.
    9900012    2    1    2    0    0 -0.16380127350E+02 -0.12450571830E+02  0.24359723284E+02  0.59301930481E+02  0.49999975295E+02 0.  0.
        -12    1    1    2    0    0  0.16380127350E+02  0.12450571830E+02 -0.24359723284E+02  0.31886069519E+02  0.00000000000E+00 0.  1.
         11    1    3    3    0    0  0.24728630497E+01 -0.21181760702E+01  0.42424776832E+01  0.53479284476E+01  0.51100000000E-03 0. -1.
        -11    1    3    3    0    0 -0.23024590776E+02 -0.25216266383E+02  0.10397181600E+02  0.35694442931E+02  0.51100000000E-03 0.  1.
        -12    1    3    3    0    0  0.41716003755E+01  0.14883870624E+02  0.97200640009E+01  0.18259559103E+02  0.00000000000E+00 0.  1.
</event>
<event>
 7    1  0.1052674E-011  0.5930191E+02  0.7816164E-02  0.1266605E+00
        -11   -1    0    0    0    0  0.00000000000E+00  0.00000000000E+00  0.45593999997E+02  0.45594000000E+02  0.51100000000E-03 0. -1.
         11   -1    0    0    0    0 -0.00000000000E+00 -0.00000000000E+00 -0.45593999997E+02  0.45594000000E+02  0.51100000000E-03 0.  1.
    9900012    2    1    2    0    0 -0.85763784360E+01 -0.30608497074E+02  0.25076422315E+01  0.59301911658E+02  0.49999940965E+02 0.  0.
        -12    1    1    2    0    0  0.85763784360E+01  0.30608497074E+02 -0.25076422315E+01  0.31886088342E+02  0.00000000000E+00 0.  1.
         11    1    3    3    0    0 -0.23033494987E+02 -0.21481025797E+02  0.97558684054E+01  0.32972008268E+02  0.51100000000E-03 0. -1.
        -11    1    3    3    0    0  0.17019512399E+02 -0.91234091524E+01 -0.72811315793E+00  0.19324351112E+02  0.51100000000E-03 0.  1.
        -12    1    3    3    0    0 -0.25623958473E+01 -0.40621240596E-02 -0.65201130159E+01  0.70055522780E+01  0.00000000000E+00 0.  1.
</event>
<event>
 7    1  0.1052674E-011  0.5930196E+02  0.7816164E-02  0.1266605E+00
        -11   -1    0    0    0    0  0.00000000000E+00  0.00000000000E+00  0.45593999997E+02  0.45594000000E+02  0.51100000000E-03 0. -1.
         11   -1    0    0    0    0 -0.00000000000E+00 -0.00000000000E+00 -0.45593999997E+02  0.45594000000E+02  0.51100000000E-03 0.  1.
    9900012    2    1    2    0    0  0.10783839588E+02  0.27349754529E+02  0.12345823698E+02  0.59301958667E+02  0.50000026699E+02 0.  0.
        -12    1    1    2    0    0 -0.10783839588E+02 -0.27349754529E+02 -0.12345823698E+02  0.31886041333E+02  0.00000000000E+00 0.  1.
         11    1    3    3    0    0 -0.91523120121E+01  0.13444054441E+00  0.20471699210E+02  0.22424837975E+02  0.51100000000E-03 0. -1.
        -11    1    3    3    0    0  0.11567817919E+02  0.57221151098E+01 -0.29715696252E+01  0.13243384727E+02  0.51100000000E-03 0.  1.
         12    1    3    3    0    0  0.83683336813E+01  0.21493198875E+02 -0.51543058860E+01  0.23633735965E+02  0.00000000000E+00 0. -1.
</event>
<event>
 7    1  0.1052674E-011  0.5930206E+02  0.7816164E-02  0.1266604E+00
        -11   -1    0    0    0    0  0.00000000000E+00  0.00000000000E+00  0.45593999997E+02  0.45594000000E+02  0.51100000000E-03 0.  1.
         11   -1    0    0    0    0 -0.00000000000E+00 -0.00000000000E+00 -0.45593999997E+02  0.45594000000E+02  0.51100000000E-03 0. -1.
    9900012    2    1    2    0    0  0.11369392547E+02  0.26662570362E+02 -0.13287493497E+02  0.59302059076E+02  0.50000209820E+02 0.  0.
        -12    1    1    2    0    0 -0.11369392547E+02 -0.26662570362E+02  0.13287493497E+02  0.31885940924E+02  0.00000000000E+00 0.  1.
         11    1    3    3    0    0  0.28180039582E+02  0.20980042886E+02  0.11802785800E+01  0.35152096497E+02  0.51100000000E-03 0. -1.
        -11    1    3    3    0    0 -0.10001600439E+02  0.86380840079E+00 -0.41018859450E+01  0.10844521421E+02  0.51100000000E-03 0.  1.
         12    1    3    3    0    0 -0.68090465966E+01  0.48187190749E+01 -0.10365886132E+02  0.13305441157E+02  0.00000000000E+00 0. -1.
</event>
<event>
 7    1  0.1052674E-011  0.5930196E+02  0.7816164E-02  0.1266605E+00
        -11   -1    0    0    0    0  0.00000000000E+00  0.00000000000E+00  0.45593999997E+02  0.45594000000E+02  0.51100000000E-03 0. -1.
         11   -1    0    0    0    0 -0.00000000000E+00 -0.00000000000E+00 -0.45593999997E+02  0.45594000000E+02  0.51100000000E-03 0.  1.
    9900012    2    1    2    0    0  0.40763978865E+01  0.15545480578E+02  0.27539799792E+02  0.59301959814E+02  0.50000028791E+02 0.  0.
        -12    1    1    2    0    0 -0.40763978865E+01 -0.15545480578E+02 -0.27539799792E+02  0.31886040186E+02  0.00000000000E+00 0.  1.
         11    1    3    3    0    0  0.21651688350E+01  0.16620978630E+02  0.30847071541E+02  0.35106790079E+02  0.51100000000E-03 0. -1.
        -11    1    3    3    0    0 -0.15219666036E+01  0.10258808512E+02 -0.60938307108E+01  0.12028894688E+02  0.51100000000E-03 0.  1.
         12    1    3    3    0    0  0.34331956550E+01 -0.11334306564E+02  0.27865589617E+01  0.12166275048E+02  0.00000000000E+00 0. -1.
</event>
<event>
 7    1  0.1052674E-011  0.5930197E+02  0.7816164E-02  0.1266605E+00
        -11   -1    0    0    0    0  0.00000000000E+00  0.00000000000E+00  0.45593999997E+02  0.45594000000E+02  0.51100000000E-03 0. -1.
         11   -1    0    0    0    0 -0.00000000000E+00 -0.00000000000E+00 -0.45593999997E+02  0.45594000000E+02  0.51100000000E-03 0.  1.
    9900012    2    1    2    0    0 -0.21011239413E+02 -0.23698731349E+01  0.23866934474E+02  0.59301967925E+02  0.50000043582E+02 0.  0.
        -12    1    1    2    0    0  0.21011239413E+02  0.23698731349E+01 -0.23866934474E+02  0.31886032075E+02  0.00000000000E+00 0.  1.
         11    1    3    3    0    0 -0.22552515002E+01  0.92331914645E-01  0.33519363548E+02  0.33595273737E+02  0.51100000000E-03 0. -1.
        -11    1    3    3    0    0 -0.15091427396E+02 -0.75728955329E+01 -0.95887844556E+01  0.19417639280E+02  0.51100000000E-03 0.  1.
        -12    1    3    3    0    0 -0.36645605163E+01  0.51106904834E+01 -0.63644619163E-01  0.62890549077E+01  0.00000000000E+00 0.  1.
</event>
<event>
 7    1  0.1052674E-011  0.5930194E+02  0.7816164E-02  0.1266605E+00
        -11   -1    0    0    0    0  0.00000000000E+00  0.00000000000E+00  0.45593999997E+02  0.45594000000E+02  0.51100000000E-03 0.  1.
         11   -1    0    0    0    0 -0.00000000000E+00 -0.00000000000E+00 -0.45593999997E+02  0.45594000000E+02  0.51100000000E-03 0. -1.
    9900012    2    1    2    0    0  0.15087462094E+02  0.82692235577E+01 -0.26846025934E+02  0.59301942245E+02  0.49999996749E+02 0.  0.
        -12    1    1    2    0    0 -0.15087462094E+02 -0.82692235577E+01  0.26846025934E+02  0.31886057755E+02  0.00000000000E+00 0.  1.
         11    1    3    3    0    0  0.11840026336E+02  0.96751170405E+01 -0.37852172995E+02  0.40823781232E+02  0.51100000000E-03 0. -1.
        -11    1    3    3    0    0 -0.36140343159E+00  0.78656058992E+00  0.13530733414E+02  0.13558393599E+02  0.51100000000E-03 0.  1.
        -12    1    3    3    0    0  0.36088391896E+01 -0.21924540727E+01 -0.25245863534E+01  0.49197674145E+01  0.00000000000E+00 0.  1.
</event>
<event>
 7    1  0.1052674E-011  0.5930194E+02  0.7816164E-02  0.1266605E+00
        -11   -1    0    0    0    0  0.00000000000E+00  0.00000000000E+00  0.45593999997E+02  0.45594000000E+02  0.51100000000E-03 0. -1.
         11   -1    0    0    0    0 -0.00000000000E+00 -0.00000000000E+00 -0.45593999997E+02  0.45594000000E+02  0.51100000000E-03 0.  1.
    9900012    2    1    2    0    0 -0.29569624263E+02 -0.68030299432E+01  0.98018917316E+01  0.59301937575E+02  0.49999988232E+02 0.  0.
        -12    1    1    2    0    0  0.29569624263E+02  0.68030299432E+01 -0.98018917316E+01  0.31886062425E+02  0.00000000000E+00 0.  1.
         11    1    3    3    0    0  0.28493505256E+01  0.93624046957E+01 -0.92880097269E+01  0.13492240179E+02  0.51100000000E-03 0. -1.
        -11    1    3    3    0    0 -0.19283926316E+02 -0.20171891854E+02  0.12512439067E+02  0.30583266123E+02  0.51100000000E-03 0.  1.
         12    1    3    3    0    0 -0.13135048472E+02  0.40064572147E+01  0.65774623918E+01  0.15226431273E+02  0.00000000000E+00 0. -1.
</event>
<event>
 7    1  0.1052674E-011  0.5930192E+02  0.7816164E-02  0.1266605E+00
        -11   -1    0    0    0    0  0.00000000000E+00  0.00000000000E+00  0.45593999997E+02  0.45594000000E+02  0.51100000000E-03 0. -1.
         11   -1    0    0    0    0 -0.00000000000E+00 -0.00000000000E+00 -0.45593999997E+02  0.45594000000E+02  0.51100000000E-03 0.  1.
    9900012    2    1    2    0    0  0.24132321722E+02  0.18344259776E+02  0.98914767850E+01  0.59301919472E+02  0.49999955217E+02 0.  0.
        -12    1    1    2    0    0 -0.24132321722E+02 -0.18344259776E+02 -0.98914767850E+01  0.31886080528E+02  0.00000000000E+00 0.  1.
         11    1    3    3    0    0  0.14354445601E+02  0.75464946635E+01  0.60166324922E+01  0.17297385844E+02  0.51100000000E-03 0. -1.
        -11    1    3    3    0    0 -0.88215745638E+01  0.18191882804E+02 -0.37931292633E+01  0.20570673484E+02  0.51100000000E-03 0.  1.
        -12    1    3    3    0    0  0.18599450685E+02 -0.73941176914E+01  0.76679735562E+01  0.21433860144E+02  0.00000000000E+00 0.  1.
</event>
<event>
 7    1  0.1052674E-011  0.5930202E+02  0.7816164E-02  0.1266604E+00
        -11   -1    0    0    0    0  0.00000000000E+00  0.00000000000E+00  0.45593999997E+02  0.45594000000E+02  0.51100000000E-03 0. -1.
         11   -1    0    0    0    0 -0.00000000000E+00 -0.00000000000E+00 -0.45593999997E+02  0.45594000000E+02  0.51100000000E-03 0.  1.
    9900012    2    1    2    0    0 -0.20549210670E+02  0.83399582438E+01  0.22910490903E+02  0.59302022579E+02  0.50000143259E+02 0.  0.
        -12    1    1    2    0    0  0.20549210670E+02 -0.83399582438E+01 -0.22910490903E+02  0.31885977421E+02  0.00000000000E+00 0.  1.
         11    1    3    3    0    0 -0.14819294131E+02  0.24672976906E+02  0.23213198576E+02  0.36975936179E+02  0.51100000000E-03 0. -1.
        -11    1    3    3    0    0 -0.99937535811E+01 -0.13974008013E+02 -0.16812367950E+01  0.17261939868E+02  0.51100000000E-03 0.  1.
        -12    1    3    3    0    0  0.42638370418E+01 -0.23590106489E+01  0.13785291218E+01  0.50641465323E+01  0.00000000000E+00 0.  1.
</event>
<event>
 7    1  0.1465163E-011  0.5930192E+02  0.7816164E-02  0.1266605E+00
        -11   -1    0    0    0    0  0.00000000000E+00  0.00000000000E+00  0.45593999997E+02  0.45594000000E+02  0.51100000000E-03 0.  1.
         11   -1    0    0    0    0 -0.00000000000E+00 -0.00000000000E+00 -0.45593999997E+02  0.45594000000E+02  0.51100000000E-03 0. -1.
    9900012    2    1    2    0    0 -0.14425684056E+02 -0.20871218761E+02 -0.19313563474E+02  0.59301923617E+02  0.49999962775E+02 0.  0.
        -12    1    1    2    0    0  0.14425684056E+02  0.20871218761E+02  0.19313563474E+02  0.31886076383E+02  0.00000000000E+00 0.  1.
         11    1    3    3    0    0 -0.20253075353E+02 -0.19835650511E+02 -0.24943856656E+02  0.37760244670E+02  0.51100000000E-03 0. -1.
        -11    1    3    3    0    0 -0.24342989873E+01  0.53695513920E+01  0.88227997490E+01  0.10611300080E+02  0.51100000000E-03 0.  1.
         12    1    3    3    0    0  0.82616902842E+01 -0.64051196419E+01 -0.31925065674E+01  0.10930378866E+02  0.00000000000E+00 0. -1.
</event>
<event>
 7    1  0.1052674E-011  0.5930194E+02  0.7816164E-02  0.1266605E+00
        -11   -1    0    0    0    0  0.00000000000E+00  0.00000000000E+00  0.45593999997E+02  0.45594000000E+02  0.51100000000E-03 0.  1.
         11   -1    0    0    0    0 -0.00000000000E+00 -0.00000000000E+00 -0.45593999997E+02  0.45594000000E+02  0.51100000000E-03 0. -1.
    9900012    2    1    2    0    0  0.58036241533E+01 -0.94180946564E+01 -0.29905486523E+02  0.59301942162E+02  0.49999996597E+02 0.  0.
        -12    1    1    2    0    0 -0.58036241533E+01  0.94180946564E+01  0.29905486523E+02  0.31886057838E+02  0.00000000000E+00 0.  1.
         11    1    3    3    0    0  0.13895903192E+02 -0.48307051239E+01 -0.26670817416E+02  0.30459224209E+02  0.51100000000E-03 0. -1.
        -11    1    3    3    0    0 -0.12035796643E+02  0.85958542466E+01 -0.41278213111E+00  0.14795928507E+02  0.51100000000E-03 0.  1.
         12    1    3    3    0    0  0.39435176040E+01 -0.13183243779E+02 -0.28218869764E+01  0.14046789446E+02  0.00000000000E+00 0. -1.
</event>
<event>
 7    1  0.1052674E-011  0.5930173E+02  0.7816164E-02  0.1266605E+00
        -11   -1    0    0    0    0  0.00000000000E+00  0.00000000000E+00  0.45593999997E+02  0.45594000000E+02  0.51100000000E-03 0.  1.
         11   -1    0    0    0    0 -0.00000000000E+00 -0.00000000000E+00 -0.45593999997E+02  0.45594000000E+02  0.51100000000E-03 0. -1.
    9900012    2    1    2    0    0 -0.31882121775E+02 -0.31504880678E+00 -0.40631414123E+00  0.59301732802E+02  0.49999614774E+02 0.  0.
        -12    1    1    2    0    0  0.31882121775E+02  0.31504880678E+00  0.40631414123E+00  0.31886267198E+02  0.00000000000E+00 0.  1.
         11    1    3    3    0    0  0.57971338976E+01 -0.97130401343E+01 -0.14615114476E+01  0.11405521735E+02  0.51100000000E-03 0. -1.
        -11    1    3    3    0    0 -0.19429241497E+02  0.87453447516E+01  0.14015316356E+02  0.25503050264E+02  0.51100000000E-03 0.  1.
         12    1    3    3    0    0 -0.18250014176E+02  0.65264657595E+00 -0.12960119050E+02  0.22393160803E+02  0.00000000000E+00 0. -1.
</event>
<event>
 7    1  0.1052674E-011  0.5930195E+02  0.7816164E-02  0.1266605E+00
        -11   -1    0    0    0    0  0.00000000000E+00  0.00000000000E+00  0.45593999997E+02  0.45594000000E+02  0.51100000000E-03 0. -1.
         11   -1    0    0    0    0 -0.00000000000E+00 -0.00000000000E+00 -0.45593999997E+02  0.45594000000E+02  0.51100000000E-03 0.  1.
    9900012    2    1    2    0    0 -0.28096636737E+02 -0.55312092189E+01 -0.14025155144E+02  0.59301949003E+02  0.50000009074E+02 0.  0.
        -12    1    1    2    0    0  0.28096636737E+02  0.55312092189E+01  0.14025155144E+02  0.31886050997E+02  0.00000000000E+00 0.  1.
         11    1    3    3    0    0 -0.30251465873E+02 -0.31028820602E+01  0.90217104208E+01  0.31720187953E+02  0.51100000000E-03 0. -1.
        -11    1    3    3    0    0  0.64046947087E+01  0.82946136493E+00 -0.35638495288E+01  0.73762554317E+01  0.51100000000E-03 0.  1.
         12    1    3    3    0    0 -0.42498655725E+01 -0.32577885236E+01 -0.19483016036E+02  0.20205505619E+02  0.00000000000E+00 0. -1.
</event>
<event>
 7    1  0.1052674E-011  0.5930196E+02  0.7816164E-02  0.1266605E+00
        -11   -1    0    0    0    0  0.00000000000E+00  0.00000000000E+00  0.45593999997E+02  0.45594000000E+02  0.51100000000E-03 0.  1.
         11   -1    0    0    0    0 -0.00000000000E+00 -0.00000000000E+00 -0.45593999997E+02  0.45594000000E+02  0.51100000000E-03 0. -1.
    9900012    2    1    2    0    0 -0.23618238193E+02  0.17084252901E+02 -0.12923889675E+02  0.59301956080E+02  0.50000021981E+02 0.  0.
        -12    1    1    2    0    0  0.23618238193E+02 -0.17084252901E+02  0.12923889675E+02  0.31886043920E+02  0.00000000000E+00 0.  1.
         11    1    3    3    0    0 -0.47304100271E+01 -0.95369317023E+01 -0.17409794348E+02  0.20406635804E+02  0.51100000000E-03 0. -1.
        -11    1    3    3    0    0 -0.21632154140E+02  0.24517328998E+02  0.83138448290E+01  0.33736768222E+02  0.51100000000E-03 0.  1.
        -12    1    3    3    0    0  0.27443259749E+01  0.21038556053E+01 -0.38279401561E+01  0.51585520549E+01  0.00000000000E+00 0.  1.
</event>
<event>
 7    1  0.1052674E-011  0.5930197E+02  0.7816164E-02  0.1266605E+00
        -11   -1    0    0    0    0  0.00000000000E+00  0.00000000000E+00  0.45593999997E+02  0.45594000000E+02  0.51100000000E-03 0.  1.
         11   -1    0    0    0    0 -0.00000000000E+00 -0.00000000000E+00 -0.45593999997E+02  0.45594000000E+02  0.51100000000E-03 0. -1.
    9900012    2    1    2    0    0  0.13158410791E+02  0.23258170234E+02 -0.17396348600E+02  0.59301965412E+02  0.50000038999E+02 0.  0.
        -12    1    1    2    0    0 -0.13158410791E+02 -0.23258170234E+02  0.17396348600E+02  0.31886034588E+02  0.00000000000E+00 0.  1.
         11    1    3    3    0    0  0.16359219132E+02  0.16311753966E+02 -0.17552518221E+02  0.29013587579E+02  0.51100000000E-03 0. -1.
        -11    1    3    3    0    0 -0.71554381051E+01  0.24516826358E+01  0.13605556611E+02  0.15566702065E+02  0.51100000000E-03 0.  1.
        -12    1    3    3    0    0  0.39546297635E+01  0.44947336320E+01 -0.13449386990E+02  0.14721675767E+02  0.00000000000E+00 0.  1.
</event>
<event>
 7    1  0.1052674E-011  0.5930195E+02  0.7816164E-02  0.1266605E+00
        -11   -1    0    0    0    0  0.00000000000E+00  0.00000000000E+00  0.45593999997E+02  0.45594000000E+02  0.51100000000E-03 0.  1.
         11   -1    0    0    0    0 -0.00000000000E+00 -0.00000000000E+00 -0.45593999997E+02  0.45594000000E+02  0.51100000000E-03 0. -1.
    9900012    2    1    2    0    0  0.26446383088E+02 -0.17322701392E+02  0.41512665661E+01  0.59301950134E+02  0.50000011136E+02 0.  0.
        -12    1    1    2    0    0 -0.26446383088E+02  0.17322701392E+02 -0.41512665661E+01  0.31886049866E+02  0.00000000000E+00 0.  1.
         11    1    3    3    0    0 -0.52489635634E+01 -0.15930985973E+02 -0.58283720794E+01  0.17757191611E+02  0.51100000000E-03 0. -1.
        -11    1    3    3    0    0  0.31763624243E+02 -0.59232035294E+01  0.14253537442E+02  0.35315371936E+02  0.51100000000E-03 0.  1.
        -12    1    3    3    0    0 -0.68277591863E-01  0.45314881105E+01 -0.42738987961E+01  0.62293865865E+01  0.00000000000E+00 0.  1.
</event>
<event>
 7    1  0.1052674E-011  0.5930204E+02  0.7816164E-02  0.1266604E+00
        -11   -1    0    0    0    0  0.00000000000E+00  0.00000000000E+00  0.45593999997E+02  0.45594000000E+02  0.51100000000E-03 0.  1.
         11   -1    0    0    0    0 -0.00000000000E+00 -0.00000000000E+00 -0.45593999997E+02  0.45594000000E+02  0.51100000000E-03 0. -1.
    9900012    2    1    2    0    0 -0.27860661897E+02 -0.51758914475E+01 -0.14618767759E+02  0.59302035934E+02  0.50000167615E+02 0.  0.
        -12    1    1    2    0    0  0.27860661897E+02  0.51758914475E+01  0.14618767759E+02  0.31885964066E+02  0.00000000000E+00 0.  1.
         11    1    3    3    0    0  0.10166762000E+02 -0.93319157598E+01 -0.35162367735E+00  0.13804757904E+02  0.51100000000E-03 0. -1.
        -11    1    3    3    0    0 -0.17230219056E+02  0.11856509022E+02 -0.85468311080E+01  0.22594370475E+02  0.51100000000E-03 0.  1.
         12    1    3    3    0    0 -0.20797204842E+02 -0.77004847095E+01 -0.57203129733E+01  0.22902907556E+02  0.00000000000E+00 0. -1.
</event>
<event>
 7    1  0.1052674E-011  0.5930194E+02  0.7816164E-02  0.1266605E+00
        -11   -1    0    0    0    0  0.00000000000E+00  0.00000000000E+00  0.45593999997E+02  0.45594000000E+02  0.51100000000E-03 0.  1.
         11   -1    0    0    0    0 -0.00000000000E+00 -0.00000000000E+00 -0.45593999997E+02  0.45594000000E+02  0.51100000000E-03 0. -1.
    9900012    2    1    2    0    0  0.14320273615E+02 -0.17118528747E+02 -0.22772934578E+02  0.59301940159E+02  0.49999992945E+02 0.  0.
        -12    1    1    2    0    0 -0.14320273615E+02  0.17118528747E+02  0.22772934578E+02  0.31886059841E+02  0.00000000000E+00 0.  1.
         11    1    3    3    0    0  0.23591195167E+02 -0.11284060575E+02  0.20719122705E+01  0.26232943662E+02  0.51100000000E-03 0. -1.
        -11    1    3    3    0    0 -0.86948117200E+01  0.54383430735E+01 -0.14484802568E+02  0.17747812032E+02  0.51100000000E-03 0.  1.
         12    1    3    3    0    0 -0.57610983186E+00 -0.11272811246E+02 -0.10360044280E+02  0.15321184465E+02  0.00000000000E+00 0. -1.
</event>
<event>
 7    1  0.1052674E-011  0.5930191E+02  0.7816164E-02  0.1266605E+00
        -11   -1    0    0    0    0  0.00000000000E+00  0.00000000000E+00  0.45593999997E+02  0.45594000000E+02  0.51100000000E-03 0. -1.
         11   -1    0    0    0    0 -0.00000000000E+00 -0.00000000000E+00 -0.45593999997E+02  0.45594000000E+02  0.51100000000E-03 0.  1.
    9900012    2    1    2    0    0  0.48854732094E+01 -0.11043461332E+02  0.29510957785E+02  0.59301913441E+02  0.49999944217E+02 0.  0.
        -12    1    1    2    0    0 -0.48854732094E+01  0.11043461332E+02 -0.29510957785E+02  0.31886086559E+02  0.00000000000E+00 0.  1.
         11    1    3    3    0    0  0.16593985977E+02 -0.21332571679E+02  0.43888847953E+01  0.27380673751E+02  0.51100000000E-03 0. -1.
        -11    1    3    3    0    0 -0.66207741983E+01  0.42547368631E+01  0.29815386472E+01  0.84158784286E+01  0.51100000000E-03 0.  1.
         12    1    3    3    0    0 -0.50877385698E+01  0.60343734835E+01  0.22140534342E+02  0.23505361262E+02  0.00000000000E+00 0. -1.
</event>
<event>
 7    1  0.1052674E-011  0.5930195E+02  0.7816164E-02  0.1266605E+00
        -11   -1    0    0    0    0  0.00000000000E+00  0.00000000000E+00  0.45593999997E+02  0.45594000000E+02  0.51100000000E-03 0.  1.
         11   -1    0    0    0    0 -0.00000000000E+00 -0.00000000000E+00 -0.45593999997E+02  0.45594000000E+02  0.51100000000E-03 0. -1.
    9900012    2    1    2    0    0 -0.75824500888E+01  0.27488907707E+02  0.14268382149E+02  0.59301947792E+02  0.50000006865E+02 0.  0.
        -12    1    1    2    0    0  0.75824500888E+01 -0.27488907707E+02 -0.14268382149E+02  0.31886052208E+02  0.00000000000E+00 0.  1.
         11    1    3    3    0    0 -0.52809717059E+01  0.25182251592E+02  0.20238687842E+02  0.32735896860E+02  0.51100000000E-03 0. -1.
        -11    1    3    3    0    0  0.44803720968E+01  0.83246279732E+00 -0.14713564450E+02  0.15403107074E+02  0.51100000000E-03 0.  1.
        -12    1    3    3    0    0 -0.67818504797E+01  0.14741933170E+01  0.87432587578E+01  0.11162943858E+02  0.00000000000E+00 0.  1.
</event>
<event>
 7    1  0.1052674E-011  0.5930195E+02  0.7816164E-02  0.1266605E+00
        -11   -1    0    0    0    0  0.00000000000E+00  0.00000000000E+00  0.45593999997E+02  0.45594000000E+02  0.51100000000E-03 0. -1.
         11   -1    0    0    0    0 -0.00000000000E+00 -0.00000000000E+00 -0.45593999997E+02  0.45594000000E+02  0.51100000000E-03 0.  1.
    9900012    2    1    2    0    0 -0.30647254659E+02  0.63225424172E+01  0.61230374000E+01  0.59301947442E+02  0.50000006227E+02 0.  0.
        -12    1    1    2    0    0  0.30647254659E+02 -0.63225424172E+01 -0.61230374000E+01  0.31886052558E+02  0.00000000000E+00 0.  1.
         11    1    3    3    0    0 -0.28354347106E+02  0.60003170108E+01  0.22098188582E+02  0.36445887874E+02  0.51100000000E-03 0. -1.
        -11    1    3    3    0    0 -0.35605673075E+01 -0.16768990839E+00 -0.19109843973E+02  0.19439441772E+02  0.51100000000E-03 0.  1.
        -12    1    3    3    0    0  0.12676597551E+01  0.48991531469E+00  0.31346927909E+01  0.34166177959E+01  0.00000000000E+00 0.  1.
</event>
<event>
 7    1  0.1052674E-011  0.5930193E+02  0.7816164E-02  0.1266605E+00
        -11   -1    0    0    0    0  0.00000000000E+00  0.00000000000E+00  0.45593999997E+02  0.45594000000E+02  0.51100000000E-03 0. -1.
         11   -1    0    0    0    0 -0.00000000000E+00 -0.00000000000E+00 -0.45593999997E+02  0.45594000000E+02  0.51100000000E-03 0.  1.
    9900012    2    1    2    0    0 -0.15252689684E+02 -0.26386223325E+02  0.93725131775E+01  0.59301932083E+02  0.49999978215E+02 0.  0.
        -12    1    1    2    0    0  0.15252689684E+02  0.26386223325E+02 -0.93725131775E+01  0.31886067917E+02  0.00000000000E+00 0.  1.
         11    1    3    3    0    0 -0.12221390577E+02 -0.81802439293E+01  0.20418391208E+02  0.25163256509E+02  0.51100000000E-03 0. -1.
        -11    1    3    3    0    0  0.88170274112E+01 -0.18418536558E+02 -0.62554524333E+01  0.21356805630E+02  0.51100000000E-03 0.  1.
        -12    1    3    3    0    0 -0.11848326519E+02  0.21255716253E+00 -0.47904255972E+01  0.12781869943E+02  0.00000000000E+00 0.  1.
</event>
<event>
 7    1  0.1052674E-011  0.5930195E+02  0.7816164E-02  0.1266605E+00
        -11   -1    0    0    0    0  0.00000000000E+00  0.00000000000E+00  0.45593999997E+02  0.45594000000E+02  0.51100000000E-03 0. -1.
         11   -1    0    0    0    0 -0.00000000000E+00 -0.00000000000E+00 -0.45593999997E+02  0.45594000000E+02  0.51100000000E-03 0.  1.
    9900012    2    1    2    0    0 -0.24957696740E+02  0.18011511213E+02  0.83318018632E+01  0.59301951562E+02  0.50000013740E+02 0.  0.
        -12    1    1    2    0    0  0.24957696740E+02 -0.18011511213E+02 -0.83318018632E+01  0.31886048438E+02  0.00000000000E+00 0.  1.
         11    1    3    3    0    0  0.97131817931E+01  0.19477894388E+02  0.53342741309E+01  0.22409568293E+02  0.51100000000E-03 0. -1.
        -11    1    3    3    0    0 -0.24787152377E+02  0.17022810296E+01  0.69287983759E+01  0.25793583133E+02  0.51100000000E-03 0.  1.
         12    1    3    3    0    0 -0.98837261557E+01 -0.31686642042E+01 -0.39312706437E+01  0.11098800135E+02  0.00000000000E+00 0. -1.
</event>
<event>
 7    1  0.1052674E-011  0.5930197E+02  0.7816164E-02  0.1266605E+00
        -11   -1    0    0    0    0  0.00000000000E+00  0.00000000000E+00  0.45593999997E+02  0.45594000000E+02  0.51100000000E-03 0. -1.
         11   -1    0    0    0    0 -0.00000000000E+00 -0.00000000000E+00 -0.45593999997E+02  0.45594000000E+02  0.51100000000E-03 0.  1.
    9900012    2    1    2    0    0  0.92796087028E+01 -0.28460924323E+02  0.10981052194E+02  0.59301970798E+02  0.50000048823E+02 0.  0.
        -12    1    1    2    0    0 -0.92796087028E+01  0.28460924323E+02 -0.10981052194E+02  0.31886029202E+02  0.00000000000E+00 0.  1.
         11    1    3    3    0    0  0.10338538319E+02 -0.25623193082E+02  0.37116881439E+01  0.27878486821E+02  0.51100000000E-03 0. -1.
        -11    1    3    3    0    0 -0.36442479653E+01  0.34502541773E+01  0.18018736523E+02  0.18704535901E+02  0.51100000000E-03 0.  1.
        -12    1    3    3    0    0  0.25853183489E+01 -0.62879854177E+01 -0.10749372473E+02  0.12718948076E+02  0.00000000000E+00 0.  1.
</event>
<event>
 7    1  0.1052674E-011  0.5930195E+02  0.7816164E-02  0.1266605E+00
        -11   -1    0    0    0    0  0.00000000000E+00  0.00000000000E+00  0.45593999997E+02  0.45594000000E+02  0.51100000000E-03 0. -1.
         11   -1    0    0    0    0 -0.00000000000E+00 -0.00000000000E+00 -0.45593999997E+02  0.45594000000E+02  0.51100000000E-03 0.  1.
    9900012    2    1    2    0    0 -0.40367343087E+01 -0.22608416988E+02  0.22119780643E+02  0.59301946022E+02  0.50000003637E+02 0.  0.
        -12    1    1    2    0    0  0.40367343087E+01  0.22608416988E+02 -0.22119780643E+02  0.31886053978E+02  0.00000000000E+00 0.  1.
         11    1    3    3    0    0 -0.11785277326E+02 -0.10607016729E+02  0.15943967661E+02  0.22485810427E+02  0.51100000000E-03 0. -1.
        -11    1    3    3    0    0  0.29952556705E+01 -0.16535827309E+02 -0.98620598763E+01  0.19485003633E+02  0.51100000000E-03 0.  1.
        -12    1    3    3    0    0  0.47532873469E+01  0.45344270491E+01  0.16037872858E+02  0.17331131962E+02  0.00000000000E+00 0.  1.
</event>
<event>
 7    1  0.1052674E-011  0.5930154E+02  0.7816164E-02  0.1266606E+00
        -11   -1    0    0    0    0  0.00000000000E+00  0.00000000000E+00  0.45593999997E+02  0.45594000000E+02  0.51100000000E-03 0. -1.
         11   -1    0    0    0    0 -0.00000000000E+00 -0.00000000000E+00 -0.45593999997E+02  0.45594000000E+02  0.51100000000E-03 0.  1.
    9900012    2    1    2    0    0  0.14105878479E+02 -0.28313138507E+02 -0.40170436027E+01  0.59301541132E+02  0.49999265210E+02 0.  0.
        -12    1    1    2    0    0 -0.14105878479E+02  0.28313138507E+02  0.40170436027E+01  0.31886458868E+02  0.00000000000E+00 0.  1.
         11    1    3    3    0    0  0.23296870840E+02 -0.93083089858E+01 -0.81914942559E+01  0.26391085341E+02  0.51100000000E-03 0. -1.
        -11    1    3    3    0    0 -0.16135993731E+02 -0.19326235600E+02  0.56503231133E+01  0.25803097250E+02  0.51100000000E-03 0.  1.
        -12    1    3    3    0    0  0.69450013706E+01  0.32140607883E+00 -0.14758724601E+01  0.71073585405E+01  0.00000000000E+00 0.  1.
</event>
<event>
 7    1  0.1052674E-011  0.5930203E+02  0.7816164E-02  0.1266604E+00
        -11   -1    0    0    0    0  0.00000000000E+00  0.00000000000E+00  0.45593999997E+02  0.45594000000E+02  0.51100000000E-03 0.  1.
         11   -1    0    0    0    0 -0.00000000000E+00 -0.00000000000E+00 -0.45593999997E+02  0.45594000000E+02  0.51100000000E-03 0. -1.
    9900012    2    1    2    0    0  0.14382619747E+02 -0.59300059647E+01 -0.27833262683E+02  0.59302027644E+02  0.50000152496E+02 0.  0.
        -12    1    1    2    0    0 -0.14382619747E+02  0.59300059647E+01  0.27833262683E+02  0.31885972356E+02  0.00000000000E+00 0.  1.
         11    1    3    3    0    0  0.15793731418E+02 -0.43143963165E+01  0.18478454173E+00  0.16373457585E+02  0.51100000000E-03 0. -1.
        -11    1    3    3    0    0 -0.11735985318E+02  0.10600476689E+02 -0.94570012760E+01  0.18426565898E+02  0.51100000000E-03 0.  1.
        -12    1    3    3    0    0  0.10324873646E+02 -0.12216086337E+02 -0.18561045949E+02  0.24502004161E+02  0.00000000000E+00 0.  1.
</event>
<event>
 7    1  0.1052674E-011  0.5930193E+02  0.7816164E-02  0.1266605E+00
        -11   -1    0    0    0    0  0.00000000000E+00  0.00000000000E+00  0.45593999997E+02  0.45594000000E+02  0.51100000000E-03 0. -1.
         11   -1    0    0    0    0 -0.00000000000E+00 -0.00000000000E+00 -0.45593999997E+02  0.45594000000E+02  0.51100000000E-03 0.  1.
    9900012    2    1    2    0    0 -0.10020372604E+02  0.25431185437E+02  0.16418537491E+02  0.59301930420E+02  0.49999975183E+02 0.  0.
        -12    1    1    2    0    0  0.10020372604E+02 -0.25431185437E+02 -0.16418537491E+02  0.31886069580E+02  0.00000000000E+00 0.  1.
         11    1    3    3    0    0  0.13142110413E+02  0.11135773809E+02 -0.13771701529E+01  0.17280541725E+02  0.51100000000E-03 0. -1.
        -11    1    3    3    0    0 -0.22488228684E+02  0.13080000073E+02  0.19214207940E+01  0.26086369801E+02  0.51100000000E-03 0.  1.
        -12    1    3    3    0    0 -0.67425433343E+00  0.12154115555E+01  0.15874286850E+02  0.15935018894E+02  0.00000000000E+00 0.  1.
</event>
<event>
 7    1  0.1052674E-011  0.5930191E+02  0.7816164E-02  0.1266605E+00
        -11   -1    0    0    0    0  0.00000000000E+00  0.00000000000E+00  0.45593999997E+02  0.45594000000E+02  0.51100000000E-03 0.  1.
         11   -1    0    0    0    0 -0.00000000000E+00 -0.00000000000E+00 -0.45593999997E+02  0.45594000000E+02  0.51100000000E-03 0. -1.
    9900012    2    1    2    0    0  0.28402940398E+02  0.88827828204E+01 -0.11449542491E+02  0.59301907778E+02  0.49999933890E+02 0.  0.
        -12    1    1    2    0    0 -0.28402940398E+02 -0.88827828204E+01  0.11449542491E+02  0.31886092222E+02  0.00000000000E+00 0.  1.
         11    1    3    3    0    0  0.12189862721E+02  0.14641375692E+02  0.11550633827E+02  0.22279582074E+02  0.51100000000E-03 0.  1.
        -11    1    3    3    0    0  0.17970528831E+02 -0.11547137352E+02 -0.12083471672E+02  0.24541527569E+02  0.51100000000E-03 0. -1.
         12    1    3    3    0    0 -0.17574511539E+01  0.57885444808E+01 -0.10916704646E+02  0.12480798136E+02  0.00000000000E+00 0. -1.
</event>
<event>
 7    1  0.1052674E-011  0.5930193E+02  0.7816164E-02  0.1266605E+00
        -11   -1    0    0    0    0  0.00000000000E+00  0.00000000000E+00  0.45593999997E+02  0.45594000000E+02  0.51100000000E-03 0.  1.
         11   -1    0    0    0    0 -0.00000000000E+00 -0.00000000000E+00 -0.45593999997E+02  0.45594000000E+02  0.51100000000E-03 0. -1.
    9900012    2    1    2    0    0 -0.24946202392E+02 -0.19481032777E+02  0.38597736388E+01  0.59301929305E+02  0.49999973149E+02 0.  0.
        -12    1    1    2    0    0  0.24946202392E+02  0.19481032777E+02 -0.38597736388E+01  0.31886070695E+02  0.00000000000E+00 0.  1.
         11    1    3    3    0    0  0.12896726094E+02 -0.52246025232E+01  0.52457970917E+01  0.14870790257E+02  0.51100000000E-03 0. -1.
        -11    1    3    3    0    0 -0.19449452392E+02 -0.31732955930E+01  0.76414176530E+01  0.21136278463E+02  0.51100000000E-03 0.  1.
         12    1    3    3    0    0 -0.18393476094E+02 -0.11083134661E+02 -0.90274411059E+01  0.23294860585E+02  0.00000000000E+00 0. -1.
</event>
<event>
 7    1  0.1052674E-011  0.5930195E+02  0.7816164E-02  0.1266605E+00
        -11   -1    0    0    0    0  0.00000000000E+00  0.00000000000E+00  0.45593999997E+02  0.45594000000E+02  0.51100000000E-03 0.  1.
         11   -1    0    0    0    0 -0.00000000000E+00 -0.00000000000E+00 -0.45593999997E+02  0.45594000000E+02  0.51100000000E-03 0. -1.
    9900012    2    1    2    0    0  0.29500237938E+02 -0.12071687990E+02 -0.85467732435E+00  0.59301950344E+02  0.50000011520E+02 0.  0.
        -12    1    1    2    0    0 -0.29500237938E+02  0.12071687990E+02  0.85467732435E+00  0.31886049656E+02  0.00000000000E+00 0.  1.
         11    1    3    3    0    0  0.93592009338E+01  0.90645201622E+01 -0.36792301126E+01  0.13538718639E+02  0.51100000000E-03 0. -1.
        -11    1    3    3    0    0  0.37070592013E+01 -0.21349820443E+02 -0.10986644639E+02  0.24295338679E+02  0.51100000000E-03 0.  1.
        -12    1    3    3    0    0  0.16433977802E+02  0.21361229061E+00  0.13811197427E+02  0.21467893027E+02  0.00000000000E+00 0.  1.
</event>
<event>
 7    1  0.1052674E-011  0.5930199E+02  0.7816164E-02  0.1266605E+00
        -11   -1    0    0    0    0  0.00000000000E+00  0.00000000000E+00  0.45593999997E+02  0.45594000000E+02  0.51100000000E-03 0.  1.
         11   -1    0    0    0    0 -0.00000000000E+00 -0.00000000000E+00 -0.45593999997E+02  0.45594000000E+02  0.51100000000E-03 0. -1.
    9900012    2    1    2    0    0  0.16122274031E+02  0.24870503612E+02 -0.11757894569E+02  0.59301988106E+02  0.50000080388E+02 0.  0.
        -12    1    1    2    0    0 -0.16122274031E+02 -0.24870503612E+02  0.11757894569E+02  0.31886011894E+02  0.00000000000E+00 0.  1.
         11    1    3    3    0    0  0.59055966826E+01  0.78571750452E+01  0.67128974610E+01  0.11902699881E+02  0.51100000000E-03 0. -1.
        -11    1    3    3    0    0  0.14805328592E+02  0.94182250899E+01 -0.28835578723E+02  0.33754871043E+02  0.51100000000E-03 0.  1.
        -12    1    3    3    0    0 -0.45886512442E+01  0.75951034765E+01  0.10364786693E+02  0.13644417182E+02  0.00000000000E+00 0.  1.
</event>
<event>
 7    1  0.1052674E-011  0.5930196E+02  0.7816164E-02  0.1266605E+00
        -11   -1    0    0    0    0  0.00000000000E+00  0.00000000000E+00  0.45593999997E+02  0.45594000000E+02  0.51100000000E-03 0.  1.
         11   -1    0    0    0    0 -0.00000000000E+00 -0.00000000000E+00 -0.45593999997E+02  0.45594000000E+02  0.51100000000E-03 0. -1.
    9900012    2    1    2    0    0 -0.99495073139E+01 -0.16683878400E+02 -0.25285868399E+02  0.59301958619E+02  0.50000026611E+02 0.  0.
        -12    1    1    2    0    0  0.99495073139E+01  0.16683878400E+02  0.25285868399E+02  0.31886041381E+02  0.00000000000E+00 0.  1.
         11    1    3    3    0    0 -0.17226017491E+02  0.10598596735E+02 -0.85349817044E+01  0.21952490617E+02  0.51100000000E-03 0. -1.
        -11    1    3    3    0    0  0.11799809733E+02 -0.19465820764E+02 -0.64686309859E+01  0.23664253101E+02  0.51100000000E-03 0.  1.
        -12    1    3    3    0    0 -0.45232995557E+01 -0.78166543706E+01 -0.10282255708E+02  0.13685214901E+02  0.00000000000E+00 0.  1.
</event>
<event>
 7    1  0.1052674E-011  0.5930194E+02  0.7816164E-02  0.1266605E+00
        -11   -1    0    0    0    0  0.00000000000E+00  0.00000000000E+00  0.45593999997E+02  0.45594000000E+02  0.51100000000E-03 0. -1.
         11   -1    0    0    0    0 -0.00000000000E+00 -0.00000000000E+00 -0.45593999997E+02  0.45594000000E+02  0.51100000000E-03 0.  1.
    9900012    2    1    2    0    0  0.84037693267E+01 -0.79997359887E+01  0.29700197009E+02  0.59301940081E+02  0.49999992801E+02 0.  0.
        -12    1    1    2    0    0 -0.84037693267E+01  0.79997359887E+01 -0.29700197009E+02  0.31886059919E+02  0.00000000000E+00 0.  1.
         11    1    3    3    0    0  0.17395772275E+02 -0.54793304673E+01  0.32532694772E+02  0.37296275750E+02  0.51100000000E-03 0. -1.
        -11    1    3    3    0    0 -0.12103662953E+02  0.52570618795E+01 -0.33442591709E+01  0.13613207783E+02  0.51100000000E-03 0.  1.
         12    1    3    3    0    0  0.31116600053E+01 -0.77774674009E+01  0.51176140796E+00  0.83924565474E+01  0.00000000000E+00 0. -1.
</event>
<event>
 7    1  0.1052674E-011  0.5930181E+02  0.7816164E-02  0.1266605E+00
        -11   -1    0    0    0    0  0.00000000000E+00  0.00000000000E+00  0.45593999997E+02  0.45594000000E+02  0.51100000000E-03 0.  1.
         11   -1    0    0    0    0 -0.00000000000E+00 -0.00000000000E+00 -0.45593999997E+02  0.45594000000E+02  0.51100000000E-03 0. -1.
    9900012    2    1    2    0    0  0.22741579110E+02  0.13071102630E+02  0.18129970604E+02  0.59301812106E+02  0.49999759405E+02 0.  0.
        -12    1    1    2    0    0 -0.22741579110E+02 -0.13071102630E+02 -0.18129970604E+02  0.31886187894E+02  0.00000000000E+00 0.  1.
         11    1    3    3    0    0  0.23400941398E+02  0.16791003555E+02 -0.63975725202E+01  0.29503742019E+02  0.51100000000E-03 0. -1.
        -11    1    3    3    0    0 -0.36947697911E+01 -0.95403886447E+01  0.13130672114E+02  0.16645867046E+02  0.51100000000E-03 0.  1.
         12    1    3    3    0    0  0.30354075027E+01  0.58204877191E+01  0.11396871010E+02  0.13152203041E+02  0.00000000000E+00 0. -1.
</event>
<event>
 7    1  0.1052674E-011  0.5930182E+02  0.7816164E-02  0.1266605E+00
        -11   -1    0    0    0    0  0.00000000000E+00  0.00000000000E+00  0.45593999997E+02  0.45594000000E+02  0.51100000000E-03 0.  1.
         11   -1    0    0    0    0 -0.00000000000E+00 -0.00000000000E+00 -0.45593999997E+02  0.45594000000E+02  0.51100000000E-03 0. -1.
    9900012    2    1    2    0    0 -0.15962087717E+02  0.26410710453E+02 -0.80258741361E+01  0.59301819191E+02  0.49999772327E+02 0.  0.
        -12    1    1    2    0    0  0.15962087717E+02 -0.26410710453E+02  0.80258741361E+01  0.31886180809E+02  0.00000000000E+00 0.  1.
         11    1    3    3    0    0  0.23932380701E-01 -0.70641122177E+01 -0.88455187164E+01  0.11320134973E+02  0.51100000000E-03 0. -1.
        -11    1    3    3    0    0 -0.17342427211E+02  0.27669350557E+02 -0.11234692033E+02  0.34533621981E+02  0.51100000000E-03 0.  1.
        -12    1    3    3    0    0  0.13564071137E+01  0.58054721142E+01  0.12054336614E+02  0.13448062237E+02  0.00000000000E+00 0.  1.
</event>
<event>
 7    1  0.1052674E-011  0.5930195E+02  0.7816164E-02  0.1266605E+00
        -11   -1    0    0    0    0  0.00000000000E+00  0.00000000000E+00  0.45593999997E+02  0.45594000000E+02  0.51100000000E-03 0. -1.
         11   -1    0    0    0    0 -0.00000000000E+00 -0.00000000000E+00 -0.45593999997E+02  0.45594000000E+02  0.51100000000E-03 0.  1.
    9900012    2    1    2    0    0 -0.18360363185E+02  0.87414629051E+01  0.24560213310E+02  0.59301949949E+02  0.50000010799E+02 0.  0.
        -12    1    1    2    0    0  0.18360363185E+02 -0.87414629051E+01 -0.24560213310E+02  0.31886050051E+02  0.00000000000E+00 0.  1.
         11    1    3    3    0    0 -0.17400929958E+02  0.58584254398E+01  0.27897423624E+02  0.33397301645E+02  0.51100000000E-03 0. -1.
        -11    1    3    3    0    0 -0.91818666721E+01 -0.20782685026E+01 -0.10366818497E+02  0.14003456772E+02  0.51100000000E-03 0.  1.
        -12    1    3    3    0    0  0.82224334452E+01  0.49613059680E+01  0.70296081836E+01  0.11901191532E+02  0.00000000000E+00 0.  1.
</event>
<event>
 7    1  0.1052674E-011  0.5930193E+02  0.7816164E-02  0.1266605E+00
        -11   -1    0    0    0    0  0.00000000000E+00  0.00000000000E+00  0.45593999997E+02  0.45594000000E+02  0.51100000000E-03 0.  1.
         11   -1    0    0    0    0 -0.00000000000E+00 -0.00000000000E+00 -0.45593999997E+02  0.45594000000E+02  0.51100000000E-03 0. -1.
    9900012    2    1    2    0    0 -0.21634743645E+02  0.67421885506E+01 -0.22432170412E+02  0.59301929241E+02  0.49999973033E+02 0.  0.
        -12    1    1    2    0    0  0.21634743645E+02 -0.67421885506E+01  0.22432170412E+02  0.31886070759E+02  0.00000000000E+00 0.  1.
         11    1    3    3    0    0 -0.16443322048E+02  0.16225252808E+02 -0.31453929307E+02  0.39025521621E+02  0.51100000000E-03 0. -1.
        -11    1    3    3    0    0 -0.12234328370E+01 -0.12874190746E+02  0.61725794166E+01  0.14329770137E+02  0.51100000000E-03 0.  1.
         12    1    3    3    0    0 -0.39679887598E+01  0.33911264884E+01  0.28491794783E+01  0.59466374833E+01  0.00000000000E+00 0. -1.
</event>
<event>
 7    1  0.1052674E-011  0.5930188E+02  0.7816164E-02  0.1266605E+00
        -11   -1    0    0    0    0  0.00000000000E+00  0.00000000000E+00  0.45593999997E+02  0.45594000000E+02  0.51100000000E-03 0.  1.
         11   -1    0    0    0    0 -0.00000000000E+00 -0.00000000000E+00 -0.45593999997E+02  0.45594000000E+02  0.51100000000E-03 0. -1.
    9900012    2    1    2    0    0 -0.49351732920E+01 -0.11704140172E+02 -0.29246916204E+02  0.59301875431E+02  0.49999874896E+02 0.  0.
        -12    1    1    2    0    0  0.49351732920E+01  0.11704140172E+02  0.29246916204E+02  0.31886124569E+02  0.00000000000E+00 0.  1.
         11    1    3    3    0    0 -0.23134337746E+02 -0.74189572318E+00 -0.15086974043E+02  0.27629056774E+02  0.51100000000E-03 0. -1.
        -11    1    3    3    0    0  0.20993485736E+02 -0.63447657000E+01 -0.76743709019E+01  0.23235284895E+02  0.51100000000E-03 0.  1.
        -12    1    3    3    0    0 -0.27943212825E+01 -0.46174787485E+01 -0.64855712589E+01  0.84375337615E+01  0.00000000000E+00 0.  1.
</event>
<event>
 7    1  0.1052674E-011  0.5930187E+02  0.7816164E-02  0.1266605E+00
        -11   -1    0    0    0    0  0.00000000000E+00  0.00000000000E+00  0.45593999997E+02  0.45594000000E+02  0.51100000000E-03 0.  1.
         11   -1    0    0    0    0 -0.00000000000E+00 -0.00000000000E+00 -0.45593999997E+02  0.45594000000E+02  0.51100000000E-03 0. -1.
    9900012    2    1    2    0    0 -0.45348323482E+01  0.31558589659E+02  0.46450338114E+00  0.59301873721E+02  0.49999871777E+02 0.  0.
        -12    1    1    2    0    0  0.45348323482E+01 -0.31558589659E+02 -0.46450338114E+00  0.31886126279E+02  0.00000000000E+00 0.  1.
         11    1    3    3    0    0 -0.54471812364E+01 -0.88658277200E+01 -0.10222779384E+02  0.14586977177E+02  0.51100000000E-03 0. -1.
        -11    1    3    3    0    0  0.29119294126E-01  0.18838875258E+02  0.13145476389E+02  0.22971887573E+02  0.51100000000E-03 0.  1.
         12    1    3    3    0    0  0.88322959407E+00  0.21585542121E+02 -0.24581936238E+01  0.21743008970E+02  0.00000000000E+00 0. -1.
</event>
<event>
 7    1  0.1052674E-011  0.5930193E+02  0.7816164E-02  0.1266605E+00
        -11   -1    0    0    0    0  0.00000000000E+00  0.00000000000E+00  0.45593999997E+02  0.45594000000E+02  0.51100000000E-03 0. -1.
         11   -1    0    0    0    0 -0.00000000000E+00 -0.00000000000E+00 -0.45593999997E+02  0.45594000000E+02  0.51100000000E-03 0.  1.
    9900012    2    1    2    0    0 -0.30187926107E+02  0.10261957819E+02  0.32059013764E+00  0.59301930330E+02  0.49999975019E+02 0.  0.
        -12    1    1    2    0    0  0.30187926107E+02 -0.10261957819E+02 -0.32059013764E+00  0.31886069670E+02  0.00000000000E+00 0.  1.
         11    1    3    3    0    0 -0.16953360695E+02 -0.12388771845E+02  0.24882116614E+01  0.21144486379E+02  0.51100000000E-03 0. -1.
        -11    1    3    3    0    0  0.22225221822E+01  0.14966062843E+02 -0.11058189517E+02  0.18740496192E+02  0.51100000000E-03 0.  1.
         12    1    3    3    0    0 -0.15457087594E+02  0.76846668204E+01  0.88905679936E+01  0.19416947759E+02  0.00000000000E+00 0. -1.
</event>
<event>
 7    1  0.1052674E-011  0.5930193E+02  0.7816164E-02  0.1266605E+00
        -11   -1    0    0    0    0  0.00000000000E+00  0.00000000000E+00  0.45593999997E+02  0.45594000000E+02  0.51100000000E-03 0. -1.
         11   -1    0    0    0    0 -0.00000000000E+00 -0.00000000000E+00 -0.45593999997E+02  0.45594000000E+02  0.51100000000E-03 0.  1.
    9900012    2    1    2    0    0  0.13666298260E+02  0.27926976751E+02  0.70737272802E+01  0.59301931628E+02  0.49999977386E+02 0.  0.
        -12    1    1    2    0    0 -0.13666298260E+02 -0.27926976751E+02 -0.70737272802E+01  0.31886068372E+02  0.00000000000E+00 0.  1.
         11    1    3    3    0    0  0.15844032788E+01 -0.77855572649E+00  0.79932200477E+01  0.81858444745E+01  0.51100000000E-03 0. -1.
        -11    1    3    3    0    0  0.23499119015E+02  0.30664384144E+02  0.33320611890E+01  0.38776483614E+02  0.51100000000E-03 0.  1.
        -12    1    3    3    0    0 -0.11417224033E+02 -0.19588516670E+01 -0.42515539566E+01  0.12339603540E+02  0.00000000000E+00 0.  1.
</event>
<event>
 7    1  0.1052674E-011  0.5930199E+02  0.7816164E-02  0.1266605E+00
        -11   -1    0    0    0    0  0.00000000000E+00  0.00000000000E+00  0.45593999997E+02  0.45594000000E+02  0.51100000000E-03 0.  1.
         11   -1    0    0    0    0 -0.00000000000E+00 -0.00000000000E+00 -0.45593999997E+02  0.45594000000E+02  0.51100000000E-03 0. -1.
    9900012    2    1    2    0    0  0.10348864276E+02  0.22862027391E+02 -0.19670958883E+02  0.59301985642E+02  0.50000075894E+02 0.  0.
        -12    1    1    2    0    0 -0.10348864276E+02 -0.22862027391E+02  0.19670958883E+02  0.31886014358E+02  0.00000000000E+00 0.  1.
         11    1    3    3    0    0  0.36700635981E+01 -0.12335100776E+02 -0.90739162406E-01  0.12869821748E+02  0.51100000000E-03 0. -1.
        -11    1    3    3    0    0 -0.43542110772E+01  0.29240176984E+02 -0.13875437770E+02  0.32656926949E+02  0.51100000000E-03 0.  1.
        -12    1    3    3    0    0  0.11033011755E+02  0.59569511833E+01 -0.57047819512E+01  0.13775236945E+02  0.00000000000E+00 0.  1.
</event>
<event>
 7    1  0.1052674E-011  0.5930194E+02  0.7816164E-02  0.1266605E+00
        -11   -1    0    0    0    0  0.00000000000E+00  0.00000000000E+00  0.45593999997E+02  0.45594000000E+02  0.51100000000E-03 0.  1.
         11   -1    0    0    0    0 -0.00000000000E+00 -0.00000000000E+00 -0.45593999997E+02  0.45594000000E+02  0.51100000000E-03 0. -1.
    9900012    2    1    2    0    0  0.27655912639E+02  0.45078341450E+01 -0.15216792903E+02  0.59301939427E+02  0.49999991610E+02 0.  0.
        -12    1    1    2    0    0 -0.27655912639E+02 -0.45078341450E+01  0.15216792903E+02  0.31886060573E+02  0.00000000000E+00 0.  1.
         11    1    3    3    0    0  0.77583192983E+00  0.27025271348E+00 -0.12155290190E+02  0.12183022267E+02  0.51100000000E-03 0. -1.
        -11    1    3    3    0    0 -0.81127058879E+01 -0.45373562661E+01  0.43920691969E+01  0.10280752443E+02  0.51100000000E-03 0.  1.
        -12    1    3    3    0    0  0.34992786597E+02  0.87749376977E+01 -0.74535719103E+01  0.36838164716E+02  0.00000000000E+00 0.  1.
</event>
<event>
 7    1  0.1052674E-011  0.5930173E+02  0.7816164E-02  0.1266605E+00
        -11   -1    0    0    0    0  0.00000000000E+00  0.00000000000E+00  0.45593999997E+02  0.45594000000E+02  0.51100000000E-03 0.  1.
         11   -1    0    0    0    0 -0.00000000000E+00 -0.00000000000E+00 -0.45593999997E+02  0.45594000000E+02  0.51100000000E-03 0. -1.
    9900012    2    1    2    0    0 -0.17658545895E+02  0.65099595555E+01 -0.25739661213E+02  0.59301733741E+02  0.49999616487E+02 0.  0.
        -12    1    1    2    0    0  0.17658545895E+02 -0.65099595555E+01  0.25739661213E+02  0.31886266259E+02  0.00000000000E+00 0.  1.
         11    1    3    3    0    0 -0.15194292212E+01 -0.58812505850E+01 -0.29594381595E+02  0.30211342172E+02  0.51100000000E-03 0. -1.
        -11    1    3    3    0    0 -0.11923964877E+02  0.16878160884E+02 -0.17838498551E+01  0.20742115942E+02  0.51100000000E-03 0.  1.
         12    1    3    3    0    0 -0.42151517964E+01 -0.44869507430E+01  0.56385702363E+01  0.83482756271E+01  0.00000000000E+00 0. -1.
</event>
<event>
 7    1  0.1052674E-011  0.5930192E+02  0.7816164E-02  0.1266605E+00
        -11   -1    0    0    0    0  0.00000000000E+00  0.00000000000E+00  0.45593999997E+02  0.45594000000E+02  0.51100000000E-03 0. -1.
         11   -1    0    0    0    0 -0.00000000000E+00 -0.00000000000E+00 -0.45593999997E+02  0.45594000000E+02  0.51100000000E-03 0.  1.
    9900012    2    1    2    0    0  0.23005276198E+02 -0.19984772824E+02  0.93855258044E+01  0.59301921966E+02  0.49999959764E+02 0.  0.
        -12    1    1    2    0    0 -0.23005276198E+02  0.19984772824E+02 -0.93855258044E+01  0.31886078034E+02  0.00000000000E+00 0.  1.
         11    1    3    3    0    0  0.12517339163E+02 -0.17799135470E+02  0.16932791377E+02  0.27571950009E+02  0.51100000000E-03 0. -1.
        -11    1    3    3    0    0 -0.75613559906E+01  0.13235320524E+01 -0.10603492156E+02  0.13090450247E+02  0.51100000000E-03 0.  1.
        -12    1    3    3    0    0  0.18049293026E+02 -0.35091694065E+01  0.30562265828E+01  0.18639521710E+02  0.00000000000E+00 0.  1.
</event>
<event>
 7    1  0.1052674E-011  0.5930196E+02  0.7816164E-02  0.1266605E+00
        -11   -1    0    0    0    0  0.00000000000E+00  0.00000000000E+00  0.45593999997E+02  0.45594000000E+02  0.51100000000E-03 0. -1.
         11   -1    0    0    0    0 -0.00000000000E+00 -0.00000000000E+00 -0.45593999997E+02  0.45594000000E+02  0.51100000000E-03 0.  1.
    9900012    2    1    2    0    0  0.15304980389E+02 -0.23314017272E+02 -0.15457478974E+02  0.59301961012E+02  0.50000030976E+02 0.  0.
        -12    1    1    2    0    0 -0.15304980389E+02  0.23314017272E+02  0.15457478974E+02  0.31886038988E+02  0.00000000000E+00 0.  1.
         11    1    3    3    0    0  0.50620943305E+01 -0.97127993431E+01  0.95130827350E+01  0.14507308967E+02  0.51100000000E-03 0. -1.
        -11    1    3    3    0    0  0.18281762998E+02 -0.52031703151E+01 -0.26973473021E+02  0.32997940644E+02  0.51100000000E-03 0.  1.
        -12    1    3    3    0    0 -0.80388769392E+01 -0.83980476138E+01  0.20029113118E+01  0.11796711401E+02  0.00000000000E+00 0.  1.
</event>
<event>
 7    1  0.1052674E-011  0.5930193E+02  0.7816164E-02  0.1266605E+00
        -11   -1    0    0    0    0  0.00000000000E+00  0.00000000000E+00  0.45593999997E+02  0.45594000000E+02  0.51100000000E-03 0.  1.
         11   -1    0    0    0    0 -0.00000000000E+00 -0.00000000000E+00 -0.45593999997E+02  0.45594000000E+02  0.51100000000E-03 0. -1.
    9900012    2    1    2    0    0 -0.12075186681E+00  0.21156423039E+02 -0.23856077625E+02  0.59301933192E+02  0.49999980238E+02 0.  0.
        -12    1    1    2    0    0  0.12075186681E+00 -0.21156423039E+02  0.23856077625E+02  0.31886066808E+02  0.00000000000E+00 0.  1.
         11    1    3    3    0    0  0.12215514512E+02  0.59280751922E+01 -0.89486151169E+01  0.16261567669E+02  0.51100000000E-03 0. -1.
        -11    1    3    3    0    0 -0.17997733516E+02  0.71339409200E+01  0.57051511203E+01  0.20183168095E+02  0.51100000000E-03 0.  1.
        -12    1    3    3    0    0  0.56614671373E+01  0.80944069272E+01 -0.20612613629E+02  0.22857197428E+02  0.00000000000E+00 0.  1.
</event>
<event>
 7    1  0.1052674E-011  0.5930193E+02  0.7816164E-02  0.1266605E+00
        -11   -1    0    0    0    0  0.00000000000E+00  0.00000000000E+00  0.45593999997E+02  0.45594000000E+02  0.51100000000E-03 0.  1.
         11   -1    0    0    0    0 -0.00000000000E+00 -0.00000000000E+00 -0.45593999997E+02  0.45594000000E+02  0.51100000000E-03 0. -1.
    9900012    2    1    2    0    0  0.88649177121E+01 -0.29356889513E+02 -0.87354352757E+01  0.59301928474E+02  0.49999971634E+02 0.  0.
        -12    1    1    2    0    0 -0.88649177121E+01  0.29356889513E+02  0.87354352757E+01  0.31886071526E+02  0.00000000000E+00 0.  1.
         11    1    3    3    0    0 -0.16703076366E+02 -0.24608833808E+00 -0.26309668883E+01  0.16910804433E+02  0.51100000000E-03 0. -1.
        -11    1    3    3    0    0  0.21712219120E+02 -0.29661712242E+02 -0.21216434594E+01  0.36820361262E+02  0.51100000000E-03 0.  1.
         12    1    3    3    0    0  0.38557749579E+01  0.55091106755E+00 -0.39828249281E+01  0.55707627788E+01  0.00000000000E+00 0. -1.
</event>
<event>
 7    1  0.1052674E-011  0.5930196E+02  0.7816164E-02  0.1266605E+00
        -11   -1    0    0    0    0  0.00000000000E+00  0.00000000000E+00  0.45593999997E+02  0.45594000000E+02  0.51100000000E-03 0. -1.
         11   -1    0    0    0    0 -0.00000000000E+00 -0.00000000000E+00 -0.45593999997E+02  0.45594000000E+02  0.51100000000E-03 0.  1.
    9900012    2    1    2    0    0 -0.58130237482E+01 -0.27103367849E+02  0.15758677974E+02  0.59301957202E+02  0.50000024027E+02 0.  0.
        -12    1    1    2    0    0  0.58130237482E+01  0.27103367849E+02 -0.15758677974E+02  0.31886042798E+02  0.00000000000E+00 0.  1.
         11    1    3    3    0    0 -0.12812305829E+02 -0.31069708801E+02 -0.38534864960E+01  0.33827966892E+02  0.51100000000E-03 0. -1.
        -11    1    3    3    0    0  0.60759253338E+01  0.87640286488E+01  0.16612715786E+02  0.19741007899E+02  0.51100000000E-03 0.  1.
        -12    1    3    3    0    0  0.92335674742E+00 -0.47976876964E+01  0.29994486840E+01  0.57329824108E+01  0.00000000000E+00 0.  1.
</event>
<event>
 7    1  0.1052674E-011  0.5930196E+02  0.7816164E-02  0.1266605E+00
        -11   -1    0    0    0    0  0.00000000000E+00  0.00000000000E+00  0.45593999997E+02  0.45594000000E+02  0.51100000000E-03 0.  1.
         11   -1    0    0    0    0 -0.00000000000E+00 -0.00000000000E+00 -0.45593999997E+02  0.45594000000E+02  0.51100000000E-03 0. -1.
    9900012    2    1    2    0    0  0.13293683027E+02 -0.19803990492E+02  0.21161280610E+02  0.59301955327E+02  0.50000020607E+02 0.  0.
        -12    1    1    2    0    0 -0.13293683027E+02  0.19803990492E+02 -0.21161280610E+02  0.31886044673E+02  0.00000000000E+00 0.  1.
         11    1    3    3    0    0 -0.60990588150E+00 -0.25314422811E+01 -0.65384359040E+01  0.70378497809E+01  0.51100000000E-03 0. -1.
        -11    1    3    3    0    0 -0.34426427859E+01  0.77296265369E+01  0.18708908196E+02  0.20533440090E+02  0.51100000000E-03 0.  1.
        -12    1    3    3    0    0  0.17346231694E+02 -0.25002174747E+02  0.89908083180E+01  0.31730665456E+02  0.00000000000E+00 0.  1.
</event>
<event>
 7    1  0.1052674E-011  0.5930196E+02  0.7816164E-02  0.1266605E+00
        -11   -1    0    0    0    0  0.00000000000E+00  0.00000000000E+00  0.45593999997E+02  0.45594000000E+02  0.51100000000E-03 0. -1.
         11   -1    0    0    0    0 -0.00000000000E+00 -0.00000000000E+00 -0.45593999997E+02  0.45594000000E+02  0.51100000000E-03 0.  1.
    9900012    2    1    2    0    0 -0.20301014430E+02 -0.23171220240E+02  0.82269798511E+01  0.59301955533E+02  0.50000020982E+02 0.  0.
        -12    1    1    2    0    0  0.20301014430E+02  0.23171220240E+02 -0.82269798511E+01  0.31886044467E+02  0.00000000000E+00 0.  1.
         11    1    3    3    0    0 -0.21271657400E+02 -0.12112729556E+02  0.10200737776E+02  0.26518987109E+02  0.51100000000E-03 0. -1.
        -11    1    3    3    0    0  0.86717307543E+01  0.66426530481E+01  0.53162335304E+01  0.12148501677E+02  0.51100000000E-03 0.  1.
        -12    1    3    3    0    0 -0.77010877840E+01 -0.17701143732E+02 -0.72899914554E+01  0.20634466746E+02  0.00000000000E+00 0.  1.
</event>
<event>
 7    1  0.1052674E-011  0.5930212E+02  0.7816164E-02  0.1266604E+00
        -11   -1    0    0    0    0  0.00000000000E+00  0.00000000000E+00  0.45593999997E+02  0.45594000000E+02  0.51100000000E-03 0.  1.
         11   -1    0    0    0    0 -0.00000000000E+00 -0.00000000000E+00 -0.45593999997E+02  0.45594000000E+02  0.51100000000E-03 0. -1.
    9900012    2    1    2    0    0 -0.22182370364E+02  0.77742507640E+01 -0.21545599704E+02  0.59302119167E+02  0.50000319410E+02 0.  0.
        -12    1    1    2    0    0  0.22182370364E+02 -0.77742507640E+01  0.21545599704E+02  0.31885880833E+02  0.00000000000E+00 0.  1.
         11    1    3    3    0    0 -0.16960441202E+02 -0.65989574401E+00 -0.31459160235E+02  0.35745919923E+02  0.51100000000E-03 0. -1.
        -11    1    3    3    0    0  0.61079808187E+01  0.52627443471E+01  0.84845446741E+01  0.11704332802E+02  0.51100000000E-03 0.  1.
         12    1    3    3    0    0 -0.11329909981E+02  0.31714021609E+01  0.14290158576E+01  0.11851866442E+02  0.00000000000E+00 0. -1.
</event>
<event>
 7    1  0.1052674E-011  0.5930197E+02  0.7816164E-02  0.1266605E+00
        -11   -1    0    0    0    0  0.00000000000E+00  0.00000000000E+00  0.45593999997E+02  0.45594000000E+02  0.51100000000E-03 0. -1.
         11   -1    0    0    0    0 -0.00000000000E+00 -0.00000000000E+00 -0.45593999997E+02  0.45594000000E+02  0.51100000000E-03 0.  1.
    9900012    2    1    2    0    0  0.10849394094E+02  0.27306895146E+02  0.12383178604E+02  0.59301968778E+02  0.50000045139E+02 0.  0.
        -12    1    1    2    0    0 -0.10849394094E+02 -0.27306895146E+02 -0.12383178604E+02  0.31886031222E+02  0.00000000000E+00 0.  1.
         11    1    3    3    0    0 -0.67131896238E+01  0.15372500614E+02  0.95198714849E+01  0.19287525591E+02  0.51100000000E-03 0. -1.
        -11    1    3    3    0    0  0.20033523570E+02  0.16959057295E+02 -0.82971850232E+01  0.27528076042E+02  0.51100000000E-03 0.  1.
        -12    1    3    3    0    0 -0.24709398527E+01 -0.50246627634E+01  0.11160492142E+02  0.12486367146E+02  0.00000000000E+00 0.  1.
</event>
<event>
 7    1  0.1052674E-011  0.5930195E+02  0.7816164E-02  0.1266605E+00
        -11   -1    0    0    0    0  0.00000000000E+00  0.00000000000E+00  0.45593999997E+02  0.45594000000E+02  0.51100000000E-03 0.  1.
         11   -1    0    0    0    0 -0.00000000000E+00 -0.00000000000E+00 -0.45593999997E+02  0.45594000000E+02  0.51100000000E-03 0. -1.
    9900012    2    1    2    0    0 -0.28894312194E+02  0.12042278481E+02  0.60681498134E+01  0.59301949910E+02  0.50000010727E+02 0.  0.
        -12    1    1    2    0    0  0.28894312194E+02 -0.12042278481E+02 -0.60681498134E+01  0.31886050090E+02  0.00000000000E+00 0.  1.
         11    1    3    3    0    0 -0.17621872765E+02  0.23323934104E+02  0.64065083657E+01  0.29926236842E+02  0.51100000000E-03 0. -1.
        -11    1    3    3    0    0 -0.57895783995E+01 -0.18546610153E+02  0.30431545683E+01  0.19666132213E+02  0.51100000000E-03 0.  1.
        -12    1    3    3    0    0 -0.54828610295E+01  0.72649545302E+01 -0.33815131206E+01  0.97095808550E+01  0.00000000000E+00 0.  1.
</event>
<event>
 7    1  0.1052674E-011  0.5930193E+02  0.7816164E-02  0.1266605E+00
        -11   -1    0    0    0    0  0.00000000000E+00  0.00000000000E+00  0.45593999997E+02  0.45594000000E+02  0.51100000000E-03 0.  1.
         11   -1    0    0    0    0 -0.00000000000E+00 -0.00000000000E+00 -0.45593999997E+02  0.45594000000E+02  0.51100000000E-03 0. -1.
    9900012    2    1    2    0    0  0.32106364838E+01  0.28683551305E+02 -0.13552376982E+02  0.59301933702E+02  0.49999981168E+02 0.  0.
        -12    1    1    2    0    0 -0.32106364838E+01 -0.28683551305E+02  0.13552376982E+02  0.31886066298E+02  0.00000000000E+00 0.  1.
         11    1    3    3    0    0  0.99642575353E+00  0.37719029449E+02 -0.30199926539E+01  0.37852851977E+02  0.51100000000E-03 0. -1.
        -11    1    3    3    0    0 -0.55984153019E+01 -0.52977906971E+01  0.13464263046E+00  0.77088889641E+01  0.51100000000E-03 0.  1.
         12    1    3    3    0    0  0.78126260322E+01 -0.37376874470E+01 -0.10667026959E+02  0.13740192761E+02  0.00000000000E+00 0. -1.
</event>
<event>
 7    1  0.1052674E-011  0.5930195E+02  0.7816164E-02  0.1266605E+00
        -11   -1    0    0    0    0  0.00000000000E+00  0.00000000000E+00  0.45593999997E+02  0.45594000000E+02  0.51100000000E-03 0.  1.
         11   -1    0    0    0    0 -0.00000000000E+00 -0.00000000000E+00 -0.45593999997E+02  0.45594000000E+02  0.51100000000E-03 0. -1.
    9900012    2    1    2    0    0  0.85237899223E+01 -0.60289139926E+01 -0.30128350305E+02  0.59301948337E+02  0.50000007859E+02 0.  0.
        -12    1    1    2    0    0 -0.85237899223E+01  0.60289139926E+01  0.30128350305E+02  0.31886051663E+02  0.00000000000E+00 0.  1.
         11    1    3    3    0    0 -0.11500869668E+02  0.19823431939E+01 -0.45050848301E+01  0.12509815237E+02  0.51100000000E-03 0. -1.
        -11    1    3    3    0    0  0.13960681791E+02 -0.16435279751E+02 -0.28762155090E+02  0.35948304859E+02  0.51100000000E-03 0.  1.
        -12    1    3    3    0    0  0.60639777992E+01  0.84240225641E+01  0.31388896154E+01  0.10843828241E+02  0.00000000000E+00 0.  1.
</event>
<event>
 7    1  0.1052674E-011  0.5930193E+02  0.7816164E-02  0.1266605E+00
        -11   -1    0    0    0    0  0.00000000000E+00  0.00000000000E+00  0.45593999997E+02  0.45594000000E+02  0.51100000000E-03 0. -1.
         11   -1    0    0    0    0 -0.00000000000E+00 -0.00000000000E+00 -0.45593999997E+02  0.45594000000E+02  0.51100000000E-03 0.  1.
    9900012    2    1    2    0    0  0.28951097199E+02  0.68076806185E+01  0.11498305309E+02  0.59301928286E+02  0.49999971290E+02 0.  0.
        -12    1    1    2    0    0 -0.28951097199E+02 -0.68076806185E+01 -0.11498305309E+02  0.31886071714E+02  0.00000000000E+00 0.  1.
         11    1    3    3    0    0  0.92574936488E+01  0.17459195757E+01  0.19892286825E+02  0.22010281670E+02  0.51100000000E-03 0. -1.
        -11    1    3    3    0    0 -0.58614605987E+01  0.47527608103E+01 -0.89778398054E+01  0.11728046022E+02  0.51100000000E-03 0.  1.
        -12    1    3    3    0    0  0.25555064149E+02  0.30900023251E+00  0.58385828947E+00  0.25563600593E+02  0.00000000000E+00 0.  1.
</event>
<event>
 7    1  0.1197211E-011  0.5930194E+02  0.7816164E-02  0.1266605E+00
        -11   -1    0    0    0    0  0.00000000000E+00  0.00000000000E+00  0.45593999997E+02  0.45594000000E+02  0.51100000000E-03 0.  1.
         11   -1    0    0    0    0 -0.00000000000E+00 -0.00000000000E+00 -0.45593999997E+02  0.45594000000E+02  0.51100000000E-03 0. -1.
    9900012    2    1    2    0    0  0.19139072953E+02 -0.12764060272E+02 -0.22079292861E+02  0.59301944719E+02  0.50000001261E+02 0.  0.
        -12    1    1    2    0    0 -0.19139072953E+02  0.12764060272E+02  0.22079292861E+02  0.31886055281E+02  0.00000000000E+00 0.  1.
         11    1    3    3    0    0  0.22897755265E+02 -0.73649682049E+01 -0.27404017214E+02  0.36462722232E+02  0.51100000000E-03 0. -1.
        -11    1    3    3    0    0 -0.59253228134E+01 -0.12669516013E+02  0.80778794075E+00  0.14009946755E+02  0.51100000000E-03 0.  1.
         12    1    3    3    0    0  0.21666405011E+01  0.72704239460E+01  0.45169364122E+01  0.88292757329E+01  0.00000000000E+00 0. -1.
</event>
<event>
 7    1  0.1052674E-011  0.5930195E+02  0.7816164E-02  0.1266605E+00
        -11   -1    0    0    0    0  0.00000000000E+00  0.00000000000E+00  0.45593999997E+02  0.45594000000E+02  0.51100000000E-03 0.  1.
         11   -1    0    0    0    0 -0.00000000000E+00 -0.00000000000E+00 -0.45593999997E+02  0.45594000000E+02  0.51100000000E-03 0. -1.
    9900012    2    1    2    0    0 -0.13136191056E-01 -0.19600719756E+02 -0.25150182667E+02  0.59301951708E+02  0.50000014007E+02 0.  0.
        -12    1    1    2    0    0  0.13136191056E-01  0.19600719756E+02  0.25150182667E+02  0.31886048292E+02  0.00000000000E+00 0.  1.
         11    1    3    3    0    0  0.13108435630E+02  0.81068725778E+01 -0.12591024969E+02  0.19901918945E+02  0.51100000000E-03 0. -1.
        -11    1    3    3    0    0 -0.16908796461E+02 -0.16894112499E+02 -0.14235905746E+02  0.27820486113E+02  0.51100000000E-03 0.  1.
         12    1    3    3    0    0  0.37872246397E+01 -0.10813479834E+02  0.16767480483E+01  0.11579546650E+02  0.00000000000E+00 0. -1.
</event>
<event>
 7    1  0.1052674E-011  0.5930193E+02  0.7816164E-02  0.1266605E+00
        -11   -1    0    0    0    0  0.00000000000E+00  0.00000000000E+00  0.45593999997E+02  0.45594000000E+02  0.51100000000E-03 0.  1.
         11   -1    0    0    0    0 -0.00000000000E+00 -0.00000000000E+00 -0.45593999997E+02  0.45594000000E+02  0.51100000000E-03 0. -1.
    9900012    2    1    2    0    0 -0.20840019922E+02  0.21696496457E+02  0.10567743521E+02  0.59301927931E+02  0.49999970643E+02 0.  0.
        -12    1    1    2    0    0  0.20840019922E+02 -0.21696496457E+02 -0.10567743521E+02  0.31886072069E+02  0.00000000000E+00 0.  1.
         11    1    3    3    0    0 -0.29399713829E+02  0.21831799701E+02  0.10542582564E+02  0.38106649011E+02  0.51100000000E-03 0. -1.
        -11    1    3    3    0    0  0.10565197642E+02  0.38367680756E+01  0.67650313003E+01  0.13119063962E+02  0.51100000000E-03 0.  1.
        -12    1    3    3    0    0 -0.20055037351E+01 -0.39720713195E+01 -0.67398703437E+01  0.80762149580E+01  0.00000000000E+00 0.  1.
</event>
<event>
 7    1  0.1052674E-011  0.5930193E+02  0.7816164E-02  0.1266605E+00
        -11   -1    0    0    0    0  0.00000000000E+00  0.00000000000E+00  0.45593999997E+02  0.45594000000E+02  0.51100000000E-03 0.  1.
         11   -1    0    0    0    0 -0.00000000000E+00 -0.00000000000E+00 -0.45593999997E+02  0.45594000000E+02  0.51100000000E-03 0. -1.
    9900012    2    1    2    0    0  0.99760611643E+01 -0.28981576632E+02 -0.87902096071E+01  0.59301931485E+02  0.49999977125E+02 0.  0.
        -12    1    1    2    0    0 -0.99760611643E+01  0.28981576632E+02  0.87902096071E+01  0.31886068515E+02  0.00000000000E+00 0.  1.
         11    1    3    3    0    0  0.54208472843E+00 -0.26828437856E+02  0.11874903199E+02  0.29344032782E+02  0.51100000000E-03 0. -1.
        -11    1    3    3    0    0  0.59420074610E+00  0.80901065001E+01 -0.67996790937E+01  0.10584825636E+02  0.51100000000E-03 0.  1.
         12    1    3    3    0    0  0.88397756898E+01 -0.10243245276E+02 -0.13865433713E+02  0.19373073067E+02  0.00000000000E+00 0. -1.
</event>
<event>
 7    1  0.1052674E-011  0.5930198E+02  0.7816164E-02  0.1266605E+00
        -11   -1    0    0    0    0  0.00000000000E+00  0.00000000000E+00  0.45593999997E+02  0.45594000000E+02  0.51100000000E-03 0. -1.
         11   -1    0    0    0    0 -0.00000000000E+00 -0.00000000000E+00 -0.45593999997E+02  0.45594000000E+02  0.51100000000E-03 0.  1.
    9900012    2    1    2    0    0 -0.11394359114E+02 -0.29717286013E+02  0.19416099621E+01  0.59301978660E+02  0.50000063162E+02 0.  0.
        -12    1    1    2    0    0  0.11394359114E+02  0.29717286013E+02 -0.19416099621E+01  0.31886021340E+02  0.00000000000E+00 0.  1.
         11    1    3    3    0    0 -0.20387026765E+01  0.48654453498E+01  0.10429723861E+02  0.11687942810E+02  0.51100000000E-03 0.  1.
        -11    1    3    3    0    0  0.87741317301E+01 -0.21034215203E+02 -0.10089841541E+02  0.24924455850E+02  0.51100000000E-03 0. -1.
        -12    1    3    3    0    0 -0.18129788168E+02 -0.13548516160E+02  0.16017276414E+01  0.22689580000E+02  0.00000000000E+00 0.  1.
</event>
<event>
 7    1  0.1052674E-011  0.5930194E+02  0.7816164E-02  0.1266605E+00
        -11   -1    0    0    0    0  0.00000000000E+00  0.00000000000E+00  0.45593999997E+02  0.45594000000E+02  0.51100000000E-03 0. -1.
         11   -1    0    0    0    0 -0.00000000000E+00 -0.00000000000E+00 -0.45593999997E+02  0.45594000000E+02  0.51100000000E-03 0.  1.
    9900012    2    1    2    0    0 -0.68270100823E+01  0.19574162657E+02  0.24227352849E+02  0.59301944483E+02  0.50000000830E+02 0.  0.
        -12    1    1    2    0    0  0.68270100823E+01 -0.19574162657E+02 -0.24227352849E+02  0.31886055517E+02  0.00000000000E+00 0.  1.
         11    1    3    3    0    0 -0.91382289689E+00  0.86440977856E+01  0.24671036372E+02  0.26157513925E+02  0.51100000000E-03 0. -1.
        -11    1    3    3    0    0 -0.26097061261E+01  0.15251530732E+02 -0.12517130423E+02  0.19902218721E+02  0.51100000000E-03 0.  1.
        -12    1    3    3    0    0 -0.33034810592E+01 -0.43214658604E+01  0.12073446900E+02  0.13242211837E+02  0.00000000000E+00 0.  1.
</event>
<event>
 7    1  0.1052674E-011  0.5930197E+02  0.7816164E-02  0.1266605E+00
        -11   -1    0    0    0    0  0.00000000000E+00  0.00000000000E+00  0.45593999997E+02  0.45594000000E+02  0.51100000000E-03 0.  1.
         11   -1    0    0    0    0 -0.00000000000E+00 -0.00000000000E+00 -0.45593999997E+02  0.45594000000E+02  0.51100000000E-03 0. -1.
    9900012    2    1    2    0    0  0.23771132766E+02  0.20222759250E+02  0.65339203399E+01  0.59301970776E+02  0.50000048782E+02 0.  0.
        -12    1    1    2    0    0 -0.23771132766E+02 -0.20222759250E+02 -0.65339203399E+01  0.31886029224E+02  0.00000000000E+00 0.  1.
         11    1    3    3    0    0  0.11458042234E+01  0.24192020324E+01 -0.15958183809E+02  0.16181132116E+02  0.51100000000E-03 0. -1.
        -11    1    3    3    0    0  0.26963196663E+02  0.15151596544E+02  0.22116522614E+02  0.38022696181E+02  0.51100000000E-03 0.  1.
        -12    1    3    3    0    0 -0.43378681203E+01  0.26519606743E+01  0.37558153527E+00  0.50981424791E+01  0.00000000000E+00 0.  1.
</event>
<event>
 7    1  0.1052674E-011  0.5930183E+02  0.7816164E-02  0.1266605E+00
        -11   -1    0    0    0    0  0.00000000000E+00  0.00000000000E+00  0.45593999997E+02  0.45594000000E+02  0.51100000000E-03 0.  1.
         11   -1    0    0    0    0 -0.00000000000E+00 -0.00000000000E+00 -0.45593999997E+02  0.45594000000E+02  0.51100000000E-03 0. -1.
    9900012    2    1    2    0    0  0.62886228966E+01  0.16173291767E+02 -0.26750801727E+02  0.59301834699E+02  0.49999800611E+02 0.  0.
        -12    1    1    2    0    0 -0.62886228966E+01 -0.16173291767E+02  0.26750801727E+02  0.31886165301E+02  0.00000000000E+00 0.  1.
         11    1    3    3    0    0  0.22192544539E+02  0.12980684727E+02 -0.11608231857E+02  0.28209187444E+02  0.51100000000E-03 0. -1.
        -11    1    3    3    0    0 -0.82234803750E+01 -0.71638626379E+01  0.38083735407E+00  0.10912909544E+02  0.51100000000E-03 0.  1.
         12    1    3    3    0    0 -0.76804412677E+01  0.10356469678E+02 -0.15523407224E+02  0.20179737711E+02  0.00000000000E+00 0. -1.
</event>
<event>
 7    1  0.1052674E-011  0.5930189E+02  0.7816164E-02  0.1266605E+00
        -11   -1    0    0    0    0  0.00000000000E+00  0.00000000000E+00  0.45593999997E+02  0.45594000000E+02  0.51100000000E-03 0. -1.
         11   -1    0    0    0    0 -0.00000000000E+00 -0.00000000000E+00 -0.45593999997E+02  0.45594000000E+02  0.51100000000E-03 0.  1.
    9900012    2    1    2    0    0 -0.18727803806E+02 -0.21308239507E+02  0.14558578941E+02  0.59301891315E+02  0.49999903865E+02 0.  0.
        -12    1    1    2    0    0  0.18727803806E+02  0.21308239507E+02 -0.14558578941E+02  0.31886108685E+02  0.00000000000E+00 0.  1.
         11    1    3    3    0    0  0.28761790023E+01  0.66872314056E+01  0.59337518297E+01  0.93915323864E+01  0.51100000000E-03 0. -1.
        -11    1    3    3    0    0 -0.53930167984E-02 -0.13152184487E+02 -0.11019149944E+02  0.17158136600E+02  0.51100000000E-03 0.  1.
        -12    1    3    3    0    0 -0.21598589792E+02 -0.14843286426E+02  0.19643977055E+02  0.32752222328E+02  0.00000000000E+00 0.  1.
</event>
<event>
 7    1  0.1052674E-011  0.5930193E+02  0.7816164E-02  0.1266605E+00
        -11   -1    0    0    0    0  0.00000000000E+00  0.00000000000E+00  0.45593999997E+02  0.45594000000E+02  0.51100000000E-03 0. -1.
         11   -1    0    0    0    0 -0.00000000000E+00 -0.00000000000E+00 -0.45593999997E+02  0.45594000000E+02  0.51100000000E-03 0.  1.
    9900012    2    1    2    0    0  0.19620188730E+02 -0.14403006979E+02  0.20599096653E+02  0.59301934097E+02  0.49999981889E+02 0.  0.
        -12    1    1    2    0    0 -0.19620188730E+02  0.14403006979E+02 -0.20599096653E+02  0.31886065903E+02  0.00000000000E+00 0.  1.
         11    1    3    3    0    0  0.13860394423E+02 -0.26414182168E+02  0.41795364741E-01  0.29829872616E+02  0.51100000000E-03 0. -1.
        -11    1    3    3    0    0  0.40665500763E+01  0.79175689706E+01  0.48208206136E+00  0.89138729687E+01  0.51100000000E-03 0.  1.
         12    1    3    3    0    0  0.16932442306E+01  0.40936062184E+01  0.20075219227E+02  0.20558188513E+02  0.00000000000E+00 0. -1.
</event>
<event>
 7    1  0.1052674E-011  0.5930195E+02  0.7816164E-02  0.1266605E+00
        -11   -1    0    0    0    0  0.00000000000E+00  0.00000000000E+00  0.45593999997E+02  0.45594000000E+02  0.51100000000E-03 0.  1.
         11   -1    0    0    0    0 -0.00000000000E+00 -0.00000000000E+00 -0.45593999997E+02  0.45594000000E+02  0.51100000000E-03 0. -1.
    9900012    2    1    2    0    0  0.26685143996E+02  0.11525626353E+02  0.13106614487E+02  0.59301947936E+02  0.50000007128E+02 0.  0.
        -12    1    1    2    0    0 -0.26685143996E+02 -0.11525626353E+02 -0.13106614487E+02  0.31886052064E+02  0.00000000000E+00 0.  1.
         11    1    3    3    0    0  0.12317301600E+02 -0.74168794930E+01  0.19118968773E+02  0.23921977078E+02  0.51100000000E-03 0.  1.
        -11    1    3    3    0    0 -0.55243823292E+01  0.12561684480E+02 -0.31480963961E+00  0.13726391459E+02  0.51100000000E-03 0. -1.
        -12    1    3    3    0    0  0.19892224725E+02  0.63808213655E+01 -0.56975446462E+01  0.21653579399E+02  0.00000000000E+00 0.  1.
</event>
<event>
 7    1  0.1052674E-011  0.5930195E+02  0.7816164E-02  0.1266605E+00
        -11   -1    0    0    0    0  0.00000000000E+00  0.00000000000E+00  0.45593999997E+02  0.45594000000E+02  0.51100000000E-03 0.  1.
         11   -1    0    0    0    0 -0.00000000000E+00 -0.00000000000E+00 -0.45593999997E+02  0.45594000000E+02  0.51100000000E-03 0. -1.
    9900012    2    1    2    0    0  0.28856243157E+02  0.54896264437E+01 -0.12405699074E+02  0.59301950744E+02  0.50000012250E+02 0.  0.
        -12    1    1    2    0    0 -0.28856243157E+02 -0.54896264437E+01  0.12405699074E+02  0.31886049256E+02  0.00000000000E+00 0.  1.
         11    1    3    3    0    0 -0.44426734149E+01  0.42635707026E+01 -0.21050615515E+02  0.21932710641E+02  0.51100000000E-03 0. -1.
        -11    1    3    3    0    0  0.30931182550E+02 -0.34158212157E+01  0.78910340794E+01  0.32104116677E+02  0.51100000000E-03 0.  1.
        -12    1    3    3    0    0  0.23677340220E+01  0.46418769568E+01  0.75388236247E+00  0.52651234266E+01  0.00000000000E+00 0.  1.
</event>
<event>
 7    1  0.1052674E-011  0.5930193E+02  0.7816164E-02  0.1266605E+00
        -11   -1    0    0    0    0  0.00000000000E+00  0.00000000000E+00  0.45593999997E+02  0.45594000000E+02  0.51100000000E-03 0.  1.
         11   -1    0    0    0    0 -0.00000000000E+00 -0.00000000000E+00 -0.45593999997E+02  0.45594000000E+02  0.51100000000E-03 0. -1.
    9900012    2    1    2    0    0  0.13918074219E+02 -0.27123089913E+02 -0.93459303270E+01  0.59301933920E+02  0.49999981565E+02 0.  0.
        -12    1    1    2    0    0 -0.13918074219E+02  0.27123089913E+02  0.93459303270E+01  0.31886066080E+02  0.00000000000E+00 0.  1.
         11    1    3    3    0    0  0.63318614311E+01  0.12594321293E+02  0.41143842930E+00  0.14102435245E+02  0.51100000000E-03 0. -1.
        -11    1    3    3    0    0  0.31609303707E+01 -0.22383927716E+02  0.35769366701E+01  0.22887249223E+02  0.51100000000E-03 0.  1.
         12    1    3    3    0    0  0.44252824171E+01 -0.17333483490E+02 -0.13334305426E+02  0.22312249451E+02  0.00000000000E+00 0. -1.
</event>
<event>
 7    1  0.1052674E-011  0.5930194E+02  0.7816164E-02  0.1266605E+00
        -11   -1    0    0    0    0  0.00000000000E+00  0.00000000000E+00  0.45593999997E+02  0.45594000000E+02  0.51100000000E-03 0. -1.
         11   -1    0    0    0    0 -0.00000000000E+00 -0.00000000000E+00 -0.45593999997E+02  0.45594000000E+02  0.51100000000E-03 0.  1.
    9900012    2    1    2    0    0  0.31409617730E+02 -0.31419257624E+01 -0.45038741922E+01  0.59301942449E+02  0.49999997120E+02 0.  0.
        -12    1    1    2    0    0 -0.31409617730E+02  0.31419257624E+01  0.45038741922E+01  0.31886057551E+02  0.00000000000E+00 0.  1.
         11    1    3    3    0    0  0.13253530378E+02 -0.17132641697E+02  0.56256356180E+00  0.21667947689E+02  0.51100000000E-03 0. -1.
        -11    1    3    3    0    0  0.16578679608E+02  0.22114506110E+02 -0.81298148947E+01  0.28809683937E+02  0.51100000000E-03 0.  1.
        -12    1    3    3    0    0  0.15774077436E+01 -0.81237901754E+01  0.30633771408E+01  0.88243108235E+01  0.00000000000E+00 0.  1.
</event>
<event>
 7    1  0.1052674E-011  0.5930192E+02  0.7816164E-02  0.1266605E+00
        -11   -1    0    0    0    0  0.00000000000E+00  0.00000000000E+00  0.45593999997E+02  0.45594000000E+02  0.51100000000E-03 0.  1.
         11   -1    0    0    0    0 -0.00000000000E+00 -0.00000000000E+00 -0.45593999997E+02  0.45594000000E+02  0.51100000000E-03 0. -1.
    9900012    2    1    2    0    0  0.14082313638E+02 -0.14015587413E+02 -0.24939406584E+02  0.59301917633E+02  0.49999951863E+02 0.  0.
        -12    1    1    2    0    0 -0.14082313638E+02  0.14015587413E+02  0.24939406584E+02  0.31886082367E+02  0.00000000000E+00 0.  1.
         11    1    3    3    0    0  0.24468645603E+02 -0.12353606281E+02 -0.11233822020E+02  0.29623047838E+02  0.51100000000E-03 0. -1.
        -11    1    3    3    0    0 -0.87201219953E+01  0.94685288013E+01 -0.13138032014E+01  0.12939074325E+02  0.51100000000E-03 0.  1.
        -12    1    3    3    0    0 -0.16662099697E+01 -0.11130509933E+02 -0.12391781363E+02  0.16739795470E+02  0.00000000000E+00 0.  1.
</event>
<event>
 7    1  0.1052674E-011  0.5930190E+02  0.7816164E-02  0.1266605E+00
        -11   -1    0    0    0    0  0.00000000000E+00  0.00000000000E+00  0.45593999997E+02  0.45594000000E+02  0.51100000000E-03 0. -1.
         11   -1    0    0    0    0 -0.00000000000E+00 -0.00000000000E+00 -0.45593999997E+02  0.45594000000E+02  0.51100000000E-03 0.  1.
    9900012    2    1    2    0    0 -0.15766783675E+02 -0.26046948901E+02  0.94704041144E+01  0.59301896936E+02  0.49999914116E+02 0.  0.
        -12    1    1    2    0    0  0.15766783675E+02  0.26046948901E+02 -0.94704041144E+01  0.31886103064E+02  0.00000000000E+00 0.  1.
         11    1    3    3    0    0  0.64097422175E+01 -0.19074354851E+02 -0.79659094527E+01  0.21641892753E+02  0.51100000000E-03 0. -1.
        -11    1    3    3    0    0 -0.26610611939E+02 -0.82960937608E+01  0.11548665037E+02  0.30171534662E+02  0.51100000000E-03 0.  1.
         12    1    3    3    0    0  0.44340860472E+01  0.13234997100E+01  0.58876485298E+01  0.74884695210E+01  0.00000000000E+00 0. -1.
</event>
<event>
 7    1  0.1052674E-011  0.5930195E+02  0.7816164E-02  0.1266605E+00
        -11   -1    0    0    0    0  0.00000000000E+00  0.00000000000E+00  0.45593999997E+02  0.45594000000E+02  0.51100000000E-03 0.  1.
         11   -1    0    0    0    0 -0.00000000000E+00 -0.00000000000E+00 -0.45593999997E+02  0.45594000000E+02  0.51100000000E-03 0. -1.
    9900012    2    1    2    0    0 -0.56905940385E+01 -0.27914978929E+02 -0.14320997068E+02  0.59301954993E+02  0.50000019999E+02 0.  0.
        -12    1    1    2    0    0  0.56905940385E+01  0.27914978929E+02  0.14320997068E+02  0.31886045007E+02  0.00000000000E+00 0.  1.
         11    1    3    3    0    0 -0.18029919369E+02 -0.36107623729E+02 -0.51968606954E+01  0.40692085780E+02  0.51100000000E-03 0. -1.
        -11    1    3    3    0    0  0.15949249169E+01  0.26605530579E+01  0.52402290083E+00  0.31459383856E+01  0.51100000000E-03 0.  1.
         12    1    3    3    0    0  0.10744400413E+02  0.55320917414E+01 -0.96481592735E+01  0.15463930828E+02  0.00000000000E+00 0. -1.
</event>
<event>
 7    1  0.1052674E-011  0.5930198E+02  0.7816164E-02  0.1266605E+00
        -11   -1    0    0    0    0  0.00000000000E+00  0.00000000000E+00  0.45593999997E+02  0.45594000000E+02  0.51100000000E-03 0.  1.
         11   -1    0    0    0    0 -0.00000000000E+00 -0.00000000000E+00 -0.45593999997E+02  0.45594000000E+02  0.51100000000E-03 0. -1.
    9900012    2    1    2    0    0 -0.68612938876E+01 -0.19928900057E+01 -0.31075223006E+02  0.59301977211E+02  0.50000060519E+02 0.  0.
        -12    1    1    2    0    0  0.68612938876E+01  0.19928900057E+01  0.31075223006E+02  0.31886022789E+02  0.00000000000E+00 0.  1.
         11    1    3    3    0    0  0.69848921037E+01  0.13617143013E+02 -0.23917424199E+02  0.28394691090E+02  0.51100000000E-03 0. -1.
        -11    1    3    3    0    0 -0.19461427182E+02 -0.10906167018E+02 -0.30713935423E+01  0.22519437949E+02  0.51100000000E-03 0.  1.
        -12    1    3    3    0    0  0.56152411904E+01 -0.47038660001E+01 -0.40864052644E+01  0.83878481721E+01  0.00000000000E+00 0.  1.
</event>
<event>
 7    1  0.1052674E-011  0.5930195E+02  0.7816164E-02  0.1266605E+00
        -11   -1    0    0    0    0  0.00000000000E+00  0.00000000000E+00  0.45593999997E+02  0.45594000000E+02  0.51100000000E-03 0. -1.
         11   -1    0    0    0    0 -0.00000000000E+00 -0.00000000000E+00 -0.45593999997E+02  0.45594000000E+02  0.51100000000E-03 0.  1.
    9900012    2    1    2    0    0 -0.22709074556E+02 -0.10670980687E+02  0.19676091676E+02  0.59301945373E+02  0.50000002454E+02 0.  0.
        -12    1    1    2    0    0  0.22709074556E+02  0.10670980687E+02 -0.19676091676E+02  0.31886054627E+02  0.00000000000E+00 0.  1.
         11    1    3    3    0    0 -0.67698515837E+01 -0.20473814038E+02  0.55425806520E+01  0.22264953453E+02  0.51100000000E-03 0. -1.
        -11    1    3    3    0    0  0.59922495013E+00  0.58699336651E+01 -0.74876641320E+01  0.95331162894E+01  0.51100000000E-03 0.  1.
         12    1    3    3    0    0 -0.16538447922E+02  0.39328996850E+01  0.21621175156E+02  0.27503875631E+02  0.00000000000E+00 0. -1.
</event>
<event>
 7    1  0.1052674E-011  0.5930195E+02  0.7816164E-02  0.1266605E+00
        -11   -1    0    0    0    0  0.00000000000E+00  0.00000000000E+00  0.45593999997E+02  0.45594000000E+02  0.51100000000E-03 0.  1.
         11   -1    0    0    0    0 -0.00000000000E+00 -0.00000000000E+00 -0.45593999997E+02  0.45594000000E+02  0.51100000000E-03 0. -1.
    9900012    2    1    2    0    0  0.35254093575E+01 -0.15082553395E+01 -0.31654654442E+02  0.59301945162E+02  0.50000002068E+02 0.  0.
        -12    1    1    2    0    0 -0.35254093575E+01  0.15082553395E+01  0.31654654442E+02  0.31886054838E+02  0.00000000000E+00 0.  1.
         11    1    3    3    0    0  0.10689913844E+02  0.50883206196E+01 -0.29501981367E+02  0.31788868642E+02  0.51100000000E-03 0. -1.
        -11    1    3    3    0    0 -0.95605903423E+01  0.79997641149E+01  0.54269390184E+00  0.12477805517E+02  0.51100000000E-03 0.  1.
         12    1    3    3    0    0  0.23960858557E+01 -0.14596340074E+02 -0.26953669768E+01  0.15035271003E+02  0.00000000000E+00 0. -1.
</event>
<event>
 7    1  0.1052674E-011  0.5930193E+02  0.7816164E-02  0.1266605E+00
        -11   -1    0    0    0    0  0.00000000000E+00  0.00000000000E+00  0.45593999997E+02  0.45594000000E+02  0.51100000000E-03 0.  1.
         11   -1    0    0    0    0 -0.00000000000E+00 -0.00000000000E+00 -0.45593999997E+02  0.45594000000E+02  0.51100000000E-03 0. -1.
    9900012    2    1    2    0    0 -0.88483029646E+01  0.30625422130E+02  0.71577363517E+00  0.59301932856E+02  0.49999979626E+02 0.  0.
        -12    1    1    2    0    0  0.88483029646E+01 -0.30625422130E+02 -0.71577363517E+00  0.31886067144E+02  0.00000000000E+00 0.  1.
         11    1    3    3    0    0  0.97881602910E+01 -0.27885180252E+01  0.25477206668E+01  0.10491653612E+02  0.51100000000E-03 0. -1.
        -11    1    3    3    0    0 -0.19169718946E+02  0.15752313735E+02 -0.12895640062E+02  0.27962672357E+02  0.51100000000E-03 0.  1.
        -12    1    3    3    0    0  0.53325569074E+00  0.17661626420E+02  0.11063693030E+02  0.20847606887E+02  0.00000000000E+00 0.  1.
</event>
<event>
 7    1  0.1052674E-011  0.5930193E+02  0.7816164E-02  0.1266605E+00
        -11   -1    0    0    0    0  0.00000000000E+00  0.00000000000E+00  0.45593999997E+02  0.45594000000E+02  0.51100000000E-03 0. -1.
         11   -1    0    0    0    0 -0.00000000000E+00 -0.00000000000E+00 -0.45593999997E+02  0.45594000000E+02  0.51100000000E-03 0.  1.
    9900012    2    1    2    0    0 -0.29790628753E+02  0.97489550339E+01 -0.58478798742E+01  0.59301931180E+02  0.49999976569E+02 0.  0.
        -12    1    1    2    0    0  0.29790628753E+02 -0.97489550339E+01  0.58478798742E+01  0.31886068820E+02  0.00000000000E+00 0.  1.
         11    1    3    3    0    0 -0.17288827611E+02  0.23684549035E+02  0.92169142814E+01  0.30737809491E+02  0.51100000000E-03 0. -1.
        -11    1    3    3    0    0 -0.14970376432E+02 -0.90432190000E+01 -0.15066179095E+02  0.23084231267E+02  0.51100000000E-03 0.  1.
         12    1    3    3    0    0  0.24685752902E+01 -0.48923750014E+01  0.13849395264E-02  0.54798904219E+01  0.00000000000E+00 0. -1.
</event>
<event>
 7    1  0.1052674E-011  0.5930195E+02  0.7816164E-02  0.1266605E+00
        -11   -1    0    0    0    0  0.00000000000E+00  0.00000000000E+00  0.45593999997E+02  0.45594000000E+02  0.51100000000E-03 0.  1.
         11   -1    0    0    0    0 -0.00000000000E+00 -0.00000000000E+00 -0.45593999997E+02  0.45594000000E+02  0.51100000000E-03 0. -1.
    9900012    2    1    2    0    0  0.78848186123E+01  0.10286934312E+02 -0.29132954919E+02  0.59301945926E+02  0.50000003462E+02 0.  0.
        -12    1    1    2    0    0 -0.78848186123E+01 -0.10286934312E+02  0.29132954919E+02  0.31886054074E+02  0.00000000000E+00 0.  1.
         11    1    3    3    0    0  0.13772358132E+02  0.13784926082E+02 -0.89510722409E+01  0.21443500883E+02  0.51100000000E-03 0. -1.
        -11    1    3    3    0    0  0.52045010305E+01 -0.51850848223E+01 -0.24695405163E+02  0.25764995091E+02  0.51100000000E-03 0.  1.
        -12    1    3    3    0    0 -0.11092040550E+02  0.16870930525E+01  0.45135224847E+01  0.12093449952E+02  0.00000000000E+00 0.  1.
</event>
<event>
 7    1  0.1052674E-011  0.5930195E+02  0.7816164E-02  0.1266605E+00
        -11   -1    0    0    0    0  0.00000000000E+00  0.00000000000E+00  0.45593999997E+02  0.45594000000E+02  0.51100000000E-03 0. -1.
         11   -1    0    0    0    0 -0.00000000000E+00 -0.00000000000E+00 -0.45593999997E+02  0.45594000000E+02  0.51100000000E-03 0.  1.
    9900012    2    1    2    0    0  0.28583816720E+02  0.69323084179E+01  0.12313768102E+02  0.59301947200E+02  0.50000005786E+02 0.  0.
        -12    1    1    2    0    0 -0.28583816720E+02 -0.69323084179E+01 -0.12313768102E+02  0.31886052800E+02  0.00000000000E+00 0.  1.
         11    1    3    3    0    0  0.17508452009E+01 -0.15965756777E+02 -0.32510899018E+01  0.16387203366E+02  0.51100000000E-03 0. -1.
        -11    1    3    3    0    0  0.22436976826E+02  0.19494604501E+02  0.38806060218E+01  0.29975267090E+02  0.51100000000E-03 0.  1.
         12    1    3    3    0    0  0.43959946925E+01  0.34034606934E+01  0.11684251982E+02  0.12939476744E+02  0.00000000000E+00 0. -1.
</event>
<event>
 7    1  0.1052674E-011  0.5930183E+02  0.7816164E-02  0.1266605E+00
        -11   -1    0    0    0    0  0.00000000000E+00  0.00000000000E+00  0.45593999997E+02  0.45594000000E+02  0.51100000000E-03 0. -1.
         11   -1    0    0    0    0 -0.00000000000E+00 -0.00000000000E+00 -0.45593999997E+02  0.45594000000E+02  0.51100000000E-03 0.  1.
    9900012    2    1    2    0    0  0.54201788777E+01 -0.54333999309E+01  0.30948796125E+02  0.59301825010E+02  0.49999782940E+02 0.  0.
        -12    1    1    2    0    0 -0.54201788777E+01  0.54333999309E+01 -0.30948796125E+02  0.31886174990E+02  0.00000000000E+00 0.  1.
         11    1    3    3    0    0  0.12187721180E+02 -0.50904616945E+01  0.81285813459E+01  0.15508938803E+02  0.51100000000E-03 0. -1.
        -11    1    3    3    0    0 -0.14089951086E+02  0.72327316337E+01 -0.28066654341E+01  0.16084666599E+02  0.51100000000E-03 0.  1.
        -12    1    3    3    0    0  0.73224087830E+01 -0.75756698701E+01  0.25626880214E+02  0.27708219608E+02  0.00000000000E+00 0.  1.
</event>
<event>
 7    1  0.1052674E-011  0.5930192E+02  0.7816164E-02  0.1266605E+00
        -11   -1    0    0    0    0  0.00000000000E+00  0.00000000000E+00  0.45593999997E+02  0.45594000000E+02  0.51100000000E-03 0. -1.
         11   -1    0    0    0    0 -0.00000000000E+00 -0.00000000000E+00 -0.45593999997E+02  0.45594000000E+02  0.51100000000E-03 0.  1.
    9900012    2    1    2    0    0  0.21016434367E+02  0.78773206311E+01  0.22649050668E+02  0.59301918554E+02  0.49999953541E+02 0.  0.
        -12    1    1    2    0    0 -0.21016434367E+02 -0.78773206311E+01 -0.22649050668E+02  0.31886081446E+02  0.00000000000E+00 0.  1.
         11    1    3    3    0    0  0.11977654588E+02  0.25952862789E+02  0.96212360693E+01  0.30159301718E+02  0.51100000000E-03 0.  1.
        -11    1    3    3    0    0  0.73238859063E+01 -0.15001607119E+02  0.11267425740E+01  0.16731917703E+02  0.51100000000E-03 0. -1.
        -12    1    3    3    0    0  0.17148938730E+01 -0.30739350390E+01  0.11901072025E+02  0.12410699133E+02  0.00000000000E+00 0.  1.
</event>
<event>
 7    1  0.1052674E-011  0.5930192E+02  0.7816164E-02  0.1266605E+00
        -11   -1    0    0    0    0  0.00000000000E+00  0.00000000000E+00  0.45593999997E+02  0.45594000000E+02  0.51100000000E-03 0. -1.
         11   -1    0    0    0    0 -0.00000000000E+00 -0.00000000000E+00 -0.45593999997E+02  0.45594000000E+02  0.51100000000E-03 0.  1.
    9900012    2    1    2    0    0  0.20219392430E+02  0.13409398334E+02  0.20690251905E+02  0.59301916549E+02  0.49999949886E+02 0.  0.
        -12    1    1    2    0    0 -0.20219392430E+02 -0.13409398334E+02 -0.20690251905E+02  0.31886083451E+02  0.00000000000E+00 0.  1.
         11    1    3    3    0    0 -0.28861875953E+01 -0.11083616254E+02  0.10262388025E+02  0.15378336592E+02  0.51100000000E-03 0. -1.
        -11    1    3    3    0    0  0.70529241230E+01  0.13044798032E+02 -0.80743440268E+01  0.16885068140E+02  0.51100000000E-03 0.  1.
        -12    1    3    3    0    0  0.16052655903E+02  0.11448216556E+02  0.18502207907E+02  0.27038511817E+02  0.00000000000E+00 0.  1.
</event>
<event>
 7    1  0.1052674E-011  0.5930194E+02  0.7816164E-02  0.1266605E+00
        -11   -1    0    0    0    0  0.00000000000E+00  0.00000000000E+00  0.45593999997E+02  0.45594000000E+02  0.51100000000E-03 0.  1.
         11   -1    0    0    0    0 -0.00000000000E+00 -0.00000000000E+00 -0.45593999997E+02  0.45594000000E+02  0.51100000000E-03 0. -1.
    9900012    2    1    2    0    0 -0.12536419607E+02  0.27514288138E+02 -0.10125358177E+02  0.59301941189E+02  0.49999994823E+02 0.  0.
        -12    1    1    2    0    0  0.12536419607E+02 -0.27514288138E+02  0.10125358177E+02  0.31886058811E+02  0.00000000000E+00 0.  1.
         11    1    3    3    0    0  0.12715792651E+02  0.20092834779E+02 -0.11763130033E+02  0.26528939305E+02  0.51100000000E-03 0. -1.
        -11    1    3    3    0    0 -0.13684087716E+02  0.15067512227E+01  0.10268936634E+02  0.17174854169E+02  0.51100000000E-03 0.  1.
        -12    1    3    3    0    0 -0.11568124541E+02  0.59147021358E+01 -0.86311647767E+01  0.15598147716E+02  0.00000000000E+00 0.  1.
</event>
<event>
 7    1  0.1052674E-011  0.5930194E+02  0.7816164E-02  0.1266605E+00
        -11   -1    0    0    0    0  0.00000000000E+00  0.00000000000E+00  0.45593999997E+02  0.45594000000E+02  0.51100000000E-03 0. -1.
         11   -1    0    0    0    0 -0.00000000000E+00 -0.00000000000E+00 -0.45593999997E+02  0.45594000000E+02  0.51100000000E-03 0.  1.
    9900012    2    1    2    0    0 -0.40522732577E+01 -0.13889856797E+02  0.28414289036E+02  0.59301939381E+02  0.49999991525E+02 0.  0.
        -12    1    1    2    0    0  0.40522732577E+01  0.13889856797E+02 -0.28414289036E+02  0.31886060619E+02  0.00000000000E+00 0.  1.
         11    1    3    3    0    0  0.66530183354E+01  0.10512727742E+02  0.48516732270E+01  0.13353607412E+02  0.51100000000E-03 0. -1.
        -11    1    3    3    0    0 -0.15280196671E+01 -0.22363999542E+02  0.27736657259E+02  0.35662381802E+02  0.51100000000E-03 0.  1.
        -12    1    3    3    0    0 -0.91772719261E+01 -0.20385849971E+01 -0.41740414506E+01  0.10285950166E+02  0.00000000000E+00 0.  1.
</event>
<event>
 7    1  0.1052674E-011  0.5930193E+02  0.7816164E-02  0.1266605E+00
        -11   -1    0    0    0    0  0.00000000000E+00  0.00000000000E+00  0.45593999997E+02  0.45594000000E+02  0.51100000000E-03 0.  1.
         11   -1    0    0    0    0 -0.00000000000E+00 -0.00000000000E+00 -0.45593999997E+02  0.45594000000E+02  0.51100000000E-03 0. -1.
    9900012    2    1    2    0    0  0.13047882937E+02 -0.38428937632E+01 -0.28839316590E+02  0.59301933090E+02  0.49999980052E+02 0.  0.
        -12    1    1    2    0    0 -0.13047882937E+02  0.38428937632E+01  0.28839316590E+02  0.31886066910E+02  0.00000000000E+00 0.  1.
         11    1    3    3    0    0  0.23504855562E+02 -0.18845258101E+02 -0.17467687656E+02  0.34824446876E+02  0.51100000000E-03 0. -1.
        -11    1    3    3    0    0 -0.12632248275E+02  0.14087448387E+02 -0.84524372706E+01  0.20723744705E+02  0.51100000000E-03 0.  1.
        -12    1    3    3    0    0  0.21752756499E+01  0.91491595114E+00 -0.29191916630E+01  0.37537415089E+01  0.00000000000E+00 0.  1.
</event>
<event>
 7    1  0.1052674E-011  0.5930192E+02  0.7816164E-02  0.1266605E+00
        -11   -1    0    0    0    0  0.00000000000E+00  0.00000000000E+00  0.45593999997E+02  0.45594000000E+02  0.51100000000E-03 0. -1.
         11   -1    0    0    0    0 -0.00000000000E+00 -0.00000000000E+00 -0.45593999997E+02  0.45594000000E+02  0.51100000000E-03 0.  1.
    9900012    2    1    2    0    0 -0.91547481613E+01  0.24754208216E+02  0.17892503455E+02  0.59301922816E+02  0.49999961315E+02 0.  0.
        -12    1    1    2    0    0  0.91547481613E+01 -0.24754208216E+02 -0.17892503455E+02  0.31886077184E+02  0.00000000000E+00 0.  1.
         11    1    3    3    0    0 -0.26244396556E+02  0.14418647956E+02  0.68269310223E+01  0.30712745676E+02  0.51100000000E-03 0. -1.
        -11    1    3    3    0    0  0.69610012244E+01  0.79547637179E+01 -0.30976164739E+01  0.11014945843E+02  0.51100000000E-03 0.  1.
         12    1    3    3    0    0  0.10128647171E+02  0.23807965415E+01  0.14163188906E+02  0.17574231297E+02  0.00000000000E+00 0. -1.
</event>
<event>
 7    1  0.1052674E-011  0.5930191E+02  0.7816164E-02  0.1266605E+00
        -11   -1    0    0    0    0  0.00000000000E+00  0.00000000000E+00  0.45593999997E+02  0.45594000000E+02  0.51100000000E-03 0. -1.
         11   -1    0    0    0    0 -0.00000000000E+00 -0.00000000000E+00 -0.45593999997E+02  0.45594000000E+02  0.51100000000E-03 0.  1.
    9900012    2    1    2    0    0  0.26632659207E+02  0.15566307112E+02  0.80693446823E+01  0.59301909347E+02  0.49999936751E+02 0.  0.
        -12    1    1    2    0    0 -0.26632659207E+02 -0.15566307112E+02 -0.80693446823E+01  0.31886090653E+02  0.00000000000E+00 0.  1.
         11    1    3    3    0    0  0.18536650115E+02  0.28604674732E+02  0.19245874591E+02  0.39143818197E+02  0.51100000000E-03 0. -1.
        -11    1    3    3    0    0  0.67895724489E+01 -0.11884926641E+02 -0.64708646910E+01  0.15140074815E+02  0.51100000000E-03 0.  1.
        -12    1    3    3    0    0  0.13064366428E+01 -0.11534409787E+01 -0.47056652179E+01  0.50180163347E+01  0.00000000000E+00 0.  1.
</event>
<event>
 7    1  0.1052674E-011  0.5930195E+02  0.7816164E-02  0.1266605E+00
        -11   -1    0    0    0    0  0.00000000000E+00  0.00000000000E+00  0.45593999997E+02  0.45594000000E+02  0.51100000000E-03 0. -1.
         11   -1    0    0    0    0 -0.00000000000E+00 -0.00000000000E+00 -0.45593999997E+02  0.45594000000E+02  0.51100000000E-03 0.  1.
    9900012    2    1    2    0    0 -0.16162123334E+02 -0.13131124171E+02  0.24147041625E+02  0.59301948632E+02  0.50000008396E+02 0.  0.
        -12    1    1    2    0    0  0.16162123334E+02  0.13131124171E+02 -0.24147041625E+02  0.31886051368E+02  0.00000000000E+00 0.  1.
         11    1    3    3    0    0 -0.11381956650E+02 -0.19859467936E+02  0.45002495113E+01  0.23328087144E+02  0.51100000000E-03 0. -1.
        -11    1    3    3    0    0  0.51502272547E+01  0.13607999147E+02  0.21445411651E+01  0.14707193431E+02  0.51100000000E-03 0.  1.
         12    1    3    3    0    0 -0.99303939390E+01 -0.68796553811E+01  0.17502250948E+02  0.21266668056E+02  0.00000000000E+00 0. -1.
</event>
<event>
 7    1  0.1052674E-011  0.5930195E+02  0.7816164E-02  0.1266605E+00
        -11   -1    0    0    0    0  0.00000000000E+00  0.00000000000E+00  0.45593999997E+02  0.45594000000E+02  0.51100000000E-03 0.  1.
         11   -1    0    0    0    0 -0.00000000000E+00 -0.00000000000E+00 -0.45593999997E+02  0.45594000000E+02  0.51100000000E-03 0. -1.
    9900012    2    1    2    0    0 -0.18786949425E+02 -0.21548449120E+02 -0.14122152401E+02  0.59301947930E+02  0.50000007117E+02 0.  0.
        -12    1    1    2    0    0  0.18786949425E+02  0.21548449120E+02  0.14122152401E+02  0.31886052070E+02  0.00000000000E+00 0.  1.
         11    1    3    3    0    0 -0.16868895451E+02 -0.12295370775E+02 -0.16061069891E+02  0.26338066416E+02  0.51100000000E-03 0. -1.
        -11    1    3    3    0    0  0.79265711434E+01 -0.16361431312E+02  0.74265319622E+01  0.19638745935E+02  0.51100000000E-03 0.  1.
        -12    1    3    3    0    0 -0.98446251172E+01  0.71083529665E+01 -0.54876144724E+01  0.13325135579E+02  0.00000000000E+00 0.  1.
</event>
<event>
 7    1  0.1052674E-011  0.5930194E+02  0.7816164E-02  0.1266605E+00
        -11   -1    0    0    0    0  0.00000000000E+00  0.00000000000E+00  0.45593999997E+02  0.45594000000E+02  0.51100000000E-03 0.  1.
         11   -1    0    0    0    0 -0.00000000000E+00 -0.00000000000E+00 -0.45593999997E+02  0.45594000000E+02  0.51100000000E-03 0. -1.
    9900012    2    1    2    0    0  0.27465607161E+02 -0.12270869747E+02 -0.10572931908E+02  0.59301941758E+02  0.49999995860E+02 0.  0.
        -12    1    1    2    0    0 -0.27465607161E+02  0.12270869747E+02  0.10572931908E+02  0.31886058242E+02  0.00000000000E+00 0.  1.
         11    1    3    3    0    0  0.12727602983E+02 -0.78964942622E+01 -0.22337948647E+02  0.26894803390E+02  0.51100000000E-03 0. -1.
        -11    1    3    3    0    0  0.17981223811E+02  0.45841105097E+01  0.13199831658E+02  0.22772220686E+02  0.51100000000E-03 0.  1.
        -12    1    3    3    0    0 -0.32432196326E+01 -0.89584859941E+01 -0.14348149192E+01  0.96349176823E+01  0.00000000000E+00 0.  1.
</event>
<event>
 7    1  0.1052674E-011  0.5930191E+02  0.7816164E-02  0.1266605E+00
        -11   -1    0    0    0    0  0.00000000000E+00  0.00000000000E+00  0.45593999997E+02  0.45594000000E+02  0.51100000000E-03 0.  1.
         11   -1    0    0    0    0 -0.00000000000E+00 -0.00000000000E+00 -0.45593999997E+02  0.45594000000E+02  0.51100000000E-03 0. -1.
    9900012    2    1    2    0    0 -0.25662315709E+01  0.27302997413E+02 -0.16269087895E+02  0.59301914741E+02  0.49999946588E+02 0.  0.
        -12    1    1    2    0    0  0.25662315709E+01 -0.27302997413E+02  0.16269087895E+02  0.31886085259E+02  0.00000000000E+00 0.  1.
         11    1    3    3    0    0 -0.61757417076E+01 -0.10248436351E+02 -0.12127426456E+02  0.17036569666E+02  0.51100000000E-03 0. -1.
        -11    1    3    3    0    0  0.51294826605E+01  0.10142936889E+02  0.61808248198E+01  0.12938058464E+02  0.51100000000E-03 0.  1.
         12    1    3    3    0    0 -0.15199725238E+01  0.27408496875E+02 -0.10322486259E+02  0.29327286611E+02  0.00000000000E+00 0. -1.
</event>
<event>
 7    1  0.1052674E-011  0.5930195E+02  0.7816164E-02  0.1266605E+00
        -11   -1    0    0    0    0  0.00000000000E+00  0.00000000000E+00  0.45593999997E+02  0.45594000000E+02  0.51100000000E-03 0.  1.
         11   -1    0    0    0    0 -0.00000000000E+00 -0.00000000000E+00 -0.45593999997E+02  0.45594000000E+02  0.51100000000E-03 0. -1.
    9900012    2    1    2    0    0 -0.24493260140E+02  0.11219252292E+02 -0.17056627559E+02  0.59301953554E+02  0.50000017373E+02 0.  0.
        -12    1    1    2    0    0  0.24493260140E+02 -0.11219252292E+02  0.17056627559E+02  0.31886046446E+02  0.00000000000E+00 0.  1.
         11    1    3    3    0    0  0.75157898253E+01 -0.57269447671E+01 -0.14200038384E+02  0.17056555439E+02  0.51100000000E-03 0. -1.
        -11    1    3    3    0    0 -0.16499535298E+02  0.13647963162E+02  0.81846692007E+01  0.22923576809E+02  0.51100000000E-03 0.  1.
         12    1    3    3    0    0 -0.15509514668E+02  0.32982338976E+01 -0.11041258375E+02  0.19321821306E+02  0.00000000000E+00 0. -1.
</event>
<event>
 7    1  0.1052674E-011  0.5930186E+02  0.7816164E-02  0.1266605E+00
        -11   -1    0    0    0    0  0.00000000000E+00  0.00000000000E+00  0.45593999997E+02  0.45594000000E+02  0.51100000000E-03 0.  1.
         11   -1    0    0    0    0 -0.00000000000E+00 -0.00000000000E+00 -0.45593999997E+02  0.45594000000E+02  0.51100000000E-03 0. -1.
    9900012    2    1    2    0    0  0.34147217392E+01  0.75229930717E-01 -0.31702678113E+02  0.59301862203E+02  0.49999850771E+02 0.  0.
        -12    1    1    2    0    0 -0.34147217392E+01 -0.75229930717E-01  0.31702678113E+02  0.31886137797E+02  0.00000000000E+00 0.  1.
         11    1    3    3    0    0  0.14468183319E+02 -0.42918029398E+01 -0.23274811638E+02  0.27739227784E+02  0.51100000000E-03 0. -1.
        -11    1    3    3    0    0 -0.80386822867E+01  0.13673695148E+02  0.33912389457E+01  0.16220075640E+02  0.51100000000E-03 0.  1.
         12    1    3    3    0    0 -0.30147792932E+01 -0.93066622775E+01 -0.11819105421E+02  0.15342558779E+02  0.00000000000E+00 0. -1.
</event>
<event>
 7    1  0.1052674E-011  0.5930195E+02  0.7816164E-02  0.1266605E+00
        -11   -1    0    0    0    0  0.00000000000E+00  0.00000000000E+00  0.45593999997E+02  0.45594000000E+02  0.51100000000E-03 0. -1.
         11   -1    0    0    0    0 -0.00000000000E+00 -0.00000000000E+00 -0.45593999997E+02  0.45594000000E+02  0.51100000000E-03 0.  1.
    9900012    2    1    2    0    0 -0.55918663757E+01 -0.29337172288E+02 -0.11170568429E+02  0.59301949031E+02  0.50000009124E+02 0.  0.
        -12    1    1    2    0    0  0.55918663757E+01  0.29337172288E+02  0.11170568429E+02  0.31886050969E+02  0.00000000000E+00 0.  1.
         11    1    3    3    0    0  0.21113835125E+02 -0.17755523586E+02 -0.10582225300E+02  0.29547185045E+02  0.51100000000E-03 0. -1.
        -11    1    3    3    0    0 -0.20607828039E+02 -0.11571681696E+02 -0.86929347299E+00  0.23650413636E+02  0.51100000000E-03 0.  1.
         12    1    3    3    0    0 -0.60978734615E+01 -0.99670055204E-02  0.28095034441E+00  0.61043503495E+01  0.00000000000E+00 0. -1.
</event>
<event>
 7    1  0.1052674E-011  0.5930193E+02  0.7816164E-02  0.1266605E+00
        -11   -1    0    0    0    0  0.00000000000E+00  0.00000000000E+00  0.45593999997E+02  0.45594000000E+02  0.51100000000E-03 0. -1.
         11   -1    0    0    0    0 -0.00000000000E+00 -0.00000000000E+00 -0.45593999997E+02  0.45594000000E+02  0.51100000000E-03 0.  1.
    9900012    2    1    2    0    0 -0.16532410837E+02  0.45126621164E+01  0.26889343054E+02  0.59301929415E+02  0.49999973351E+02 0.  0.
        -12    1    1    2    0    0  0.16532410837E+02 -0.45126621164E+01 -0.26889343054E+02  0.31886070585E+02  0.00000000000E+00 0.  1.
         11    1    3    3    0    0  0.90497666665E+01  0.13106988461E+02  0.12699664644E+01  0.15978242654E+02  0.51100000000E-03 0. -1.
        -11    1    3    3    0    0 -0.95720239648E+01 -0.14810020346E+02  0.11121800082E+02  0.20848376022E+02  0.51100000000E-03 0.  1.
        -12    1    3    3    0    0 -0.16010153538E+02  0.62156940015E+01  0.14497576507E+02  0.22475310739E+02  0.00000000000E+00 0.  1.
</event>
<event>
 7    1  0.1052674E-011  0.5930193E+02  0.7816164E-02  0.1266605E+00
        -11   -1    0    0    0    0  0.00000000000E+00  0.00000000000E+00  0.45593999997E+02  0.45594000000E+02  0.51100000000E-03 0.  1.
         11   -1    0    0    0    0 -0.00000000000E+00 -0.00000000000E+00 -0.45593999997E+02  0.45594000000E+02  0.51100000000E-03 0. -1.
    9900012    2    1    2    0    0  0.25843442193E+02 -0.87669528676E+01 -0.16491765142E+02  0.59301932753E+02  0.49999979438E+02 0.  0.
        -12    1    1    2    0    0 -0.25843442193E+02  0.87669528676E+01  0.16491765142E+02  0.31886067247E+02  0.00000000000E+00 0.  1.
         11    1    3    3    0    0  0.21385722091E+02 -0.15359033462E+02 -0.28132847893E+02  0.38531884837E+02  0.51100000000E-03 0. -1.
        -11    1    3    3    0    0 -0.34992185652E+01  0.77175749606E+01  0.30492876405E+01  0.90057564488E+01  0.51100000000E-03 0.  1.
        -12    1    3    3    0    0  0.79569386673E+01 -0.11254943666E+01  0.85917951105E+01  0.11764291468E+02  0.00000000000E+00 0.  1.
</event>
<event>
 7    1  0.1052674E-011  0.5930193E+02  0.7816164E-02  0.1266605E+00
        -11   -1    0    0    0    0  0.00000000000E+00  0.00000000000E+00  0.45593999997E+02  0.45594000000E+02  0.51100000000E-03 0.  1.
         11   -1    0    0    0    0 -0.00000000000E+00 -0.00000000000E+00 -0.45593999997E+02  0.45594000000E+02  0.51100000000E-03 0. -1.
    9900012    2    1    2    0    0 -0.28718338688E+02 -0.54801606019E+01 -0.12725804436E+02  0.59301933517E+02  0.49999980830E+02 0.  0.
        -12    1    1    2    0    0  0.28718338688E+02  0.54801606019E+01  0.12725804436E+02  0.31886066483E+02  0.00000000000E+00 0.  1.
         11    1    3    3    0    0 -0.68178112214E+01 -0.16083168887E+02  0.96170059568E+01  0.19940854424E+02  0.51100000000E-03 0. -1.
        -11    1    3    3    0    0 -0.30213588798E+01  0.79111946227E+01  0.17367175622E+01  0.86447555194E+01  0.51100000000E-03 0.  1.
         12    1    3    3    0    0 -0.18879168587E+02  0.26918136627E+01 -0.24079527955E+02  0.30716323574E+02  0.00000000000E+00 0. -1.
</event>
<event>
 7    1  0.1052674E-011  0.5930195E+02  0.7816164E-02  0.1266605E+00
        -11   -1    0    0    0    0  0.00000000000E+00  0.00000000000E+00  0.45593999997E+02  0.45594000000E+02  0.51100000000E-03 0.  1.
         11   -1    0    0    0    0 -0.00000000000E+00 -0.00000000000E+00 -0.45593999997E+02  0.45594000000E+02  0.51100000000E-03 0. -1.
    9900012    2    1    2    0    0 -0.12321565469E+02 -0.17548830188E+02 -0.23599523055E+02  0.59301954385E+02  0.50000018889E+02 0.  0.
        -12    1    1    2    0    0  0.12321565469E+02  0.17548830188E+02  0.23599523055E+02  0.31886045615E+02  0.00000000000E+00 0.  1.
         11    1    3    3    0    0 -0.19858424923E+01  0.11281603097E+02 -0.86106302527E+01  0.14330425410E+02  0.51100000000E-03 0. -1.
        -11    1    3    3    0    0 -0.13995335761E+02 -0.21727918397E+02 -0.22304147917E+02  0.34138641969E+02  0.51100000000E-03 0.  1.
        -12    1    3    3    0    0  0.36596127843E+01 -0.71025148877E+01  0.73152551153E+01  0.10832887005E+02  0.00000000000E+00 0.  1.
</event>
<event>
 7    1  0.1052674E-011  0.5930197E+02  0.7816164E-02  0.1266605E+00
        -11   -1    0    0    0    0  0.00000000000E+00  0.00000000000E+00  0.45593999997E+02  0.45594000000E+02  0.51100000000E-03 0. -1.
         11   -1    0    0    0    0 -0.00000000000E+00 -0.00000000000E+00 -0.45593999997E+02  0.45594000000E+02  0.51100000000E-03 0.  1.
    9900012    2    1    2    0    0 -0.16381609179E+02 -0.27279974425E+02 -0.20407583531E+01  0.59301971420E+02  0.50000049957E+02 0.  0.
        -12    1    1    2    0    0  0.16381609179E+02  0.27279974425E+02  0.20407583531E+01  0.31886028580E+02  0.00000000000E+00 0.  1.
         11    1    3    3    0    0 -0.67656058924E+01 -0.11151009190E+01  0.19404449124E+02  0.20580318734E+02  0.51100000000E-03 0. -1.
        -11    1    3    3    0    0 -0.12508910115E+02 -0.26376118712E+02 -0.18353136288E+02  0.34482025498E+02  0.51100000000E-03 0.  1.
        -12    1    3    3    0    0  0.28929068291E+01  0.21124520518E+00 -0.30920711891E+01  0.42396271884E+01  0.00000000000E+00 0.  1.
</event>
<event>
 7    1  0.1052674E-011  0.5930194E+02  0.7816164E-02  0.1266605E+00
        -11   -1    0    0    0    0  0.00000000000E+00  0.00000000000E+00  0.45593999997E+02  0.45594000000E+02  0.51100000000E-03 0. -1.
         11   -1    0    0    0    0 -0.00000000000E+00 -0.00000000000E+00 -0.45593999997E+02  0.45594000000E+02  0.51100000000E-03 0.  1.
    9900012    2    1    2    0    0  0.80694465865E+01 -0.75385552560E+01  0.29912789625E+02  0.59301940872E+02  0.49999994245E+02 0.  0.
        -12    1    1    2    0    0 -0.80694465865E+01  0.75385552560E+01 -0.29912789625E+02  0.31886059128E+02  0.00000000000E+00 0.  1.
         11    1    3    3    0    0  0.26814283831E+01 -0.10395923695E+02 -0.26003073886E+01  0.11046578041E+02  0.51100000000E-03 0. -1.
        -11    1    3    3    0    0 -0.13891249488E+02  0.65890286708E+01  0.18887540145E+02  0.24354081469E+02  0.51100000000E-03 0.  1.
         12    1    3    3    0    0  0.19279267692E+02 -0.37316602322E+01  0.13625556868E+02  0.23901281363E+02  0.00000000000E+00 0. -1.
</event>
<event>
 7    1  0.1052674E-011  0.5930188E+02  0.7816164E-02  0.1266605E+00
        -11   -1    0    0    0    0  0.00000000000E+00  0.00000000000E+00  0.45593999997E+02  0.45594000000E+02  0.51100000000E-03 0.  1.
         11   -1    0    0    0    0 -0.00000000000E+00 -0.00000000000E+00 -0.45593999997E+02  0.45594000000E+02  0.51100000000E-03 0. -1.
    9900012    2    1    2    0    0  0.10767443151E+02  0.13357570138E+02 -0.26876790081E+02  0.59301884572E+02  0.49999891567E+02 0.  0.
        -12    1    1    2    0    0 -0.10767443151E+02 -0.13357570138E+02  0.26876790081E+02  0.31886115428E+02  0.00000000000E+00 0.  1.
         11    1    3    3    0    0 -0.12757984376E+02 -0.49006205754E+01  0.10006272800E+01  0.13703412078E+02  0.51100000000E-03 0. -1.
        -11    1    3    3    0    0  0.14711793803E+02 -0.10452362192E+01 -0.96575556894E+01  0.17629457672E+02  0.51100000000E-03 0.  1.
         12    1    3    3    0    0  0.88136337249E+01  0.19303426932E+02 -0.18219861672E+02  0.27969014822E+02  0.00000000000E+00 0. -1.
</event>
<event>
 7    1  0.1052674E-011  0.5930197E+02  0.7816164E-02  0.1266605E+00
        -11   -1    0    0    0    0  0.00000000000E+00  0.00000000000E+00  0.45593999997E+02  0.45594000000E+02  0.51100000000E-03 0. -1.
         11   -1    0    0    0    0 -0.00000000000E+00 -0.00000000000E+00 -0.45593999997E+02  0.45594000000E+02  0.51100000000E-03 0.  1.
    9900012    2    1    2    0    0  0.42656442850E+01 -0.29909124356E+02  0.10196442398E+02  0.59301970481E+02  0.50000048244E+02 0.  0.
        -12    1    1    2    0    0 -0.42656442850E+01  0.29909124356E+02 -0.10196442398E+02  0.31886029519E+02  0.00000000000E+00 0.  1.
         11    1    3    3    0    0 -0.47883483541E+01 -0.33482194893E+02  0.79783091108E+01  0.34751101728E+02  0.51100000000E-03 0. -1.
        -11    1    3    3    0    0  0.53095154124E+01 -0.54428739445E+01 -0.75678547503E+01  0.10727919485E+02  0.51100000000E-03 0.  1.
         12    1    3    3    0    0  0.37444772268E+01  0.90159444811E+01  0.97859880375E+01  0.13822949268E+02  0.00000000000E+00 0. -1.
</event>
<event>
 7    1  0.1052674E-011  0.5930181E+02  0.7816164E-02  0.1266605E+00
        -11   -1    0    0    0    0  0.00000000000E+00  0.00000000000E+00  0.45593999997E+02  0.45594000000E+02  0.51100000000E-03 0. -1.
         11   -1    0    0    0    0 -0.00000000000E+00 -0.00000000000E+00 -0.45593999997E+02  0.45594000000E+02  0.51100000000E-03 0.  1.
    9900012    2    1    2    0    0 -0.34991813763E+01  0.26021626474E+02  0.18093081033E+02  0.59301813399E+02  0.49999761765E+02 0.  0.
        -12    1    1    2    0    0  0.34991813763E+01 -0.26021626474E+02 -0.18093081033E+02  0.31886186601E+02  0.00000000000E+00 0.  1.
         11    1    3    3    0    0  0.13702888011E+02  0.11533258394E+02  0.28341116488E+02  0.33526169973E+02  0.51100000000E-03 0. -1.
        -11    1    3    3    0    0 -0.14861546151E+02  0.82864106052E+01 -0.71056545148E+01  0.18439644277E+02  0.51100000000E-03 0.  1.
         12    1    3    3    0    0 -0.23405232370E+01  0.62019574754E+01 -0.31423809403E+01  0.73359991496E+01  0.00000000000E+00 0. -1.
</event>
<event>
 7    1  0.1317563E-011  0.5930193E+02  0.7816164E-02  0.1266605E+00
        -11   -1    0    0    0    0  0.00000000000E+00  0.00000000000E+00  0.45593999997E+02  0.45594000000E+02  0.51100000000E-03 0. -1.
         11   -1    0    0    0    0 -0.00000000000E+00 -0.00000000000E+00 -0.45593999997E+02  0.45594000000E+02  0.51100000000E-03 0.  1.
    9900012    2    1    2    0    0 -0.19083170188E+02 -0.25511005656E+02 -0.13201154488E+01  0.59301929392E+02  0.49999973308E+02 0.  0.
        -12    1    1    2    0    0  0.19083170188E+02  0.25511005656E+02  0.13201154488E+01  0.31886070608E+02  0.00000000000E+00 0.  1.
         11    1    3    3    0    0 -0.80837746867E+01 -0.31573756394E+02  0.24964302992E+00  0.32593125470E+02  0.51100000000E-03 0. -1.
        -11    1    3    3    0    0 -0.17326844641E+02 -0.32750542986E+00 -0.30458891766E+01  0.17595574619E+02  0.51100000000E-03 0.  1.
         12    1    3    3    0    0  0.63274491397E+01  0.63902561671E+01  0.14761306980E+01  0.91132293033E+01  0.00000000000E+00 0. -1.
</event>
<event>
 7    1  0.1052674E-011  0.5930194E+02  0.7816164E-02  0.1266605E+00
        -11   -1    0    0    0    0  0.00000000000E+00  0.00000000000E+00  0.45593999997E+02  0.45594000000E+02  0.51100000000E-03 0.  1.
         11   -1    0    0    0    0 -0.00000000000E+00 -0.00000000000E+00 -0.45593999997E+02  0.45594000000E+02  0.51100000000E-03 0. -1.
    9900012    2    1    2    0    0 -0.31172914837E+02 -0.63093401530E+01 -0.22721180153E+01  0.59301938580E+02  0.49999990065E+02 0.  0.
        -12    1    1    2    0    0  0.31172914837E+02  0.63093401530E+01  0.22721180153E+01  0.31886061420E+02  0.00000000000E+00 0.  1.
         11    1    3    3    0    0 -0.10690685608E+02  0.12530028886E+02 -0.13877873300E+02  0.21538053539E+02  0.51100000000E-03 0. -1.
        -11    1    3    3    0    0 -0.20319821403E+02 -0.17026424333E+02  0.17386682555E+02  0.31703170156E+02  0.51100000000E-03 0.  1.
        -12    1    3    3    0    0 -0.16240782518E+00 -0.18129447061E+01 -0.57809272703E+01  0.60607148846E+01  0.00000000000E+00 0.  1.
</event>
<event>
 7    1  0.1052674E-011  0.5930195E+02  0.7816164E-02  0.1266605E+00
        -11   -1    0    0    0    0  0.00000000000E+00  0.00000000000E+00  0.45593999997E+02  0.45594000000E+02  0.51100000000E-03 0.  1.
         11   -1    0    0    0    0 -0.00000000000E+00 -0.00000000000E+00 -0.45593999997E+02  0.45594000000E+02  0.51100000000E-03 0. -1.
    9900012    2    1    2    0    0 -0.24845145155E+02  0.17399396464E+02 -0.98336036366E+01  0.59301952965E+02  0.50000016299E+02 0.  0.
        -12    1    1    2    0    0  0.24845145155E+02 -0.17399396464E+02  0.98336036366E+01  0.31886047035E+02  0.00000000000E+00 0.  1.
         11    1    3    3    0    0 -0.33064249334E+02 -0.12769500788E+01 -0.44456154849E+01  0.33386204978E+02  0.51100000000E-03 0. -1.
        -11    1    3    3    0    0  0.89427810286E+01  0.13124523941E+02  0.26691069119E+01  0.16104365656E+02  0.51100000000E-03 0.  1.
        -12    1    3    3    0    0 -0.72367684948E+00  0.55518226018E+01 -0.80570950637E+01  0.98113823312E+01  0.00000000000E+00 0.  1.
</event>
<event>
 7    1  0.1052674E-011  0.5930194E+02  0.7816164E-02  0.1266605E+00
        -11   -1    0    0    0    0  0.00000000000E+00  0.00000000000E+00  0.45593999997E+02  0.45594000000E+02  0.51100000000E-03 0.  1.
         11   -1    0    0    0    0 -0.00000000000E+00 -0.00000000000E+00 -0.45593999997E+02  0.45594000000E+02  0.51100000000E-03 0. -1.
    9900012    2    1    2    0    0  0.43812881814E+01 -0.40319034297E+01 -0.31325211104E+02  0.59301940631E+02  0.49999993805E+02 0.  0.
        -12    1    1    2    0    0 -0.43812881814E+01  0.40319034297E+01  0.31325211104E+02  0.31886059369E+02  0.00000000000E+00 0.  1.
         11    1    3    3    0    0 -0.76384789429E+01 -0.27518542361E+01 -0.83811887522E+01  0.11668906866E+02  0.51100000000E-03 0. -1.
        -11    1    3    3    0    0  0.24794157440E+02 -0.62916330533E+01 -0.22234214712E+02  0.33892406137E+02  0.51100000000E-03 0.  1.
        -12    1    3    3    0    0 -0.12774390315E+02  0.50115838597E+01 -0.70980763993E+00  0.13740627627E+02  0.00000000000E+00 0.  1.
</event>
<event>
 7    1  0.1052674E-011  0.5930188E+02  0.7816164E-02  0.1266605E+00
        -11   -1    0    0    0    0  0.00000000000E+00  0.00000000000E+00  0.45593999997E+02  0.45594000000E+02  0.51100000000E-03 0.  1.
         11   -1    0    0    0    0 -0.00000000000E+00 -0.00000000000E+00 -0.45593999997E+02  0.45594000000E+02  0.51100000000E-03 0. -1.
    9900012    2    1    2    0    0  0.14096585220E+01 -0.15853500910E+02 -0.27629769235E+02  0.59301878000E+02  0.49999879580E+02 0.  0.
        -12    1    1    2    0    0 -0.14096585220E+01  0.15853500910E+02  0.27629769235E+02  0.31886122000E+02  0.00000000000E+00 0.  1.
         11    1    3    3    0    0  0.17967901619E+02 -0.94004661199E+01 -0.34988054419E+01  0.20578043922E+02  0.51100000000E-03 0. -1.
        -11    1    3    3    0    0 -0.10558198149E+02 -0.36780009992E+01  0.23545979126E+01  0.11425732847E+02  0.51100000000E-03 0.  1.
         12    1    3    3    0    0 -0.60000449488E+01 -0.27750337907E+01 -0.26485561706E+02  0.27298101231E+02  0.00000000000E+00 0. -1.
</event>
<event>
 7    1  0.1052674E-011  0.5930195E+02  0.7816164E-02  0.1266605E+00
        -11   -1    0    0    0    0  0.00000000000E+00  0.00000000000E+00  0.45593999997E+02  0.45594000000E+02  0.51100000000E-03 0.  1.
         11   -1    0    0    0    0 -0.00000000000E+00 -0.00000000000E+00 -0.45593999997E+02  0.45594000000E+02  0.51100000000E-03 0. -1.
    9900012    2    1    2    0    0 -0.11294784090E+02 -0.27916494237E+01 -0.29687616699E+02  0.59301952277E+02  0.50000015044E+02 0.  0.
        -12    1    1    2    0    0  0.11294784090E+02  0.27916494237E+01  0.29687616699E+02  0.31886047723E+02  0.00000000000E+00 0.  1.
         11    1    3    3    0    0  0.37304059668E+00  0.95993295249E+01 -0.71912898576E+01  0.12000039029E+02  0.51100000000E-03 0. -1.
        -11    1    3    3    0    0  0.62393216606E+01 -0.19251138785E+02 -0.19100353114E+02  0.27827306170E+02  0.51100000000E-03 0.  1.
        -12    1    3    3    0    0 -0.17907146347E+02  0.68601598367E+01 -0.33959737271E+01  0.19474607078E+02  0.00000000000E+00 0.  1.
</event>
<event>
 7    1  0.1052674E-011  0.5930194E+02  0.7816164E-02  0.1266605E+00
        -11   -1    0    0    0    0  0.00000000000E+00  0.00000000000E+00  0.45593999997E+02  0.45594000000E+02  0.51100000000E-03 0.  1.
         11   -1    0    0    0    0 -0.00000000000E+00 -0.00000000000E+00 -0.45593999997E+02  0.45594000000E+02  0.51100000000E-03 0. -1.
    9900012    2    1    2    0    0 -0.76427189837E+01 -0.27715755194E+02 -0.13789353985E+02  0.59301944697E+02  0.50000001221E+02 0.  0.
        -12    1    1    2    0    0  0.76427189837E+01  0.27715755194E+02  0.13789353985E+02  0.31886055303E+02  0.00000000000E+00 0.  1.
         11    1    3    3    0    0  0.19154887788E+02 -0.16339277893E+02 -0.73637454826E+01  0.26231783699E+02  0.51100000000E-03 0. -1.
        -11    1    3    3    0    0 -0.45555715645E+01 -0.75524472864E+01  0.18869231451E+01  0.90195992987E+01  0.51100000000E-03 0.  1.
         12    1    3    3    0    0 -0.22242035207E+02 -0.38240300149E+01 -0.83125316477E+01  0.24050561700E+02  0.00000000000E+00 0. -1.
</event>
<event>
 7    1  0.1052674E-011  0.5930195E+02  0.7816164E-02  0.1266605E+00
        -11   -1    0    0    0    0  0.00000000000E+00  0.00000000000E+00  0.45593999997E+02  0.45594000000E+02  0.51100000000E-03 0. -1.
         11   -1    0    0    0    0 -0.00000000000E+00 -0.00000000000E+00 -0.45593999997E+02  0.45594000000E+02  0.51100000000E-03 0.  1.
    9900012    2    1    2    0    0  0.19947097795E+02  0.82461822075E+01  0.23469852553E+02  0.59301949597E+02  0.50000010156E+02 0.  0.
        -12    1    1    2    0    0 -0.19947097795E+02 -0.82461822075E+01 -0.23469852553E+02  0.31886050403E+02  0.00000000000E+00 0.  1.
         11    1    3    3    0    0  0.61700727545E+01 -0.70317460136E+01  0.16901688708E+02  0.19317927716E+02  0.51100000000E-03 0. -1.
        -11    1    3    3    0    0  0.15772819731E+02  0.75091184682E+00 -0.93420484898E+01  0.18347195456E+02  0.51100000000E-03 0.  1.
        -12    1    3    3    0    0 -0.19957946898E+01  0.14527016374E+02  0.15910212335E+02  0.21636826424E+02  0.00000000000E+00 0.  1.
</event>
<event>
 7    1  0.1052674E-011  0.5930194E+02  0.7816164E-02  0.1266605E+00
        -11   -1    0    0    0    0  0.00000000000E+00  0.00000000000E+00  0.45593999997E+02  0.45594000000E+02  0.51100000000E-03 0.  1.
         11   -1    0    0    0    0 -0.00000000000E+00 -0.00000000000E+00 -0.45593999997E+02  0.45594000000E+02  0.51100000000E-03 0. -1.
    9900012    2    1    2    0    0 -0.28481899355E+02  0.13937509557E+02 -0.33538161014E+01  0.59301939630E+02  0.49999991979E+02 0.  0.
        -12    1    1    2    0    0  0.28481899355E+02 -0.13937509557E+02  0.33538161014E+01  0.31886060370E+02  0.00000000000E+00 0.  1.
         11    1    3    3    0    0 -0.14916004099E+02  0.99464065931E+01 -0.73446432406E+01  0.19374260424E+02  0.51100000000E-03 0. -1.
        -11    1    3    3    0    0  0.12577117738E+02 -0.24193405927E+01  0.14983685885E+01  0.12895045878E+02  0.51100000000E-03 0.  1.
        -12    1    3    3    0    0 -0.26143012994E+02  0.64104435562E+01  0.24924585507E+01  0.27032633328E+02  0.00000000000E+00 0.  1.
</event>
<event>
 7    1  0.1052674E-011  0.5930196E+02  0.7816164E-02  0.1266605E+00
        -11   -1    0    0    0    0  0.00000000000E+00  0.00000000000E+00  0.45593999997E+02  0.45594000000E+02  0.51100000000E-03 0. -1.
         11   -1    0    0    0    0 -0.00000000000E+00 -0.00000000000E+00 -0.45593999997E+02  0.45594000000E+02  0.51100000000E-03 0.  1.
    9900012    2    1    2    0    0 -0.29666283481E+02 -0.96884559077E+01  0.65394929550E+01  0.59301960397E+02  0.50000029854E+02 0.  0.
        -12    1    1    2    0    0  0.29666283481E+02  0.96884559077E+01 -0.65394929550E+01  0.31886039603E+02  0.00000000000E+00 0.  1.
         11    1    3    3    0    0  0.59264669985E+01 -0.88636433350E+01  0.13956683485E+02  0.17563490496E+02  0.51100000000E-03 0. -1.
        -11    1    3    3    0    0 -0.20962717620E+02 -0.29852606852E+01 -0.14172915470E+02  0.25479773244E+02  0.51100000000E-03 0.  1.
         12    1    3    3    0    0 -0.14630032859E+02  0.21604481125E+01  0.67557249406E+01  0.16258696657E+02  0.00000000000E+00 0. -1.
</event>
<event>
 7    1  0.1052674E-011  0.5930178E+02  0.7816164E-02  0.1266605E+00
        -11   -1    0    0    0    0  0.00000000000E+00  0.00000000000E+00  0.45593999997E+02  0.45594000000E+02  0.51100000000E-03 0.  1.
         11   -1    0    0    0    0 -0.00000000000E+00 -0.00000000000E+00 -0.45593999997E+02  0.45594000000E+02  0.51100000000E-03 0. -1.
    9900012    2    1    2    0    0 -0.24696537289E+02 -0.15568178440E+02 -0.12823566092E+02  0.59301780700E+02  0.49999702128E+02 0.  0.
        -12    1    1    2    0    0  0.24696537289E+02  0.15568178440E+02  0.12823566092E+02  0.31886219300E+02  0.00000000000E+00 0.  1.
         11    1    3    3    0    0 -0.10932938692E+02 -0.17972557287E+02  0.71477687781E+01  0.22217843339E+02  0.51100000000E-03 0. -1.
        -11    1    3    3    0    0 -0.21888868395E+02 -0.80039454003E+00 -0.17415412739E+02  0.27983205538E+02  0.51100000000E-03 0.  1.
        -12    1    3    3    0    0  0.81252697991E+01  0.32047733870E+01 -0.25559221307E+01  0.91007318227E+01  0.00000000000E+00 0.  1.
</event>
<event>
 7    1  0.1052674E-011  0.5930194E+02  0.7816164E-02  0.1266605E+00
        -11   -1    0    0    0    0  0.00000000000E+00  0.00000000000E+00  0.45593999997E+02  0.45594000000E+02  0.51100000000E-03 0. -1.
         11   -1    0    0    0    0 -0.00000000000E+00 -0.00000000000E+00 -0.45593999997E+02  0.45594000000E+02  0.51100000000E-03 0.  1.
    9900012    2    1    2    0    0  0.31204184234E+02  0.40984801828E+00  0.65461256290E+01  0.59301939568E+02  0.49999991867E+02 0.  0.
        -12    1    1    2    0    0 -0.31204184234E+02 -0.40984801828E+00 -0.65461256290E+01  0.31886060432E+02  0.00000000000E+00 0.  1.
         11    1    3    3    0    0  0.71577361844E-01  0.14534492883E+02  0.14061762485E+02  0.20223495522E+02  0.51100000000E-03 0. -1.
        -11    1    3    3    0    0  0.16508675006E+02 -0.15791221567E+02 -0.83822578926E+01  0.24334364111E+02  0.51100000000E-03 0.  1.
         12    1    3    3    0    0  0.14623931866E+02  0.16665767020E+01  0.86662103698E+00  0.14744079935E+02  0.00000000000E+00 0. -1.
</event>
<event>
 7    1  0.1052674E-011  0.5930195E+02  0.7816164E-02  0.1266605E+00
        -11   -1    0    0    0    0  0.00000000000E+00  0.00000000000E+00  0.45593999997E+02  0.45594000000E+02  0.51100000000E-03 0. -1.
         11   -1    0    0    0    0 -0.00000000000E+00 -0.00000000000E+00 -0.45593999997E+02  0.45594000000E+02  0.51100000000E-03 0.  1.
    9900012    2    1    2    0    0  0.16017816414E+02  0.24251775879E+02  0.13114929887E+02  0.59301945652E+02  0.50000002962E+02 0.  0.
        -12    1    1    2    0    0 -0.16017816414E+02 -0.24251775879E+02 -0.13114929887E+02  0.31886054348E+02  0.00000000000E+00 0.  1.
         11    1    3    3    0    0  0.16580886665E+02  0.52535819356E+01  0.15101723954E+01  0.17458709766E+02  0.51100000000E-03 0. -1.
        -11    1    3    3    0    0 -0.43426964640E+01 -0.10017574789E+02  0.25330941809E+01  0.11208362218E+02  0.51100000000E-03 0.  1.
        -12    1    3    3    0    0  0.37796262128E+01  0.29015768732E+02  0.90716633103E+01  0.30634873668E+02  0.00000000000E+00 0.  1.
</event>
<event>
 7    1  0.1052674E-011  0.5930191E+02  0.7816164E-02  0.1266605E+00
        -11   -1    0    0    0    0  0.00000000000E+00  0.00000000000E+00  0.45593999997E+02  0.45594000000E+02  0.51100000000E-03 0. -1.
         11   -1    0    0    0    0 -0.00000000000E+00 -0.00000000000E+00 -0.45593999997E+02  0.45594000000E+02  0.51100000000E-03 0.  1.
    9900012    2    1    2    0    0 -0.24009763146E+02 -0.19755356948E+02  0.70696382606E+01  0.59301911504E+02  0.49999940684E+02 0.  0.
        -12    1    1    2    0    0  0.24009763146E+02  0.19755356948E+02 -0.70696382606E+01  0.31886088496E+02  0.00000000000E+00 0.  1.
         11    1    3    3    0    0 -0.19468445615E+02 -0.81332368653E+01  0.48404742771E+01  0.21647173212E+02  0.51100000000E-03 0. -1.
        -11    1    3    3    0    0  0.13839806405E+02 -0.45900225499E+01 -0.66960603273E+01  0.16045116781E+02  0.51100000000E-03 0.  1.
        -12    1    3    3    0    0 -0.18381123935E+02 -0.70320975327E+01  0.89252243108E+01  0.21609621511E+02  0.00000000000E+00 0.  1.
</event>
<event>
 7    1  0.1052674E-011  0.5930195E+02  0.7816164E-02  0.1266605E+00
        -11   -1    0    0    0    0  0.00000000000E+00  0.00000000000E+00  0.45593999997E+02  0.45594000000E+02  0.51100000000E-03 0.  1.
         11   -1    0    0    0    0 -0.00000000000E+00 -0.00000000000E+00 -0.45593999997E+02  0.45594000000E+02  0.51100000000E-03 0. -1.
    9900012    2    1    2    0    0 -0.86251279133E+01  0.23277677968E+02 -0.20011925123E+02  0.59301948658E+02  0.50000008444E+02 0.  0.
        -12    1    1    2    0    0  0.86251279133E+01 -0.23277677968E+02  0.20011925123E+02  0.31886051342E+02  0.00000000000E+00 0.  1.
         11    1    3    3    0    0 -0.29459670573E+01 -0.14096227214E+02 -0.95941151880E+01  0.17304028146E+02  0.51100000000E-03 0. -1.
        -11    1    3    3    0    0 -0.40742116967E+01  0.21438502512E+02  0.17379764248E+01  0.21891303141E+02  0.51100000000E-03 0.  1.
         12    1    3    3    0    0 -0.16049491593E+01  0.15935402670E+02 -0.12155786359E+02  0.20106617370E+02  0.00000000000E+00 0. -1.
</event>
<event>
 7    1  0.1052674E-011  0.5930194E+02  0.7816164E-02  0.1266605E+00
        -11   -1    0    0    0    0  0.00000000000E+00  0.00000000000E+00  0.45593999997E+02  0.45594000000E+02  0.51100000000E-03 0. -1.
         11   -1    0    0    0    0 -0.00000000000E+00 -0.00000000000E+00 -0.45593999997E+02  0.45594000000E+02  0.51100000000E-03 0.  1.
    9900012    2    1    2    0    0 -0.17126077789E+02  0.68034910379E+01  0.26021738690E+02  0.59301938543E+02  0.49999989998E+02 0.  0.
        -12    1    1    2    0    0  0.17126077789E+02 -0.68034910379E+01 -0.26021738690E+02  0.31886061457E+02  0.00000000000E+00 0.  1.
         11    1    3    3    0    0 -0.31933333160E+02 -0.11736403387E+01  0.27389703943E+02  0.42086946678E+02  0.51100000000E-03 0. -1.
        -11    1    3    3    0    0  0.13019155713E+02  0.57344835439E+01 -0.56875916971E+00  0.14237492906E+02  0.51100000000E-03 0.  1.
         12    1    3    3    0    0  0.17880996578E+01  0.22426478326E+01 -0.79920608314E+00  0.29774989590E+01  0.00000000000E+00 0. -1.
</event>
<event>
 7    1  0.1052674E-011  0.5930188E+02  0.7816164E-02  0.1266605E+00
        -11   -1    0    0    0    0  0.00000000000E+00  0.00000000000E+00  0.45593999997E+02  0.45594000000E+02  0.51100000000E-03 0.  1.
         11   -1    0    0    0    0 -0.00000000000E+00 -0.00000000000E+00 -0.45593999997E+02  0.45594000000E+02  0.51100000000E-03 0. -1.
    9900012    2    1    2    0    0  0.20986079947E+01  0.27665104939E+02 -0.15715038890E+02  0.59301880228E+02  0.49999883645E+02 0.  0.
        -12    1    1    2    0    0 -0.20986079947E+01 -0.27665104939E+02  0.15715038890E+02  0.31886119772E+02  0.00000000000E+00 0.  1.
         11    1    3    3    0    0  0.17420688929E+02  0.86971037714E+01  0.10289195318E+02  0.22022433048E+02  0.51100000000E-03 0.  1.
        -11    1    3    3    0    0 -0.76185697908E+01  0.15997739078E+02 -0.21546381174E+02  0.27896537477E+02  0.51100000000E-03 0. -1.
        -12    1    3    3    0    0 -0.77035111437E+01  0.29702620899E+01 -0.44578530340E+01  0.93829097030E+01  0.00000000000E+00 0.  1.
</event>
<event>
 7    1  0.1052674E-011  0.5930194E+02  0.7816164E-02  0.1266605E+00
        -11   -1    0    0    0    0  0.00000000000E+00  0.00000000000E+00  0.45593999997E+02  0.45594000000E+02  0.51100000000E-03 0. -1.
         11   -1    0    0    0    0 -0.00000000000E+00 -0.00000000000E+00 -0.45593999997E+02  0.45594000000E+02  0.51100000000E-03 0.  1.
    9900012    2    1    2    0    0 -0.19598523339E+02  0.12132336598E+02  0.22032362862E+02  0.59301941578E+02  0.49999995533E+02 0.  0.
        -12    1    1    2    0    0  0.19598523339E+02 -0.12132336598E+02 -0.22032362862E+02  0.31886058422E+02  0.00000000000E+00 0.  1.
         11    1    3    3    0    0 -0.33791725367E+02  0.14106462127E+02  0.16235343512E+02  0.40055703167E+02  0.51100000000E-03 0. -1.
        -11    1    3    3    0    0  0.13141313612E+01 -0.23497268481E+01 -0.26994145694E+01  0.38124790850E+01  0.51100000000E-03 0.  1.
         12    1    3    3    0    0  0.12879070667E+02  0.37560131938E+00  0.84964339196E+01  0.15433759326E+02  0.00000000000E+00 0. -1.
</event>
<event>
 7    1  0.1052674E-011  0.5930195E+02  0.7816164E-02  0.1266605E+00
        -11   -1    0    0    0    0  0.00000000000E+00  0.00000000000E+00  0.45593999997E+02  0.45594000000E+02  0.51100000000E-03 0. -1.
         11   -1    0    0    0    0 -0.00000000000E+00 -0.00000000000E+00 -0.45593999997E+02  0.45594000000E+02  0.51100000000E-03 0.  1.
    9900012    2    1    2    0    0  0.25657098418E+02  0.18804549825E+02  0.21960029179E+01  0.59301949411E+02  0.50000009818E+02 0.  0.
        -12    1    1    2    0    0 -0.25657098418E+02 -0.18804549825E+02 -0.21960029179E+01  0.31886050589E+02  0.00000000000E+00 0.  1.
         11    1    3    3    0    0  0.27032384746E+02  0.11634613012E+02  0.20883037069E+02  0.36086220119E+02  0.51100000000E-03 0. -1.
        -11    1    3    3    0    0 -0.47760282131E+01  0.87927736102E+01 -0.13435171803E+02  0.16751929886E+02  0.51100000000E-03 0.  1.
        -12    1    3    3    0    0  0.34007418850E+01 -0.16228367973E+01 -0.52518623483E+01  0.64637994062E+01  0.00000000000E+00 0.  1.
</event>
<event>
 7    1  0.1052674E-011  0.5930173E+02  0.7816164E-02  0.1266606E+00
        -11   -1    0    0    0    0  0.00000000000E+00  0.00000000000E+00  0.45593999997E+02  0.45594000000E+02  0.51100000000E-03 0.  1.
         11   -1    0    0    0    0 -0.00000000000E+00 -0.00000000000E+00 -0.45593999997E+02  0.45594000000E+02  0.51100000000E-03 0. -1.
    9900012    2    1    2    0    0 -0.18942291485E+01  0.61023415070E+01 -0.31239522819E+02  0.59301726121E+02  0.49999602589E+02 0.  0.
        -12    1    1    2    0    0  0.18942291485E+01 -0.61023415070E+01  0.31239522819E+02  0.31886273879E+02  0.00000000000E+00 0.  1.
         11    1    3    3    0    0  0.58855025119E+01 -0.44826826161E+01 -0.32378883063E+02  0.33213335453E+02  0.51100000000E-03 0. -1.
        -11    1    3    3    0    0 -0.99500833280E+01  0.91673830028E+01  0.10020827787E+02  0.16836331523E+02  0.51100000000E-03 0.  1.
        -12    1    3    3    0    0  0.21703516677E+01  0.14176411203E+01 -0.88814675425E+01  0.92520591446E+01  0.00000000000E+00 0.  1.
</event>
<event>
 7    1  0.1052674E-011  0.5930202E+02  0.7816164E-02  0.1266604E+00
        -11   -1    0    0    0    0  0.00000000000E+00  0.00000000000E+00  0.45593999997E+02  0.45594000000E+02  0.51100000000E-03 0.  1.
         11   -1    0    0    0    0 -0.00000000000E+00 -0.00000000000E+00 -0.45593999997E+02  0.45594000000E+02  0.51100000000E-03 0. -1.
    9900012    2    1    2    0    0  0.24898781629E+02 -0.13436504898E+02 -0.14704648682E+02  0.59302020584E+02  0.50000139619E+02 0.  0.
        -12    1    1    2    0    0 -0.24898781629E+02  0.13436504898E+02  0.14704648682E+02  0.31885979416E+02  0.00000000000E+00 0.  1.
         11    1    3    3    0    0 -0.45457708620E+01  0.86379137461E+01 -0.17036837580E+02  0.19634954077E+02  0.51100000000E-03 0. -1.
        -11    1    3    3    0    0  0.58012705555E+01 -0.12232522158E+02 -0.20252913833E+01  0.13689088496E+02  0.51100000000E-03 0.  1.
         12    1    3    3    0    0  0.23643281936E+02 -0.98418964858E+01  0.43574802809E+01  0.25977978011E+02  0.00000000000E+00 0. -1.
</event>
<event>
 7    1  0.1052674E-011  0.5930195E+02  0.7816164E-02  0.1266605E+00
        -11   -1    0    0    0    0  0.00000000000E+00  0.00000000000E+00  0.45593999997E+02  0.45594000000E+02  0.51100000000E-03 0.  1.
         11   -1    0    0    0    0 -0.00000000000E+00 -0.00000000000E+00 -0.45593999997E+02  0.45594000000E+02  0.51100000000E-03 0. -1.
    9900012    2    1    2    0    0 -0.27934442130E+00  0.18509146314E+02 -0.25962538559E+02  0.59301953851E+02  0.50000017916E+02 0.  0.
        -12    1    1    2    0    0  0.27934442130E+00 -0.18509146314E+02  0.25962538559E+02  0.31886046149E+02  0.00000000000E+00 0.  1.
         11    1    3    3    0    0  0.78824014483E+01  0.17232939174E+01 -0.33264973484E+02  0.34229526081E+02  0.51100000000E-03 0. -1.
        -11    1    3    3    0    0  0.35201285319E+01  0.76753599637E+01  0.56638032966E+01  0.10167650835E+02  0.51100000000E-03 0.  1.
         12    1    3    3    0    0 -0.11681874401E+02  0.91104924327E+01  0.16386316290E+01  0.14904776936E+02  0.00000000000E+00 0. -1.
</event>
<event>
 7    1  0.1052674E-011  0.5930197E+02  0.7816164E-02  0.1266605E+00
        -11   -1    0    0    0    0  0.00000000000E+00  0.00000000000E+00  0.45593999997E+02  0.45594000000E+02  0.51100000000E-03 0.  1.
         11   -1    0    0    0    0 -0.00000000000E+00 -0.00000000000E+00 -0.45593999997E+02  0.45594000000E+02  0.51100000000E-03 0. -1.
    9900012    2    1    2    0    0 -0.22600108764E+02  0.22215432161E+02  0.35254242257E+01  0.59301969231E+02  0.50000045965E+02 0.  0.
        -12    1    1    2    0    0  0.22600108764E+02 -0.22215432161E+02 -0.35254242257E+01  0.31886030769E+02  0.00000000000E+00 0.  1.
         11    1    3    3    0    0 -0.14362957158E+02  0.27215899855E+01 -0.87064985064E+01  0.17014837844E+02  0.51100000000E-03 0. -1.
        -11    1    3    3    0    0  0.11278548614E+02 -0.36662906047E+00  0.86397392017E+01  0.14212148657E+02  0.51100000000E-03 0.  1.
        -12    1    3    3    0    0 -0.19515700220E+02  0.19860471236E+02  0.35921835304E+01  0.28074982730E+02  0.00000000000E+00 0.  1.
</event>
<event>
 7    1  0.1052674E-011  0.5930198E+02  0.7816164E-02  0.1266605E+00
        -11   -1    0    0    0    0  0.00000000000E+00  0.00000000000E+00  0.45593999997E+02  0.45594000000E+02  0.51100000000E-03 0.  1.
         11   -1    0    0    0    0 -0.00000000000E+00 -0.00000000000E+00 -0.45593999997E+02  0.45594000000E+02  0.51100000000E-03 0. -1.
    9900012    2    1    2    0    0 -0.18970216782E+02  0.16085880863E+02 -0.19952275237E+02  0.59301984648E+02  0.50000074082E+02 0.  0.
        -12    1    1    2    0    0  0.18970216782E+02 -0.16085880863E+02  0.19952275237E+02  0.31886015352E+02  0.00000000000E+00 0.  1.
         11    1    3    3    0    0 -0.11403493373E+02  0.15722347530E+01 -0.34805808243E+02  0.36660003695E+02  0.51100000000E-03 0. -1.
        -11    1    3    3    0    0 -0.10747387192E+01  0.60781016829E+00  0.30206352777E+01  0.32632398406E+01  0.51100000000E-03 0.  1.
         12    1    3    3    0    0 -0.64919846898E+01  0.13905835942E+02  0.11832897728E+02  0.19378741113E+02  0.00000000000E+00 0. -1.
</event>
<event>
 7    1  0.1052674E-011  0.5930196E+02  0.7816164E-02  0.1266605E+00
        -11   -1    0    0    0    0  0.00000000000E+00  0.00000000000E+00  0.45593999997E+02  0.45594000000E+02  0.51100000000E-03 0.  1.
         11   -1    0    0    0    0 -0.00000000000E+00 -0.00000000000E+00 -0.45593999997E+02  0.45594000000E+02  0.51100000000E-03 0. -1.
    9900012    2    1    2    0    0 -0.29668507939E+02  0.11171317160E+02 -0.34206322723E+01  0.59301962059E+02  0.50000032886E+02 0.  0.
        -12    1    1    2    0    0  0.29668507939E+02 -0.11171317160E+02  0.34206322723E+01  0.31886037941E+02  0.00000000000E+00 0.  1.
         11    1    3    3    0    0 -0.24216026105E+02  0.31781602478E+01 -0.13692151848E+02  0.27999850810E+02  0.51100000000E-03 0. -1.
        -11    1    3    3    0    0  0.10987283995E+02  0.71300636418E+01  0.41800861998E+01  0.13748866790E+02  0.51100000000E-03 0.  1.
        -12    1    3    3    0    0 -0.16439765829E+02  0.86309327014E+00  0.60914333759E+01  0.17553244460E+02  0.00000000000E+00 0.  1.
</event>
<event>
 7    1  0.1052674E-011  0.5930191E+02  0.7816164E-02  0.1266605E+00
        -11   -1    0    0    0    0  0.00000000000E+00  0.00000000000E+00  0.45593999997E+02  0.45594000000E+02  0.51100000000E-03 0. -1.
         11   -1    0    0    0    0 -0.00000000000E+00 -0.00000000000E+00 -0.45593999997E+02  0.45594000000E+02  0.51100000000E-03 0.  1.
    9900012    2    1    2    0    0 -0.28031004686E+01  0.22956277006E+01  0.31679571470E+02  0.59301913264E+02  0.49999943894E+02 0.  0.
        -12    1    1    2    0    0  0.28031004686E+01 -0.22956277006E+01 -0.31679571470E+02  0.31886086736E+02  0.00000000000E+00 0.  1.
         11    1    3    3    0    0  0.73324557695E+01  0.56233416155E+01  0.22567671055E+02  0.24386198056E+02  0.51100000000E-03 0. -1.
        -11    1    3    3    0    0 -0.40920555825E+01  0.10729590366E+02 -0.63837188629E+01  0.13138527128E+02  0.51100000000E-03 0.  1.
        -12    1    3    3    0    0 -0.60435006557E+01 -0.14057304281E+02  0.15495619278E+02  0.21777188080E+02  0.00000000000E+00 0.  1.
</event>
<event>
 7    1  0.1052674E-011  0.5930197E+02  0.7816164E-02  0.1266605E+00
        -11   -1    0    0    0    0  0.00000000000E+00  0.00000000000E+00  0.45593999997E+02  0.45594000000E+02  0.51100000000E-03 0. -1.
         11   -1    0    0    0    0 -0.00000000000E+00 -0.00000000000E+00 -0.45593999997E+02  0.45594000000E+02  0.51100000000E-03 0.  1.
    9900012    2    1    2    0    0  0.27274861022E+02 -0.13948934446E+02  0.88446718530E+01  0.59301968009E+02  0.50000043737E+02 0.  0.
        -12    1    1    2    0    0 -0.27274861022E+02  0.13948934446E+02 -0.88446718530E+01  0.31886031991E+02  0.00000000000E+00 0.  1.
         11    1    3    3    0    0 -0.20689253344E+01 -0.61627819843E+01  0.18546710625E+02  0.19653010179E+02  0.51100000000E-03 0. -1.
        -11    1    3    3    0    0  0.12142919591E+02  0.80157669423E+01 -0.69666901539E+01  0.16131887299E+02  0.51100000000E-03 0.  1.
         12    1    3    3    0    0  0.17200866765E+02 -0.15801919404E+02 -0.27353486181E+01  0.23517070531E+02  0.00000000000E+00 0. -1.
</event>
<event>
 7    1  0.1052674E-011  0.5930184E+02  0.7816164E-02  0.1266605E+00
        -11   -1    0    0    0    0  0.00000000000E+00  0.00000000000E+00  0.45593999997E+02  0.45594000000E+02  0.51100000000E-03 0.  1.
         11   -1    0    0    0    0 -0.00000000000E+00 -0.00000000000E+00 -0.45593999997E+02  0.45594000000E+02  0.51100000000E-03 0. -1.
    9900012    2    1    2    0    0  0.20702887855E+02  0.22189849732E+02 -0.97840766293E+01  0.59301840743E+02  0.49999811633E+02 0.  0.
        -12    1    1    2    0    0 -0.20702887855E+02 -0.22189849732E+02  0.97840766293E+01  0.31886159257E+02  0.00000000000E+00 0.  1.
         11    1    3    3    0    0  0.56220904608E+01 -0.86570767975E+00 -0.18757784358E+02  0.19601322027E+02  0.51100000000E-03 0. -1.
        -11    1    3    3    0    0  0.11113193467E+01  0.24139045538E+02  0.87105454585E+01  0.25686614270E+02  0.51100000000E-03 0.  1.
         12    1    3    3    0    0  0.13969478048E+02 -0.10834881264E+01  0.26316226993E+00  0.14013904446E+02  0.00000000000E+00 0. -1.
</event>
<event>
 7    1  0.1052674E-011  0.5930195E+02  0.7816164E-02  0.1266605E+00
        -11   -1    0    0    0    0  0.00000000000E+00  0.00000000000E+00  0.45593999997E+02  0.45594000000E+02  0.51100000000E-03 0. -1.
         11   -1    0    0    0    0 -0.00000000000E+00 -0.00000000000E+00 -0.45593999997E+02  0.45594000000E+02  0.51100000000E-03 0.  1.
    9900012    2    1    2    0    0  0.10311246751E+01 -0.11465793771E+02  0.29735373210E+02  0.59301951878E+02  0.50000014317E+02 0.  0.
        -12    1    1    2    0    0 -0.10311246751E+01  0.11465793771E+02 -0.29735373210E+02  0.31886048122E+02  0.00000000000E+00 0.  1.
         11    1    3    3    0    0  0.12303115032E+01  0.10211845852E+02  0.31771954353E+02  0.33395397074E+02  0.51100000000E-03 0. -1.
        -11    1    3    3    0    0  0.65317794915E+01 -0.14226552518E+02  0.32771173090E-01  0.15654392805E+02  0.51100000000E-03 0.  1.
         12    1    3    3    0    0 -0.67309663196E+01 -0.74510871054E+01 -0.20693523158E+01  0.10252161999E+02  0.00000000000E+00 0. -1.
</event>
<event>
 7    1  0.1052674E-011  0.5930194E+02  0.7816164E-02  0.1266605E+00
        -11   -1    0    0    0    0  0.00000000000E+00  0.00000000000E+00  0.45593999997E+02  0.45594000000E+02  0.51100000000E-03 0.  1.
         11   -1    0    0    0    0 -0.00000000000E+00 -0.00000000000E+00 -0.45593999997E+02  0.45594000000E+02  0.51100000000E-03 0. -1.
    9900012    2    1    2    0    0  0.85207365318E+00  0.14363665056E+02  0.28454879523E+02  0.59301936085E+02  0.49999985514E+02 0.  0.
        -12    1    1    2    0    0 -0.85207365318E+00 -0.14363665056E+02 -0.28454879523E+02  0.31886063915E+02  0.00000000000E+00 0.  1.
         11    1    3    3    0    0  0.95585670306E+01 -0.11033785904E+02  0.88665581458E+00  0.14625210900E+02  0.51100000000E-03 0. -1.
        -11    1    3    3    0    0 -0.86580028943E+01  0.34942444297E+01 -0.16397688281E+00  0.93379680301E+01  0.51100000000E-03 0.  1.
         12    1    3    3    0    0 -0.48490483162E-01  0.21903206531E+02  0.27732200591E+02  0.35338757155E+02  0.00000000000E+00 0. -1.
</event>
<event>
 7    1  0.1052674E-011  0.5930195E+02  0.7816164E-02  0.1266605E+00
        -11   -1    0    0    0    0  0.00000000000E+00  0.00000000000E+00  0.45593999997E+02  0.45594000000E+02  0.51100000000E-03 0.  1.
         11   -1    0    0    0    0 -0.00000000000E+00 -0.00000000000E+00 -0.45593999997E+02  0.45594000000E+02  0.51100000000E-03 0. -1.
    9900012    2    1    2    0    0  0.20738741071E+02  0.19903046806E+02 -0.13801949169E+02  0.59301945772E+02  0.50000003180E+02 0.  0.
        -12    1    1    2    0    0 -0.20738741071E+02 -0.19903046806E+02  0.13801949169E+02  0.31886054228E+02  0.00000000000E+00 0.  1.
         11    1    3    3    0    0  0.11921989864E+02  0.19716716001E+02 -0.22904604816E+02  0.32488515729E+02  0.51100000000E-03 0. -1.
        -11    1    3    3    0    0 -0.73688568537E+01  0.42775569926E+01  0.28007183833E+01  0.89689223923E+01  0.51100000000E-03 0.  1.
         12    1    3    3    0    0  0.16185608061E+02 -0.40912261875E+01  0.63019372643E+01  0.17844507651E+02  0.00000000000E+00 0. -1.
</event>
<event>
 7    1  0.1052674E-011  0.5930192E+02  0.7816164E-02  0.1266605E+00
        -11   -1    0    0    0    0  0.00000000000E+00  0.00000000000E+00  0.45593999997E+02  0.45594000000E+02  0.51100000000E-03 0. -1.
         11   -1    0    0    0    0 -0.00000000000E+00 -0.00000000000E+00 -0.45593999997E+02  0.45594000000E+02  0.51100000000E-03 0.  1.
    9900012    2    1    2    0    0 -0.80433091104E+01  0.24965029085E+02  0.18132147426E+02  0.59301917315E+02  0.49999951283E+02 0.  0.
        -12    1    1    2    0    0  0.80433091104E+01 -0.24965029085E+02 -0.18132147426E+02  0.31886082685E+02  0.00000000000E+00 0.  1.
         11    1    3    3    0    0 -0.94949084276E+01  0.28085911639E+02  0.55453972893E+00  0.29652642939E+02  0.51100000000E-03 0. -1.
        -11    1    3    3    0    0 -0.78958223715E+01 -0.89257259429E+01  0.13263190632E+02  0.17830446448E+02  0.51100000000E-03 0.  1.
         12    1    3    3    0    0  0.93474216887E+01  0.58048433889E+01  0.43144170653E+01  0.11818827929E+02  0.00000000000E+00 0. -1.
</event>
<event>
 7    1  0.1052674E-011  0.5930195E+02  0.7816164E-02  0.1266605E+00
        -11   -1    0    0    0    0  0.00000000000E+00  0.00000000000E+00  0.45593999997E+02  0.45594000000E+02  0.51100000000E-03 0.  1.
         11   -1    0    0    0    0 -0.00000000000E+00 -0.00000000000E+00 -0.45593999997E+02  0.45594000000E+02  0.51100000000E-03 0. -1.
    9900012    2    1    2    0    0 -0.45897367327E+01 -0.30776563846E+02  0.69611705507E+01  0.59301945668E+02  0.50000002991E+02 0.  0.
        -12    1    1    2    0    0  0.45897367327E+01  0.30776563846E+02 -0.69611705507E+01  0.31886054332E+02  0.00000000000E+00 0.  1.
         11    1    3    3    0    0  0.84139521009E+01 -0.23870401400E+02 -0.23971076335E+01  0.25423154372E+02  0.51100000000E-03 0. -1.
        -11    1    3    3    0    0 -0.32549683166E+01  0.10081706369E+02 -0.26288434468E+01  0.10915422126E+02  0.51100000000E-03 0.  1.
        -12    1    3    3    0    0 -0.97487205169E+01 -0.16987868815E+02  0.11987121631E+02  0.22963369169E+02  0.00000000000E+00 0.  1.
</event>
<event>
 7    1  0.1052674E-011  0.5930194E+02  0.7816164E-02  0.1266605E+00
        -11   -1    0    0    0    0  0.00000000000E+00  0.00000000000E+00  0.45593999997E+02  0.45594000000E+02  0.51100000000E-03 0.  1.
         11   -1    0    0    0    0 -0.00000000000E+00 -0.00000000000E+00 -0.45593999997E+02  0.45594000000E+02  0.51100000000E-03 0. -1.
    9900012    2    1    2    0    0  0.15443669395E+02  0.27793784838E+02  0.23915371722E+01  0.59301939566E+02  0.49999991862E+02 0.  0.
        -12    1    1    2    0    0 -0.15443669395E+02 -0.27793784838E+02 -0.23915371722E+01  0.31886060434E+02  0.00000000000E+00 0.  1.
         11    1    3    3    0    0  0.31117368811E+02  0.22165939286E+02 -0.52363633401E+01  0.38562144746E+02  0.51100000000E-03 0. -1.
        -11    1    3    3    0    0 -0.99872541335E+01  0.59617024846E+00  0.84586426805E+01  0.13101499927E+02  0.51100000000E-03 0.  1.
         12    1    3    3    0    0 -0.56864452824E+01  0.50316753036E+01 -0.83074216819E+00  0.76382948922E+01  0.00000000000E+00 0. -1.
</event>
<event>
 7    1  0.1052674E-011  0.5930196E+02  0.7816164E-02  0.1266605E+00
        -11   -1    0    0    0    0  0.00000000000E+00  0.00000000000E+00  0.45593999997E+02  0.45594000000E+02  0.51100000000E-03 0.  1.
         11   -1    0    0    0    0 -0.00000000000E+00 -0.00000000000E+00 -0.45593999997E+02  0.45594000000E+02  0.51100000000E-03 0. -1.
    9900012    2    1    2    0    0 -0.25941923627E+02 -0.25426367210E+01 -0.18364947230E+02  0.59301957760E+02  0.50000025045E+02 0.  0.
        -12    1    1    2    0    0  0.25941923627E+02  0.25426367210E+01  0.18364947230E+02  0.31886042240E+02  0.00000000000E+00 0.  1.
         11    1    3    3    0    0  0.53971700299E+01  0.27558625056E+01 -0.19189592767E+01  0.63566207570E+01  0.51100000000E-03 0. -1.
        -11    1    3    3    0    0 -0.35149651780E+02  0.37812164990E+01 -0.22001193656E+02  0.41639502170E+02  0.51100000000E-03 0.  1.
        -12    1    3    3    0    0  0.38105581227E+01 -0.90797157256E+01  0.55552057031E+01  0.11305834833E+02  0.00000000000E+00 0.  1.
</event>
<event>
 7    1  0.1052674E-011  0.5930195E+02  0.7816164E-02  0.1266605E+00
        -11   -1    0    0    0    0  0.00000000000E+00  0.00000000000E+00  0.45593999997E+02  0.45594000000E+02  0.51100000000E-03 0.  1.
         11   -1    0    0    0    0 -0.00000000000E+00 -0.00000000000E+00 -0.45593999997E+02  0.45594000000E+02  0.51100000000E-03 0. -1.
    9900012    2    1    2    0    0  0.22503788633E+02 -0.18694156955E+01 -0.22512336139E+02  0.59301945112E+02  0.50000001977E+02 0.  0.
        -12    1    1    2    0    0 -0.22503788633E+02  0.18694156955E+01  0.22512336139E+02  0.31886054888E+02  0.00000000000E+00 0.  1.
         11    1    3    3    0    0 -0.44576192481E+01  0.14760212212E+02 -0.22670661013E+02  0.27417022174E+02  0.51100000000E-03 0. -1.
        -11    1    3    3    0    0  0.14983232715E+02 -0.10492335125E+02 -0.13515000654E+01  0.18341562411E+02  0.51100000000E-03 0.  1.
         12    1    3    3    0    0  0.11978175166E+02 -0.61372927822E+01  0.15098249387E+01  0.13543360526E+02  0.00000000000E+00 0. -1.
</event>
<event>
 7    1  0.1052674E-011  0.5930193E+02  0.7816164E-02  0.1266605E+00
        -11   -1    0    0    0    0  0.00000000000E+00  0.00000000000E+00  0.45593999997E+02  0.45594000000E+02  0.51100000000E-03 0.  1.
         11   -1    0    0    0    0 -0.00000000000E+00 -0.00000000000E+00 -0.45593999997E+02  0.45594000000E+02  0.51100000000E-03 0. -1.
    9900012    2    1    2    0    0  0.15073555320E+02  0.63662864406E+01 -0.27367492382E+02  0.59301932317E+02  0.49999978642E+02 0.  0.
        -12    1    1    2    0    0 -0.15073555320E+02 -0.63662864406E+01  0.27367492382E+02  0.31886067683E+02  0.00000000000E+00 0.  1.
         11    1    3    3    0    0  0.64166919321E+00  0.11560199249E+02 -0.29155252457E+01  0.11939440262E+02  0.51100000000E-03 0. -1.
        -11    1    3    3    0    0 -0.10500106697E-01 -0.97197124519E+01 -0.29773053891E+02  0.31319445376E+02  0.51100000000E-03 0.  1.
        -12    1    3    3    0    0  0.14442386233E+02  0.45257996431E+01  0.53210867543E+01  0.16043046680E+02  0.00000000000E+00 0.  1.
</event>
<event>
 7    1  0.1052674E-011  0.5930196E+02  0.7816164E-02  0.1266605E+00
        -11   -1    0    0    0    0  0.00000000000E+00  0.00000000000E+00  0.45593999997E+02  0.45594000000E+02  0.51100000000E-03 0.  1.
         11   -1    0    0    0    0 -0.00000000000E+00 -0.00000000000E+00 -0.45593999997E+02  0.45594000000E+02  0.51100000000E-03 0. -1.
    9900012    2    1    2    0    0 -0.28836683272E+02 -0.34249100403E+01 -0.13169482288E+02  0.59301959565E+02  0.50000028335E+02 0.  0.
        -12    1    1    2    0    0  0.28836683272E+02  0.34249100403E+01  0.13169482288E+02  0.31886040435E+02  0.00000000000E+00 0.  1.
         11    1    3    3    0    0 -0.17192963590E+02 -0.23820853199E+01 -0.23164238200E+02  0.28945712275E+02  0.51100000000E-03 0. -1.
        -11    1    3    3    0    0 -0.18194089382E+02 -0.67099676374E+01  0.97166989841E+01  0.21690154300E+02  0.51100000000E-03 0.  1.
        -12    1    3    3    0    0  0.65503697002E+01  0.56671429170E+01  0.27805692752E+00  0.86660929897E+01  0.00000000000E+00 0.  1.
</event>
<event>
 7    1  0.1052674E-011  0.5930195E+02  0.7816164E-02  0.1266605E+00
        -11   -1    0    0    0    0  0.00000000000E+00  0.00000000000E+00  0.45593999997E+02  0.45594000000E+02  0.51100000000E-03 0.  1.
         11   -1    0    0    0    0 -0.00000000000E+00 -0.00000000000E+00 -0.45593999997E+02  0.45594000000E+02  0.51100000000E-03 0. -1.
    9900012    2    1    2    0    0  0.10163555484E+02  0.23174119321E+02 -0.19400577881E+02  0.59301951507E+02  0.50000013641E+02 0.  0.
        -12    1    1    2    0    0 -0.10163555484E+02 -0.23174119321E+02  0.19400577881E+02  0.31886048493E+02  0.00000000000E+00 0.  1.
         11    1    3    3    0    0  0.97303377506E+01  0.26598324179E+02 -0.27130050263E+02  0.39219764780E+02  0.51100000000E-03 0. -1.
        -11    1    3    3    0    0 -0.51976016462E+00  0.31386191604E+01  0.11853369643E+02  0.12272874684E+02  0.51100000000E-03 0.  1.
        -12    1    3    3    0    0  0.95297789832E+00 -0.65628240185E+01 -0.41238972607E+01  0.78093120433E+01  0.00000000000E+00 0.  1.
</event>
<event>
 7    1  0.1052674E-011  0.5930192E+02  0.7816164E-02  0.1266605E+00
        -11   -1    0    0    0    0  0.00000000000E+00  0.00000000000E+00  0.45593999997E+02  0.45594000000E+02  0.51100000000E-03 0.  1.
         11   -1    0    0    0    0 -0.00000000000E+00 -0.00000000000E+00 -0.45593999997E+02  0.45594000000E+02  0.51100000000E-03 0. -1.
    9900012    2    1    2    0    0 -0.22757391716E+02 -0.21925060644E+02  0.42561625930E+01  0.59301920248E+02  0.49999956632E+02 0.  0.
        -12    1    1    2    0    0  0.22757391716E+02  0.21925060644E+02 -0.42561625930E+01  0.31886079752E+02  0.00000000000E+00 0.  1.
         11    1    3    3    0    0 -0.29520263757E+02 -0.22192279811E+02  0.10694659452E+02  0.38448914114E+02  0.51100000000E-03 0. -1.
        -11    1    3    3    0    0 -0.51426895950E+01  0.40035644964E+01 -0.51539578920E+01  0.83089750969E+01  0.51100000000E-03 0.  1.
         12    1    3    3    0    0  0.11905561636E+02 -0.37363453287E+01 -0.12845389675E+01  0.12544031037E+02  0.00000000000E+00 0. -1.
</event>
<event>
 7    1  0.1052674E-011  0.5930195E+02  0.7816164E-02  0.1266605E+00
        -11   -1    0    0    0    0  0.00000000000E+00  0.00000000000E+00  0.45593999997E+02  0.45594000000E+02  0.51100000000E-03 0.  1.
         11   -1    0    0    0    0 -0.00000000000E+00 -0.00000000000E+00 -0.45593999997E+02  0.45594000000E+02  0.51100000000E-03 0. -1.
    9900012    2    1    2    0    0 -0.22863737490E+02 -0.17958802953E+02 -0.13093940082E+02  0.59301947212E+02  0.50000005807E+02 0.  0.
        -12    1    1    2    0    0  0.22863737490E+02  0.17958802953E+02  0.13093940082E+02  0.31886052788E+02  0.00000000000E+00 0.  1.
         11    1    3    3    0    0  0.15408457665E+00  0.80110200171E+01 -0.16709184567E+02  0.18530974959E+02  0.51100000000E-03 0. -1.
        -11    1    3    3    0    0 -0.21586539279E+02 -0.12799737556E+02  0.87287281124E+01  0.26570710459E+02  0.51100000000E-03 0.  1.
         12    1    3    3    0    0 -0.14312827876E+01 -0.13170085414E+02 -0.51134836277E+01  0.14200261794E+02  0.00000000000E+00 0. -1.
</event>
<event>
 7    1  0.1052674E-011  0.5930197E+02  0.7816164E-02  0.1266605E+00
        -11   -1    0    0    0    0  0.00000000000E+00  0.00000000000E+00  0.45593999997E+02  0.45594000000E+02  0.51100000000E-03 0.  1.
         11   -1    0    0    0    0 -0.00000000000E+00 -0.00000000000E+00 -0.45593999997E+02  0.45594000000E+02  0.51100000000E-03 0. -1.
    9900012    2    1    2    0    0 -0.21653749012E+02  0.11491428614E+02  0.20390719694E+02  0.59301965008E+02  0.50000038263E+02 0.  0.
        -12    1    1    2    0    0  0.21653749012E+02 -0.11491428614E+02 -0.20390719694E+02  0.31886034992E+02  0.00000000000E+00 0.  1.
         11    1    3    3    0    0  0.23794785011E+01  0.22304818516E+02  0.29339266534E+01  0.22622439586E+02  0.51100000000E-03 0. -1.
        -11    1    3    3    0    0 -0.25927515903E+02 -0.13093123473E+02  0.14392270162E+02  0.32416097912E+02  0.51100000000E-03 0.  1.
        -12    1    3    3    0    0  0.18942883897E+01  0.22797335705E+01  0.30645228786E+01  0.42634275096E+01  0.00000000000E+00 0.  1.
</event>
<event>
 7    1  0.1052674E-011  0.5930196E+02  0.7816164E-02  0.1266605E+00
        -11   -1    0    0    0    0  0.00000000000E+00  0.00000000000E+00  0.45593999997E+02  0.45594000000E+02  0.51100000000E-03 0.  1.
         11   -1    0    0    0    0 -0.00000000000E+00 -0.00000000000E+00 -0.45593999997E+02  0.45594000000E+02  0.51100000000E-03 0. -1.
    9900012    2    1    2    0    0 -0.29825115490E+02 -0.48827323968E+01 -0.10165686600E+02  0.59301956443E+02  0.50000022643E+02 0.  0.
        -12    1    1    2    0    0  0.29825115490E+02  0.48827323968E+01  0.10165686600E+02  0.31886043557E+02  0.00000000000E+00 0.  1.
         11    1    3    3    0    0 -0.27020733534E+02 -0.29883280176E+01 -0.27227136249E+01  0.27321480831E+02  0.51100000000E-03 0. -1.
        -11    1    3    3    0    0  0.50773460173E+01 -0.90148144469E+01 -0.15508885325E+02  0.18643278852E+02  0.51100000000E-03 0.  1.
        -12    1    3    3    0    0 -0.78817279733E+01  0.71204100677E+01  0.80659123494E+01  0.13337196760E+02  0.00000000000E+00 0.  1.
</event>
<event>
 7    1  0.1052674E-011  0.5930196E+02  0.7816164E-02  0.1266605E+00
        -11   -1    0    0    0    0  0.00000000000E+00  0.00000000000E+00  0.45593999997E+02  0.45594000000E+02  0.51100000000E-03 0.  1.
         11   -1    0    0    0    0 -0.00000000000E+00 -0.00000000000E+00 -0.45593999997E+02  0.45594000000E+02  0.51100000000E-03 0. -1.
    9900012    2    1    2    0    0 -0.13728497814E+02 -0.25904436673E+02 -0.12538257764E+02  0.59301962314E+02  0.50000033349E+02 0.  0.
        -12    1    1    2    0    0  0.13728497814E+02  0.25904436673E+02  0.12538257764E+02  0.31886037686E+02  0.00000000000E+00 0.  1.
         11    1    3    3    0    0 -0.82466462962E+01  0.25563851129E+01 -0.45321538433E+01  0.97510357758E+01  0.51100000000E-03 0. -1.
        -11    1    3    3    0    0 -0.65453750722E+01 -0.23796995842E+02  0.13077590680E+02  0.27931386006E+02  0.51100000000E-03 0.  1.
        -12    1    3    3    0    0  0.10635235541E+01 -0.46638259435E+01 -0.21083694601E+02  0.21619540532E+02  0.00000000000E+00 0.  1.
</event>
<event>
 7    1  0.1052674E-011  0.5930195E+02  0.7816164E-02  0.1266605E+00
        -11   -1    0    0    0    0  0.00000000000E+00  0.00000000000E+00  0.45593999997E+02  0.45594000000E+02  0.51100000000E-03 0.  1.
         11   -1    0    0    0    0 -0.00000000000E+00 -0.00000000000E+00 -0.45593999997E+02  0.45594000000E+02  0.51100000000E-03 0. -1.
    9900012    2    1    2    0    0 -0.11683671523E+02  0.71670659939E+01 -0.28789675403E+02  0.59301946230E+02  0.50000004016E+02 0.  0.
        -12    1    1    2    0    0  0.11683671523E+02 -0.71670659939E+01  0.28789675403E+02  0.31886053770E+02  0.00000000000E+00 0.  1.
         11    1    3    3    0    0 -0.25044519926E+02 -0.64161824447E+01 -0.14411339485E+02  0.29598683780E+02  0.51100000000E-03 0. -1.
        -11    1    3    3    0    0  0.11972718455E+02  0.35324437260E+01 -0.47576884038E+00  0.12492017536E+02  0.51100000000E-03 0.  1.
         12    1    3    3    0    0  0.13881299481E+01  0.10050804713E+02 -0.13902567078E+02  0.17211244914E+02  0.00000000000E+00 0. -1.
</event>
<event>
 7    1  0.1052674E-011  0.5930195E+02  0.7816164E-02  0.1266605E+00
        -11   -1    0    0    0    0  0.00000000000E+00  0.00000000000E+00  0.45593999997E+02  0.45594000000E+02  0.51100000000E-03 0. -1.
         11   -1    0    0    0    0 -0.00000000000E+00 -0.00000000000E+00 -0.45593999997E+02  0.45594000000E+02  0.51100000000E-03 0.  1.
    9900012    2    1    2    0    0  0.56163965633E+01  0.20892199722E+02  0.23424176910E+02  0.59301953154E+02  0.50000016644E+02 0.  0.
        -12    1    1    2    0    0 -0.56163965633E+01 -0.20892199722E+02 -0.23424176910E+02  0.31886046846E+02  0.00000000000E+00 0.  1.
         11    1    3    3    0    0  0.17280800203E+02 -0.58342848969E+01  0.67855365717E+01  0.19460432748E+02  0.51100000000E-03 0. -1.
        -11    1    3    3    0    0 -0.93843533890E+01  0.19766332027E+02  0.24065743377E+00  0.21882227643E+02  0.51100000000E-03 0.  1.
        -12    1    3    3    0    0 -0.22800502503E+01  0.69601525916E+01  0.16397982904E+02  0.17959292764E+02  0.00000000000E+00 0.  1.
</event>
<event>
 7    1  0.1052674E-011  0.5930195E+02  0.7816164E-02  0.1266605E+00
        -11   -1    0    0    0    0  0.00000000000E+00  0.00000000000E+00  0.45593999997E+02  0.45594000000E+02  0.51100000000E-03 0.  1.
         11   -1    0    0    0    0 -0.00000000000E+00 -0.00000000000E+00 -0.45593999997E+02  0.45594000000E+02  0.51100000000E-03 0. -1.
    9900012    2    1    2    0    0 -0.29341180289E+02  0.10525382347E+02 -0.67105396237E+01  0.59301954833E+02  0.50000019707E+02 0.  0.
        -12    1    1    2    0    0  0.29341180289E+02 -0.10525382347E+02  0.67105396237E+01  0.31886045167E+02  0.00000000000E+00 0.  1.
         11    1    3    3    0    0 -0.31626417994E+02 -0.36010374920E+01  0.35387252530E+01  0.32026869389E+02  0.51100000000E-03 0.  1.
        -11    1    3    3    0    0  0.94784714427E+01  0.14201605252E+02 -0.10558030305E+02  0.20074835411E+02  0.51100000000E-03 0. -1.
         12    1    3    3    0    0 -0.71932337379E+01 -0.75185412101E-01  0.30876542843E+00  0.72002500334E+01  0.00000000000E+00 0. -1.
</event>
<event>
 7    1  0.1052674E-011  0.5930193E+02  0.7816164E-02  0.1266605E+00
        -11   -1    0    0    0    0  0.00000000000E+00  0.00000000000E+00  0.45593999997E+02  0.45594000000E+02  0.51100000000E-03 0.  1.
         11   -1    0    0    0    0 -0.00000000000E+00 -0.00000000000E+00 -0.45593999997E+02  0.45594000000E+02  0.51100000000E-03 0. -1.
    9900012    2    1    2    0    0  0.14409792578E+02  0.36723536857E+01 -0.28206266435E+02  0.59301925141E+02  0.49999965554E+02 0.  0.
        -12    1    1    2    0    0 -0.14409792578E+02 -0.36723536857E+01  0.28206266435E+02  0.31886074859E+02  0.00000000000E+00 0.  1.
         11    1    3    3    0    0  0.52492660263E+01 -0.44842693252E+01 -0.56571975012E+01  0.89256567839E+01  0.51100000000E-03 0. -1.
        -11    1    3    3    0    0  0.16343345100E+02  0.22696349465E+02 -0.94243737310E+01  0.29513522808E+02  0.51100000000E-03 0.  1.
        -12    1    3    3    0    0 -0.71828185481E+01 -0.14539726454E+02 -0.13124695203E+02  0.20862745548E+02  0.00000000000E+00 0.  1.
</event>
<event>
 7    1  0.1052674E-011  0.5930195E+02  0.7816164E-02  0.1266605E+00
        -11   -1    0    0    0    0  0.00000000000E+00  0.00000000000E+00  0.45593999997E+02  0.45594000000E+02  0.51100000000E-03 0. -1.
         11   -1    0    0    0    0 -0.00000000000E+00 -0.00000000000E+00 -0.45593999997E+02  0.45594000000E+02  0.51100000000E-03 0.  1.
    9900012    2    1    2    0    0 -0.69167477051E+01 -0.30856546404E+02  0.40929997738E+01  0.59301945024E+02  0.50000001816E+02 0.  0.
        -12    1    1    2    0    0  0.69167477051E+01  0.30856546404E+02 -0.40929997738E+01  0.31886054976E+02  0.00000000000E+00 0.  1.
         11    1    3    3    0    0 -0.66634262578E+01 -0.27791636316E+02  0.17755990938E+02  0.33645973207E+02  0.51100000000E-03 0. -1.
        -11    1    3    3    0    0 -0.42692520245E+01 -0.34430337339E+01 -0.18535816793E+02  0.19330222414E+02  0.51100000000E-03 0.  1.
         12    1    3    3    0    0  0.40159305772E+01  0.37812364542E+00  0.48728256290E+01  0.63257494024E+01  0.00000000000E+00 0. -1.
</event>
<event>
 7    1  0.1052674E-011  0.5930193E+02  0.7816164E-02  0.1266605E+00
        -11   -1    0    0    0    0  0.00000000000E+00  0.00000000000E+00  0.45593999997E+02  0.45594000000E+02  0.51100000000E-03 0.  1.
         11   -1    0    0    0    0 -0.00000000000E+00 -0.00000000000E+00 -0.45593999997E+02  0.45594000000E+02  0.51100000000E-03 0. -1.
    9900012    2    1    2    0    0 -0.21338400738E+02 -0.50826564824E+01 -0.23142187459E+02  0.59301928066E+02  0.49999970890E+02 0.  0.
        -12    1    1    2    0    0  0.21338400738E+02  0.50826564824E+01  0.23142187459E+02  0.31886071934E+02  0.00000000000E+00 0.  1.
         11    1    3    3    0    0  0.10781328515E+02  0.52741787809E+01 -0.43808400809E+01  0.12776766666E+02  0.51100000000E-03 0. -1.
        -11    1    3    3    0    0 -0.14180690624E+02 -0.67111306032E+01  0.50583587823E+01  0.16483878621E+02  0.51100000000E-03 0.  1.
         12    1    3    3    0    0 -0.17939038629E+02 -0.36457046601E+01 -0.23819706161E+02  0.30041282779E+02  0.00000000000E+00 0. -1.
</event>
<event>
 7    1  0.1052674E-011  0.5930195E+02  0.7816164E-02  0.1266605E+00
        -11   -1    0    0    0    0  0.00000000000E+00  0.00000000000E+00  0.45593999997E+02  0.45594000000E+02  0.51100000000E-03 0.  1.
         11   -1    0    0    0    0 -0.00000000000E+00 -0.00000000000E+00 -0.45593999997E+02  0.45594000000E+02  0.51100000000E-03 0. -1.
    9900012    2    1    2    0    0  0.29972627327E+02 -0.62781852379E+01 -0.88851548290E+01  0.59301953285E+02  0.50000016884E+02 0.  0.
        -12    1    1    2    0    0 -0.29972627327E+02  0.62781852379E+01  0.88851548290E+01  0.31886046715E+02  0.00000000000E+00 0.  1.
         11    1    3    3    0    0  0.33576036221E+02 -0.79761144556E+01 -0.10127280817E+02  0.35965684021E+02  0.51100000000E-03 0. -1.
        -11    1    3    3    0    0 -0.27739909257E+01 -0.12807252893E+01  0.11875615539E+02  0.12262362236E+02  0.51100000000E-03 0.  1.
         12    1    3    3    0    0 -0.82941796858E+00  0.29786545070E+01 -0.10633489551E+02  0.11073907028E+02  0.00000000000E+00 0. -1.
</event>
<event>
 7    1  0.1052674E-011  0.5930203E+02  0.7816164E-02  0.1266604E+00
        -11   -1    0    0    0    0  0.00000000000E+00  0.00000000000E+00  0.45593999997E+02  0.45594000000E+02  0.51100000000E-03 0.  1.
         11   -1    0    0    0    0 -0.00000000000E+00 -0.00000000000E+00 -0.45593999997E+02  0.45594000000E+02  0.51100000000E-03 0. -1.
    9900012    2    1    2    0    0  0.10450482931E+02  0.11156199468E+02 -0.27982880243E+02  0.59302031820E+02  0.50000160112E+02 0.  0.
        -12    1    1    2    0    0 -0.10450482931E+02 -0.11156199468E+02  0.27982880243E+02  0.31885968180E+02  0.00000000000E+00 0.  1.
         11    1    3    3    0    0  0.92327658863E+01  0.14172609427E+02 -0.11594380388E+02  0.20506986145E+02  0.51100000000E-03 0. -1.
        -11    1    3    3    0    0 -0.12604391324E+01 -0.18338715690E+02 -0.13966204385E+02  0.23085754594E+02  0.51100000000E-03 0.  1.
        -12    1    3    3    0    0  0.24781561769E+01  0.15322305731E+02 -0.24222954702E+01  0.15709291082E+02  0.00000000000E+00 0.  1.
</event>
<event>
 7    1  0.1052674E-011  0.5930192E+02  0.7816164E-02  0.1266605E+00
        -11   -1    0    0    0    0  0.00000000000E+00  0.00000000000E+00  0.45593999997E+02  0.45594000000E+02  0.51100000000E-03 0.  1.
         11   -1    0    0    0    0 -0.00000000000E+00 -0.00000000000E+00 -0.45593999997E+02  0.45594000000E+02  0.51100000000E-03 0. -1.
    9900012    2    1    2    0    0 -0.25860315300E+02 -0.52464701086E+01 -0.17900853553E+02  0.59301922882E+02  0.49999961436E+02 0.  0.
        -12    1    1    2    0    0  0.25860315300E+02  0.52464701086E+01  0.17900853553E+02  0.31886077118E+02  0.00000000000E+00 0.  1.
         11    1    3    3    0    0 -0.13755993243E+02 -0.10660312458E+02 -0.12039552104E+02  0.21161768048E+02  0.51100000000E-03 0. -1.
        -11    1    3    3    0    0 -0.12397853072E+02  0.19426995111E+02 -0.69788772620E+01  0.24079444095E+02  0.51100000000E-03 0.  1.
        -12    1    3    3    0    0  0.29353101440E+00 -0.14013152762E+02  0.11175758129E+01  0.14060710739E+02  0.00000000000E+00 0.  1.
</event>
<event>
 7    1  0.1052674E-011  0.5930195E+02  0.7816164E-02  0.1266605E+00
        -11   -1    0    0    0    0  0.00000000000E+00  0.00000000000E+00  0.45593999997E+02  0.45594000000E+02  0.51100000000E-03 0.  1.
         11   -1    0    0    0    0 -0.00000000000E+00 -0.00000000000E+00 -0.45593999997E+02  0.45594000000E+02  0.51100000000E-03 0. -1.
    9900012    2    1    2    0    0  0.28535450477E+02 -0.11102222322E+02  0.88988242463E+01  0.59301947448E+02  0.50000006237E+02 0.  0.
        -12    1    1    2    0    0 -0.28535450477E+02  0.11102222322E+02 -0.88988242463E+01  0.31886052552E+02  0.00000000000E+00 0.  1.
         11    1    3    3    0    0  0.27791627983E+02 -0.97802832020E+01  0.24205385153E+02  0.38130423498E+02  0.51100000000E-03 0. -1.
        -11    1    3    3    0    0 -0.21384475301E+01 -0.65754085541E+01 -0.31082788634E+01  0.75809203429E+01  0.51100000000E-03 0.  1.
         12    1    3    3    0    0  0.28822700240E+01  0.52534694343E+01 -0.12198282043E+02  0.13590603607E+02  0.00000000000E+00 0. -1.
</event>
<event>
 7    1  0.1052674E-011  0.5930197E+02  0.7816164E-02  0.1266605E+00
        -11   -1    0    0    0    0  0.00000000000E+00  0.00000000000E+00  0.45593999997E+02  0.45594000000E+02  0.51100000000E-03 0.  1.
         11   -1    0    0    0    0 -0.00000000000E+00 -0.00000000000E+00 -0.45593999997E+02  0.45594000000E+02  0.51100000000E-03 0. -1.
    9900012    2    1    2    0    0 -0.25323540193E+02 -0.23364606641E+01 -0.19234817209E+02  0.59301969683E+02  0.50000046789E+02 0.  0.
        -12    1    1    2    0    0  0.25323540193E+02  0.23364606641E+01  0.19234817209E+02  0.31886030317E+02  0.00000000000E+00 0.  1.
         11    1    3    3    0    0 -0.27567158360E+02 -0.20212877241E+02 -0.18566841218E+02  0.38900337010E+02  0.51100000000E-03 0. -1.
        -11    1    3    3    0    0 -0.26532060607E+01  0.86496292603E+01 -0.32982843505E+01  0.96298633770E+01  0.51100000000E-03 0.  1.
         12    1    3    3    0    0  0.48968242281E+01  0.92267873163E+01  0.26303083600E+01  0.10771769296E+02  0.00000000000E+00 0. -1.
</event>
<event>
 7    1  0.1052674E-011  0.5930195E+02  0.7816164E-02  0.1266605E+00
        -11   -1    0    0    0    0  0.00000000000E+00  0.00000000000E+00  0.45593999997E+02  0.45594000000E+02  0.51100000000E-03 0.  1.
         11   -1    0    0    0    0 -0.00000000000E+00 -0.00000000000E+00 -0.45593999997E+02  0.45594000000E+02  0.51100000000E-03 0. -1.
    9900012    2    1    2    0    0  0.30386699541E+02  0.96355801940E+01 -0.72405207759E+00  0.59301950290E+02  0.50000011421E+02 0.  0.
        -12    1    1    2    0    0 -0.30386699541E+02 -0.96355801940E+01  0.72405207759E+00  0.31886049710E+02  0.00000000000E+00 0.  1.
         11    1    3    3    0    0 -0.11803242358E+01  0.12810107629E+02 -0.94632118560E+01  0.15970109632E+02  0.51100000000E-03 0. -1.
        -11    1    3    3    0    0  0.95759067120E+01  0.25650412097E+00  0.17063840050E+02  0.19568812464E+02  0.51100000000E-03 0.  1.
        -12    1    3    3    0    0  0.21991117065E+02 -0.34310315562E+01 -0.83246802718E+01  0.23763028194E+02  0.00000000000E+00 0.  1.
</event>
<event>
 7    1  0.1052674E-011  0.5930188E+02  0.7816164E-02  0.1266605E+00
        -11   -1    0    0    0    0  0.00000000000E+00  0.00000000000E+00  0.45593999997E+02  0.45594000000E+02  0.51100000000E-03 0. -1.
         11   -1    0    0    0    0 -0.00000000000E+00 -0.00000000000E+00 -0.45593999997E+02  0.45594000000E+02  0.51100000000E-03 0.  1.
    9900012    2    1    2    0    0 -0.43013217170E+00 -0.20746139635E+02  0.24210267320E+02  0.59301884414E+02  0.49999891279E+02 0.  0.
        -12    1    1    2    0    0  0.43013217170E+00  0.20746139635E+02 -0.24210267320E+02  0.31886115586E+02  0.00000000000E+00 0.  1.
         11    1    3    3    0    0 -0.33114456373E+00 -0.31828195714E+02  0.21552127211E+02  0.38440055759E+02  0.51100000000E-03 0. -1.
        -11    1    3    3    0    0 -0.30398198294E+01  0.96299067269E+01 -0.59008302836E+01  0.11695956843E+02  0.51100000000E-03 0.  1.
        -12    1    3    3    0    0  0.29408322214E+01  0.14521493524E+01  0.85589703929E+01  0.91658718125E+01  0.00000000000E+00 0.  1.
</event>
<event>
 7    1  0.1052674E-011  0.5930196E+02  0.7816164E-02  0.1266605E+00
        -11   -1    0    0    0    0  0.00000000000E+00  0.00000000000E+00  0.45593999997E+02  0.45594000000E+02  0.51100000000E-03 0.  1.
         11   -1    0    0    0    0 -0.00000000000E+00 -0.00000000000E+00 -0.45593999997E+02  0.45594000000E+02  0.51100000000E-03 0. -1.
    9900012    2    1    2    0    0  0.24115410720E+02 -0.18031704734E+02 -0.10489226002E+02  0.59301964311E+02  0.50000036993E+02 0.  0.
        -12    1    1    2    0    0 -0.24115410720E+02  0.18031704734E+02  0.10489226002E+02  0.31886035689E+02  0.00000000000E+00 0.  1.
         11    1    3    3    0    0 -0.27830190910E+01 -0.14183477932E+02 -0.14554005831E+02  0.20511833841E+02  0.51100000000E-03 0. -1.
        -11    1    3    3    0    0  0.28200464442E+02 -0.14903074769E+01  0.11795007721E+02  0.30604075194E+02  0.51100000000E-03 0.  1.
        -12    1    3    3    0    0 -0.13020346309E+01 -0.23579193246E+01 -0.77302278921E+01  0.81860552762E+01  0.00000000000E+00 0.  1.
</event>
<event>
 7    1  0.1052674E-011  0.5930193E+02  0.7816164E-02  0.1266605E+00
        -11   -1    0    0    0    0  0.00000000000E+00  0.00000000000E+00  0.45593999997E+02  0.45594000000E+02  0.51100000000E-03 0.  1.
         11   -1    0    0    0    0 -0.00000000000E+00 -0.00000000000E+00 -0.45593999997E+02  0.45594000000E+02  0.51100000000E-03 0. -1.
    9900012    2    1    2    0    0  0.11945780304E+02 -0.13206395373E+02 -0.26450157382E+02  0.59301931391E+02  0.49999976953E+02 0.  0.
        -12    1    1    2    0    0 -0.11945780304E+02  0.13206395373E+02  0.26450157382E+02  0.31886068609E+02  0.00000000000E+00 0.  1.
         11    1    3    3    0    0  0.15671462743E+02 -0.42169238339E+01 -0.66672305919E+01  0.17545060705E+02  0.51100000000E-03 0. -1.
        -11    1    3    3    0    0  0.32574437065E+01 -0.61026392061E+01  0.93664397599E+01  0.11644025885E+02  0.51100000000E-03 0.  1.
         12    1    3    3    0    0 -0.69831261454E+01 -0.28868323328E+01 -0.29149366550E+02  0.30112844800E+02  0.00000000000E+00 0. -1.
</event>
<event>
 7    1  0.1052674E-011  0.5930194E+02  0.7816164E-02  0.1266605E+00
        -11   -1    0    0    0    0  0.00000000000E+00  0.00000000000E+00  0.45593999997E+02  0.45594000000E+02  0.51100000000E-03 0.  1.
         11   -1    0    0    0    0 -0.00000000000E+00 -0.00000000000E+00 -0.45593999997E+02  0.45594000000E+02  0.51100000000E-03 0. -1.
    9900012    2    1    2    0    0  0.22375094719E+02 -0.79143599977E+01 -0.21294109552E+02  0.59301936281E+02  0.49999985872E+02 0.  0.
        -12    1    1    2    0    0 -0.22375094719E+02  0.79143599977E+01  0.21294109552E+02  0.31886063719E+02  0.00000000000E+00 0.  1.
         11    1    3    3    0    0  0.22637455596E+02 -0.26307237219E+02 -0.16911129314E+02  0.38607142097E+02  0.51100000000E-03 0. -1.
        -11    1    3    3    0    0  0.30341601505E+01  0.72585802751E+01  0.93564562335E+00  0.79226604384E+01  0.51100000000E-03 0.  1.
         12    1    3    3    0    0 -0.32965210269E+01  0.11134296946E+02 -0.53186258614E+01  0.12772133746E+02  0.00000000000E+00 0. -1.
</event>
<event>
 7    1  0.1052674E-011  0.5930196E+02  0.7816164E-02  0.1266605E+00
        -11   -1    0    0    0    0  0.00000000000E+00  0.00000000000E+00  0.45593999997E+02  0.45594000000E+02  0.51100000000E-03 0. -1.
         11   -1    0    0    0    0 -0.00000000000E+00 -0.00000000000E+00 -0.45593999997E+02  0.45594000000E+02  0.51100000000E-03 0.  1.
    9900012    2    1    2    0    0  0.32622409577E+01 -0.23008342244E+02 -0.21833311483E+02  0.59301960434E+02  0.50000029921E+02 0.  0.
        -12    1    1    2    0    0 -0.32622409577E+01  0.23008342244E+02  0.21833311483E+02  0.31886039566E+02  0.00000000000E+00 0.  1.
         11    1    3    3    0    0 -0.46205976619E+01 -0.37028842598E+02 -0.13080424609E+02  0.39542162500E+02  0.51100000000E-03 0. -1.
        -11    1    3    3    0    0  0.42414017548E+01  0.83929503822E+01 -0.90487612535E+01  0.13050332772E+02  0.51100000000E-03 0.  1.
         12    1    3    3    0    0  0.36414368648E+01  0.56275499717E+01  0.29587437988E+00  0.67094651630E+01  0.00000000000E+00 0. -1.
</event>
<event>
 7    1  0.1052674E-011  0.5930193E+02  0.7816164E-02  0.1266605E+00
        -11   -1    0    0    0    0  0.00000000000E+00  0.00000000000E+00  0.45593999997E+02  0.45594000000E+02  0.51100000000E-03 0.  1.
         11   -1    0    0    0    0 -0.00000000000E+00 -0.00000000000E+00 -0.45593999997E+02  0.45594000000E+02  0.51100000000E-03 0. -1.
    9900012    2    1    2    0    0 -0.29761354687E+02 -0.10376807101E+02 -0.48275235844E+01  0.59301931845E+02  0.49999977782E+02 0.  0.
        -12    1    1    2    0    0  0.29761354687E+02  0.10376807101E+02  0.48275235844E+01  0.31886068155E+02  0.00000000000E+00 0.  1.
         11    1    3    3    0    0 -0.82512062740E+01 -0.32718502438E+01  0.29647579134E+01  0.93582690034E+01  0.51100000000E-03 0. -1.
        -11    1    3    3    0    0 -0.25077239432E+02  0.80633374412E+01 -0.17463059974E+02  0.31604490380E+02  0.51100000000E-03 0.  1.
        -12    1    3    3    0    0  0.35670910193E+01 -0.15168294298E+02  0.96707784766E+01  0.18339172462E+02  0.00000000000E+00 0.  1.
</event>
<event>
 7    1  0.1052674E-011  0.5930191E+02  0.7816164E-02  0.1266605E+00
        -11   -1    0    0    0    0  0.00000000000E+00  0.00000000000E+00  0.45593999997E+02  0.45594000000E+02  0.51100000000E-03 0.  1.
         11   -1    0    0    0    0 -0.00000000000E+00 -0.00000000000E+00 -0.45593999997E+02  0.45594000000E+02  0.51100000000E-03 0. -1.
    9900012    2    1    2    0    0  0.25806781100E+02 -0.11786610517E+02 -0.14553638459E+02  0.59301913212E+02  0.49999943800E+02 0.  0.
        -12    1    1    2    0    0 -0.25806781100E+02  0.11786610517E+02  0.14553638459E+02  0.31886086788E+02  0.00000000000E+00 0.  1.
         11    1    3    3    0    0  0.22777049110E+02  0.22807669868E+01 -0.16220736086E+02  0.28055447665E+02  0.51100000000E-03 0. -1.
        -11    1    3    3    0    0  0.20208632422E+01  0.16400077440E+01  0.12091024930E+02  0.12367958513E+02  0.51100000000E-03 0.  1.
        -12    1    3    3    0    0  0.10088687477E+01 -0.15707385247E+02 -0.10423927303E+02  0.18878507035E+02  0.00000000000E+00 0.  1.
</event>
<event>
 7    1  0.1052674E-011  0.5930181E+02  0.7816164E-02  0.1266605E+00
        -11   -1    0    0    0    0  0.00000000000E+00  0.00000000000E+00  0.45593999997E+02  0.45594000000E+02  0.51100000000E-03 0.  1.
         11   -1    0    0    0    0 -0.00000000000E+00 -0.00000000000E+00 -0.45593999997E+02  0.45594000000E+02  0.51100000000E-03 0. -1.
    9900012    2    1    2    0    0 -0.93950235538E+01  0.10410498290E+02 -0.28637108496E+02  0.59301812940E+02  0.49999760927E+02 0.  0.
        -12    1    1    2    0    0  0.93950235538E+01 -0.10410498290E+02  0.28637108496E+02  0.31886187060E+02  0.00000000000E+00 0.  1.
         11    1    3    3    0    0  0.17313683961E+01 -0.12211169169E+01 -0.39578677294E+02  0.39635343566E+02  0.51100000000E-03 0. -1.
        -11    1    3    3    0    0 -0.81784550482E+01  0.65973583750E+01  0.69976604426E+01  0.12624560049E+02  0.51100000000E-03 0.  1.
         12    1    3    3    0    0 -0.29479369017E+01  0.50342568315E+01  0.39439083553E+01  0.70419093246E+01  0.00000000000E+00 0. -1.
</event>
<event>
 7    1  0.1052674E-011  0.5930206E+02  0.7816164E-02  0.1266604E+00
        -11   -1    0    0    0    0  0.00000000000E+00  0.00000000000E+00  0.45593999997E+02  0.45594000000E+02  0.51100000000E-03 0.  1.
         11   -1    0    0    0    0 -0.00000000000E+00 -0.00000000000E+00 -0.45593999997E+02  0.45594000000E+02  0.51100000000E-03 0. -1.
    9900012    2    1    2    0    0  0.26170815516E+02 -0.14488119625E+02 -0.11040657780E+02  0.59302057655E+02  0.50000207228E+02 0.  0.
        -12    1    1    2    0    0 -0.26170815516E+02  0.14488119625E+02  0.11040657780E+02  0.31885942345E+02  0.00000000000E+00 0.  1.
         11    1    3    3    0    0 -0.52562467216E+01 -0.20061960678E+01 -0.16699152717E+02  0.17621425992E+02  0.51100000000E-03 0. -1.
        -11    1    3    3    0    0  0.25663572113E+02 -0.17520553858E+02 -0.16217070061E+01  0.31116212414E+02  0.51100000000E-03 0.  1.
        -12    1    3    3    0    0  0.57634901245E+01  0.50386303012E+01  0.72802019437E+01  0.10564419249E+02  0.00000000000E+00 0.  1.
</event>
<event>
 7    1  0.1052674E-011  0.5930196E+02  0.7816164E-02  0.1266605E+00
        -11   -1    0    0    0    0  0.00000000000E+00  0.00000000000E+00  0.45593999997E+02  0.45594000000E+02  0.51100000000E-03 0.  1.
         11   -1    0    0    0    0 -0.00000000000E+00 -0.00000000000E+00 -0.45593999997E+02  0.45594000000E+02  0.51100000000E-03 0. -1.
    9900012    2    1    2    0    0 -0.11389525340E+02 -0.25598083652E+02 -0.15222881514E+02  0.59301963939E+02  0.50000036313E+02 0.  0.
        -12    1    1    2    0    0  0.11389525340E+02  0.25598083652E+02  0.15222881514E+02  0.31886036061E+02  0.00000000000E+00 0.  1.
         11    1    3    3    0    0 -0.35880305606E+01 -0.57674199640E+01 -0.23910495527E+02  0.24856566395E+02  0.51100000000E-03 0. -1.
        -11    1    3    3    0    0  0.73396953701E+01 -0.14838096854E+02  0.59216912014E+00  0.16564749045E+02  0.51100000000E-03 0.  1.
         12    1    3    3    0    0 -0.15141190150E+02 -0.49925668335E+01  0.80954448931E+01  0.17880648499E+02  0.00000000000E+00 0. -1.
</event>
<event>
 7    1  0.1052674E-011  0.5930201E+02  0.7816164E-02  0.1266605E+00
        -11   -1    0    0    0    0  0.00000000000E+00  0.00000000000E+00  0.45593999997E+02  0.45594000000E+02  0.51100000000E-03 0. -1.
         11   -1    0    0    0    0 -0.00000000000E+00 -0.00000000000E+00 -0.45593999997E+02  0.45594000000E+02  0.51100000000E-03 0.  1.
    9900012    2    1    2    0    0  0.69357703091E+00  0.25230580729E+02  0.19484695241E+02  0.59302006184E+02  0.50000113357E+02 0.  0.
        -12    1    1    2    0    0 -0.69357703091E+00 -0.25230580729E+02 -0.19484695241E+02  0.31885993816E+02  0.00000000000E+00 0.  1.
         11    1    3    3    0    0  0.24178573421E+00 -0.13713039777E+02  0.11359587241E+02  0.17808597441E+02  0.51100000000E-03 0. -1.
        -11    1    3    3    0    0  0.57159888546E+01  0.25422010490E+02  0.36647637122E+01  0.26313145750E+02  0.51100000000E-03 0.  1.
         12    1    3    3    0    0 -0.52641975579E+01  0.13521610016E+02  0.44603442880E+01  0.15180262992E+02  0.00000000000E+00 0. -1.
</event>
<event>
 7    1  0.1052674E-011  0.5930194E+02  0.7816164E-02  0.1266605E+00
        -11   -1    0    0    0    0  0.00000000000E+00  0.00000000000E+00  0.45593999997E+02  0.45594000000E+02  0.51100000000E-03 0. -1.
         11   -1    0    0    0    0 -0.00000000000E+00 -0.00000000000E+00 -0.45593999997E+02  0.45594000000E+02  0.51100000000E-03 0.  1.
    9900012    2    1    2    0    0 -0.15957738788E+02 -0.13000762616E+02  0.24352648280E+02  0.59301941384E+02  0.49999995178E+02 0.  0.
        -12    1    1    2    0    0  0.15957738788E+02  0.13000762616E+02 -0.24352648280E+02  0.31886058616E+02  0.00000000000E+00 0.  1.
         11    1    3    3    0    0 -0.12462171589E+02  0.11679077061E+02  0.15180731221E+01  0.17146752111E+02  0.51100000000E-03 0. -1.
        -11    1    3    3    0    0  0.84751357528E+01 -0.11594628430E+02  0.19323660858E+02  0.24076278858E+02  0.51100000000E-03 0.  1.
        -12    1    3    3    0    0 -0.11970702952E+02 -0.13085211247E+02  0.35109142997E+01  0.18078910414E+02  0.00000000000E+00 0.  1.
</event>
<event>
 7    1  0.1052674E-011  0.5930186E+02  0.7816164E-02  0.1266605E+00
        -11   -1    0    0    0    0  0.00000000000E+00  0.00000000000E+00  0.45593999997E+02  0.45594000000E+02  0.51100000000E-03 0. -1.
         11   -1    0    0    0    0 -0.00000000000E+00 -0.00000000000E+00 -0.45593999997E+02  0.45594000000E+02  0.51100000000E-03 0.  1.
    9900012    2    1    2    0    0  0.13888178002E+02  0.12401023871E+02  0.25885499955E+02  0.59301858980E+02  0.49999844893E+02 0.  0.
        -12    1    1    2    0    0 -0.13888178002E+02 -0.12401023871E+02 -0.25885499955E+02  0.31886141020E+02  0.00000000000E+00 0.  1.
         11    1    3    3    0    0  0.23874335043E+02  0.97020578287E+00  0.30780443151E+02  0.38966150103E+02  0.51100000000E-03 0. -1.
        -11    1    3    3    0    0 -0.79637513369E+01  0.74132433110E+01  0.29675414069E+01  0.11277580149E+02  0.51100000000E-03 0.  1.
         12    1    3    3    0    0 -0.20224057045E+01  0.40175747769E+01 -0.78624846032E+01  0.90581287282E+01  0.00000000000E+00 0. -1.
</event>
<event>
 7    1  0.1052674E-011  0.5930193E+02  0.7816164E-02  0.1266605E+00
        -11   -1    0    0    0    0  0.00000000000E+00  0.00000000000E+00  0.45593999997E+02  0.45594000000E+02  0.51100000000E-03 0. -1.
         11   -1    0    0    0    0 -0.00000000000E+00 -0.00000000000E+00 -0.45593999997E+02  0.45594000000E+02  0.51100000000E-03 0.  1.
    9900012    2    1    2    0    0  0.87447019529E+01 -0.25950474056E+02  0.16334758311E+02  0.59301933371E+02  0.49999980565E+02 0.  0.
        -12    1    1    2    0    0 -0.87447019529E+01  0.25950474056E+02 -0.16334758311E+02  0.31886066629E+02  0.00000000000E+00 0.  1.
         11    1    3    3    0    0 -0.16920185090E+01 -0.30343111227E+02  0.18693157260E+02  0.35679145929E+02  0.51100000000E-03 0. -1.
        -11    1    3    3    0    0  0.13264971645E+02  0.20754363456E+01  0.58434785333E+01  0.14642853220E+02  0.51100000000E-03 0.  1.
         12    1    3    3    0    0 -0.28282511836E+01  0.23172008262E+01 -0.82018774816E+01  0.89799342230E+01  0.00000000000E+00 0. -1.
</event>
<event>
 7    1  0.1052674E-011  0.5930196E+02  0.7816164E-02  0.1266605E+00
        -11   -1    0    0    0    0  0.00000000000E+00  0.00000000000E+00  0.45593999997E+02  0.45594000000E+02  0.51100000000E-03 0.  1.
         11   -1    0    0    0    0 -0.00000000000E+00 -0.00000000000E+00 -0.45593999997E+02  0.45594000000E+02  0.51100000000E-03 0. -1.
    9900012    2    1    2    0    0  0.21080047604E+02  0.19109071037E+02 -0.14394258521E+02  0.59301957893E+02  0.50000025288E+02 0.  0.
        -12    1    1    2    0    0 -0.21080047604E+02 -0.19109071037E+02  0.14394258521E+02  0.31886042107E+02  0.00000000000E+00 0.  1.
         11    1    3    3    0    0  0.30348304668E+02  0.19996380503E+01 -0.16185625802E+02  0.34452759417E+02  0.51100000000E-03 0. -1.
        -11    1    3    3    0    0 -0.62351293012E+01  0.17345983433E+02  0.62396479583E+01  0.19460040739E+02  0.51100000000E-03 0.  1.
         12    1    3    3    0    0 -0.30331277637E+01 -0.23655044580E+00 -0.44482806767E+01  0.53891577378E+01  0.00000000000E+00 0. -1.
</event>
<event>
 7    1  0.1052674E-011  0.5930193E+02  0.7816164E-02  0.1266605E+00
        -11   -1    0    0    0    0  0.00000000000E+00  0.00000000000E+00  0.45593999997E+02  0.45594000000E+02  0.51100000000E-03 0.  1.
         11   -1    0    0    0    0 -0.00000000000E+00 -0.00000000000E+00 -0.45593999997E+02  0.45594000000E+02  0.51100000000E-03 0. -1.
    9900012    2    1    2    0    0 -0.24909543701E+02 -0.19240083930E+02  0.51044565987E+01  0.59301926642E+02  0.49999968292E+02 0.  0.
        -12    1    1    2    0    0  0.24909543701E+02  0.19240083930E+02 -0.51044565987E+01  0.31886073358E+02  0.00000000000E+00 0.  1.
         11    1    3    3    0    0 -0.34017828873E+01 -0.84625526990E+01  0.26477653089E+01  0.94972409882E+01  0.51100000000E-03 0. -1.
        -11    1    3    3    0    0 -0.90847365498E+01 -0.14261494129E+01 -0.20275353458E+02  0.22263339786E+02  0.51100000000E-03 0.  1.
        -12    1    3    3    0    0 -0.12423024264E+02 -0.93513818186E+01  0.22732044748E+02  0.27541345867E+02  0.00000000000E+00 0.  1.
</event>
<event>
 7    1  0.1052674E-011  0.5930188E+02  0.7816164E-02  0.1266605E+00
        -11   -1    0    0    0    0  0.00000000000E+00  0.00000000000E+00  0.45593999997E+02  0.45594000000E+02  0.51100000000E-03 0.  1.
         11   -1    0    0    0    0 -0.00000000000E+00 -0.00000000000E+00 -0.45593999997E+02  0.45594000000E+02  0.51100000000E-03 0. -1.
    9900012    2    1    2    0    0  0.10081835142E+02  0.21454618003E+02 -0.21325587022E+02  0.59301879269E+02  0.49999881895E+02 0.  0.
        -12    1    1    2    0    0 -0.10081835142E+02 -0.21454618003E+02  0.21325587022E+02  0.31886120731E+02  0.00000000000E+00 0.  1.
         11    1    3    3    0    0  0.18491987163E+01 -0.32900211473E+01 -0.27205366708E+02  0.27465901643E+02  0.51100000000E-03 0. -1.
        -11    1    3    3    0    0  0.28622165722E+01  0.11107954897E+02  0.11402463383E+02  0.16173902348E+02  0.51100000000E-03 0.  1.
         12    1    3    3    0    0  0.53704198535E+01  0.13636684253E+02 -0.55226836962E+01  0.15662075278E+02  0.00000000000E+00 0. -1.
</event>
<event>
 7    1  0.1052674E-011  0.5930194E+02  0.7816164E-02  0.1266605E+00
        -11   -1    0    0    0    0  0.00000000000E+00  0.00000000000E+00  0.45593999997E+02  0.45594000000E+02  0.51100000000E-03 0.  1.
         11   -1    0    0    0    0 -0.00000000000E+00 -0.00000000000E+00 -0.45593999997E+02  0.45594000000E+02  0.51100000000E-03 0. -1.
    9900012    2    1    2    0    0  0.22721601339E+02 -0.19334224215E+02 -0.11253336334E+02  0.59301937652E+02  0.49999988372E+02 0.  0.
        -12    1    1    2    0    0 -0.22721601339E+02  0.19334224215E+02  0.11253336334E+02  0.31886062348E+02  0.00000000000E+00 0.  1.
         11    1    3    3    0    0 -0.18513126381E+01  0.13311166654E+02 -0.10432924208E+02  0.17013536492E+02  0.51100000000E-03 0. -1.
        -11    1    3    3    0    0  0.93677905203E+01 -0.14303980453E+02  0.49001389726E+01  0.17786813044E+02  0.51100000000E-03 0.  1.
         12    1    3    3    0    0  0.15205123457E+02 -0.18341410416E+02 -0.57205510988E+01  0.24501588117E+02  0.00000000000E+00 0. -1.
</event>
<event>
 7    1  0.1052674E-011  0.5930194E+02  0.7816164E-02  0.1266605E+00
        -11   -1    0    0    0    0  0.00000000000E+00  0.00000000000E+00  0.45593999997E+02  0.45594000000E+02  0.51100000000E-03 0.  1.
         11   -1    0    0    0    0 -0.00000000000E+00 -0.00000000000E+00 -0.45593999997E+02  0.45594000000E+02  0.51100000000E-03 0. -1.
    9900012    2    1    2    0    0  0.14286334977E+02 -0.23630198951E+01 -0.28408408372E+02  0.59301938839E+02  0.49999990537E+02 0.  0.
        -12    1    1    2    0    0 -0.14286334977E+02  0.23630198951E+01  0.28408408372E+02  0.31886061161E+02  0.00000000000E+00 0.  1.
         11    1    3    3    0    0  0.96269280091E+01  0.41066744559E+00  0.86062453782E+01  0.12919514326E+02  0.51100000000E-03 0. -1.
        -11    1    3    3    0    0  0.58920004271E+01 -0.12560391153E+02 -0.86446924119E+01  0.16346553218E+02  0.51100000000E-03 0.  1.
         12    1    3    3    0    0 -0.12325934587E+01  0.97867038119E+01 -0.28369961339E+02  0.30035871296E+02  0.00000000000E+00 0. -1.
</event>
<event>
 7    1  0.1052674E-011  0.5930202E+02  0.7816164E-02  0.1266605E+00
        -11   -1    0    0    0    0  0.00000000000E+00  0.00000000000E+00  0.45593999997E+02  0.45594000000E+02  0.51100000000E-03 0. -1.
         11   -1    0    0    0    0 -0.00000000000E+00 -0.00000000000E+00 -0.45593999997E+02  0.45594000000E+02  0.51100000000E-03 0.  1.
    9900012    2    1    2    0    0 -0.14490984432E+02  0.37253018217E+01  0.28157580249E+02  0.59302018300E+02  0.50000135455E+02 0.  0.
        -12    1    1    2    0    0  0.14490984432E+02 -0.37253018217E+01 -0.28157580249E+02  0.31885981700E+02  0.00000000000E+00 0.  1.
         11    1    3    3    0    0 -0.15045802645E+02 -0.45123806999E+01  0.17110428411E+02  0.23227236545E+02  0.51100000000E-03 0. -1.
        -11    1    3    3    0    0  0.78791471211E+01  0.19429403852E+02  0.67816591446E+01  0.22035734487E+02  0.51100000000E-03 0.  1.
        -12    1    3    3    0    0 -0.73243289079E+01 -0.11191721330E+02  0.42654926933E+01  0.14039047268E+02  0.00000000000E+00 0.  1.
</event>
<event>
 7    1  0.1052674E-011  0.5930196E+02  0.7816164E-02  0.1266605E+00
        -11   -1    0    0    0    0  0.00000000000E+00  0.00000000000E+00  0.45593999997E+02  0.45594000000E+02  0.51100000000E-03 0. -1.
         11   -1    0    0    0    0 -0.00000000000E+00 -0.00000000000E+00 -0.45593999997E+02  0.45594000000E+02  0.51100000000E-03 0.  1.
    9900012    2    1    2    0    0  0.98199133284E+01 -0.20791977485E+02  0.22090330090E+02  0.59301957458E+02  0.50000024493E+02 0.  0.
        -12    1    1    2    0    0 -0.98199133284E+01  0.20791977485E+02 -0.22090330090E+02  0.31886042542E+02  0.00000000000E+00 0.  1.
         11    1    3    3    0    0  0.44387287522E+01  0.73977519598E+01  0.27312274825E+02  0.28642440597E+02  0.51100000000E-03 0. -1.
        -11    1    3    3    0    0  0.70559003117E+01 -0.26935904601E+02 -0.37378103409E+01  0.28094481884E+02  0.51100000000E-03 0.  1.
        -12    1    3    3    0    0 -0.16747157355E+01 -0.12538248436E+01 -0.14841343939E+01  0.25650349768E+01  0.00000000000E+00 0.  1.
</event>
<event>
 7    1  0.1052674E-011  0.5930202E+02  0.7816164E-02  0.1266605E+00
        -11   -1    0    0    0    0  0.00000000000E+00  0.00000000000E+00  0.45593999997E+02  0.45594000000E+02  0.51100000000E-03 0.  1.
         11   -1    0    0    0    0 -0.00000000000E+00 -0.00000000000E+00 -0.45593999997E+02  0.45594000000E+02  0.51100000000E-03 0. -1.
    9900012    2    1    2    0    0 -0.74583452003E+01  0.23543211443E+02 -0.20169435971E+02  0.59302017726E+02  0.50000134408E+02 0.  0.
        -12    1    1    2    0    0  0.74583452003E+01 -0.23543211443E+02  0.20169435971E+02  0.31885982274E+02  0.00000000000E+00 0.  1.
         11    1    3    3    0    0  0.16367995781E+02  0.12006962661E+01 -0.27149502653E+01  0.16635020667E+02  0.51100000000E-03 0. -1.
        -11    1    3    3    0    0 -0.11469450585E+02  0.11447790536E+02  0.29197776401E+01  0.16465883110E+02  0.51100000000E-03 0.  1.
         12    1    3    3    0    0 -0.12356890396E+02  0.10894724641E+02 -0.20374263346E+02  0.26201113948E+02  0.00000000000E+00 0. -1.
</event>
<event>
 7    1  0.1052674E-011  0.5930196E+02  0.7816164E-02  0.1266605E+00
        -11   -1    0    0    0    0  0.00000000000E+00  0.00000000000E+00  0.45593999997E+02  0.45594000000E+02  0.51100000000E-03 0. -1.
         11   -1    0    0    0    0 -0.00000000000E+00 -0.00000000000E+00 -0.45593999997E+02  0.45594000000E+02  0.51100000000E-03 0.  1.
    9900012    2    1    2    0    0 -0.16837906925E+02  0.26355781358E+02 -0.62110467539E+01  0.59301961952E+02  0.50000032689E+02 0.  0.
        -12    1    1    2    0    0  0.16837906925E+02 -0.26355781358E+02  0.62110467539E+01  0.31886038048E+02  0.00000000000E+00 0.  1.
         11    1    3    3    0    0  0.72362942688E+01  0.30750750792E+02 -0.16498248503E+01  0.31633756516E+02  0.51100000000E-03 0. -1.
        -11    1    3    3    0    0 -0.41530768683E+01 -0.42256470468E+01  0.26377955504E+01  0.64855305153E+01  0.51100000000E-03 0.  1.
         12    1    3    3    0    0 -0.19921124326E+02 -0.16932238709E+00 -0.71990174541E+01  0.21182674920E+02  0.00000000000E+00 0. -1.
</event>
<event>
 7    1  0.1052674E-011  0.5930194E+02  0.7816164E-02  0.1266605E+00
        -11   -1    0    0    0    0  0.00000000000E+00  0.00000000000E+00  0.45593999997E+02  0.45594000000E+02  0.51100000000E-03 0. -1.
         11   -1    0    0    0    0 -0.00000000000E+00 -0.00000000000E+00 -0.45593999997E+02  0.45594000000E+02  0.51100000000E-03 0.  1.
    9900012    2    1    2    0    0  0.15536487830E+02  0.21496151799E+02  0.17698969315E+02  0.59301944880E+02  0.50000001555E+02 0.  0.
        -12    1    1    2    0    0 -0.15536487830E+02 -0.21496151799E+02 -0.17698969315E+02  0.31886055120E+02  0.00000000000E+00 0.  1.
         11    1    3    3    0    0  0.33797745924E+01 -0.30748837832E+00 -0.61718264068E+01  0.70433562210E+01  0.51100000000E-03 0. -1.
        -11    1    3    3    0    0  0.15096648169E+02  0.31493156226E+02  0.23559475622E+02  0.42128097119E+02  0.51100000000E-03 0.  1.
        -12    1    3    3    0    0 -0.29399349307E+01 -0.96895160485E+01  0.31132010030E+00  0.10130491541E+02  0.00000000000E+00 0.  1.
</event>
<event>
 7    1  0.1052674E-011  0.5930191E+02  0.7816164E-02  0.1266605E+00
        -11   -1    0    0    0    0  0.00000000000E+00  0.00000000000E+00  0.45593999997E+02  0.45594000000E+02  0.51100000000E-03 0. -1.
         11   -1    0    0    0    0 -0.00000000000E+00 -0.00000000000E+00 -0.45593999997E+02  0.45594000000E+02  0.51100000000E-03 0.  1.
    9900012    2    1    2    0    0 -0.22892137948E+02  0.19856049809E+02  0.99201993935E+01  0.59301905071E+02  0.49999928952E+02 0.  0.
        -12    1    1    2    0    0  0.22892137948E+02 -0.19856049809E+02 -0.99201993935E+01  0.31886094929E+02  0.00000000000E+00 0.  1.
         11    1    3    3    0    0 -0.13910985158E+02 -0.38860322962E+00  0.21147398744E+02  0.25315587973E+02  0.51100000000E-03 0. -1.
        -11    1    3    3    0    0 -0.10239809553E+01  0.56436522399E+01 -0.15743201166E+02  0.16755528366E+02  0.51100000000E-03 0.  1.
        -12    1    3    3    0    0 -0.79571718342E+01  0.14601000799E+02  0.45160018155E+01  0.17230788732E+02  0.00000000000E+00 0.  1.
</event>
<event>
 7    1  0.1052674E-011  0.5930195E+02  0.7816164E-02  0.1266605E+00
        -11   -1    0    0    0    0  0.00000000000E+00  0.00000000000E+00  0.45593999997E+02  0.45594000000E+02  0.51100000000E-03 0.  1.
         11   -1    0    0    0    0 -0.00000000000E+00 -0.00000000000E+00 -0.45593999997E+02  0.45594000000E+02  0.51100000000E-03 0. -1.
    9900012    2    1    2    0    0  0.18126992894E+02  0.93095044002E+01 -0.24524786954E+02  0.59301954169E+02  0.50000018496E+02 0.  0.
        -12    1    1    2    0    0 -0.18126992894E+02 -0.93095044002E+01  0.24524786954E+02  0.31886045831E+02  0.00000000000E+00 0.  1.
         11    1    3    3    0    0 -0.78517306985E+01  0.10498570417E+02 -0.20079493181E+02  0.23980319065E+02  0.51100000000E-03 0. -1.
        -11    1    3    3    0    0  0.19492571495E+01 -0.92473334619E+01 -0.30818245525E+01  0.99403431744E+01  0.51100000000E-03 0.  1.
        -12    1    3    3    0    0  0.24029466443E+02  0.80582674448E+01 -0.13634692205E+01  0.25381291930E+02  0.00000000000E+00 0.  1.
</event>
<event>
 7    1  0.1052674E-011  0.5930198E+02  0.7816164E-02  0.1266605E+00
        -11   -1    0    0    0    0  0.00000000000E+00  0.00000000000E+00  0.45593999997E+02  0.45594000000E+02  0.51100000000E-03 0.  1.
         11   -1    0    0    0    0 -0.00000000000E+00 -0.00000000000E+00 -0.45593999997E+02  0.45594000000E+02  0.51100000000E-03 0. -1.
    9900012    2    1    2    0    0 -0.21207337823E+02 -0.31080523309E+01 -0.23607358795E+02  0.59301975536E+02  0.50000057464E+02 0.  0.
        -12    1    1    2    0    0  0.21207337823E+02  0.31080523309E+01  0.23607358795E+02  0.31886024464E+02  0.00000000000E+00 0.  1.
         11    1    3    3    0    0  0.64532826412E+01  0.15655042757E+02 -0.95414802157E+01  0.19436179294E+02  0.51100000000E-03 0.  1.
        -11    1    3    3    0    0 -0.28140909381E+01 -0.10843770040E+02 -0.48414305960E+01  0.12204339678E+02  0.51100000000E-03 0. -1.
         12    1    3    3    0    0 -0.24846529526E+02 -0.79193250475E+01 -0.92244479832E+01  0.27661456565E+02  0.00000000000E+00 0. -1.
</event>
<event>
 7    1  0.1052674E-011  0.5930194E+02  0.7816164E-02  0.1266605E+00
        -11   -1    0    0    0    0  0.00000000000E+00  0.00000000000E+00  0.45593999997E+02  0.45594000000E+02  0.51100000000E-03 0.  1.
         11   -1    0    0    0    0 -0.00000000000E+00 -0.00000000000E+00 -0.45593999997E+02  0.45594000000E+02  0.51100000000E-03 0. -1.
    9900012    2    1    2    0    0 -0.13441124526E+02  0.23625630695E+02 -0.16669935967E+02  0.59301936910E+02  0.49999987018E+02 0.  0.
        -12    1    1    2    0    0  0.13441124526E+02 -0.23625630695E+02  0.16669935967E+02  0.31886063090E+02  0.00000000000E+00 0.  1.
         11    1    3    3    0    0 -0.44486425081E+01  0.13676478812E+02 -0.22778952520E+02  0.26939138275E+02  0.51100000000E-03 0. -1.
        -11    1    3    3    0    0 -0.13961565160E+01 -0.10174687332E+02  0.21009423467E+01  0.10482722658E+02  0.51100000000E-03 0.  1.
        -12    1    3    3    0    0 -0.75963255022E+01  0.20123839215E+02  0.40080742062E+01  0.21880075976E+02  0.00000000000E+00 0.  1.
</event>
<event>
 7    1  0.1052674E-011  0.5930197E+02  0.7816164E-02  0.1266605E+00
        -11   -1    0    0    0    0  0.00000000000E+00  0.00000000000E+00  0.45593999997E+02  0.45594000000E+02  0.51100000000E-03 0. -1.
         11   -1    0    0    0    0 -0.00000000000E+00 -0.00000000000E+00 -0.45593999997E+02  0.45594000000E+02  0.51100000000E-03 0.  1.
    9900012    2    1    2    0    0  0.13850817888E+02  0.19298443523E+02  0.21270729813E+02  0.59301968178E+02  0.50000044044E+02 0.  0.
        -12    1    1    2    0    0 -0.13850817888E+02 -0.19298443523E+02 -0.21270729813E+02  0.31886031822E+02  0.00000000000E+00 0.  1.
         11    1    3    3    0    0  0.25057421248E+02  0.23665651649E+02  0.20798472426E+02  0.40255606853E+02  0.51100000000E-03 0. -1.
        -11    1    3    3    0    0 -0.10937587103E+02 -0.19497317876E+01 -0.56459933780E+01  0.12462323506E+02  0.51100000000E-03 0.  1.
         12    1    3    3    0    0 -0.26901625715E+00 -0.24174763379E+01  0.61182507643E+01  0.65840378193E+01  0.00000000000E+00 0. -1.
</event>
<event>
 7    1  0.1052674E-011  0.5930165E+02  0.7816164E-02  0.1266606E+00
        -11   -1    0    0    0    0  0.00000000000E+00  0.00000000000E+00  0.45593999997E+02  0.45594000000E+02  0.51100000000E-03 0.  1.
         11   -1    0    0    0    0 -0.00000000000E+00 -0.00000000000E+00 -0.45593999997E+02  0.45594000000E+02  0.51100000000E-03 0. -1.
    9900012    2    1    2    0    0  0.25830334309E+02 -0.19074652894E+01 -0.18598250059E+02  0.59301647126E+02  0.49999458519E+02 0.  0.
        -12    1    1    2    0    0 -0.25830334309E+02  0.19074652894E+01  0.18598250059E+02  0.31886352874E+02  0.00000000000E+00 0.  1.
         11    1    3    3    0    0  0.52212838440E+01 -0.16798751549E+02 -0.12221383946E+02  0.21420132689E+02  0.51100000000E-03 0. -1.
        -11    1    3    3    0    0  0.11372356813E+02  0.15322102128E+02  0.80790636224E+01  0.20721210930E+02  0.51100000000E-03 0.  1.
         12    1    3    3    0    0  0.92366936524E+01 -0.43081586832E+00 -0.14455929735E+02  0.17160303507E+02  0.00000000000E+00 0. -1.
</event>
<event>
 7    1  0.1052674E-011  0.5930193E+02  0.7816164E-02  0.1266605E+00
        -11   -1    0    0    0    0  0.00000000000E+00  0.00000000000E+00  0.45593999997E+02  0.45594000000E+02  0.51100000000E-03 0.  1.
         11   -1    0    0    0    0 -0.00000000000E+00 -0.00000000000E+00 -0.45593999997E+02  0.45594000000E+02  0.51100000000E-03 0. -1.
    9900012    2    1    2    0    0  0.17215358715E+02 -0.76226985784E+00 -0.26828564264E+02  0.59301929507E+02  0.49999973517E+02 0.  0.
        -12    1    1    2    0    0 -0.17215358715E+02  0.76226985784E+00  0.26828564264E+02  0.31886070493E+02  0.00000000000E+00 0.  1.
         11    1    3    3    0    0 -0.47913852558E+01  0.86164369497E+01 -0.29303349503E+02  0.30917416625E+02  0.51100000000E-03 0. -1.
        -11    1    3    3    0    0 -0.58428890999E+00  0.31514917444E+00  0.37114860713E+01  0.37703901192E+01  0.51100000000E-03 0.  1.
         12    1    3    3    0    0  0.22591032881E+02 -0.96938559820E+01 -0.12367008322E+01  0.24614122763E+02  0.00000000000E+00 0. -1.
</event>
<event>
 7    1  0.1052674E-011  0.5930206E+02  0.7816164E-02  0.1266604E+00
        -11   -1    0    0    0    0  0.00000000000E+00  0.00000000000E+00  0.45593999997E+02  0.45594000000E+02  0.51100000000E-03 0.  1.
         11   -1    0    0    0    0 -0.00000000000E+00 -0.00000000000E+00 -0.45593999997E+02  0.45594000000E+02  0.51100000000E-03 0. -1.
    9900012    2    1    2    0    0 -0.14726432262E+02  0.17312072135E+02 -0.22363748951E+02  0.59302063979E+02  0.50000218762E+02 0.  0.
        -12    1    1    2    0    0  0.14726432262E+02 -0.17312072135E+02  0.22363748951E+02  0.31885936021E+02  0.00000000000E+00 0.  1.
         11    1    3    3    0    0 -0.66473245907E+01  0.11631747029E+02 -0.61542584192E+01  0.14743112294E+02  0.51100000000E-03 0. -1.
        -11    1    3    3    0    0  0.11507004708E+02  0.86441354880E+01 -0.19748356175E+02  0.24436239637E+02  0.51100000000E-03 0.  1.
        -12    1    3    3    0    0 -0.19586112380E+02 -0.29638103825E+01  0.35388656432E+01  0.20122712049E+02  0.00000000000E+00 0.  1.
</event>
<event>
 7    1  0.1052674E-011  0.5930192E+02  0.7816164E-02  0.1266605E+00
        -11   -1    0    0    0    0  0.00000000000E+00  0.00000000000E+00  0.45593999997E+02  0.45594000000E+02  0.51100000000E-03 0.  1.
         11   -1    0    0    0    0 -0.00000000000E+00 -0.00000000000E+00 -0.45593999997E+02  0.45594000000E+02  0.51100000000E-03 0. -1.
    9900012    2    1    2    0    0  0.10080156316E+02 -0.15224116449E+02  0.26140754030E+02  0.59301916919E+02  0.49999950560E+02 0.  0.
        -12    1    1    2    0    0 -0.10080156316E+02  0.15224116449E+02 -0.26140754030E+02  0.31886083081E+02  0.00000000000E+00 0.  1.
         11    1    3    3    0    0  0.52774886124E+00  0.25353956903E+01  0.30689041805E+01  0.40155850504E+01  0.51100000000E-03 0. -1.
        -11    1    3    3    0    0  0.40248863909E+01 -0.24972970369E+02  0.33161264137E+02  0.41707534079E+02  0.51100000000E-03 0.  1.
        -12    1    3    3    0    0  0.55275210636E+01  0.72134582298E+01 -0.10089414287E+02  0.13578797789E+02  0.00000000000E+00 0.  1.
</event>
<event>
 7    1  0.1052674E-011  0.5930183E+02  0.7816164E-02  0.1266605E+00
        -11   -1    0    0    0    0  0.00000000000E+00  0.00000000000E+00  0.45593999997E+02  0.45594000000E+02  0.51100000000E-03 0.  1.
         11   -1    0    0    0    0 -0.00000000000E+00 -0.00000000000E+00 -0.45593999997E+02  0.45594000000E+02  0.51100000000E-03 0. -1.
    9900012    2    1    2    0    0  0.84663882341E+01  0.11505494773E+02 -0.28507401785E+02  0.59301825939E+02  0.49999784634E+02 0.  0.
        -12    1    1    2    0    0 -0.84663882341E+01 -0.11505494773E+02  0.28507401785E+02  0.31886174061E+02  0.00000000000E+00 0.  1.
         11    1    3    3    0    0  0.70686479926E+01  0.10023085088E+02 -0.25031521281E+02  0.27874810799E+02  0.51100000000E-03 0. -1.
        -11    1    3    3    0    0 -0.12204181990E+02 -0.44471750307E+01  0.54774299067E+01  0.14096867115E+02  0.51100000000E-03 0.  1.
        -12    1    3    3    0    0  0.13601922232E+02  0.59295847153E+01 -0.89533104105E+01  0.17330148026E+02  0.00000000000E+00 0.  1.
</event>
<event>
 7    1  0.1052674E-011  0.5930191E+02  0.7816164E-02  0.1266605E+00
        -11   -1    0    0    0    0  0.00000000000E+00  0.00000000000E+00  0.45593999997E+02  0.45594000000E+02  0.51100000000E-03 0. -1.
         11   -1    0    0    0    0 -0.00000000000E+00 -0.00000000000E+00 -0.45593999997E+02  0.45594000000E+02  0.51100000000E-03 0.  1.
    9900012    2    1    2    0    0 -0.77104588772E+01  0.22051121978E+02  0.21702981276E+02  0.59301912864E+02  0.49999943165E+02 0.  0.
        -12    1    1    2    0    0  0.77104588772E+01 -0.22051121978E+02 -0.21702981276E+02  0.31886087136E+02  0.00000000000E+00 0.  1.
         11    1    3    3    0    0  0.99982724131E+01  0.56244083927E+01  0.73330224794E+01  0.13615162135E+02  0.51100000000E-03 0. -1.
        -11    1    3    3    0    0 -0.14996644133E+02 -0.61529592994E+01 -0.37155593901E+01  0.16630202200E+02  0.51100000000E-03 0.  1.
        -12    1    3    3    0    0 -0.27120871574E+01  0.22579672885E+02  0.18085518186E+02  0.29056548529E+02  0.00000000000E+00 0.  1.
</event>
<event>
 7    1  0.1052674E-011  0.5930193E+02  0.7816164E-02  0.1266605E+00
        -11   -1    0    0    0    0  0.00000000000E+00  0.00000000000E+00  0.45593999997E+02  0.45594000000E+02  0.51100000000E-03 0.  1.
         11   -1    0    0    0    0 -0.00000000000E+00 -0.00000000000E+00 -0.45593999997E+02  0.45594000000E+02  0.51100000000E-03 0. -1.
    9900012    2    1    2    0    0 -0.10659931850E+02 -0.20409614887E+02  0.22057538541E+02  0.59301928850E+02  0.49999972320E+02 0.  0.
        -12    1    1    2    0    0  0.10659931850E+02  0.20409614887E+02 -0.22057538541E+02  0.31886071150E+02  0.00000000000E+00 0.  1.
         11    1    3    3    0    0 -0.68763527639E+01 -0.93955069193E+01  0.17512712495E+02  0.21029856795E+02  0.51100000000E-03 0. -1.
        -11    1    3    3    0    0  0.11442289881E+02  0.51024628071E+01 -0.58002499863E+01  0.13805941641E+02  0.51100000000E-03 0.  1.
        -12    1    3    3    0    0 -0.15225868967E+02 -0.16116570775E+02  0.10345076032E+02  0.24466130414E+02  0.00000000000E+00 0.  1.
</event>
<event>
 7    1  0.1052674E-011  0.5930195E+02  0.7816164E-02  0.1266605E+00
        -11   -1    0    0    0    0  0.00000000000E+00  0.00000000000E+00  0.45593999997E+02  0.45594000000E+02  0.51100000000E-03 0.  1.
         11   -1    0    0    0    0 -0.00000000000E+00 -0.00000000000E+00 -0.45593999997E+02  0.45594000000E+02  0.51100000000E-03 0. -1.
    9900012    2    1    2    0    0 -0.18534541623E+02  0.20378986556E+02  0.16058878733E+02  0.59301954268E+02  0.50000018676E+02 0.  0.
        -12    1    1    2    0    0  0.18534541623E+02 -0.20378986556E+02 -0.16058878733E+02  0.31886045732E+02  0.00000000000E+00 0.  1.
         11    1    3    3    0    0  0.69139213303E+01  0.18475102173E+02 -0.58933638911E+01  0.20587944207E+02  0.51100000000E-03 0. -1.
        -11    1    3    3    0    0 -0.20912765140E+02  0.89377394297E+01  0.19592630510E+02  0.30018296129E+02  0.51100000000E-03 0.  1.
        -12    1    3    3    0    0 -0.45356978134E+01 -0.70338550460E+01  0.23596121141E+01  0.86957139323E+01  0.00000000000E+00 0.  1.
</event>
<event>
 7    1  0.1052674E-011  0.5930195E+02  0.7816164E-02  0.1266605E+00
        -11   -1    0    0    0    0  0.00000000000E+00  0.00000000000E+00  0.45593999997E+02  0.45594000000E+02  0.51100000000E-03 0.  1.
         11   -1    0    0    0    0 -0.00000000000E+00 -0.00000000000E+00 -0.45593999997E+02  0.45594000000E+02  0.51100000000E-03 0. -1.
    9900012    2    1    2    0    0  0.14533062544E+02 -0.27265902672E+02 -0.78791388342E+01  0.59301950007E+02  0.50000010904E+02 0.  0.
        -12    1    1    2    0    0 -0.14533062544E+02  0.27265902672E+02  0.78791388342E+01  0.31886049993E+02  0.00000000000E+00 0.  1.
         11    1    3    3    0    0  0.25191744497E+02 -0.43457073826E+00 -0.82312154060E+01  0.26505956875E+02  0.51100000000E-03 0. -1.
        -11    1    3    3    0    0 -0.11870896041E+02 -0.93166851054E+01 -0.13846963871E+01  0.15153751301E+02  0.51100000000E-03 0.  1.
         12    1    3    3    0    0  0.12122140880E+01 -0.17514646828E+02  0.17367729589E+01  0.17642241831E+02  0.00000000000E+00 0. -1.
</event>
<event>
 7    1  0.1052674E-011  0.5930196E+02  0.7816164E-02  0.1266605E+00
        -11   -1    0    0    0    0  0.00000000000E+00  0.00000000000E+00  0.45593999997E+02  0.45594000000E+02  0.51100000000E-03 0. -1.
         11   -1    0    0    0    0 -0.00000000000E+00 -0.00000000000E+00 -0.45593999997E+02  0.45594000000E+02  0.51100000000E-03 0.  1.
    9900012    2    1    2    0    0 -0.76048042137E+01 -0.30222876318E+02  0.67427124269E+01  0.59301961191E+02  0.50000031302E+02 0.  0.
        -12    1    1    2    0    0  0.76048042137E+01  0.30222876318E+02 -0.67427124269E+01  0.31886038809E+02  0.00000000000E+00 0.  1.
         11    1    3    3    0    0  0.20887882225E+02 -0.19025042630E+02  0.43720124671E+01  0.28589689824E+02  0.51100000000E-03 0. -1.
        -11    1    3    3    0    0 -0.58920366085E+01 -0.22779607555E+01  0.74337705610E+00  0.63606454317E+01  0.51100000000E-03 0.  1.
         12    1    3    3    0    0 -0.22600649831E+02 -0.89198729318E+01  0.16273229038E+01  0.24351625936E+02  0.00000000000E+00 0. -1.
</event>
<event>
 7    1  0.1052674E-011  0.5930194E+02  0.7816164E-02  0.1266605E+00
        -11   -1    0    0    0    0  0.00000000000E+00  0.00000000000E+00  0.45593999997E+02  0.45594000000E+02  0.51100000000E-03 0.  1.
         11   -1    0    0    0    0 -0.00000000000E+00 -0.00000000000E+00 -0.45593999997E+02  0.45594000000E+02  0.51100000000E-03 0. -1.
    9900012    2    1    2    0    0  0.25434522388E+02 -0.16489168018E+02 -0.98951199345E+01  0.59301937378E+02  0.49999987872E+02 0.  0.
        -12    1    1    2    0    0 -0.25434522388E+02  0.16489168018E+02  0.98951199345E+01  0.31886062622E+02  0.00000000000E+00 0.  1.
         11    1    3    3    0    0  0.50449897604E+00 -0.67258225515E+01 -0.22298103501E+02  0.23295850021E+02  0.51100000000E-03 0. -1.
        -11    1    3    3    0    0  0.22968010951E+02 -0.12551756716E+02  0.16295013644E+02  0.30831860041E+02  0.51100000000E-03 0.  1.
        -12    1    3    3    0    0  0.19620124611E+01  0.27884112489E+01 -0.38920300776E+01  0.51742273158E+01  0.00000000000E+00 0.  1.
</event>
<event>
 7    1  0.1052674E-011  0.5930196E+02  0.7816164E-02  0.1266605E+00
        -11   -1    0    0    0    0  0.00000000000E+00  0.00000000000E+00  0.45593999997E+02  0.45594000000E+02  0.51100000000E-03 0.  1.
         11   -1    0    0    0    0 -0.00000000000E+00 -0.00000000000E+00 -0.45593999997E+02  0.45594000000E+02  0.51100000000E-03 0. -1.
    9900012    2    1    2    0    0  0.83138972514E+01  0.21681826445E+02 -0.21851705627E+02  0.59301960354E+02  0.50000029775E+02 0.  0.
        -12    1    1    2    0    0 -0.83138972514E+01 -0.21681826445E+02  0.21851705627E+02  0.31886039646E+02  0.00000000000E+00 0.  1.
         11    1    3    3    0    0  0.22579711551E+02  0.10203728602E+01 -0.87932249473E+01  0.24252944971E+02  0.51100000000E-03 0. -1.
        -11    1    3    3    0    0 -0.11909522403E+02  0.21063278026E+02 -0.26178686229E+01  0.24338275236E+02  0.51100000000E-03 0.  1.
        -12    1    3    3    0    0 -0.23562918971E+01 -0.40182444107E+00 -0.10440612056E+02  0.10710740147E+02  0.00000000000E+00 0.  1.
</event>
<event>
 7    1  0.1052674E-011  0.5930201E+02  0.7816164E-02  0.1266605E+00
        -11   -1    0    0    0    0  0.00000000000E+00  0.00000000000E+00  0.45593999997E+02  0.45594000000E+02  0.51100000000E-03 0. -1.
         11   -1    0    0    0    0 -0.00000000000E+00 -0.00000000000E+00 -0.45593999997E+02  0.45594000000E+02  0.51100000000E-03 0.  1.
    9900012    2    1    2    0    0  0.11084929640E+02 -0.21281143204E+02  0.20998899597E+02  0.59302007691E+02  0.50000116107E+02 0.  0.
        -12    1    1    2    0    0 -0.11084929640E+02  0.21281143204E+02 -0.20998899597E+02  0.31885992309E+02  0.00000000000E+00 0.  1.
         11    1    3    3    0    0 -0.86780225146E+01  0.52228848851E+01  0.41954283374E+01  0.10963038834E+02  0.51100000000E-03 0. -1.
        -11    1    3    3    0    0  0.70104557674E+01 -0.30007710616E+02  0.16833765271E+02  0.35113883863E+02  0.51100000000E-03 0.  1.
         12    1    3    3    0    0  0.12752496388E+02  0.35036825270E+01 -0.30294011141E-01  0.13225084994E+02  0.00000000000E+00 0. -1.
</event>
<event>
 7    1  0.1052674E-011  0.5930195E+02  0.7816164E-02  0.1266605E+00
        -11   -1    0    0    0    0  0.00000000000E+00  0.00000000000E+00  0.45593999997E+02  0.45594000000E+02  0.51100000000E-03 0.  1.
         11   -1    0    0    0    0 -0.00000000000E+00 -0.00000000000E+00 -0.45593999997E+02  0.45594000000E+02  0.51100000000E-03 0. -1.
    9900012    2    1    2    0    0 -0.82394525113E+01  0.14199080868E+01 -0.30770370359E+02  0.59301946486E+02  0.50000004483E+02 0.  0.
        -12    1    1    2    0    0  0.82394525113E+01 -0.14199080868E+01  0.30770370359E+02  0.31886053514E+02  0.00000000000E+00 0.  1.
         11    1    3    3    0    0 -0.15965992729E+02 -0.91876229346E+00 -0.23711966281E+02  0.28600950914E+02  0.51100000000E-03 0. -1.
        -11    1    3    3    0    0  0.14630003887E+02 -0.39879159977E+01  0.45076230626E+01  0.15819581337E+02  0.51100000000E-03 0.  1.
        -12    1    3    3    0    0 -0.69034636693E+01  0.63265863779E+01 -0.11566027141E+02  0.14881414235E+02  0.00000000000E+00 0.  1.
</event>
<event>
 7    1  0.1052674E-011  0.5930205E+02  0.7816164E-02  0.1266604E+00
        -11   -1    0    0    0    0  0.00000000000E+00  0.00000000000E+00  0.45593999997E+02  0.45594000000E+02  0.51100000000E-03 0. -1.
         11   -1    0    0    0    0 -0.00000000000E+00 -0.00000000000E+00 -0.45593999997E+02  0.45594000000E+02  0.51100000000E-03 0.  1.
    9900012    2    1    2    0    0  0.39906248602E+01  0.30529363024E+02  0.82913493762E+01  0.59302053755E+02  0.50000200116E+02 0.  0.
        -12    1    1    2    0    0 -0.39906248602E+01 -0.30529363024E+02 -0.82913493762E+01  0.31885946245E+02  0.00000000000E+00 0.  1.
         11    1    3    3    0    0  0.13663087505E+01  0.17575792321E+02  0.25409128102E+02  0.30925702360E+02  0.51100000000E-03 0. -1.
        -11    1    3    3    0    0 -0.28155591429E+01  0.15621467426E+02 -0.90011287759E+01  0.18247683067E+02  0.51100000000E-03 0.  1.
         12    1    3    3    0    0  0.54398752526E+01 -0.26678967230E+01 -0.81166499495E+01  0.10128668328E+02  0.00000000000E+00 0. -1.
</event>
<event>
 7    1  0.1052674E-011  0.5930191E+02  0.7816164E-02  0.1266605E+00
        -11   -1    0    0    0    0  0.00000000000E+00  0.00000000000E+00  0.45593999997E+02  0.45594000000E+02  0.51100000000E-03 0. -1.
         11   -1    0    0    0    0 -0.00000000000E+00 -0.00000000000E+00 -0.45593999997E+02  0.45594000000E+02  0.51100000000E-03 0.  1.
    9900012    2    1    2    0    0  0.62336717694E+01 -0.20513445079E+02  0.23602180561E+02  0.59301905539E+02  0.49999929806E+02 0.  0.
        -12    1    1    2    0    0 -0.62336717694E+01  0.20513445079E+02 -0.23602180561E+02  0.31886094461E+02  0.00000000000E+00 0.  1.
         11    1    3    3    0    0  0.15320124110E+02 -0.17374134601E+02  0.17445041481E+02  0.28998210780E+02  0.51100000000E-03 0. -1.
        -11    1    3    3    0    0 -0.14320958608E+02 -0.12092993476E+01 -0.70195718903E+01  0.15994581900E+02  0.51100000000E-03 0.  1.
        -12    1    3    3    0    0  0.52345062677E+01 -0.19300111297E+01  0.13176710971E+02  0.14309112860E+02  0.00000000000E+00 0.  1.
</event>
<event>
 7    1  0.1052674E-011  0.5930195E+02  0.7816164E-02  0.1266605E+00
        -11   -1    0    0    0    0  0.00000000000E+00  0.00000000000E+00  0.45593999997E+02  0.45594000000E+02  0.51100000000E-03 0.  1.
         11   -1    0    0    0    0 -0.00000000000E+00 -0.00000000000E+00 -0.45593999997E+02  0.45594000000E+02  0.51100000000E-03 0. -1.
    9900012    2    1    2    0    0 -0.29386939367E+02 -0.98232263539E+01 -0.75254579471E+01  0.59301945075E+02  0.50000001910E+02 0.  0.
        -12    1    1    2    0    0  0.29386939367E+02  0.98232263539E+01  0.75254579471E+01  0.31886054925E+02  0.00000000000E+00 0.  1.
         11    1    3    3    0    0 -0.22832038505E+02 -0.12614142192E+02 -0.50852902778E+00  0.26089790485E+02  0.51100000000E-03 0. -1.
        -11    1    3    3    0    0  0.54464248642E+01 -0.11527583016E+02 -0.69676586101E+01  0.14529176878E+02  0.51100000000E-03 0.  1.
        -12    1    3    3    0    0 -0.12001325727E+02  0.14318498854E+02 -0.49270309187E-01  0.18682977712E+02  0.00000000000E+00 0.  1.
</event>
<event>
 7    1  0.1052674E-011  0.5930200E+02  0.7816164E-02  0.1266605E+00
        -11   -1    0    0    0    0  0.00000000000E+00  0.00000000000E+00  0.45593999997E+02  0.45594000000E+02  0.51100000000E-03 0. -1.
         11   -1    0    0    0    0 -0.00000000000E+00 -0.00000000000E+00 -0.45593999997E+02  0.45594000000E+02  0.51100000000E-03 0.  1.
    9900012    2    1    2    0    0 -0.31815368181E+02 -0.20773849334E+01  0.42880045391E+00  0.59301999146E+02  0.50000100522E+02 0.  0.
        -12    1    1    2    0    0  0.31815368181E+02  0.20773849334E+01 -0.42880045391E+00  0.31886000854E+02  0.00000000000E+00 0.  1.
         11    1    3    3    0    0 -0.45268915632E+01  0.18397585983E+02  0.12718728456E+02  0.22819508563E+02  0.51100000000E-03 0. -1.
        -11    1    3    3    0    0 -0.15311013756E+02 -0.11025132266E+02 -0.47082661113E+01  0.19446039539E+02  0.51100000000E-03 0.  1.
         12    1    3    3    0    0 -0.11977462862E+02 -0.94498386509E+01 -0.75816618912E+01  0.17036451044E+02  0.00000000000E+00 0. -1.
</event>
<event>
 7    1  0.1052674E-011  0.5930192E+02  0.7816164E-02  0.1266605E+00
        -11   -1    0    0    0    0  0.00000000000E+00  0.00000000000E+00  0.45593999997E+02  0.45594000000E+02  0.51100000000E-03 0.  1.
         11   -1    0    0    0    0 -0.00000000000E+00 -0.00000000000E+00 -0.45593999997E+02  0.45594000000E+02  0.51100000000E-03 0. -1.
    9900012    2    1    2    0    0 -0.16508194868E+02  0.19905711938E+02 -0.18653802815E+02  0.59301918005E+02  0.49999952541E+02 0.  0.
        -12    1    1    2    0    0  0.16508194868E+02 -0.19905711938E+02  0.18653802815E+02  0.31886081995E+02  0.00000000000E+00 0.  1.
         11    1    3    3    0    0  0.52830244299E+01  0.20973689506E+02  0.43880480709E+01  0.22069457736E+02  0.51100000000E-03 0. -1.
        -11    1    3    3    0    0 -0.21206029931E+02 -0.19790719274E+01 -0.89552562511E+01  0.23104307951E+02  0.51100000000E-03 0.  1.
        -12    1    3    3    0    0 -0.58518936685E+00  0.91109435935E+00 -0.14086594634E+02  0.14128152318E+02  0.00000000000E+00 0.  1.
</event>
<event>
 7    1  0.1052674E-011  0.5930197E+02  0.7816164E-02  0.1266605E+00
        -11   -1    0    0    0    0  0.00000000000E+00  0.00000000000E+00  0.45593999997E+02  0.45594000000E+02  0.51100000000E-03 0.  1.
         11   -1    0    0    0    0 -0.00000000000E+00 -0.00000000000E+00 -0.45593999997E+02  0.45594000000E+02  0.51100000000E-03 0. -1.
    9900012    2    1    2    0    0 -0.15964401006E+02  0.57841683448E+01 -0.26988891391E+02  0.59301969180E+02  0.50000045872E+02 0.  0.
        -12    1    1    2    0    0  0.15964401006E+02 -0.57841683448E+01  0.26988891391E+02  0.31886030820E+02  0.00000000000E+00 0.  1.
         11    1    3    3    0    0  0.48000954314E+01  0.68923277706E+01 -0.54005071797E+01  0.99855183294E+01  0.51100000000E-03 0. -1.
        -11    1    3    3    0    0 -0.14033599342E+02 -0.59274229755E+01  0.89549863944E+01  0.17671107357E+02  0.51100000000E-03 0.  1.
        -12    1    3    3    0    0 -0.67308970947E+01  0.48192635497E+01 -0.30543370606E+02  0.31645343494E+02  0.00000000000E+00 0.  1.
</event>
<event>
 7    1  0.1052674E-011  0.5930196E+02  0.7816164E-02  0.1266605E+00
        -11   -1    0    0    0    0  0.00000000000E+00  0.00000000000E+00  0.45593999997E+02  0.45594000000E+02  0.51100000000E-03 0.  1.
         11   -1    0    0    0    0 -0.00000000000E+00 -0.00000000000E+00 -0.45593999997E+02  0.45594000000E+02  0.51100000000E-03 0. -1.
    9900012    2    1    2    0    0  0.14064556507E+02  0.70580539561E+01 -0.27732505924E+02  0.59301956655E+02  0.50000023029E+02 0.  0.
        -12    1    1    2    0    0 -0.14064556507E+02 -0.70580539561E+01  0.27732505924E+02  0.31886043345E+02  0.00000000000E+00 0.  1.
         11    1    3    3    0    0  0.11537881464E+02  0.12597257211E+02 -0.27402003387E+02  0.32290608353E+02  0.51100000000E-03 0. -1.
        -11    1    3    3    0    0  0.12091886459E+02 -0.82583973855E+01  0.53134190084E+01  0.15577139254E+02  0.51100000000E-03 0.  1.
        -12    1    3    3    0    0 -0.95652114163E+01  0.27191941310E+01 -0.56439215455E+01  0.11434209049E+02  0.00000000000E+00 0.  1.
</event>
<event>
 7    1  0.1052674E-011  0.5930193E+02  0.7816164E-02  0.1266605E+00
        -11   -1    0    0    0    0  0.00000000000E+00  0.00000000000E+00  0.45593999997E+02  0.45594000000E+02  0.51100000000E-03 0.  1.
         11   -1    0    0    0    0 -0.00000000000E+00 -0.00000000000E+00 -0.45593999997E+02  0.45594000000E+02  0.51100000000E-03 0. -1.
    9900012    2    1    2    0    0  0.53389916478E+01  0.45191120323E+01 -0.31109391493E+02  0.59301930245E+02  0.49999974864E+02 0.  0.
        -12    1    1    2    0    0 -0.53389916478E+01 -0.45191120323E+01  0.31109391493E+02  0.31886069755E+02  0.00000000000E+00 0.  1.
         11    1    3    3    0    0 -0.26697927891E+01 -0.14840403372E+01 -0.37323756581E+02  0.37448537687E+02  0.51100000000E-03 0. -1.
        -11    1    3    3    0    0  0.63659988744E+01  0.12249306926E+02  0.15603329831E+01  0.13892663572E+02  0.51100000000E-03 0.  1.
         12    1    3    3    0    0  0.16427855625E+01 -0.62461545569E+01  0.46540321058E+01  0.79607289864E+01  0.00000000000E+00 0. -1.
</event>
<event>
 7    1  0.1052674E-011  0.5930190E+02  0.7816164E-02  0.1266605E+00
        -11   -1    0    0    0    0  0.00000000000E+00  0.00000000000E+00  0.45593999997E+02  0.45594000000E+02  0.51100000000E-03 0. -1.
         11   -1    0    0    0    0 -0.00000000000E+00 -0.00000000000E+00 -0.45593999997E+02  0.45594000000E+02  0.51100000000E-03 0.  1.
    9900012    2    1    2    0    0  0.12471578270E+02 -0.27320525976E+02 -0.10713158511E+02  0.59301903195E+02  0.49999925531E+02 0.  0.
        -12    1    1    2    0    0 -0.12471578270E+02  0.27320525976E+02  0.10713158511E+02  0.31886096805E+02  0.00000000000E+00 0.  1.
         11    1    3    3    0    0  0.96760919094E+00  0.43834099305E+01 -0.17974485236E+02  0.18526539610E+02  0.51100000000E-03 0. -1.
        -11    1    3    3    0    0 -0.15654009087E+01 -0.12630580083E+02 -0.60542186098E+01  0.14093814120E+02  0.51100000000E-03 0.  1.
         12    1    3    3    0    0  0.13069369987E+02 -0.19073355824E+02  0.13315545335E+02  0.26681549465E+02  0.00000000000E+00 0. -1.
</event>
<event>
 7    1  0.1052674E-011  0.5930196E+02  0.7816164E-02  0.1266605E+00
        -11   -1    0    0    0    0  0.00000000000E+00  0.00000000000E+00  0.45593999997E+02  0.45594000000E+02  0.51100000000E-03 0. -1.
         11   -1    0    0    0    0 -0.00000000000E+00 -0.00000000000E+00 -0.45593999997E+02  0.45594000000E+02  0.51100000000E-03 0.  1.
    9900012    2    1    2    0    0  0.29264121696E+02 -0.12089542951E+02 -0.37647563109E+01  0.59301964538E+02  0.50000037406E+02 0.  0.
        -12    1    1    2    0    0 -0.29264121696E+02  0.12089542951E+02  0.37647563109E+01  0.31886035462E+02  0.00000000000E+00 0.  1.
         11    1    3    3    0    0  0.14172503114E+02  0.11614447231E+02  0.21173872254E+01  0.18445556590E+02  0.51100000000E-03 0.  1.
        -11    1    3    3    0    0 -0.10650521944E+01 -0.29171434095E+01 -0.13176255998E+02  0.13537273885E+02  0.51100000000E-03 0. -1.
         12    1    3    3    0    0  0.16156670777E+02 -0.20786846773E+02  0.72941124620E+01  0.27319134063E+02  0.00000000000E+00 0. -1.
</event>
<event>
 7    1  0.1052674E-011  0.5930198E+02  0.7816164E-02  0.1266605E+00
        -11   -1    0    0    0    0  0.00000000000E+00  0.00000000000E+00  0.45593999997E+02  0.45594000000E+02  0.51100000000E-03 0.  1.
         11   -1    0    0    0    0 -0.00000000000E+00 -0.00000000000E+00 -0.45593999997E+02  0.45594000000E+02  0.51100000000E-03 0. -1.
    9900012    2    1    2    0    0  0.43465908683E+01  0.10293052868E+02 -0.29864335304E+02  0.59301979354E+02  0.50000064427E+02 0.  0.
        -12    1    1    2    0    0 -0.43465908683E+01 -0.10293052868E+02  0.29864335304E+02  0.31886020646E+02  0.00000000000E+00 0.  1.
         11    1    3    3    0    0 -0.46555607340E-01 -0.89368888432E+01  0.59842886536E+01  0.10755550222E+02  0.51100000000E-03 0.  1.
        -11    1    3    3    0    0 -0.10934417041E+01  0.88141605484E+01 -0.35684088410E+02  0.36772805262E+02  0.51100000000E-03 0. -1.
         12    1    3    3    0    0  0.54865881797E+01  0.10415781163E+02 -0.16453554671E+00  0.11773623870E+02  0.00000000000E+00 0. -1.
</event>
<event>
 7    1  0.1052674E-011  0.5930194E+02  0.7816164E-02  0.1266605E+00
        -11   -1    0    0    0    0  0.00000000000E+00  0.00000000000E+00  0.45593999997E+02  0.45594000000E+02  0.51100000000E-03 0.  1.
         11   -1    0    0    0    0 -0.00000000000E+00 -0.00000000000E+00 -0.45593999997E+02  0.45594000000E+02  0.51100000000E-03 0. -1.
    9900012    2    1    2    0    0  0.10375249257E+02  0.37606244747E+01 -0.29915428900E+02  0.59301937530E+02  0.49999988150E+02 0.  0.
        -12    1    1    2    0    0 -0.10375249257E+02 -0.37606244747E+01  0.29915428900E+02  0.31886062470E+02  0.00000000000E+00 0.  1.
         11    1    3    3    0    0  0.15587513166E+02  0.80527587336E+01 -0.24264288265E+02  0.29942831783E+02  0.51100000000E-03 0. -1.
        -11    1    3    3    0    0 -0.22063934054E+01 -0.13058137462E+02  0.59437857166E+01  0.14515912467E+02  0.51100000000E-03 0.  1.
        -12    1    3    3    0    0 -0.30058705041E+01  0.87660032036E+01 -0.11594926351E+02  0.14843193280E+02  0.00000000000E+00 0.  1.
</event>
<event>
 7    1  0.1052674E-011  0.5930185E+02  0.7816164E-02  0.1266605E+00
        -11   -1    0    0    0    0  0.00000000000E+00  0.00000000000E+00  0.45593999997E+02  0.45594000000E+02  0.51100000000E-03 0. -1.
         11   -1    0    0    0    0 -0.00000000000E+00 -0.00000000000E+00 -0.45593999997E+02  0.45594000000E+02  0.51100000000E-03 0.  1.
    9900012    2    1    2    0    0  0.27707960098E+02  0.10528818898E+02 -0.11753285996E+02  0.59301846079E+02  0.49999821364E+02 0.  0.
        -12    1    1    2    0    0 -0.27707960098E+02 -0.10528818898E+02  0.11753285996E+02  0.31886153921E+02  0.00000000000E+00 0.  1.
         11    1    3    3    0    0  0.33057330732E+02  0.28765226306E+00  0.22856025022E+01  0.33137498970E+02  0.51100000000E-03 0. -1.
        -11    1    3    3    0    0 -0.10930356807E+02  0.11558204322E+02 -0.78920943315E+01  0.17758095063E+02  0.51100000000E-03 0.  1.
         12    1    3    3    0    0  0.55809861731E+01 -0.13170376864E+01 -0.61467941667E+01  0.84062520459E+01  0.00000000000E+00 0. -1.
</event>
<event>
 7    1  0.1052674E-011  0.5930198E+02  0.7816164E-02  0.1266605E+00
        -11   -1    0    0    0    0  0.00000000000E+00  0.00000000000E+00  0.45593999997E+02  0.45594000000E+02  0.51100000000E-03 0.  1.
         11   -1    0    0    0    0 -0.00000000000E+00 -0.00000000000E+00 -0.45593999997E+02  0.45594000000E+02  0.51100000000E-03 0. -1.
    9900012    2    1    2    0    0  0.27499795736E+02 -0.12501266094E+02 -0.10207743615E+02  0.59301977213E+02  0.50000060521E+02 0.  0.
        -12    1    1    2    0    0 -0.27499795736E+02  0.12501266094E+02  0.10207743615E+02  0.31886022787E+02  0.00000000000E+00 0.  1.
         11    1    3    3    0    0  0.14121800222E+02 -0.81452175615E+01 -0.17746321120E+02  0.24097753509E+02  0.51100000000E-03 0. -1.
        -11    1    3    3    0    0 -0.55375479607E+00 -0.60092392423E+01  0.17161532589E+02  0.18191640984E+02  0.51100000000E-03 0.  1.
        -12    1    3    3    0    0  0.13931750310E+02  0.16531907093E+01 -0.96229550841E+01  0.17012582719E+02  0.00000000000E+00 0.  1.
</event>
<event>
 7    1  0.1052674E-011  0.5930191E+02  0.7816164E-02  0.1266605E+00
        -11   -1    0    0    0    0  0.00000000000E+00  0.00000000000E+00  0.45593999997E+02  0.45594000000E+02  0.51100000000E-03 0.  1.
         11   -1    0    0    0    0 -0.00000000000E+00 -0.00000000000E+00 -0.45593999997E+02  0.45594000000E+02  0.51100000000E-03 0. -1.
    9900012    2    1    2    0    0 -0.30939301458E+01 -0.15805517989E+02 -0.27519735891E+02  0.59301911087E+02  0.49999939923E+02 0.  0.
        -12    1    1    2    0    0  0.30939301458E+01  0.15805517989E+02  0.27519735891E+02  0.31886088913E+02  0.00000000000E+00 0.  1.
         11    1    3    3    0    0  0.16937936805E+02 -0.95159714636E+01  0.13206761858E+01  0.19472842677E+02  0.51100000000E-03 0. -1.
        -11    1    3    3    0    0 -0.13513124357E+02  0.49989552628E+01 -0.14273416745E+02  0.20281136789E+02  0.51100000000E-03 0.  1.
         12    1    3    3    0    0 -0.65187425930E+01 -0.11288501789E+02 -0.14566995332E+02  0.19547931620E+02  0.00000000000E+00 0. -1.
</event>
<event>
 7    1  0.1052674E-011  0.5930188E+02  0.7816164E-02  0.1266605E+00
        -11   -1    0    0    0    0  0.00000000000E+00  0.00000000000E+00  0.45593999997E+02  0.45594000000E+02  0.51100000000E-03 0.  1.
         11   -1    0    0    0    0 -0.00000000000E+00 -0.00000000000E+00 -0.45593999997E+02  0.45594000000E+02  0.51100000000E-03 0. -1.
    9900012    2    1    2    0    0 -0.31766701690E+02 -0.27539759110E+01 -0.12931645666E+00  0.59301883236E+02  0.49999889130E+02 0.  0.
        -12    1    1    2    0    0  0.31766701690E+02  0.27539759110E+01  0.12931645666E+00  0.31886116764E+02  0.00000000000E+00 0.  1.
         11    1    3    3    0    0 -0.24127562392E+02 -0.21427586241E+02 -0.71171589624E+01  0.33044434797E+02  0.51100000000E-03 0. -1.
        -11    1    3    3    0    0  0.36362814871E+01  0.64481652051E+01 -0.15491466347E+01  0.75631496827E+01  0.51100000000E-03 0.  1.
         12    1    3    3    0    0 -0.11275420785E+02  0.12225445125E+02  0.85369891404E+01  0.18694298756E+02  0.00000000000E+00 0. -1.
</event>
<event>
 7    1  0.1052674E-011  0.5930190E+02  0.7816164E-02  0.1266605E+00
        -11   -1    0    0    0    0  0.00000000000E+00  0.00000000000E+00  0.45593999997E+02  0.45594000000E+02  0.51100000000E-03 0. -1.
         11   -1    0    0    0    0 -0.00000000000E+00 -0.00000000000E+00 -0.45593999997E+02  0.45594000000E+02  0.51100000000E-03 0.  1.
    9900012    2    1    2    0    0 -0.93845797246E+01  0.21650781690E+02  0.21445208835E+02  0.59301895403E+02  0.49999911320E+02 0.  0.
        -12    1    1    2    0    0  0.93845797246E+01 -0.21650781690E+02 -0.21445208835E+02  0.31886104597E+02  0.00000000000E+00 0.  1.
         11    1    3    3    0    0  0.37685539909E+01  0.10166994303E+02  0.68482651014E+01  0.12824527574E+02  0.51100000000E-03 0. -1.
        -11    1    3    3    0    0 -0.26366589849E+02  0.11709719807E+02  0.16326640394E+02  0.33149265226E+02  0.51100000000E-03 0.  1.
        -12    1    3    3    0    0  0.13213456133E+02 -0.22593242043E+00 -0.17296966599E+01  0.13328102603E+02  0.00000000000E+00 0.  1.
</event>
<event>
 7    1  0.1052674E-011  0.5930197E+02  0.7816164E-02  0.1266605E+00
        -11   -1    0    0    0    0  0.00000000000E+00  0.00000000000E+00  0.45593999997E+02  0.45594000000E+02  0.51100000000E-03 0.  1.
         11   -1    0    0    0    0 -0.00000000000E+00 -0.00000000000E+00 -0.45593999997E+02  0.45594000000E+02  0.51100000000E-03 0. -1.
    9900012    2    1    2    0    0  0.15672666338E+02 -0.20805311867E+02 -0.18390905423E+02  0.59301970546E+02  0.50000048363E+02 0.  0.
        -12    1    1    2    0    0 -0.15672666338E+02  0.20805311867E+02  0.18390905423E+02  0.31886029454E+02  0.00000000000E+00 0.  1.
         11    1    3    3    0    0  0.15266621778E+02  0.57800214291E+01 -0.11582054905E+02  0.20015553560E+02  0.51100000000E-03 0. -1.
        -11    1    3    3    0    0 -0.98058803792E+01 -0.25783760451E+02 -0.85844732576E+01  0.28890323196E+02  0.51100000000E-03 0.  1.
         12    1    3    3    0    0  0.10211924939E+02 -0.80157284576E+00  0.17756227392E+01  0.10396093790E+02  0.00000000000E+00 0. -1.
</event>
<event>
 7    1  0.1052674E-011  0.5930194E+02  0.7816164E-02  0.1266605E+00
        -11   -1    0    0    0    0  0.00000000000E+00  0.00000000000E+00  0.45593999997E+02  0.45594000000E+02  0.51100000000E-03 0.  1.
         11   -1    0    0    0    0 -0.00000000000E+00 -0.00000000000E+00 -0.45593999997E+02  0.45594000000E+02  0.51100000000E-03 0. -1.
    9900012    2    1    2    0    0 -0.27027153135E+02  0.33505587346E-01 -0.16919010733E+02  0.59301936377E+02  0.49999986046E+02 0.  0.
        -12    1    1    2    0    0  0.27027153135E+02 -0.33505587346E-01  0.16919010733E+02  0.31886063623E+02  0.00000000000E+00 0.  1.
         11    1    3    3    0    0 -0.13369517635E+02 -0.49434279274E+01 -0.17668276106E+01  0.14363257344E+02  0.51100000000E-03 0. -1.
        -11    1    3    3    0    0 -0.22536335384E+01  0.21296259219E+02 -0.12651714481E+02  0.24873186375E+02  0.51100000000E-03 0.  1.
        -12    1    3    3    0    0 -0.11404001962E+02 -0.16319325704E+02 -0.25004686413E+01  0.20065492658E+02  0.00000000000E+00 0.  1.
</event>
<event>
 7    1  0.1052674E-011  0.5930177E+02  0.7816164E-02  0.1266605E+00
        -11   -1    0    0    0    0  0.00000000000E+00  0.00000000000E+00  0.45593999997E+02  0.45594000000E+02  0.51100000000E-03 0. -1.
         11   -1    0    0    0    0 -0.00000000000E+00 -0.00000000000E+00 -0.45593999997E+02  0.45594000000E+02  0.51100000000E-03 0.  1.
    9900012    2    1    2    0    0  0.19796388945E+02  0.88874804204E+01 -0.23363377788E+02  0.59301768722E+02  0.49999680283E+02 0.  0.
        -12    1    1    2    0    0 -0.19796388945E+02 -0.88874804204E+01  0.23363377788E+02  0.31886231278E+02  0.00000000000E+00 0.  1.
         11    1    3    3    0    0  0.85922168588E-03  0.25983816398E+02 -0.17283323776E+02  0.31206922250E+02  0.51100000000E-03 0.  1.
        -11    1    3    3    0    0  0.13818733706E+02 -0.13099921321E+02 -0.59288607509E+00  0.19050376742E+02  0.51100000000E-03 0. -1.
        -12    1    3    3    0    0  0.59767960172E+01 -0.39964146565E+01 -0.54871679365E+01  0.90444697302E+01  0.00000000000E+00 0.  1.
</event>
<event>
 7    1  0.1052674E-011  0.5930195E+02  0.7816164E-02  0.1266605E+00
        -11   -1    0    0    0    0  0.00000000000E+00  0.00000000000E+00  0.45593999997E+02  0.45594000000E+02  0.51100000000E-03 0.  1.
         11   -1    0    0    0    0 -0.00000000000E+00 -0.00000000000E+00 -0.45593999997E+02  0.45594000000E+02  0.51100000000E-03 0. -1.
    9900012    2    1    2    0    0  0.19558145566E+02 -0.22302078421E+02 -0.11696851605E+02  0.59301951369E+02  0.50000013388E+02 0.  0.
        -12    1    1    2    0    0 -0.19558145566E+02  0.22302078421E+02  0.11696851605E+02  0.31886048631E+02  0.00000000000E+00 0.  1.
         11    1    3    3    0    0 -0.12694096877E+02  0.45813912277E+01  0.29362852336E+01  0.13811263966E+02  0.51100000000E-03 0.  1.
        -11    1    3    3    0    0  0.29533950811E+02 -0.20855041229E+02 -0.14265227186E+02  0.38867514740E+02  0.51100000000E-03 0. -1.
        -12    1    3    3    0    0  0.27182916312E+01 -0.60284284200E+01 -0.36790965255E+00  0.66231726627E+01  0.00000000000E+00 0.  1.
</event>
<event>
 7    1  0.1052674E-011  0.5930197E+02  0.7816164E-02  0.1266605E+00
        -11   -1    0    0    0    0  0.00000000000E+00  0.00000000000E+00  0.45593999997E+02  0.45594000000E+02  0.51100000000E-03 0.  1.
         11   -1    0    0    0    0 -0.00000000000E+00 -0.00000000000E+00 -0.45593999997E+02  0.45594000000E+02  0.51100000000E-03 0. -1.
    9900012    2    1    2    0    0  0.29572743850E+02  0.11353299244E+02  0.36434223488E+01  0.59301966867E+02  0.50000041653E+02 0.  0.
        -12    1    1    2    0    0 -0.29572743850E+02 -0.11353299244E+02 -0.36434223488E+01  0.31886033133E+02  0.00000000000E+00 0.  1.
         11    1    3    3    0    0  0.18223961171E+02 -0.74366717202E+01 -0.15835275223E+02  0.25262082033E+02  0.51100000000E-03 0. -1.
        -11    1    3    3    0    0  0.25806417028E+01 -0.22627051759E+01  0.75711571731E+01  0.83127593199E+01  0.51100000000E-03 0.  1.
         12    1    3    3    0    0  0.87681409766E+01  0.21052676140E+02  0.11907540398E+02  0.25727125514E+02  0.00000000000E+00 0. -1.
</event>
<event>
 7    1  0.1052674E-011  0.5930194E+02  0.7816164E-02  0.1266605E+00
        -11   -1    0    0    0    0  0.00000000000E+00  0.00000000000E+00  0.45593999997E+02  0.45594000000E+02  0.51100000000E-03 0.  1.
         11   -1    0    0    0    0 -0.00000000000E+00 -0.00000000000E+00 -0.45593999997E+02  0.45594000000E+02  0.51100000000E-03 0. -1.
    9900012    2    1    2    0    0 -0.14457622294E+02  0.15474774550E+02 -0.23837556108E+02  0.59301943941E+02  0.49999999842E+02 0.  0.
        -12    1    1    2    0    0  0.14457622294E+02 -0.15474774550E+02  0.23837556108E+02  0.31886056059E+02  0.00000000000E+00 0.  1.
         11    1    3    3    0    0 -0.13233739833E+02  0.13585018927E+02 -0.21421835287E+02  0.28610830757E+02  0.51100000000E-03 0. -1.
        -11    1    3    3    0    0  0.52340386202E+01 -0.40760961393E+01  0.12054499631E+02  0.13759385220E+02  0.51100000000E-03 0.  1.
        -12    1    3    3    0    0 -0.64579210805E+01  0.59658517621E+01 -0.14470220452E+02  0.16931727964E+02  0.00000000000E+00 0.  1.
</event>
<event>
 7    1  0.1052674E-011  0.5930194E+02  0.7816164E-02  0.1266605E+00
        -11   -1    0    0    0    0  0.00000000000E+00  0.00000000000E+00  0.45593999997E+02  0.45594000000E+02  0.51100000000E-03 0. -1.
         11   -1    0    0    0    0 -0.00000000000E+00 -0.00000000000E+00 -0.45593999997E+02  0.45594000000E+02  0.51100000000E-03 0.  1.
    9900012    2    1    2    0    0 -0.10263948730E+02 -0.25345535479E+02  0.16400491370E+02  0.59301938320E+02  0.49999989591E+02 0.  0.
        -12    1    1    2    0    0  0.10263948730E+02  0.25345535479E+02 -0.16400491370E+02  0.31886061680E+02  0.00000000000E+00 0.  1.
         11    1    3    3    0    0 -0.23561682004E+02 -0.16339584278E+02  0.22429797061E+02  0.36403717801E+02  0.51100000000E-03 0. -1.
        -11    1    3    3    0    0 -0.15629294158E+01 -0.56963740193E+01 -0.48229527193E+01  0.76257654383E+01  0.51100000000E-03 0.  1.
         12    1    3    3    0    0  0.14860662690E+02 -0.33095771821E+01 -0.12063529720E+01  0.15272455081E+02  0.00000000000E+00 0. -1.
</event>
<event>
 7    1  0.1052674E-011  0.5930194E+02  0.7816164E-02  0.1266605E+00
        -11   -1    0    0    0    0  0.00000000000E+00  0.00000000000E+00  0.45593999997E+02  0.45594000000E+02  0.51100000000E-03 0.  1.
         11   -1    0    0    0    0 -0.00000000000E+00 -0.00000000000E+00 -0.45593999997E+02  0.45594000000E+02  0.51100000000E-03 0. -1.
    9900012    2    1    2    0    0 -0.17495409797E+02  0.25627813647E+02  0.73380210823E+01  0.59301941139E+02  0.49999994731E+02 0.  0.
        -12    1    1    2    0    0  0.17495409797E+02 -0.25627813647E+02 -0.73380210823E+01  0.31886058861E+02  0.00000000000E+00 0.  1.
         11    1    3    3    0    0  0.52068785621E+01 -0.32800104763E+00 -0.84714959659E+01  0.99491413302E+01  0.51100000000E-03 0. -1.
        -11    1    3    3    0    0 -0.30723214470E+02  0.22138576060E+02  0.12898021817E+02  0.40004892505E+02  0.51100000000E-03 0.  1.
        -12    1    3    3    0    0  0.80209261104E+01  0.38172386350E+01  0.29114952310E+01  0.93479073030E+01  0.00000000000E+00 0.  1.
</event>
<event>
 7    1  0.1052674E-011  0.5930194E+02  0.7816164E-02  0.1266605E+00
        -11   -1    0    0    0    0  0.00000000000E+00  0.00000000000E+00  0.45593999997E+02  0.45594000000E+02  0.51100000000E-03 0.  1.
         11   -1    0    0    0    0 -0.00000000000E+00 -0.00000000000E+00 -0.45593999997E+02  0.45594000000E+02  0.51100000000E-03 0. -1.
    9900012    2    1    2    0    0 -0.12161769362E+02 -0.20284858813E+02 -0.21385438168E+02  0.59301935698E+02  0.49999984808E+02 0.  0.
        -12    1    1    2    0    0  0.12161769362E+02  0.20284858813E+02  0.21385438168E+02  0.31886064302E+02  0.00000000000E+00 0.  1.
         11    1    3    3    0    0  0.61851967353E+01 -0.71428169101E+01  0.12087252766E+01  0.95256238180E+01  0.51100000000E-03 0. -1.
        -11    1    3    3    0    0 -0.18789711143E+02 -0.24639327928E+02 -0.22459325420E+02  0.38269714189E+02  0.51100000000E-03 0.  1.
        -12    1    3    3    0    0  0.44274504587E+00  0.11497286025E+02 -0.13483802466E+00  0.11506597691E+02  0.00000000000E+00 0.  1.
</event>
<event>
 7    1  0.1052674E-011  0.5930215E+02  0.7816164E-02  0.1266604E+00
        -11   -1    0    0    0    0  0.00000000000E+00  0.00000000000E+00  0.45593999997E+02  0.45594000000E+02  0.51100000000E-03 0. -1.
         11   -1    0    0    0    0 -0.00000000000E+00 -0.00000000000E+00 -0.45593999997E+02  0.45594000000E+02  0.51100000000E-03 0.  1.
    9900012    2    1    2    0    0  0.18760389049E+02  0.25637654401E+02  0.27323778999E+01  0.59302150326E+02  0.50000376237E+02 0.  0.
        -12    1    1    2    0    0 -0.18760389049E+02 -0.25637654401E+02 -0.27323778999E+01  0.31885849674E+02  0.00000000000E+00 0.  1.
         11    1    3    3    0    0 -0.73951981836E+01  0.24471291162E+02  0.16531267830E+01  0.25617686776E+02  0.51100000000E-03 0. -1.
        -11    1    3    3    0    0  0.13762701978E+02 -0.99226694760E+01  0.16350933897E+01  0.17045376672E+02  0.51100000000E-03 0.  1.
         12    1    3    3    0    0  0.12392885255E+02  0.11089032715E+02 -0.55584227270E+00  0.16639086878E+02  0.00000000000E+00 0. -1.
</event>
<event>
 7    1  0.1052674E-011  0.5930193E+02  0.7816164E-02  0.1266605E+00
        -11   -1    0    0    0    0  0.00000000000E+00  0.00000000000E+00  0.45593999997E+02  0.45594000000E+02  0.51100000000E-03 0.  1.
         11   -1    0    0    0    0 -0.00000000000E+00 -0.00000000000E+00 -0.45593999997E+02  0.45594000000E+02  0.51100000000E-03 0. -1.
    9900012    2    1    2    0    0 -0.15144042936E+02  0.10025759113E+02 -0.26208077064E+02  0.59301934303E+02  0.49999982265E+02 0.  0.
        -12    1    1    2    0    0  0.15144042936E+02 -0.10025759113E+02  0.26208077064E+02  0.31886065697E+02  0.00000000000E+00 0.  1.
         11    1    3    3    0    0 -0.10832093334E+02  0.12789478903E+02 -0.15159943234E+02  0.22599311841E+02  0.51100000000E-03 0. -1.
        -11    1    3    3    0    0 -0.11109110754E+02 -0.10965568871E+02  0.58979621724E+01  0.16686581449E+02  0.51100000000E-03 0.  1.
        -12    1    3    3    0    0  0.67971611520E+01  0.82018490822E+01 -0.16946096002E+02  0.20016041013E+02  0.00000000000E+00 0.  1.
</event>
<event>
 7    1  0.1052674E-011  0.5930186E+02  0.7816164E-02  0.1266605E+00
        -11   -1    0    0    0    0  0.00000000000E+00  0.00000000000E+00  0.45593999997E+02  0.45594000000E+02  0.51100000000E-03 0.  1.
         11   -1    0    0    0    0 -0.00000000000E+00 -0.00000000000E+00 -0.45593999997E+02  0.45594000000E+02  0.51100000000E-03 0. -1.
    9900012    2    1    2    0    0 -0.18878666541E+02  0.72274609609E+01 -0.24659394607E+02  0.59301859049E+02  0.49999845019E+02 0.  0.
        -12    1    1    2    0    0  0.18878666541E+02 -0.72274609609E+01  0.24659394607E+02  0.31886140951E+02  0.00000000000E+00 0.  1.
         11    1    3    3    0    0 -0.11691143783E+02 -0.18692128745E+02 -0.11008388645E+02  0.24642709689E+02  0.51100000000E-03 0. -1.
        -11    1    3    3    0    0 -0.10966171668E+02  0.24310574056E+02 -0.14655710364E+02  0.30431082441E+02  0.51100000000E-03 0.  1.
         12    1    3    3    0    0  0.37786489094E+01  0.16090156501E+01  0.10047044020E+01  0.42280669198E+01  0.00000000000E+00 0. -1.
</event>
<event>
 7    1  0.1757254E-011  0.5930193E+02  0.7816164E-02  0.1266605E+00
        -11   -1    0    0    0    0  0.00000000000E+00  0.00000000000E+00  0.45593999997E+02  0.45594000000E+02  0.51100000000E-03 0. -1.
         11   -1    0    0    0    0 -0.00000000000E+00 -0.00000000000E+00 -0.45593999997E+02  0.45594000000E+02  0.51100000000E-03 0.  1.
    9900012    2    1    2    0    0 -0.85110963449E+01 -0.12489237054E+02  0.28076711942E+02  0.59301928485E+02  0.49999971654E+02 0.  0.
        -12    1    1    2    0    0  0.85110963449E+01  0.12489237054E+02 -0.28076711942E+02  0.31886071515E+02  0.00000000000E+00 0.  1.
         11    1    3    3    0    0 -0.50931925119E+01  0.22069862422E+00  0.20643669265E+02  0.21263828414E+02  0.51100000000E-03 0. -1.
        -11    1    3    3    0    0  0.11593326000E+02  0.24532720911E+01 -0.55249475305E+01  0.13074738895E+02  0.51100000000E-03 0.  1.
         12    1    3    3    0    0 -0.15011229833E+02 -0.15163207769E+02  0.12957990208E+02  0.24963361176E+02  0.00000000000E+00 0. -1.
</event>
<event>
 7    1  0.1052674E-011  0.5930195E+02  0.7816164E-02  0.1266605E+00
        -11   -1    0    0    0    0  0.00000000000E+00  0.00000000000E+00  0.45593999997E+02  0.45594000000E+02  0.51100000000E-03 0.  1.
         11   -1    0    0    0    0 -0.00000000000E+00 -0.00000000000E+00 -0.45593999997E+02  0.45594000000E+02  0.51100000000E-03 0. -1.
    9900012    2    1    2    0    0  0.29995445577E+02  0.57278460090E+01 -0.91752346685E+01  0.59301954361E+02  0.50000018846E+02 0.  0.
        -12    1    1    2    0    0 -0.29995445577E+02 -0.57278460090E+01  0.91752346685E+01  0.31886045639E+02  0.00000000000E+00 0.  1.
         11    1    3    3    0    0  0.75625559282E+01 -0.10085563583E+01 -0.10325792848E+01  0.76990686668E+01  0.51100000000E-03 0. -1.
        -11    1    3    3    0    0 -0.35080821582E+01 -0.13731907167E+02  0.63380054841E+01  0.15525534730E+02  0.51100000000E-03 0.  1.
        -12    1    3    3    0    0  0.25940971807E+02  0.20468309534E+02 -0.14480660868E+02  0.36077350965E+02  0.00000000000E+00 0.  1.
</event>
<event>
 7    1  0.1052674E-011  0.5930195E+02  0.7816164E-02  0.1266605E+00
        -11   -1    0    0    0    0  0.00000000000E+00  0.00000000000E+00  0.45593999997E+02  0.45594000000E+02  0.51100000000E-03 0.  1.
         11   -1    0    0    0    0 -0.00000000000E+00 -0.00000000000E+00 -0.45593999997E+02  0.45594000000E+02  0.51100000000E-03 0. -1.
    9900012    2    1    2    0    0  0.31051200901E+02 -0.52483354670E+01 -0.49998037092E+01  0.59301950704E+02  0.50000012176E+02 0.  0.
        -12    1    1    2    0    0 -0.31051200901E+02  0.52483354670E+01  0.49998037092E+01  0.31886049296E+02  0.00000000000E+00 0.  1.
         11    1    3    3    0    0  0.13684613329E+02  0.99168644899E+01  0.86307137361E+01  0.18976355370E+02  0.51100000000E-03 0. -1.
        -11    1    3    3    0    0  0.13543573400E+02 -0.12303907426E+02 -0.23249597717E+02  0.29586454885E+02  0.51100000000E-03 0.  1.
         12    1    3    3    0    0  0.38230141724E+01 -0.28612925309E+01  0.96190802717E+01  0.10739140449E+02  0.00000000000E+00 0. -1.
</event>
<event>
 7    1  0.1052674E-011  0.5930188E+02  0.7816164E-02  0.1266605E+00
        -11   -1    0    0    0    0  0.00000000000E+00  0.00000000000E+00  0.45593999997E+02  0.45594000000E+02  0.51100000000E-03 0.  1.
         11   -1    0    0    0    0 -0.00000000000E+00 -0.00000000000E+00 -0.45593999997E+02  0.45594000000E+02  0.51100000000E-03 0. -1.
    9900012    2    1    2    0    0  0.15421313523E+01 -0.21077524819E+02 -0.23876434332E+02  0.59301884871E+02  0.49999892112E+02 0.  0.
        -12    1    1    2    0    0 -0.15421313523E+01  0.21077524819E+02  0.23876434332E+02  0.31886115129E+02  0.00000000000E+00 0.  1.
         11    1    3    3    0    0  0.99636375642E+00 -0.10367809609E+02  0.88403975458E+01  0.13661509648E+02  0.51100000000E-03 0.  1.
        -11    1    3    3    0    0  0.10972485856E+02 -0.11790140748E+02 -0.31114720500E+02  0.35036105616E+02  0.51100000000E-03 0. -1.
         12    1    3    3    0    0 -0.10426718260E+02  0.10804255376E+01 -0.16021113781E+01  0.10604269607E+02  0.00000000000E+00 0. -1.
</event>
<event>
 7    1  0.1052674E-011  0.5930197E+02  0.7816164E-02  0.1266605E+00
        -11   -1    0    0    0    0  0.00000000000E+00  0.00000000000E+00  0.45593999997E+02  0.45594000000E+02  0.51100000000E-03 0.  1.
         11   -1    0    0    0    0 -0.00000000000E+00 -0.00000000000E+00 -0.45593999997E+02  0.45594000000E+02  0.51100000000E-03 0. -1.
    9900012    2    1    2    0    0  0.30625714106E+02  0.72672786005E+01  0.50962154911E+01  0.59301966771E+02  0.50000041478E+02 0.  0.
        -12    1    1    2    0    0 -0.30625714106E+02 -0.72672786005E+01 -0.50962154911E+01  0.31886033229E+02  0.00000000000E+00 0.  1.
         11    1    3    3    0    0  0.71374624992E+01 -0.78375935288E+01 -0.16491843022E+02  0.19604900657E+02  0.51100000000E-03 0. -1.
        -11    1    3    3    0    0  0.20969593239E+02  0.18050465332E+02  0.13625652568E+02  0.30841555529E+02  0.51100000000E-03 0.  1.
         12    1    3    3    0    0  0.25186583681E+01 -0.29455932025E+01  0.79624059447E+01  0.88555105848E+01  0.00000000000E+00 0. -1.
</event>
<event>
 7    1  0.1052674E-011  0.5930194E+02  0.7816164E-02  0.1266605E+00
        -11   -1    0    0    0    0  0.00000000000E+00  0.00000000000E+00  0.45593999997E+02  0.45594000000E+02  0.51100000000E-03 0. -1.
         11   -1    0    0    0    0 -0.00000000000E+00 -0.00000000000E+00 -0.45593999997E+02  0.45594000000E+02  0.51100000000E-03 0.  1.
    9900012    2    1    2    0    0  0.11754650311E+02 -0.27806243244E+02  0.10264589047E+02  0.59301941047E+02  0.49999994564E+02 0.  0.
        -12    1    1    2    0    0 -0.11754650311E+02  0.27806243244E+02 -0.10264589047E+02  0.31886058953E+02  0.00000000000E+00 0.  1.
         11    1    3    3    0    0  0.51367565646E+01 -0.17708175215E+02  0.98834817387E+00  0.18464630238E+02  0.51100000000E-03 0. -1.
        -11    1    3    3    0    0  0.42597817034E+01  0.10899821832E+02 -0.74635497484E+01  0.13880073171E+02  0.51100000000E-03 0.  1.
        -12    1    3    3    0    0  0.23581120431E+01 -0.20997889860E+02  0.16739790622E+02  0.26957237638E+02  0.00000000000E+00 0.  1.
</event>
<event>
 7    1  0.1052674E-011  0.5930199E+02  0.7816164E-02  0.1266605E+00
        -11   -1    0    0    0    0  0.00000000000E+00  0.00000000000E+00  0.45593999997E+02  0.45594000000E+02  0.51100000000E-03 0.  1.
         11   -1    0    0    0    0 -0.00000000000E+00 -0.00000000000E+00 -0.45593999997E+02  0.45594000000E+02  0.51100000000E-03 0. -1.
    9900012    2    1    2    0    0  0.72878523830E+00  0.26523904353E+02 -0.17682448040E+02  0.59301990548E+02  0.50000084842E+02 0.  0.
        -12    1    1    2    0    0 -0.72878523830E+00 -0.26523904353E+02  0.17682448040E+02  0.31886009452E+02  0.00000000000E+00 0.  1.
         11    1    3    3    0    0 -0.10627335829E+01  0.15503375607E+02 -0.34910922184E+02  0.38213303258E+02  0.51100000000E-03 0. -1.
        -11    1    3    3    0    0 -0.15105228592E+01  0.50059118283E+01  0.85973012575E+01  0.10062525613E+02  0.51100000000E-03 0.  1.
         12    1    3    3    0    0  0.33020416804E+01  0.60146169184E+01  0.86311728869E+01  0.11026161677E+02  0.00000000000E+00 0. -1.
</event>
<event>
 7    1  0.1052674E-011  0.5930193E+02  0.7816164E-02  0.1266605E+00
        -11   -1    0    0    0    0  0.00000000000E+00  0.00000000000E+00  0.45593999997E+02  0.45594000000E+02  0.51100000000E-03 0. -1.
         11   -1    0    0    0    0 -0.00000000000E+00 -0.00000000000E+00 -0.45593999997E+02  0.45594000000E+02  0.51100000000E-03 0.  1.
    9900012    2    1    2    0    0  0.30993213063E+02 -0.63094131105E+01 -0.40414775048E+01  0.59301929528E+02  0.49999973556E+02 0.  0.
        -12    1    1    2    0    0 -0.30993213063E+02  0.63094131105E+01  0.40414775048E+01  0.31886070472E+02  0.00000000000E+00 0.  1.
         11    1    3    3    0    0  0.24832097648E+02  0.37806123527E+01 -0.35812145070E+01  0.25372252580E+02  0.51100000000E-03 0. -1.
        -11    1    3    3    0    0  0.10688322910E+02 -0.20192041051E+02  0.77693007001E-01  0.22846549081E+02  0.51100000000E-03 0.  1.
        -12    1    3    3    0    0 -0.45272074955E+01  0.10102015588E+02 -0.53795600477E+00  0.11083127867E+02  0.00000000000E+00 0.  1.
</event>
<event>
 7    1  0.1052674E-011  0.5930193E+02  0.7816164E-02  0.1266605E+00
        -11   -1    0    0    0    0  0.00000000000E+00  0.00000000000E+00  0.45593999997E+02  0.45594000000E+02  0.51100000000E-03 0. -1.
         11   -1    0    0    0    0 -0.00000000000E+00 -0.00000000000E+00 -0.45593999997E+02  0.45594000000E+02  0.51100000000E-03 0.  1.
    9900012    2    1    2    0    0 -0.77005899012E+01 -0.12087780501E+01  0.30918625167E+02  0.59301927627E+02  0.49999970088E+02 0.  0.
        -12    1    1    2    0    0  0.77005899012E+01  0.12087780501E+01 -0.30918625167E+02  0.31886072373E+02  0.00000000000E+00 0.  1.
         11    1    3    3    0    0  0.45921372697E+01 -0.17012437826E+02  0.28854239127E+02  0.33809434798E+02  0.51100000000E-03 0. -1.
        -11    1    3    3    0    0 -0.49480481936E+01  0.94618153342E+01 -0.65418005263E+01  0.12522151761E+02  0.51100000000E-03 0.  1.
        -12    1    3    3    0    0 -0.73446789773E+01  0.63418444417E+01  0.86061865658E+01  0.12970341067E+02  0.00000000000E+00 0.  1.
</event>
<event>
 7    1  0.1052674E-011  0.5930190E+02  0.7816164E-02  0.1266605E+00
        -11   -1    0    0    0    0  0.00000000000E+00  0.00000000000E+00  0.45593999997E+02  0.45594000000E+02  0.51100000000E-03 0.  1.
         11   -1    0    0    0    0 -0.00000000000E+00 -0.00000000000E+00 -0.45593999997E+02  0.45594000000E+02  0.51100000000E-03 0. -1.
    9900012    2    1    2    0    0 -0.16530507312E+02 -0.22062437790E+02 -0.16022314487E+02  0.59301899663E+02  0.49999919089E+02 0.  0.
        -12    1    1    2    0    0  0.16530507312E+02  0.22062437790E+02  0.16022314487E+02  0.31886100337E+02  0.00000000000E+00 0.  1.
         11    1    3    3    0    0 -0.70063037787E+01  0.47203020062E+01 -0.13325313544E+02  0.15777627356E+02  0.51100000000E-03 0. -1.
        -11    1    3    3    0    0 -0.11624782981E+02 -0.29770332178E+02 -0.11522333561E+02  0.33973113315E+02  0.51100000000E-03 0.  1.
        -12    1    3    3    0    0  0.21005794481E+01  0.29875923817E+01  0.88253326190E+01  0.95511589921E+01  0.00000000000E+00 0.  1.
</event>
<event>
 7    1  0.1052674E-011  0.5930195E+02  0.7816164E-02  0.1266605E+00
        -11   -1    0    0    0    0  0.00000000000E+00  0.00000000000E+00  0.45593999997E+02  0.45594000000E+02  0.51100000000E-03 0. -1.
         11   -1    0    0    0    0 -0.00000000000E+00 -0.00000000000E+00 -0.45593999997E+02  0.45594000000E+02  0.51100000000E-03 0.  1.
    9900012    2    1    2    0    0 -0.10445072004E+02  0.12057751786E+02  0.27608536681E+02  0.59301949680E+02  0.50000010309E+02 0.  0.
        -12    1    1    2    0    0  0.10445072004E+02 -0.12057751786E+02 -0.27608536681E+02  0.31886050320E+02  0.00000000000E+00 0.  1.
         11    1    3    3    0    0 -0.22417814499E+01  0.16649449905E+00  0.12042818978E+02  0.12250828285E+02  0.51100000000E-03 0. -1.
        -11    1    3    3    0    0 -0.88759269357E+01 -0.12308566256E+02 -0.42579898654E+01  0.15761134483E+02  0.51100000000E-03 0.  1.
        -12    1    3    3    0    0  0.67263638158E+00  0.24199823542E+02  0.19823707569E+02  0.31289986912E+02  0.00000000000E+00 0.  1.
</event>
<event>
 7    1  0.1052674E-011  0.5930196E+02  0.7816164E-02  0.1266605E+00
        -11   -1    0    0    0    0  0.00000000000E+00  0.00000000000E+00  0.45593999997E+02  0.45594000000E+02  0.51100000000E-03 0. -1.
         11   -1    0    0    0    0 -0.00000000000E+00 -0.00000000000E+00 -0.45593999997E+02  0.45594000000E+02  0.51100000000E-03 0.  1.
    9900012    2    1    2    0    0 -0.23968012778E+02 -0.50927174399E+01 -0.20403875015E+02  0.59301960373E+02  0.50000029810E+02 0.  0.
        -12    1    1    2    0    0  0.23968012778E+02  0.50927174399E+01  0.20403875015E+02  0.31886039627E+02  0.00000000000E+00 0.  1.
         11    1    3    3    0    0 -0.32570181779E+01  0.14460446968E+02  0.87701649639E+01  0.17222905901E+02  0.51100000000E-03 0. -1.
        -11    1    3    3    0    0 -0.12282803399E+02 -0.12964036613E+02 -0.24707371417E+02  0.30485860776E+02  0.51100000000E-03 0.  1.
         12    1    3    3    0    0 -0.84281912013E+01 -0.65891277952E+01 -0.44666685615E+01  0.11593193696E+02  0.00000000000E+00 0. -1.
</event>
<event>
 7    1  0.1052674E-011  0.5930195E+02  0.7816164E-02  0.1266605E+00
        -11   -1    0    0    0    0  0.00000000000E+00  0.00000000000E+00  0.45593999997E+02  0.45594000000E+02  0.51100000000E-03 0.  1.
         11   -1    0    0    0    0 -0.00000000000E+00 -0.00000000000E+00 -0.45593999997E+02  0.45594000000E+02  0.51100000000E-03 0. -1.
    9900012    2    1    2    0    0  0.15683523793E+02 -0.14770746969E+02 -0.23506858699E+02  0.59301948340E+02  0.50000007864E+02 0.  0.
        -12    1    1    2    0    0 -0.15683523793E+02  0.14770746969E+02  0.23506858699E+02  0.31886051660E+02  0.00000000000E+00 0.  1.
         11    1    3    3    0    0  0.82319582235E+01  0.11556505154E+01 -0.29493986224E+02  0.30643039796E+02  0.51100000000E-03 0. -1.
        -11    1    3    3    0    0  0.33944702047E+01 -0.20662271453E+02  0.75001027545E+01  0.22241929574E+02  0.51100000000E-03 0.  1.
        -12    1    3    3    0    0  0.40570953651E+01  0.47358739688E+01 -0.15129752290E+01  0.64169789694E+01  0.00000000000E+00 0.  1.
</event>
<event>
 7    1  0.1052674E-011  0.5930223E+02  0.7816164E-02  0.1266604E+00
        -11   -1    0    0    0    0  0.00000000000E+00  0.00000000000E+00  0.45593999997E+02  0.45594000000E+02  0.51100000000E-03 0. -1.
         11   -1    0    0    0    0 -0.00000000000E+00 -0.00000000000E+00 -0.45593999997E+02  0.45594000000E+02  0.51100000000E-03 0.  1.
    9900012    2    1    2    0    0  0.15101250286E+02 -0.27978005342E+02 -0.24261151303E+01  0.59302226091E+02  0.50000514414E+02 0.  0.
        -12    1    1    2    0    0 -0.15101250286E+02  0.27978005342E+02  0.24261151303E+01  0.31885773909E+02  0.00000000000E+00 0.  1.
         11    1    3    3    0    0 -0.82614339724E+01 -0.14716663198E+02  0.57221299812E+01  0.17820612749E+02  0.51100000000E-03 0. -1.
        -11    1    3    3    0    0  0.19460906720E+02  0.59623702231E+01 -0.30520547898E+00  0.20356077709E+02  0.51100000000E-03 0.  1.
        -12    1    3    3    0    0  0.39017775386E+01 -0.19223712368E+02 -0.78430396325E+01  0.21125535634E+02  0.00000000000E+00 0.  1.
</event>
<event>
 7    1  0.1052674E-011  0.5930196E+02  0.7816164E-02  0.1266605E+00
        -11   -1    0    0    0    0  0.00000000000E+00  0.00000000000E+00  0.45593999997E+02  0.45594000000E+02  0.51100000000E-03 0. -1.
         11   -1    0    0    0    0 -0.00000000000E+00 -0.00000000000E+00 -0.45593999997E+02  0.45594000000E+02  0.51100000000E-03 0.  1.
    9900012    2    1    2    0    0 -0.22624989120E+01 -0.21191116847E+02  0.23717862057E+02  0.59301963634E+02  0.50000035758E+02 0.  0.
        -12    1    1    2    0    0  0.22624989120E+01  0.21191116847E+02 -0.23717862057E+02  0.31886036366E+02  0.00000000000E+00 0.  1.
         11    1    3    3    0    0 -0.12663094954E+02 -0.11932220728E+02  0.94970554576E+01  0.19822359293E+02  0.51100000000E-03 0. -1.
        -11    1    3    3    0    0  0.16257219018E+02 -0.21096529651E+01 -0.58316744757E+01  0.17399891761E+02  0.51100000000E-03 0.  1.
        -12    1    3    3    0    0 -0.58566229761E+01 -0.71492431538E+01  0.20052481075E+02  0.22079712580E+02  0.00000000000E+00 0.  1.
</event>
<event>
 7    1  0.1052674E-011  0.5930194E+02  0.7816164E-02  0.1266605E+00
        -11   -1    0    0    0    0  0.00000000000E+00  0.00000000000E+00  0.45593999997E+02  0.45594000000E+02  0.51100000000E-03 0. -1.
         11   -1    0    0    0    0 -0.00000000000E+00 -0.00000000000E+00 -0.45593999997E+02  0.45594000000E+02  0.51100000000E-03 0.  1.
    9900012    2    1    2    0    0  0.45498928790E+01  0.46893890646E+01  0.31209437613E+02  0.59301938921E+02  0.49999990687E+02 0.  0.
        -12    1    1    2    0    0 -0.45498928790E+01 -0.46893890646E+01 -0.31209437613E+02  0.31886061079E+02  0.00000000000E+00 0.  1.
         11    1    3    3    0    0  0.30337490139E+01 -0.94401299878E+01  0.32635721822E+02  0.34108796906E+02  0.51100000000E-03 0. -1.
        -11    1    3    3    0    0  0.27183027839E+01  0.18673251520E+02 -0.47229935320E+01  0.19452150537E+02  0.51100000000E-03 0.  1.
         12    1    3    3    0    0 -0.12021589188E+01 -0.45437324672E+01  0.32967093229E+01  0.57409914787E+01  0.00000000000E+00 0. -1.
</event>
<event>
 7    1  0.1052674E-011  0.5930193E+02  0.7816164E-02  0.1266605E+00
        -11   -1    0    0    0    0  0.00000000000E+00  0.00000000000E+00  0.45593999997E+02  0.45594000000E+02  0.51100000000E-03 0.  1.
         11   -1    0    0    0    0 -0.00000000000E+00 -0.00000000000E+00 -0.45593999997E+02  0.45594000000E+02  0.51100000000E-03 0. -1.
    9900012    2    1    2    0    0  0.80474933370E+01  0.23554843780E+02 -0.19928084447E+02  0.59301931503E+02  0.49999977157E+02 0.  0.
        -12    1    1    2    0    0 -0.80474933370E+01 -0.23554843780E+02  0.19928084447E+02  0.31886068497E+02  0.00000000000E+00 0.  1.
         11    1    3    3    0    0 -0.70820592208E+01 -0.64090138660E+01  0.54868691530E+01  0.11015296406E+02  0.51100000000E-03 0. -1.
        -11    1    3    3    0    0 -0.55630665750E+00  0.23742210048E+02 -0.11362375983E+02  0.26326898855E+02  0.51100000000E-03 0.  1.
        -12    1    3    3    0    0  0.15685859215E+02  0.62216475975E+01 -0.14052577617E+02  0.21959736242E+02  0.00000000000E+00 0.  1.
</event>
<event>
 7    1  0.1052674E-011  0.5930197E+02  0.7816164E-02  0.1266605E+00
        -11   -1    0    0    0    0  0.00000000000E+00  0.00000000000E+00  0.45593999997E+02  0.45594000000E+02  0.51100000000E-03 0.  1.
         11   -1    0    0    0    0 -0.00000000000E+00 -0.00000000000E+00 -0.45593999997E+02  0.45594000000E+02  0.51100000000E-03 0. -1.
    9900012    2    1    2    0    0  0.29400039225E+02  0.12070884990E+02 -0.25788351348E+01  0.59301969179E+02  0.50000045870E+02 0.  0.
        -12    1    1    2    0    0 -0.29400039225E+02 -0.12070884990E+02  0.25788351348E+01  0.31886030821E+02  0.00000000000E+00 0.  1.
         11    1    3    3    0    0  0.13194389235E+02  0.40478380969E+00 -0.18779001828E+02  0.22954447654E+02  0.51100000000E-03 0. -1.
        -11    1    3    3    0    0  0.31596476048E+01  0.15336062471E+02  0.16559688877E+02  0.22790381328E+02  0.51100000000E-03 0.  1.
        -12    1    3    3    0    0  0.13046002385E+02 -0.36699612905E+01 -0.35952218443E+00  0.13557140196E+02  0.00000000000E+00 0.  1.
</event>
<event>
 7    1  0.1052674E-011  0.5930203E+02  0.7816164E-02  0.1266604E+00
        -11   -1    0    0    0    0  0.00000000000E+00  0.00000000000E+00  0.45593999997E+02  0.45594000000E+02  0.51100000000E-03 0. -1.
         11   -1    0    0    0    0 -0.00000000000E+00 -0.00000000000E+00 -0.45593999997E+02  0.45594000000E+02  0.51100000000E-03 0.  1.
    9900012    2    1    2    0    0  0.29230566291E+01  0.13473875834E+02  0.28751100833E+02  0.59302025197E+02  0.50000148033E+02 0.  0.
        -12    1    1    2    0    0 -0.29230566291E+01 -0.13473875834E+02 -0.28751100833E+02  0.31885974803E+02  0.00000000000E+00 0.  1.
         11    1    3    3    0    0  0.80679344291E+01  0.15384572456E+02  0.27452094164E+01  0.17587291168E+02  0.51100000000E-03 0. -1.
        -11    1    3    3    0    0 -0.14950739322E+02 -0.71914703329E+00  0.12019247944E+01  0.15016204654E+02  0.51100000000E-03 0.  1.
        -12    1    3    3    0    0  0.98058615220E+01 -0.11915495894E+01  0.24803966622E+02  0.26698529375E+02  0.00000000000E+00 0.  1.
</event>
<event>
 7    1  0.1052674E-011  0.5930194E+02  0.7816164E-02  0.1266605E+00
        -11   -1    0    0    0    0  0.00000000000E+00  0.00000000000E+00  0.45593999997E+02  0.45594000000E+02  0.51100000000E-03 0. -1.
         11   -1    0    0    0    0 -0.00000000000E+00 -0.00000000000E+00 -0.45593999997E+02  0.45594000000E+02  0.51100000000E-03 0.  1.
    9900012    2    1    2    0    0  0.11445060903E+02 -0.14471331001E+02  0.26005999673E+02  0.59301939425E+02  0.49999991605E+02 0.  0.
        -12    1    1    2    0    0 -0.11445060903E+02  0.14471331001E+02 -0.26005999673E+02  0.31886060575E+02  0.00000000000E+00 0.  1.
         11    1    3    3    0    0  0.10271807931E+02  0.29219230756E+01  0.21633871707E+02  0.24126169981E+02  0.51100000000E-03 0. -1.
        -11    1    3    3    0    0  0.61427765064E+01 -0.23102998797E+02 -0.36082913767E+01  0.24176476657E+02  0.51100000000E-03 0.  1.
        -12    1    3    3    0    0 -0.49695235342E+01  0.57097447202E+01  0.79804193424E+01  0.10999292787E+02  0.00000000000E+00 0.  1.
</event>
<event>
 7    1  0.1052674E-011  0.5930200E+02  0.7816164E-02  0.1266605E+00
        -11   -1    0    0    0    0  0.00000000000E+00  0.00000000000E+00  0.45593999997E+02  0.45594000000E+02  0.51100000000E-03 0.  1.
         11   -1    0    0    0    0 -0.00000000000E+00 -0.00000000000E+00 -0.45593999997E+02  0.45594000000E+02  0.51100000000E-03 0. -1.
    9900012    2    1    2    0    0  0.18629762403E+02  0.35374670894E+01 -0.25634647545E+02  0.59302001891E+02  0.50000105529E+02 0.  0.
        -12    1    1    2    0    0 -0.18629762403E+02 -0.35374670894E+01  0.25634647545E+02  0.31885998109E+02  0.00000000000E+00 0.  1.
         11    1    3    3    0    0 -0.85609726639E+01 -0.59613864743E+01  0.48589616417E+01  0.11508166237E+02  0.51100000000E-03 0. -1.
        -11    1    3    3    0    0  0.12026769295E+02  0.14876353344E+02 -0.95426626225E+01  0.21377826800E+02  0.51100000000E-03 0.  1.
         12    1    3    3    0    0  0.15163965772E+02 -0.53774997804E+01 -0.20950946565E+02  0.26416008854E+02  0.00000000000E+00 0. -1.
</event>
<event>
 7    1  0.1052674E-011  0.5930193E+02  0.7816164E-02  0.1266605E+00
        -11   -1    0    0    0    0  0.00000000000E+00  0.00000000000E+00  0.45593999997E+02  0.45594000000E+02  0.51100000000E-03 0. -1.
         11   -1    0    0    0    0 -0.00000000000E+00 -0.00000000000E+00 -0.45593999997E+02  0.45594000000E+02  0.51100000000E-03 0.  1.
    9900012    2    1    2    0    0  0.14361378002E+02 -0.26682719595E+02  0.99249422141E+01  0.59301934375E+02  0.49999982396E+02 0.  0.
        -12    1    1    2    0    0 -0.14361378002E+02  0.26682719595E+02 -0.99249422141E+01  0.31886065625E+02  0.00000000000E+00 0.  1.
         11    1    3    3    0    0  0.35361346669E+01 -0.28210929535E+01  0.19640936625E+02  0.20155128519E+02  0.51100000000E-03 0. -1.
        -11    1    3    3    0    0 -0.16252899963E+01 -0.24912879225E+02 -0.93104057421E+01  0.26645389361E+02  0.51100000000E-03 0.  1.
         12    1    3    3    0    0  0.12450533331E+02  0.10512525838E+01 -0.40558866909E+00  0.12501416495E+02  0.00000000000E+00 0. -1.
</event>
<event>
 7    1  0.1052674E-011  0.5930195E+02  0.7816164E-02  0.1266605E+00
        -11   -1    0    0    0    0  0.00000000000E+00  0.00000000000E+00  0.45593999997E+02  0.45594000000E+02  0.51100000000E-03 0.  1.
         11   -1    0    0    0    0 -0.00000000000E+00 -0.00000000000E+00 -0.45593999997E+02  0.45594000000E+02  0.51100000000E-03 0. -1.
    9900012    2    1    2    0    0 -0.50555882766E+01 -0.82669708195E+01 -0.30377931161E+02  0.59301945353E+02  0.50000002416E+02 0.  0.
        -12    1    1    2    0    0  0.50555882766E+01  0.82669708195E+01  0.30377931161E+02  0.31886054647E+02  0.00000000000E+00 0.  1.
         11    1    3    3    0    0  0.17788763633E+02 -0.13858399724E+02 -0.17415136297E+02  0.28491794029E+02  0.51100000000E-03 0. -1.
        -11    1    3    3    0    0 -0.14732674587E+02  0.10343734321E+02 -0.11324851044E+02  0.21267270432E+02  0.51100000000E-03 0.  1.
        -12    1    3    3    0    0 -0.81116773225E+01 -0.47523054162E+01 -0.16379438200E+01  0.95428808916E+01  0.00000000000E+00 0.  1.
</event>
<event>
 7    1  0.1052674E-011  0.5930207E+02  0.7816164E-02  0.1266604E+00
        -11   -1    0    0    0    0  0.00000000000E+00  0.00000000000E+00  0.45593999997E+02  0.45594000000E+02  0.51100000000E-03 0.  1.
         11   -1    0    0    0    0 -0.00000000000E+00 -0.00000000000E+00 -0.45593999997E+02  0.45594000000E+02  0.51100000000E-03 0. -1.
    9900012    2    1    2    0    0 -0.14113120798E+02  0.15688925012E+02 -0.23903771470E+02  0.59302065214E+02  0.50000221013E+02 0.  0.
        -12    1    1    2    0    0  0.14113120798E+02 -0.15688925012E+02  0.23903771470E+02  0.31885934786E+02  0.00000000000E+00 0.  1.
         11    1    3    3    0    0 -0.10454424144E+02 -0.17397171765E+02 -0.94915251933E+01  0.22406374548E+02  0.51100000000E-03 0. -1.
        -11    1    3    3    0    0 -0.12049241282E+01  0.11400812899E+02 -0.15631880689E+01  0.11570390405E+02  0.51100000000E-03 0.  1.
         12    1    3    3    0    0 -0.24537725266E+01  0.21685283878E+02 -0.12849058208E+02  0.25325300261E+02  0.00000000000E+00 0. -1.
</event>
<event>
 7    1  0.1052674E-011  0.5930195E+02  0.7816164E-02  0.1266605E+00
        -11   -1    0    0    0    0  0.00000000000E+00  0.00000000000E+00  0.45593999997E+02  0.45594000000E+02  0.51100000000E-03 0. -1.
         11   -1    0    0    0    0 -0.00000000000E+00 -0.00000000000E+00 -0.45593999997E+02  0.45594000000E+02  0.51100000000E-03 0.  1.
    9900012    2    1    2    0    0  0.16080593100E+02  0.27005854750E+02 -0.53683112289E+01  0.59301946142E+02  0.50000003855E+02 0.  0.
        -12    1    1    2    0    0 -0.16080593100E+02 -0.27005854750E+02  0.53683112289E+01  0.31886053858E+02  0.00000000000E+00 0.  1.
         11    1    3    3    0    0  0.13905273259E+01  0.12839475818E+02  0.62754548648E+00  0.12929791921E+02  0.51100000000E-03 0. -1.
        -11    1    3    3    0    0  0.19507687382E+01 -0.12318429227E+02  0.69276869044E+01  0.14266816162E+02  0.51100000000E-03 0.  1.
        -12    1    3    3    0    0  0.12739297036E+02  0.26484808159E+02 -0.12923543620E+02  0.32105338059E+02  0.00000000000E+00 0.  1.
</event>
<event>
 7    1  0.1052674E-011  0.5930209E+02  0.7816164E-02  0.1266604E+00
        -11   -1    0    0    0    0  0.00000000000E+00  0.00000000000E+00  0.45593999997E+02  0.45594000000E+02  0.51100000000E-03 0.  1.
         11   -1    0    0    0    0 -0.00000000000E+00 -0.00000000000E+00 -0.45593999997E+02  0.45594000000E+02  0.51100000000E-03 0. -1.
    9900012    2    1    2    0    0 -0.44841697210E+01 -0.23770181707E+02 -0.20774552790E+02  0.59302088376E+02  0.50000263256E+02 0.  0.
        -12    1    1    2    0    0  0.44841697210E+01  0.23770181707E+02  0.20774552790E+02  0.31885911624E+02  0.00000000000E+00 0.  1.
         11    1    3    3    0    0  0.44042574316E+01 -0.11891460354E+02  0.58497901343E+01  0.13965112164E+02  0.51100000000E-03 0.  1.
        -11    1    3    3    0    0 -0.25983010068E+01 -0.58373105154E+01 -0.33579367689E+02  0.34181856252E+02  0.51100000000E-03 0. -1.
         12    1    3    3    0    0 -0.62901261458E+01 -0.60414108374E+01  0.69550247650E+01  0.11155119960E+02  0.00000000000E+00 0. -1.
</event>
<event>
 7    1  0.1052674E-011  0.5930203E+02  0.7816164E-02  0.1266604E+00
        -11   -1    0    0    0    0  0.00000000000E+00  0.00000000000E+00  0.45593999997E+02  0.45594000000E+02  0.51100000000E-03 0. -1.
         11   -1    0    0    0    0 -0.00000000000E+00 -0.00000000000E+00 -0.45593999997E+02  0.45594000000E+02  0.51100000000E-03 0.  1.
    9900012    2    1    2    0    0  0.31489390558E+02 -0.19642458618E+01  0.46124659243E+01  0.59302034099E+02  0.50000164268E+02 0.  0.
        -12    1    1    2    0    0 -0.31489390558E+02  0.19642458618E+01 -0.46124659243E+01  0.31885965901E+02  0.00000000000E+00 0.  1.
         11    1    3    3    0    0  0.15682947454E+02 -0.11857098203E+02  0.15021765736E+02  0.24742656784E+02  0.51100000000E-03 0. -1.
        -11    1    3    3    0    0  0.19201146244E+01  0.38043833837E+01 -0.17363097433E+02  0.17878403895E+02  0.51100000000E-03 0.  1.
        -12    1    3    3    0    0  0.13886328479E+02  0.60884689574E+01  0.69537976211E+01  0.16680973420E+02  0.00000000000E+00 0.  1.
</event>
<event>
 7    1  0.1052674E-011  0.5930191E+02  0.7816164E-02  0.1266605E+00
        -11   -1    0    0    0    0  0.00000000000E+00  0.00000000000E+00  0.45593999997E+02  0.45594000000E+02  0.51100000000E-03 0.  1.
         11   -1    0    0    0    0 -0.00000000000E+00 -0.00000000000E+00 -0.45593999997E+02  0.45594000000E+02  0.51100000000E-03 0. -1.
    9900012    2    1    2    0    0 -0.75176303313E+00 -0.31548554434E+02  0.45658060949E+01  0.59301905542E+02  0.49999929810E+02 0.  0.
        -12    1    1    2    0    0  0.75176303313E+00  0.31548554434E+02 -0.45658060949E+01  0.31886094458E+02  0.00000000000E+00 0.  1.
         11    1    3    3    0    0 -0.75281480162E+01  0.72956261301E+01 -0.94371156429E+00  0.10525671711E+02  0.51100000000E-03 0. -1.
        -11    1    3    3    0    0  0.16819951862E+02 -0.26492779862E+02 -0.14215158805E+01  0.31413355012E+02  0.51100000000E-03 0.  1.
        -12    1    3    3    0    0 -0.10043566879E+02 -0.12351400702E+02  0.69310335397E+01  0.17362878819E+02  0.00000000000E+00 0.  1.
</event>
<event>
 7    1  0.1052674E-011  0.5930196E+02  0.7816164E-02  0.1266605E+00
        -11   -1    0    0    0    0  0.00000000000E+00  0.00000000000E+00  0.45593999997E+02  0.45594000000E+02  0.51100000000E-03 0.  1.
         11   -1    0    0    0    0 -0.00000000000E+00 -0.00000000000E+00 -0.45593999997E+02  0.45594000000E+02  0.51100000000E-03 0. -1.
    9900012    2    1    2    0    0 -0.11704146578E+02  0.20526839828E+02 -0.21409844702E+02  0.59301958374E+02  0.50000026164E+02 0.  0.
        -12    1    1    2    0    0  0.11704146578E+02 -0.20526839828E+02  0.21409844702E+02  0.31886041626E+02  0.00000000000E+00 0.  1.
         11    1    3    3    0    0  0.46919293177E+01 -0.10627232601E+02 -0.14053926181E+02  0.18233625938E+02  0.51100000000E-03 0. -1.
        -11    1    3    3    0    0 -0.75121242048E+01  0.30424866968E+02 -0.71909244258E+01  0.32152977070E+02  0.51100000000E-03 0.  1.
        -12    1    3    3    0    0 -0.88839516913E+01  0.72920546066E+00 -0.16499409493E+00  0.89153553664E+01  0.00000000000E+00 0.  1.
</event>
<event>
 7    1  0.1052674E-011  0.5930191E+02  0.7816164E-02  0.1266605E+00
        -11   -1    0    0    0    0  0.00000000000E+00  0.00000000000E+00  0.45593999997E+02  0.45594000000E+02  0.51100000000E-03 0.  1.
         11   -1    0    0    0    0 -0.00000000000E+00 -0.00000000000E+00 -0.45593999997E+02  0.45594000000E+02  0.51100000000E-03 0. -1.
    9900012    2    1    2    0    0  0.21421504835E+02 -0.29093948235E+01 -0.23438802794E+02  0.59301907043E+02  0.49999932549E+02 0.  0.
        -12    1    1    2    0    0 -0.21421504835E+02  0.29093948235E+01  0.23438802794E+02  0.31886092957E+02  0.00000000000E+00 0.  1.
         11    1    3    3    0    0  0.10571861494E+02  0.58309347786E+01 -0.21836993929E+02  0.24952321735E+02  0.51100000000E-03 0. -1.
        -11    1    3    3    0    0  0.10526448544E+02 -0.19976667377E+02  0.16702413185E+01  0.22642064057E+02  0.51100000000E-03 0.  1.
        -12    1    3    3    0    0  0.32319479754E+00  0.11236337775E+02 -0.32720501836E+01  0.11707521252E+02  0.00000000000E+00 0.  1.
</event>
<event>
 7    1  0.1500621E-011  0.5930194E+02  0.7816164E-02  0.1266605E+00
        -11   -1    0    0    0    0  0.00000000000E+00  0.00000000000E+00  0.45593999997E+02  0.45594000000E+02  0.51100000000E-03 0.  1.
         11   -1    0    0    0    0 -0.00000000000E+00 -0.00000000000E+00 -0.45593999997E+02  0.45594000000E+02  0.51100000000E-03 0. -1.
    9900012    2    1    2    0    0 -0.31356169243E+02 -0.15180715110E+01  0.55863064402E+01  0.59301941756E+02  0.49999995857E+02 0.  0.
        -12    1    1    2    0    0  0.31356169243E+02  0.15180715110E+01 -0.55863064402E+01  0.31886058244E+02  0.00000000000E+00 0.  1.
         11    1    3    3    0    0 -0.21729486502E+02 -0.12731382678E+02 -0.11454098048E+02  0.27666858349E+02  0.51100000000E-03 0. -1.
        -11    1    3    3    0    0  0.20847437103E+01 -0.25201680659E+01  0.12641531840E+02  0.13057784305E+02  0.51100000000E-03 0.  1.
         12    1    3    3    0    0 -0.11711426451E+02  0.13733479233E+02  0.43988726479E+01  0.18577299102E+02  0.00000000000E+00 0. -1.
</event>
<event>
 7    1  0.1052674E-011  0.5930194E+02  0.7816164E-02  0.1266605E+00
        -11   -1    0    0    0    0  0.00000000000E+00  0.00000000000E+00  0.45593999997E+02  0.45594000000E+02  0.51100000000E-03 0.  1.
         11   -1    0    0    0    0 -0.00000000000E+00 -0.00000000000E+00 -0.45593999997E+02  0.45594000000E+02  0.51100000000E-03 0. -1.
    9900012    2    1    2    0    0  0.22314465895E+02  0.12314950753E+02 -0.19160563823E+02  0.59301943388E+02  0.49999998834E+02 0.  0.
        -12    1    1    2    0    0 -0.22314465895E+02 -0.12314950753E+02  0.19160563823E+02  0.31886056612E+02  0.00000000000E+00 0.  1.
         11    1    3    3    0    0 -0.45758348698E+01  0.18683386404E+02 -0.12081138709E+02  0.22714777240E+02  0.51100000000E-03 0. -1.
        -11    1    3    3    0    0  0.15693026959E+02 -0.14974989476E+02 -0.54885294959E+01  0.22375105837E+02  0.51100000000E-03 0.  1.
         12    1    3    3    0    0  0.11197273805E+02  0.86065538251E+01 -0.15908956187E+01  0.14212060311E+02  0.00000000000E+00 0. -1.
</event>
<event>
 7    1  0.1052674E-011  0.5930196E+02  0.7816164E-02  0.1266605E+00
        -11   -1    0    0    0    0  0.00000000000E+00  0.00000000000E+00  0.45593999997E+02  0.45594000000E+02  0.51100000000E-03 0. -1.
         11   -1    0    0    0    0 -0.00000000000E+00 -0.00000000000E+00 -0.45593999997E+02  0.45594000000E+02  0.51100000000E-03 0.  1.
    9900012    2    1    2    0    0  0.25560458526E+01 -0.23265784809E+02  0.21653848003E+02  0.59301964710E+02  0.50000037719E+02 0.  0.
        -12    1    1    2    0    0 -0.25560458526E+01  0.23265784809E+02 -0.21653848003E+02  0.31886035290E+02  0.00000000000E+00 0.  1.
         11    1    3    3    0    0 -0.15166529180E+02  0.46188268299E+01 -0.10729506092E+01  0.15890512639E+02  0.51100000000E-03 0. -1.
        -11    1    3    3    0    0  0.91196074521E+01 -0.15852926336E+01  0.46426480094E+01  0.10355412769E+02  0.51100000000E-03 0.  1.
         12    1    3    3    0    0  0.86029675805E+01 -0.26299319005E+02  0.18084150603E+02  0.33056039302E+02  0.00000000000E+00 0. -1.
</event>
<event>
 7    1  0.1052674E-011  0.5930193E+02  0.7816164E-02  0.1266605E+00
        -11   -1    0    0    0    0  0.00000000000E+00  0.00000000000E+00  0.45593999997E+02  0.45594000000E+02  0.51100000000E-03 0.  1.
         11   -1    0    0    0    0 -0.00000000000E+00 -0.00000000000E+00 -0.45593999997E+02  0.45594000000E+02  0.51100000000E-03 0. -1.
    9900012    2    1    2    0    0 -0.40809969890E+00  0.22939785870E+02 -0.22143194086E+02  0.59301931483E+02  0.49999977122E+02 0.  0.
        -12    1    1    2    0    0  0.40809969890E+00 -0.22939785870E+02  0.22143194086E+02  0.31886068517E+02  0.00000000000E+00 0.  1.
         11    1    3    3    0    0 -0.60835167756E+01  0.11859786506E+01  0.12260284754E+02  0.13737914843E+02  0.51100000000E-03 0.  1.
        -11    1    3    3    0    0  0.20424091006E+01  0.20539396924E+02 -0.35932999800E+02  0.41439338024E+02  0.51100000000E-03 0. -1.
         12    1    3    3    0    0  0.36330079761E+01  0.12144102961E+01  0.15295209602E+01  0.41246786165E+01  0.00000000000E+00 0. -1.
</event>
<event>
 7    1  0.1052674E-011  0.5930188E+02  0.7816164E-02  0.1266605E+00
        -11   -1    0    0    0    0  0.00000000000E+00  0.00000000000E+00  0.45593999997E+02  0.45594000000E+02  0.51100000000E-03 0.  1.
         11   -1    0    0    0    0 -0.00000000000E+00 -0.00000000000E+00 -0.45593999997E+02  0.45594000000E+02  0.51100000000E-03 0. -1.
    9900012    2    1    2    0    0  0.19981779811E+02  0.10813388390E+02 -0.22372389469E+02  0.59301879141E+02  0.49999881662E+02 0.  0.
        -12    1    1    2    0    0 -0.19981779811E+02 -0.10813388390E+02  0.22372389469E+02  0.31886120859E+02  0.00000000000E+00 0.  1.
         11    1    3    3    0    0  0.35048058916E+01  0.15169416582E+01 -0.12220350855E+02  0.12803193024E+02  0.51100000000E-03 0. -1.
        -11    1    3    3    0    0 -0.16363589543E+00  0.15659224610E+02  0.10779819126E+02  0.19011643610E+02  0.51100000000E-03 0.  1.
        -12    1    3    3    0    0  0.16640609815E+02 -0.63627778780E+01 -0.20931857740E+02  0.27487042507E+02  0.00000000000E+00 0.  1.
</event>
<event>
 7    1  0.1052674E-011  0.5930195E+02  0.7816164E-02  0.1266605E+00
        -11   -1    0    0    0    0  0.00000000000E+00  0.00000000000E+00  0.45593999997E+02  0.45594000000E+02  0.51100000000E-03 0. -1.
         11   -1    0    0    0    0 -0.00000000000E+00 -0.00000000000E+00 -0.45593999997E+02  0.45594000000E+02  0.51100000000E-03 0.  1.
    9900012    2    1    2    0    0 -0.18792094986E+02 -0.13628277716E+02  0.21859717737E+02  0.59301952158E+02  0.50000014827E+02 0.  0.
        -12    1    1    2    0    0  0.18792094986E+02  0.13628277716E+02 -0.21859717737E+02  0.31886047842E+02  0.00000000000E+00 0.  1.
         11    1    3    3    0    0  0.54287148265E+01 -0.23492096398E+02  0.21543844177E+01  0.24207249128E+02  0.51100000000E-03 0. -1.
        -11    1    3    3    0    0 -0.19510052023E+02  0.11822204085E+02  0.11793264113E+02  0.25680492948E+02  0.51100000000E-03 0.  1.
         12    1    3    3    0    0 -0.47107577891E+01 -0.19583854025E+01  0.79120692064E+01  0.94142100815E+01  0.00000000000E+00 0. -1.
</event>
<event>
 7    1  0.1052674E-011  0.5930193E+02  0.7816164E-02  0.1266605E+00
        -11   -1    0    0    0    0  0.00000000000E+00  0.00000000000E+00  0.45593999997E+02  0.45594000000E+02  0.51100000000E-03 0. -1.
         11   -1    0    0    0    0 -0.00000000000E+00 -0.00000000000E+00 -0.45593999997E+02  0.45594000000E+02  0.51100000000E-03 0.  1.
    9900012    2    1    2    0    0  0.12996326446E+02 -0.14277589360E+02  0.25376508991E+02  0.59301933018E+02  0.49999979920E+02 0.  0.
        -12    1    1    2    0    0 -0.12996326446E+02  0.14277589360E+02 -0.25376508991E+02  0.31886066982E+02  0.00000000000E+00 0.  1.
         11    1    3    3    0    0 -0.13871689084E+02  0.60659432367E+01 -0.20048023397E+01  0.15272153027E+02  0.51100000000E-03 0. -1.
        -11    1    3    3    0    0  0.90558133119E+01 -0.71999441947E+01  0.14005346747E+02  0.18165810990E+02  0.51100000000E-03 0.  1.
         12    1    3    3    0    0  0.17812202218E+02 -0.13143588402E+02  0.13375964583E+02  0.25863969001E+02  0.00000000000E+00 0. -1.
</event>
<event>
 7    1  0.1052674E-011  0.5930194E+02  0.7816164E-02  0.1266605E+00
        -11   -1    0    0    0    0  0.00000000000E+00  0.00000000000E+00  0.45593999997E+02  0.45594000000E+02  0.51100000000E-03 0.  1.
         11   -1    0    0    0    0 -0.00000000000E+00 -0.00000000000E+00 -0.45593999997E+02  0.45594000000E+02  0.51100000000E-03 0. -1.
    9900012    2    1    2    0    0 -0.95352074758E+01 -0.10315918407E+02 -0.28624854677E+02  0.59301942554E+02  0.49999997311E+02 0.  0.
        -12    1    1    2    0    0  0.95352074758E+01  0.10315918407E+02  0.28624854677E+02  0.31886057446E+02  0.00000000000E+00 0.  1.
         11    1    3    3    0    0 -0.16697480064E+02 -0.11596584228E+01 -0.34699664780E+02  0.38525541972E+02  0.51100000000E-03 0. -1.
        -11    1    3    3    0    0  0.35124942292E+01 -0.13585006139E+02  0.33632993836E+01  0.14429199233E+02  0.51100000000E-03 0.  1.
        -12    1    3    3    0    0  0.36497783593E+01  0.44287461548E+01  0.27115107188E+01  0.63472013482E+01  0.00000000000E+00 0.  1.
</event>
<event>
 7    1  0.1052674E-011  0.5930194E+02  0.7816164E-02  0.1266605E+00
        -11   -1    0    0    0    0  0.00000000000E+00  0.00000000000E+00  0.45593999997E+02  0.45594000000E+02  0.51100000000E-03 0. -1.
         11   -1    0    0    0    0 -0.00000000000E+00 -0.00000000000E+00 -0.45593999997E+02  0.45594000000E+02  0.51100000000E-03 0.  1.
    9900012    2    1    2    0    0  0.23561277095E+02 -0.70915287075E+00  0.21472876666E+02  0.59301935513E+02  0.49999984471E+02 0.  0.
        -12    1    1    2    0    0 -0.23561277095E+02  0.70915287075E+00 -0.21472876666E+02  0.31886064487E+02  0.00000000000E+00 0.  1.
         11    1    3    3    0    0  0.62272830249E+01  0.10409641046E+02 -0.50912900726E+01  0.13155261892E+02  0.51100000000E-03 0. -1.
        -11    1    3    3    0    0  0.17445625946E+02 -0.12447313301E+02  0.33124232012E+02  0.39452505874E+02  0.51100000000E-03 0.  1.
        -12    1    3    3    0    0 -0.11163187623E+00  0.13285193835E+01 -0.65600652734E+01  0.66941677466E+01  0.00000000000E+00 0.  1.
</event>
<event>
 7    1  0.1052674E-011  0.5930195E+02  0.7816164E-02  0.1266605E+00
        -11   -1    0    0    0    0  0.00000000000E+00  0.00000000000E+00  0.45593999997E+02  0.45594000000E+02  0.51100000000E-03 0. -1.
         11   -1    0    0    0    0 -0.00000000000E+00 -0.00000000000E+00 -0.45593999997E+02  0.45594000000E+02  0.51100000000E-03 0.  1.
    9900012    2    1    2    0    0  0.50928822246E+01  0.83088377315E+00  0.31465728878E+02  0.59301954290E+02  0.50000018716E+02 0.  0.
        -12    1    1    2    0    0 -0.50928822246E+01 -0.83088377315E+00 -0.31465728878E+02  0.31886045710E+02  0.00000000000E+00 0.  1.
         11    1    3    3    0    0 -0.10123342771E+02  0.46638019749E+01  0.56975414595E+01  0.12517791206E+02  0.51100000000E-03 0. -1.
        -11    1    3    3    0    0  0.22928714363E+02 -0.71117478225E+01  0.51844190702E+01  0.24559745536E+02  0.51100000000E-03 0.  1.
        -12    1    3    3    0    0 -0.77124893672E+01  0.32788296207E+01  0.20583768348E+02  0.22224417548E+02  0.00000000000E+00 0.  1.
</event>
<event>
 7    1  0.1228865E-011  0.5930193E+02  0.7816164E-02  0.1266605E+00
        -11   -1    0    0    0    0  0.00000000000E+00  0.00000000000E+00  0.45593999997E+02  0.45594000000E+02  0.51100000000E-03 0.  1.
         11   -1    0    0    0    0 -0.00000000000E+00 -0.00000000000E+00 -0.45593999997E+02  0.45594000000E+02  0.51100000000E-03 0. -1.
    9900012    2    1    2    0    0  0.28959309697E+01 -0.21929941357E+02 -0.22965464641E+02  0.59301932349E+02  0.49999978701E+02 0.  0.
        -12    1    1    2    0    0 -0.28959309697E+01  0.21929941357E+02  0.22965464641E+02  0.31886067651E+02  0.00000000000E+00 0.  1.
         11    1    3    3    0    0 -0.92079055975E+01 -0.12798235239E+01 -0.18727361243E+02  0.20907834253E+02  0.51100000000E-03 0. -1.
        -11    1    3    3    0    0  0.63080148896E+01  0.85355678448E+00  0.10077033316E+02  0.11919153147E+02  0.51100000000E-03 0.  1.
         12    1    3    3    0    0  0.57958216776E+01 -0.21503674617E+02 -0.14315136713E+02  0.26474944949E+02  0.00000000000E+00 0. -1.
</event>
<event>
 7    1  0.1052674E-011  0.5930188E+02  0.7816164E-02  0.1266605E+00
        -11   -1    0    0    0    0  0.00000000000E+00  0.00000000000E+00  0.45593999997E+02  0.45594000000E+02  0.51100000000E-03 0.  1.
         11   -1    0    0    0    0 -0.00000000000E+00 -0.00000000000E+00 -0.45593999997E+02  0.45594000000E+02  0.51100000000E-03 0. -1.
    9900012    2    1    2    0    0  0.95371163525E+01 -0.17533698382E+02 -0.24866391662E+02  0.59301880739E+02  0.49999884576E+02 0.  0.
        -12    1    1    2    0    0 -0.95371163525E+01  0.17533698382E+02  0.24866391662E+02  0.31886119261E+02  0.00000000000E+00 0.  1.
         11    1    3    3    0    0 -0.22979188915E+01 -0.23082873303E+02 -0.14957326457E+02  0.27601106611E+02  0.51100000000E-03 0. -1.
        -11    1    3    3    0    0  0.10524193955E+02  0.10830226804E+02 -0.17015512920E+02  0.22750387935E+02  0.51100000000E-03 0.  1.
        -12    1    3    3    0    0  0.13108412893E+01 -0.52810518826E+01  0.71064477146E+01  0.89503861924E+01  0.00000000000E+00 0.  1.
</event>
<event>
 7    1  0.1052674E-011  0.5930194E+02  0.7816164E-02  0.1266605E+00
        -11   -1    0    0    0    0  0.00000000000E+00  0.00000000000E+00  0.45593999997E+02  0.45594000000E+02  0.51100000000E-03 0.  1.
         11   -1    0    0    0    0 -0.00000000000E+00 -0.00000000000E+00 -0.45593999997E+02  0.45594000000E+02  0.51100000000E-03 0. -1.
    9900012    2    1    2    0    0  0.16719357606E+02 -0.21432256996E+02 -0.16668607214E+02  0.59301936819E+02  0.49999986854E+02 0.  0.
        -12    1    1    2    0    0 -0.16719357606E+02  0.21432256996E+02  0.16668607214E+02  0.31886063181E+02  0.00000000000E+00 0.  1.
         11    1    3    3    0    0  0.17656574075E+02  0.84544227262E+00 -0.16382006599E+02  0.24100612465E+02  0.51100000000E-03 0. -1.
        -11    1    3    3    0    0  0.12321923673E+01 -0.52121554261E+01  0.12610529163E+02  0.13700741157E+02  0.51100000000E-03 0.  1.
        -12    1    3    3    0    0 -0.21694088356E+01 -0.17065543842E+02 -0.12897129778E+02  0.21500583198E+02  0.00000000000E+00 0.  1.
</event>
<event>
 7    1  0.1052674E-011  0.5930196E+02  0.7816164E-02  0.1266605E+00
        -11   -1    0    0    0    0  0.00000000000E+00  0.00000000000E+00  0.45593999997E+02  0.45594000000E+02  0.51100000000E-03 0.  1.
         11   -1    0    0    0    0 -0.00000000000E+00 -0.00000000000E+00 -0.45593999997E+02  0.45594000000E+02  0.51100000000E-03 0. -1.
    9900012    2    1    2    0    0  0.17945385738E+02  0.70033765765E+01 -0.25409356906E+02  0.59301959619E+02  0.50000028435E+02 0.  0.
        -12    1    1    2    0    0 -0.17945385738E+02 -0.70033765765E+01  0.25409356906E+02  0.31886040381E+02  0.00000000000E+00 0.  1.
         11    1    3    3    0    0 -0.47845679697E+00 -0.88572530676E+01 -0.26755781549E+02  0.28187793447E+02  0.51100000000E-03 0. -1.
        -11    1    3    3    0    0  0.44605855436E+01  0.11893325183E+02  0.81405155339E+01  0.15086948025E+02  0.51100000000E-03 0.  1.
         12    1    3    3    0    0  0.13963256992E+02  0.39673044609E+01 -0.67940908907E+01  0.16027218147E+02  0.00000000000E+00 0. -1.
</event>
<event>
 7    1  0.1052674E-011  0.5930194E+02  0.7816164E-02  0.1266605E+00
        -11   -1    0    0    0    0  0.00000000000E+00  0.00000000000E+00  0.45593999997E+02  0.45594000000E+02  0.51100000000E-03 0.  1.
         11   -1    0    0    0    0 -0.00000000000E+00 -0.00000000000E+00 -0.45593999997E+02  0.45594000000E+02  0.51100000000E-03 0. -1.
    9900012    2    1    2    0    0  0.13251930828E+02  0.45625990677E+01 -0.28640698073E+02  0.59301944003E+02  0.49999999956E+02 0.  0.
        -12    1    1    2    0    0 -0.13251930828E+02 -0.45625990677E+01  0.28640698073E+02  0.31886055997E+02  0.00000000000E+00 0.  1.
         11    1    3    3    0    0 -0.43280943504E+01  0.96999778731E+01 -0.37170807315E+02  0.38658645711E+02  0.51100000000E-03 0. -1.
        -11    1    3    3    0    0  0.44034435719E+01  0.20158491313E+00  0.32528873668E+01  0.54783417427E+01  0.51100000000E-03 0.  1.
         12    1    3    3    0    0  0.13176581607E+02 -0.53389637186E+01  0.52772218760E+01  0.15164956550E+02  0.00000000000E+00 0. -1.
</event>
<event>
 7    1  0.1052674E-011  0.5930192E+02  0.7816164E-02  0.1266605E+00
        -11   -1    0    0    0    0  0.00000000000E+00  0.00000000000E+00  0.45593999997E+02  0.45594000000E+02  0.51100000000E-03 0. -1.
         11   -1    0    0    0    0 -0.00000000000E+00 -0.00000000000E+00 -0.45593999997E+02  0.45594000000E+02  0.51100000000E-03 0.  1.
    9900012    2    1    2    0    0 -0.16558919400E+02 -0.26906854966E+02 -0.43064312261E+01  0.59301921443E+02  0.49999958811E+02 0.  0.
        -12    1    1    2    0    0  0.16558919400E+02  0.26906854966E+02  0.43064312261E+01  0.31886078557E+02  0.00000000000E+00 0.  1.
         11    1    3    3    0    0  0.51300890095E+01 -0.33169107422E+02 -0.52806052161E+01  0.33976349012E+02  0.51100000000E-03 0. -1.
        -11    1    3    3    0    0 -0.88399339036E+01 -0.22274741168E+01 -0.26712108112E+01  0.94995494535E+01  0.51100000000E-03 0.  1.
         12    1    3    3    0    0 -0.12849074506E+02  0.84897265737E+01  0.36453848012E+01  0.15826022978E+02  0.00000000000E+00 0. -1.
</event>
<event>
 7    1  0.1052674E-011  0.5930194E+02  0.7816164E-02  0.1266605E+00
        -11   -1    0    0    0    0  0.00000000000E+00  0.00000000000E+00  0.45593999997E+02  0.45594000000E+02  0.51100000000E-03 0. -1.
         11   -1    0    0    0    0 -0.00000000000E+00 -0.00000000000E+00 -0.45593999997E+02  0.45594000000E+02  0.51100000000E-03 0.  1.
    9900012    2    1    2    0    0 -0.21138760503E+02  0.18259826790E+02  0.15377016497E+02  0.59301935546E+02  0.49999984532E+02 0.  0.
        -12    1    1    2    0    0  0.21138760503E+02 -0.18259826790E+02 -0.15377016497E+02  0.31886064454E+02  0.00000000000E+00 0.  1.
         11    1    3    3    0    0 -0.14554807393E+02 -0.98623727500E+01  0.11541597303E+02  0.21031340497E+02  0.51100000000E-03 0. -1.
        -11    1    3    3    0    0  0.83742789934E+01  0.18349085823E+02  0.29118860291E+01  0.20378826750E+02  0.51100000000E-03 0.  1.
         12    1    3    3    0    0 -0.14958232103E+02  0.97731137166E+01  0.92353316492E+00  0.17891768299E+02  0.00000000000E+00 0. -1.
</event>
<event>
 7    1  0.1052674E-011  0.5930196E+02  0.7816164E-02  0.1266605E+00
        -11   -1    0    0    0    0  0.00000000000E+00  0.00000000000E+00  0.45593999997E+02  0.45594000000E+02  0.51100000000E-03 0. -1.
         11   -1    0    0    0    0 -0.00000000000E+00 -0.00000000000E+00 -0.45593999997E+02  0.45594000000E+02  0.51100000000E-03 0.  1.
    9900012    2    1    2    0    0 -0.40576323811E+01  0.20020355287E+02  0.24483473769E+02  0.59301960827E+02  0.50000030638E+02 0.  0.
        -12    1    1    2    0    0  0.40576323811E+01 -0.20020355287E+02 -0.24483473769E+02  0.31886039173E+02  0.00000000000E+00 0.  1.
         11    1    3    3    0    0 -0.53793364719E+01  0.19246996191E+02  0.33541773281E+02  0.39044009506E+02  0.51100000000E-03 0. -1.
        -11    1    3    3    0    0 -0.15804636839E+01  0.64623141164E+01 -0.11609667692E+02  0.13380723201E+02  0.51100000000E-03 0.  1.
        -12    1    3    3    0    0  0.29021677747E+01 -0.56889550207E+01  0.25513681801E+01  0.68772281197E+01  0.00000000000E+00 0.  1.
</event>
<event>
 7    1  0.1052674E-011  0.5930195E+02  0.7816164E-02  0.1266605E+00
        -11   -1    0    0    0    0  0.00000000000E+00  0.00000000000E+00  0.45593999997E+02  0.45594000000E+02  0.51100000000E-03 0.  1.
         11   -1    0    0    0    0 -0.00000000000E+00 -0.00000000000E+00 -0.45593999997E+02  0.45594000000E+02  0.51100000000E-03 0. -1.
    9900012    2    1    2    0    0  0.11597895286E+02 -0.27093030673E+02 -0.12172797527E+02  0.59301945278E+02  0.50000002280E+02 0.  0.
        -12    1    1    2    0    0 -0.11597895286E+02  0.27093030673E+02  0.12172797527E+02  0.31886054722E+02  0.00000000000E+00 0.  1.
         11    1    3    3    0    0 -0.11530247324E+02 -0.57514437790E+01 -0.19060344200E+02  0.23007008283E+02  0.51100000000E-03 0. -1.
        -11    1    3    3    0    0 -0.30270205839E+00 -0.68106382564E+01  0.53771040989E+01  0.86827225424E+01  0.51100000000E-03 0.  1.
         12    1    3    3    0    0  0.23430844668E+02 -0.14530948637E+02  0.15104425737E+01  0.27612214452E+02  0.00000000000E+00 0. -1.
</event>
<event>
 7    1  0.1052674E-011  0.5930195E+02  0.7816164E-02  0.1266605E+00
        -11   -1    0    0    0    0  0.00000000000E+00  0.00000000000E+00  0.45593999997E+02  0.45594000000E+02  0.51100000000E-03 0.  1.
         11   -1    0    0    0    0 -0.00000000000E+00 -0.00000000000E+00 -0.45593999997E+02  0.45594000000E+02  0.51100000000E-03 0. -1.
    9900012    2    1    2    0    0  0.14620563910E+02  0.19432129940E+02 -0.20624060012E+02  0.59301946396E+02  0.50000004320E+02 0.  0.
        -12    1    1    2    0    0 -0.14620563910E+02 -0.19432129940E+02  0.20624060012E+02  0.31886053604E+02  0.00000000000E+00 0.  1.
         11    1    3    3    0    0  0.14881905167E+02  0.42048920061E+01  0.13800163351E+02  0.20726715296E+02  0.51100000000E-03 0. -1.
        -11    1    3    3    0    0 -0.73401897017E+00  0.15916324155E+02 -0.29015848648E+02  0.33102683146E+02  0.51100000000E-03 0.  1.
         12    1    3    3    0    0  0.47267771234E+00 -0.68908622179E+00 -0.54083747155E+01  0.54725479536E+01  0.00000000000E+00 0. -1.
</event>
<event>
 7    1  0.1052674E-011  0.5930195E+02  0.7816164E-02  0.1266605E+00
        -11   -1    0    0    0    0  0.00000000000E+00  0.00000000000E+00  0.45593999997E+02  0.45594000000E+02  0.51100000000E-03 0. -1.
         11   -1    0    0    0    0 -0.00000000000E+00 -0.00000000000E+00 -0.45593999997E+02  0.45594000000E+02  0.51100000000E-03 0.  1.
    9900012    2    1    2    0    0 -0.83599950703E+01  0.29607035936E+02  0.83817600165E+01  0.59301952966E+02  0.50000016302E+02 0.  0.
        -12    1    1    2    0    0  0.83599950703E+01 -0.29607035936E+02 -0.83817600165E+01  0.31886047034E+02  0.00000000000E+00 0.  1.
         11    1    3    3    0    0  0.12275122297E+02  0.11639121042E+02  0.22285083810E+01  0.17062063647E+02  0.51100000000E-03 0. -1.
        -11    1    3    3    0    0 -0.26082357188E+02  0.77343012511E+01  0.11422356796E+02  0.29505575869E+02  0.51100000000E-03 0.  1.
        -12    1    3    3    0    0  0.54472398214E+01  0.10233613642E+02 -0.52691051605E+01  0.12734313450E+02  0.00000000000E+00 0.  1.
</event>
<event>
 7    1  0.1052674E-011  0.5930194E+02  0.7816164E-02  0.1266605E+00
        -11   -1    0    0    0    0  0.00000000000E+00  0.00000000000E+00  0.45593999997E+02  0.45594000000E+02  0.51100000000E-03 0.  1.
         11   -1    0    0    0    0 -0.00000000000E+00 -0.00000000000E+00 -0.45593999997E+02  0.45594000000E+02  0.51100000000E-03 0. -1.
    9900012    2    1    2    0    0 -0.40521524699E+01 -0.24671728609E+02 -0.19789050312E+02  0.59301942790E+02  0.49999997742E+02 0.  0.
        -12    1    1    2    0    0  0.40521524699E+01  0.24671728609E+02  0.19789050312E+02  0.31886057210E+02  0.00000000000E+00 0.  1.
         11    1    3    3    0    0 -0.10237722388E+02  0.53886390248E+01 -0.47052702208E+01  0.12489513936E+02  0.51100000000E-03 0.  1.
        -11    1    3    3    0    0  0.17600316306E+02 -0.85476585575E+01 -0.36303068438E+01  0.19900068566E+02  0.51100000000E-03 0. -1.
         12    1    3    3    0    0 -0.11414746387E+02 -0.21512709076E+02 -0.11453473247E+02  0.26912360289E+02  0.00000000000E+00 0. -1.
</event>
<event>
 7    1  0.1052674E-011  0.5930194E+02  0.7816164E-02  0.1266605E+00
        -11   -1    0    0    0    0  0.00000000000E+00  0.00000000000E+00  0.45593999997E+02  0.45594000000E+02  0.51100000000E-03 0.  1.
         11   -1    0    0    0    0 -0.00000000000E+00 -0.00000000000E+00 -0.45593999997E+02  0.45594000000E+02  0.51100000000E-03 0. -1.
    9900012    2    1    2    0    0 -0.76046694958E+01  0.27468947047E+02 -0.14294998848E+02  0.59301936554E+02  0.49999986370E+02 0.  0.
        -12    1    1    2    0    0  0.76046694958E+01 -0.27468947047E+02  0.14294998848E+02  0.31886063446E+02  0.00000000000E+00 0.  1.
         11    1    3    3    0    0 -0.22791209114E+02  0.29282310574E+02 -0.13801456913E+02  0.39590063635E+02  0.51100000000E-03 0. -1.
        -11    1    3    3    0    0  0.10152521918E+02 -0.30789150320E+01  0.53617804031E+01  0.11887056340E+02  0.51100000000E-03 0.  1.
         12    1    3    3    0    0  0.50340177002E+01  0.12655515043E+01 -0.58553223382E+01  0.78248165793E+01  0.00000000000E+00 0. -1.
</event>
<event>
 7    1  0.1052674E-011  0.5930194E+02  0.7816164E-02  0.1266605E+00
        -11   -1    0    0    0    0  0.00000000000E+00  0.00000000000E+00  0.45593999997E+02  0.45594000000E+02  0.51100000000E-03 0.  1.
         11   -1    0    0    0    0 -0.00000000000E+00 -0.00000000000E+00 -0.45593999997E+02  0.45594000000E+02  0.51100000000E-03 0. -1.
    9900012    2    1    2    0    0  0.27913494812E+02 -0.45297994197E+01 -0.14732230836E+02  0.59301938769E+02  0.49999990410E+02 0.  0.
        -12    1    1    2    0    0 -0.27913494812E+02  0.45297994197E+01  0.14732230836E+02  0.31886061231E+02  0.00000000000E+00 0.  1.
         11    1    3    3    0    0 -0.37356865969E+01 -0.58903312646E+01 -0.24221532075E+02  0.25205832124E+02  0.51100000000E-03 0. -1.
        -11    1    3    3    0    0  0.15185080989E+02  0.21324826728E+01  0.54577326114E+00  0.15343794697E+02  0.51100000000E-03 0.  1.
         12    1    3    3    0    0  0.16464100419E+02 -0.77195082790E+00  0.89435279778E+01  0.18752311948E+02  0.00000000000E+00 0. -1.
</event>
<event>
 7    1  0.1052674E-011  0.5930194E+02  0.7816164E-02  0.1266605E+00
        -11   -1    0    0    0    0  0.00000000000E+00  0.00000000000E+00  0.45593999997E+02  0.45594000000E+02  0.51100000000E-03 0.  1.
         11   -1    0    0    0    0 -0.00000000000E+00 -0.00000000000E+00 -0.45593999997E+02  0.45594000000E+02  0.51100000000E-03 0. -1.
    9900012    2    1    2    0    0  0.13081336915E+02  0.23539959233E+02 -0.17072494981E+02  0.59301935002E+02  0.49999983540E+02 0.  0.
        -12    1    1    2    0    0 -0.13081336915E+02 -0.23539959233E+02  0.17072494981E+02  0.31886064998E+02  0.00000000000E+00 0.  1.
         11    1    3    3    0    0  0.72318388344E+01  0.18586892348E+02 -0.26810446967E+02  0.33415148165E+02  0.51100000000E-03 0. -1.
        -11    1    3    3    0    0  0.13681142833E+02 -0.79053668650E+00  0.84244562816E+01  0.16086332129E+02  0.51100000000E-03 0.  1.
        -12    1    3    3    0    0 -0.78316447523E+01  0.57436035713E+01  0.13134957044E+01  0.98004547076E+01  0.00000000000E+00 0.  1.
</event>
<event>
 7    1  0.1052674E-011  0.5930194E+02  0.7816164E-02  0.1266605E+00
        -11   -1    0    0    0    0  0.00000000000E+00  0.00000000000E+00  0.45593999997E+02  0.45594000000E+02  0.51100000000E-03 0.  1.
         11   -1    0    0    0    0 -0.00000000000E+00 -0.00000000000E+00 -0.45593999997E+02  0.45594000000E+02  0.51100000000E-03 0. -1.
    9900012    2    1    2    0    0 -0.16209709963E+02 -0.15689401627E+02 -0.22534612360E+02  0.59301940747E+02  0.49999994016E+02 0.  0.
        -12    1    1    2    0    0  0.16209709963E+02  0.15689401627E+02  0.22534612360E+02  0.31886059253E+02  0.00000000000E+00 0.  1.
         11    1    3    3    0    0 -0.26381814576E+01 -0.93987615278E+01 -0.36553948375E+02  0.37835008415E+02  0.51100000000E-03 0. -1.
        -11    1    3    3    0    0 -0.10386846550E+02 -0.21318321113E+01  0.11539850551E+02  0.15671612566E+02  0.51100000000E-03 0.  1.
         12    1    3    3    0    0 -0.31846819546E+01 -0.41588079875E+01  0.24794854636E+01  0.57953197662E+01  0.00000000000E+00 0. -1.
</event>
<event>
 7    1  0.1052674E-011  0.5930192E+02  0.7816164E-02  0.1266605E+00
        -11   -1    0    0    0    0  0.00000000000E+00  0.00000000000E+00  0.45593999997E+02  0.45594000000E+02  0.51100000000E-03 0. -1.
         11   -1    0    0    0    0 -0.00000000000E+00 -0.00000000000E+00 -0.45593999997E+02  0.45594000000E+02  0.51100000000E-03 0.  1.
    9900012    2    1    2    0    0 -0.53824259021E+01  0.24197089802E+02 -0.20056236173E+02  0.59301917254E+02  0.49999951171E+02 0.  0.
        -12    1    1    2    0    0  0.53824259021E+01 -0.24197089802E+02  0.20056236173E+02  0.31886082746E+02  0.00000000000E+00 0.  1.
         11    1    3    3    0    0 -0.13402953728E+02  0.34304118174E+02 -0.62613194705E+01  0.37357941781E+02  0.51100000000E-03 0. -1.
        -11    1    3    3    0    0 -0.84180298516E+00 -0.37894837813E+01 -0.94660993852E+01  0.10231122002E+02  0.51100000000E-03 0.  1.
         12    1    3    3    0    0  0.88623308111E+01 -0.63175445906E+01 -0.43288173168E+01  0.11712853471E+02  0.00000000000E+00 0. -1.
</event>
<event>
 7    1  0.1052674E-011  0.5930195E+02  0.7816164E-02  0.1266605E+00
        -11   -1    0    0    0    0  0.00000000000E+00  0.00000000000E+00  0.45593999997E+02  0.45594000000E+02  0.51100000000E-03 0.  1.
         11   -1    0    0    0    0 -0.00000000000E+00 -0.00000000000E+00 -0.45593999997E+02  0.45594000000E+02  0.51100000000E-03 0. -1.
    9900012    2    1    2    0    0  0.28528195506E+02 -0.13032713200E+02 -0.57454857864E+01  0.59301950400E+02  0.50000011621E+02 0.  0.
        -12    1    1    2    0    0 -0.28528195506E+02  0.13032713200E+02  0.57454857864E+01  0.31886049600E+02  0.00000000000E+00 0.  1.
         11    1    3    3    0    0  0.10519012030E+02  0.25969901671E+01  0.19998964193E+02  0.22745385050E+02  0.51100000000E-03 0.  1.
        -11    1    3    3    0    0  0.59471005970E+01 -0.11024102652E+02 -0.90566936206E+01  0.15457119537E+02  0.51100000000E-03 0. -1.
        -12    1    3    3    0    0  0.12062082879E+02 -0.46056007152E+01 -0.16687756359E+02  0.21099445813E+02  0.00000000000E+00 0.  1.
</event>
<event>
 7    1  0.1052674E-011  0.5930195E+02  0.7816164E-02  0.1266605E+00
        -11   -1    0    0    0    0  0.00000000000E+00  0.00000000000E+00  0.45593999997E+02  0.45594000000E+02  0.51100000000E-03 0.  1.
         11   -1    0    0    0    0 -0.00000000000E+00 -0.00000000000E+00 -0.45593999997E+02  0.45594000000E+02  0.51100000000E-03 0. -1.
    9900012    2    1    2    0    0  0.60021899958E+01 -0.48223818144E+01 -0.30942505500E+02  0.59301948226E+02  0.50000007657E+02 0.  0.
        -12    1    1    2    0    0 -0.60021899958E+01  0.48223818144E+01  0.30942505500E+02  0.31886051774E+02  0.00000000000E+00 0.  1.
         11    1    3    3    0    0 -0.47448840615E+01 -0.16503313189E+02 -0.55276147565E+01  0.18039617405E+02  0.51100000000E-03 0. -1.
        -11    1    3    3    0    0 -0.56949963884E+01  0.12786528247E+02 -0.46427500687E+01  0.14747318975E+02  0.51100000000E-03 0.  1.
         12    1    3    3    0    0  0.16442070446E+02 -0.11055968726E+01 -0.20772140675E+02  0.26515011846E+02  0.00000000000E+00 0. -1.
</event>
<event>
 7    1  0.1052674E-011  0.5930195E+02  0.7816164E-02  0.1266605E+00
        -11   -1    0    0    0    0  0.00000000000E+00  0.00000000000E+00  0.45593999997E+02  0.45594000000E+02  0.51100000000E-03 0.  1.
         11   -1    0    0    0    0 -0.00000000000E+00 -0.00000000000E+00 -0.45593999997E+02  0.45594000000E+02  0.51100000000E-03 0. -1.
    9900012    2    1    2    0    0 -0.19467037286E+02  0.17892706325E+02 -0.17821492125E+02  0.59301951924E+02  0.50000014401E+02 0.  0.
        -12    1    1    2    0    0  0.19467037286E+02 -0.17892706325E+02  0.17821492125E+02  0.31886048076E+02  0.00000000000E+00 0.  1.
         11    1    3    3    0    0 -0.14834517837E+02  0.13068787793E+02 -0.17234855784E+02  0.26227778937E+02  0.51100000000E-03 0. -1.
        -11    1    3    3    0    0  0.10808566068E+02 -0.73683003198E+01 -0.24615587206E+01  0.13310755863E+02  0.51100000000E-03 0.  1.
        -12    1    3    3    0    0 -0.15441085517E+02  0.12192218852E+02  0.18749223793E+01  0.19763417124E+02  0.00000000000E+00 0.  1.
</event>
<event>
 7    1  0.1052674E-011  0.5930196E+02  0.7816164E-02  0.1266605E+00
        -11   -1    0    0    0    0  0.00000000000E+00  0.00000000000E+00  0.45593999997E+02  0.45594000000E+02  0.51100000000E-03 0.  1.
         11   -1    0    0    0    0 -0.00000000000E+00 -0.00000000000E+00 -0.45593999997E+02  0.45594000000E+02  0.51100000000E-03 0. -1.
    9900012    2    1    2    0    0 -0.22556392303E+02 -0.16814263106E+02 -0.15006983948E+02  0.59301955329E+02  0.50000020611E+02 0.  0.
        -12    1    1    2    0    0  0.22556392303E+02  0.16814263106E+02  0.15006983948E+02  0.31886044671E+02  0.00000000000E+00 0.  1.
         11    1    3    3    0    0  0.14329537582E+02 -0.43727400183E+01 -0.32295723889E+01  0.15326011897E+02  0.51100000000E-03 0. -1.
        -11    1    3    3    0    0 -0.21537943436E+02 -0.48497007044E+01 -0.14812643005E+02  0.26586030118E+02  0.51100000000E-03 0.  1.
         12    1    3    3    0    0 -0.15347986449E+02 -0.75918223833E+01  0.30352314464E+01  0.17389913314E+02  0.00000000000E+00 0. -1.
</event>
<event>
 7    1  0.1052674E-011  0.5930194E+02  0.7816164E-02  0.1266605E+00
        -11   -1    0    0    0    0  0.00000000000E+00  0.00000000000E+00  0.45593999997E+02  0.45594000000E+02  0.51100000000E-03 0. -1.
         11   -1    0    0    0    0 -0.00000000000E+00 -0.00000000000E+00 -0.45593999997E+02  0.45594000000E+02  0.51100000000E-03 0.  1.
    9900012    2    1    2    0    0 -0.54983975307E+01  0.28193084603E+02  0.13843354463E+02  0.59301939447E+02  0.49999991646E+02 0.  0.
        -12    1    1    2    0    0  0.54983975307E+01 -0.28193084603E+02 -0.13843354463E+02  0.31886060553E+02  0.00000000000E+00 0.  1.
         11    1    3    3    0    0 -0.34078885199E+01  0.23390440569E+02  0.95077108069E+01  0.25477891970E+02  0.51100000000E-03 0. -1.
        -11    1    3    3    0    0 -0.12740665625E+02  0.21479497639E+01 -0.95916234972E+01  0.16091534741E+02  0.51100000000E-03 0.  1.
        -12    1    3    3    0    0  0.10650156614E+02  0.26546942694E+01  0.13927267153E+02  0.17732512736E+02  0.00000000000E+00 0.  1.
</event>
<event>
 7    1  0.1052674E-011  0.5930200E+02  0.7816164E-02  0.1266605E+00
        -11   -1    0    0    0    0  0.00000000000E+00  0.00000000000E+00  0.45593999997E+02  0.45594000000E+02  0.51100000000E-03 0. -1.
         11   -1    0    0    0    0 -0.00000000000E+00 -0.00000000000E+00 -0.45593999997E+02  0.45594000000E+02  0.51100000000E-03 0.  1.
    9900012    2    1    2    0    0  0.16641584984E+02  0.23594329079E+02  0.13530800439E+02  0.59301995610E+02  0.50000094073E+02 0.  0.
        -12    1    1    2    0    0 -0.16641584984E+02 -0.23594329079E+02 -0.13530800439E+02  0.31886004390E+02  0.00000000000E+00 0.  1.
         11    1    3    3    0    0 -0.41353701618E+01  0.10506906104E+02  0.68778370316E+01  0.13221233102E+02  0.51100000000E-03 0. -1.
        -11    1    3    3    0    0  0.24433742441E+02  0.23703922762E+02  0.25941670038E+01  0.34141081218E+02  0.51100000000E-03 0.  1.
        -12    1    3    3    0    0 -0.36567872951E+01 -0.10616499788E+02  0.40587964031E+01  0.11939681290E+02  0.00000000000E+00 0.  1.
</event>
<event>
 7    1  0.1052674E-011  0.5930194E+02  0.7816164E-02  0.1266605E+00
        -11   -1    0    0    0    0  0.00000000000E+00  0.00000000000E+00  0.45593999997E+02  0.45594000000E+02  0.51100000000E-03 0.  1.
         11   -1    0    0    0    0 -0.00000000000E+00 -0.00000000000E+00 -0.45593999997E+02  0.45594000000E+02  0.51100000000E-03 0. -1.
    9900012    2    1    2    0    0  0.28532603669E+02 -0.91560926058E+01 -0.10898487319E+02  0.59301944587E+02  0.50000001020E+02 0.  0.
        -12    1    1    2    0    0 -0.28532603669E+02  0.91560926058E+01  0.10898487319E+02  0.31886055413E+02  0.00000000000E+00 0.  1.
         11    1    3    3    0    0 -0.29956677385E+01 -0.18917868965E+01 -0.20675718270E+02  0.20977087718E+02  0.51100000000E-03 0. -1.
        -11    1    3    3    0    0  0.18392785374E+02  0.16439491947E+01  0.12393301621E+02  0.22239403052E+02  0.51100000000E-03 0.  1.
        -12    1    3    3    0    0  0.13135486034E+02 -0.89082549039E+01 -0.26160706699E+01  0.16085453818E+02  0.00000000000E+00 0.  1.
</event>
<event>
 7    1  0.1052674E-011  0.5930193E+02  0.7816164E-02  0.1266605E+00
        -11   -1    0    0    0    0  0.00000000000E+00  0.00000000000E+00  0.45593999997E+02  0.45594000000E+02  0.51100000000E-03 0. -1.
         11   -1    0    0    0    0 -0.00000000000E+00 -0.00000000000E+00 -0.45593999997E+02  0.45594000000E+02  0.51100000000E-03 0.  1.
    9900012    2    1    2    0    0  0.13267894472E+02  0.93970199040E+01 -0.27429557262E+02  0.59301927517E+02  0.49999969888E+02 0.  0.
        -12    1    1    2    0    0 -0.13267894472E+02 -0.93970199040E+01  0.27429557262E+02  0.31886072483E+02  0.00000000000E+00 0.  1.
         11    1    3    3    0    0  0.33259763676E+01  0.10003026143E+02 -0.10427227628E+02  0.14827330410E+02  0.51100000000E-03 0. -1.
        -11    1    3    3    0    0 -0.13959351378E+02  0.44177812372E+01 -0.13283688256E+02  0.19769589169E+02  0.51100000000E-03 0.  1.
        -12    1    3    3    0    0  0.23901269483E+02 -0.50237874766E+01 -0.37186413780E+01  0.24705007938E+02  0.00000000000E+00 0.  1.
</event>
<event>
 7    1  0.1052674E-011  0.5930196E+02  0.7816164E-02  0.1266605E+00
        -11   -1    0    0    0    0  0.00000000000E+00  0.00000000000E+00  0.45593999997E+02  0.45594000000E+02  0.51100000000E-03 0. -1.
         11   -1    0    0    0    0 -0.00000000000E+00 -0.00000000000E+00 -0.45593999997E+02  0.45594000000E+02  0.51100000000E-03 0.  1.
    9900012    2    1    2    0    0 -0.14920069741E+02 -0.23888623639E+02  0.14948072738E+02  0.59301957614E+02  0.50000024778E+02 0.  0.
        -12    1    1    2    0    0  0.14920069741E+02  0.23888623639E+02 -0.14948072738E+02  0.31886042386E+02  0.00000000000E+00 0.  1.
         11    1    3    3    0    0 -0.53976009780E+00  0.10472816410E+02 -0.32478998019E+01  0.10978163685E+02  0.51100000000E-03 0.  1.
        -11    1    3    3    0    0 -0.61540070289E+01 -0.14878700726E+02 -0.50718939658E+01  0.16881103236E+02  0.51100000000E-03 0. -1.
         12    1    3    3    0    0 -0.82263026144E+01 -0.19482739323E+02  0.23267866506E+02  0.31442690692E+02  0.00000000000E+00 0. -1.
</event>
<event>
 7    1  0.1052674E-011  0.5930194E+02  0.7816164E-02  0.1266605E+00
        -11   -1    0    0    0    0  0.00000000000E+00  0.00000000000E+00  0.45593999997E+02  0.45594000000E+02  0.51100000000E-03 0. -1.
         11   -1    0    0    0    0 -0.00000000000E+00 -0.00000000000E+00 -0.45593999997E+02  0.45594000000E+02  0.51100000000E-03 0.  1.
    9900012    2    1    2    0    0  0.94326425082E+01  0.29987141673E+02  0.53401597738E+01  0.59301941654E+02  0.49999995672E+02 0.  0.
        -12    1    1    2    0    0 -0.94326425082E+01 -0.29987141673E+02 -0.53401597738E+01  0.31886058346E+02  0.00000000000E+00 0.  1.
         11    1    3    3    0    0 -0.90493112691E+01 -0.18396707756E+01  0.40386962580E+01  0.10078962781E+02  0.51100000000E-03 0. -1.
        -11    1    3    3    0    0  0.16213613521E+02  0.38610547961E+02  0.25825559324E+01  0.41956230440E+02  0.51100000000E-03 0.  1.
        -12    1    3    3    0    0  0.22683402558E+01 -0.67837355127E+01 -0.12810924166E+01  0.72667484339E+01  0.00000000000E+00 0.  1.
</event>
<event>
 7    1  0.1052674E-011  0.5930174E+02  0.7816164E-02  0.1266605E+00
        -11   -1    0    0    0    0  0.00000000000E+00  0.00000000000E+00  0.45593999997E+02  0.45594000000E+02  0.51100000000E-03 0. -1.
         11   -1    0    0    0    0 -0.00000000000E+00 -0.00000000000E+00 -0.45593999997E+02  0.45594000000E+02  0.51100000000E-03 0.  1.
    9900012    2    1    2    0    0  0.27564915021E+02  0.44873527232E+01  0.15387414062E+02  0.59301742990E+02  0.49999633355E+02 0.  0.
        -12    1    1    2    0    0 -0.27564915021E+02 -0.44873527232E+01 -0.15387414062E+02  0.31886257010E+02  0.00000000000E+00 0.  1.
         11    1    3    3    0    0 -0.82429906275E+01 -0.27272649224E+01  0.67217752376E+01  0.10980306510E+02  0.51100000000E-03 0. -1.
        -11    1    3    3    0    0  0.22974312779E+02 -0.10122330129E+02  0.92180778151E+01  0.26744225055E+02  0.51100000000E-03 0.  1.
         12    1    3    3    0    0  0.12833592869E+02  0.17336947775E+02 -0.55243899031E+00  0.21577211426E+02  0.00000000000E+00 0. -1.
</event>
<event>
 7    1  0.1052674E-011  0.5930192E+02  0.7816164E-02  0.1266605E+00
        -11   -1    0    0    0    0  0.00000000000E+00  0.00000000000E+00  0.45593999997E+02  0.45594000000E+02  0.51100000000E-03 0. -1.
         11   -1    0    0    0    0 -0.00000000000E+00 -0.00000000000E+00 -0.45593999997E+02  0.45594000000E+02  0.51100000000E-03 0.  1.
    9900012    2    1    2    0    0  0.25217690281E+01 -0.28410423055E+02  0.14255200733E+02  0.59301918317E+02  0.49999953109E+02 0.  0.
        -12    1    1    2    0    0 -0.25217690281E+01  0.28410423055E+02 -0.14255200733E+02  0.31886081683E+02  0.00000000000E+00 0.  1.
         11    1    3    3    0    0  0.22117189713E+01 -0.89336116129E+01  0.22178467096E+02  0.24012195240E+02  0.51100000000E-03 0. -1.
        -11    1    3    3    0    0 -0.10539415154E+02 -0.29542123276E+01 -0.10726898819E+02  0.15325566900E+02  0.51100000000E-03 0.  1.
        -12    1    3    3    0    0  0.10849465211E+02 -0.16522599114E+02  0.28036324560E+01  0.19964156176E+02  0.00000000000E+00 0.  1.
</event>
<event>
 7    1  0.1186501E-011  0.5930199E+02  0.7816164E-02  0.1266605E+00
        -11   -1    0    0    0    0  0.00000000000E+00  0.00000000000E+00  0.45593999997E+02  0.45594000000E+02  0.51100000000E-03 0.  1.
         11   -1    0    0    0    0 -0.00000000000E+00 -0.00000000000E+00 -0.45593999997E+02  0.45594000000E+02  0.51100000000E-03 0. -1.
    9900012    2    1    2    0    0 -0.17269701808E+02  0.26570952821E+02 -0.35298463643E+01  0.59301985045E+02  0.50000074806E+02 0.  0.
        -12    1    1    2    0    0  0.17269701808E+02 -0.26570952821E+02  0.35298463643E+01  0.31886014955E+02  0.00000000000E+00 0.  1.
         11    1    3    3    0    0 -0.78331615684E+01  0.14536867782E+02  0.13454413882E+02  0.21300239394E+02  0.51100000000E-03 0. -1.
        -11    1    3    3    0    0  0.34291015196E+01 -0.61874895404E+01 -0.13749444755E+02  0.15462567554E+02  0.51100000000E-03 0.  1.
         12    1    3    3    0    0 -0.12865641759E+02  0.18221574579E+02 -0.32348154918E+01  0.22539178097E+02  0.00000000000E+00 0. -1.
</event>
<event>
 7    1  0.1052674E-011  0.5930195E+02  0.7816164E-02  0.1266605E+00
        -11   -1    0    0    0    0  0.00000000000E+00  0.00000000000E+00  0.45593999997E+02  0.45594000000E+02  0.51100000000E-03 0.  1.
         11   -1    0    0    0    0 -0.00000000000E+00 -0.00000000000E+00 -0.45593999997E+02  0.45594000000E+02  0.51100000000E-03 0. -1.
    9900012    2    1    2    0    0 -0.27822009455E+02 -0.29962501897E+01 -0.15286551821E+02  0.59301946750E+02  0.50000004965E+02 0.  0.
        -12    1    1    2    0    0  0.27822009455E+02  0.29962501897E+01  0.15286551821E+02  0.31886053250E+02  0.00000000000E+00 0.  1.
         11    1    3    3    0    0 -0.18584388223E+02 -0.17146866707E+00 -0.23750125066E+02  0.30157541810E+02  0.51100000000E-03 0. -1.
        -11    1    3    3    0    0 -0.42465741725E+01 -0.21981800115E+01  0.17858490607E+02  0.18487592450E+02  0.51100000000E-03 0.  1.
        -12    1    3    3    0    0 -0.49910470585E+01 -0.62660151108E+00 -0.93949173625E+01  0.10656812490E+02  0.00000000000E+00 0.  1.
</event>
<event>
 7    1  0.1052674E-011  0.5930194E+02  0.7816164E-02  0.1266605E+00
        -11   -1    0    0    0    0  0.00000000000E+00  0.00000000000E+00  0.45593999997E+02  0.45594000000E+02  0.51100000000E-03 0. -1.
         11   -1    0    0    0    0 -0.00000000000E+00 -0.00000000000E+00 -0.45593999997E+02  0.45594000000E+02  0.51100000000E-03 0.  1.
    9900012    2    1    2    0    0  0.31842977655E+02  0.14440778350E+01 -0.81265373295E+00  0.59301937327E+02  0.49999987779E+02 0.  0.
        -12    1    1    2    0    0 -0.31842977655E+02 -0.14440778350E+01  0.81265373295E+00  0.31886062673E+02  0.00000000000E+00 0.  1.
         11    1    3    3    0    0  0.25393569232E+02  0.15441561979E+02 -0.35624566563E+01  0.29932696042E+02  0.51100000000E-03 0. -1.
        -11    1    3    3    0    0 -0.17237221807E-01 -0.43938926729E+01  0.13113770159E+02  0.13830313011E+02  0.51100000000E-03 0.  1.
        -12    1    3    3    0    0  0.64666456449E+01 -0.96035914712E+01 -0.10363967235E+02  0.15538928274E+02  0.00000000000E+00 0.  1.
</event>
<event>
 7    1  0.1052674E-011  0.5930223E+02  0.7816164E-02  0.1266604E+00
        -11   -1    0    0    0    0  0.00000000000E+00  0.00000000000E+00  0.45593999997E+02  0.45594000000E+02  0.51100000000E-03 0.  1.
         11   -1    0    0    0    0 -0.00000000000E+00 -0.00000000000E+00 -0.45593999997E+02  0.45594000000E+02  0.51100000000E-03 0. -1.
    9900012    2    1    2    0    0  0.18583735882E+02 -0.25757752665E+02  0.28081283585E+01  0.59302225013E+02  0.50000512446E+02 0.  0.
        -12    1    1    2    0    0 -0.18583735882E+02  0.25757752665E+02 -0.28081283585E+01  0.31885774987E+02  0.00000000000E+00 0.  1.
         11    1    3    3    0    0  0.89643054833E+01 -0.32059557714E+01 -0.81313015663E+01  0.12520183331E+02  0.51100000000E-03 0. -1.
        -11    1    3    3    0    0  0.17343932840E+02 -0.19110346915E+01  0.16540404373E+02  0.24042650375E+02  0.51100000000E-03 0.  1.
        -12    1    3    3    0    0 -0.77245024417E+01 -0.20640762202E+02 -0.56009744483E+01  0.22739391307E+02  0.00000000000E+00 0.  1.
</event>
<event>
 7    1  0.1052674E-011  0.5930196E+02  0.7816164E-02  0.1266605E+00
        -11   -1    0    0    0    0  0.00000000000E+00  0.00000000000E+00  0.45593999997E+02  0.45594000000E+02  0.51100000000E-03 0. -1.
         11   -1    0    0    0    0 -0.00000000000E+00 -0.00000000000E+00 -0.45593999997E+02  0.45594000000E+02  0.51100000000E-03 0.  1.
    9900012    2    1    2    0    0  0.20421420033E+02  0.21106143525E+02  0.12418374370E+02  0.59301957400E+02  0.50000024389E+02 0.  0.
        -12    1    1    2    0    0 -0.20421420033E+02 -0.21106143525E+02 -0.12418374370E+02  0.31886042600E+02  0.00000000000E+00 0.  1.
         11    1    3    3    0    0  0.13993788073E+02  0.16740572701E+02  0.29116692656E+02  0.36384813734E+02  0.51100000000E-03 0. -1.
        -11    1    3    3    0    0  0.83299990678E+01  0.72359169631E+01 -0.15947802923E+02  0.19392776931E+02  0.51100000000E-03 0.  1.
         12    1    3    3    0    0 -0.19023671079E+01 -0.28703461393E+01 -0.75051536218E+00  0.35243667348E+01  0.00000000000E+00 0. -1.
</event>
<event>
 7    1  0.1052674E-011  0.5930180E+02  0.7816164E-02  0.1266605E+00
        -11   -1    0    0    0    0  0.00000000000E+00  0.00000000000E+00  0.45593999997E+02  0.45594000000E+02  0.51100000000E-03 0.  1.
         11   -1    0    0    0    0 -0.00000000000E+00 -0.00000000000E+00 -0.45593999997E+02  0.45594000000E+02  0.51100000000E-03 0. -1.
    9900012    2    1    2    0    0 -0.24147482988E+02  0.20257192077E+02 -0.48244360803E+01  0.59301796886E+02  0.49999731649E+02 0.  0.
        -12    1    1    2    0    0  0.24147482988E+02 -0.20257192077E+02  0.48244360803E+01  0.31886203114E+02  0.00000000000E+00 0.  1.
         11    1    3    3    0    0 -0.14612041440E+02 -0.48233938642E+01 -0.14245842805E+02  0.20969523621E+02  0.51100000000E-03 0. -1.
        -11    1    3    3    0    0 -0.93359466590E+01  0.59240603413E+01  0.14762472679E+02  0.18444104500E+02  0.51100000000E-03 0.  1.
        -12    1    3    3    0    0 -0.19949488897E+00  0.19156525600E+02 -0.53410659548E+01  0.19888168765E+02  0.00000000000E+00 0.  1.
</event>
<event>
 7    1  0.1162518E-011  0.5930184E+02  0.7816164E-02  0.1266605E+00
        -11   -1    0    0    0    0  0.00000000000E+00  0.00000000000E+00  0.45593999997E+02  0.45594000000E+02  0.51100000000E-03 0. -1.
         11   -1    0    0    0    0 -0.00000000000E+00 -0.00000000000E+00 -0.45593999997E+02  0.45594000000E+02  0.51100000000E-03 0.  1.
    9900012    2    1    2    0    0 -0.21352355133E+02  0.23347306489E+02 -0.39632513263E+01  0.59301840759E+02  0.49999811663E+02 0.  0.
        -12    1    1    2    0    0  0.21352355133E+02 -0.23347306489E+02  0.39632513263E+01  0.31886159241E+02  0.00000000000E+00 0.  1.
         11    1    3    3    0    0 -0.12810121267E+02  0.14441625276E+02  0.15314802879E+02  0.24641488084E+02  0.51100000000E-03 0. -1.
        -11    1    3    3    0    0  0.94011059960E+01  0.29423717201E+01 -0.56902143120E+01  0.11376154204E+02  0.51100000000E-03 0.  1.
         12    1    3    3    0    0 -0.17943339862E+02  0.59633094931E+01 -0.13587839893E+02  0.23284198472E+02  0.00000000000E+00 0. -1.
</event>
<event>
 7    1  0.1052674E-011  0.5930189E+02  0.7816164E-02  0.1266605E+00
        -11   -1    0    0    0    0  0.00000000000E+00  0.00000000000E+00  0.45593999997E+02  0.45594000000E+02  0.51100000000E-03 0.  1.
         11   -1    0    0    0    0 -0.00000000000E+00 -0.00000000000E+00 -0.45593999997E+02  0.45594000000E+02  0.51100000000E-03 0. -1.
    9900012    2    1    2    0    0 -0.19109672439E+02  0.25134291670E+02 -0.44510182993E+01  0.59301893897E+02  0.49999908574E+02 0.  0.
        -12    1    1    2    0    0  0.19109672439E+02 -0.25134291670E+02  0.44510182993E+01  0.31886106103E+02  0.00000000000E+00 0.  1.
         11    1    3    3    0    0 -0.76442044781E+01 -0.55061165412E+01  0.79103351873E+01  0.12301405794E+02  0.51100000000E-03 0.  1.
        -11    1    3    3    0    0  0.38955395860E+01  0.28649145594E+02 -0.12527383891E+02  0.31510063779E+02  0.51100000000E-03 0. -1.
         12    1    3    3    0    0 -0.15361007547E+02  0.19912626171E+01  0.16603040427E+00  0.15490424325E+02  0.00000000000E+00 0. -1.
</event>
<event>
 7    1  0.1052674E-011  0.5930194E+02  0.7816164E-02  0.1266605E+00
        -11   -1    0    0    0    0  0.00000000000E+00  0.00000000000E+00  0.45593999997E+02  0.45594000000E+02  0.51100000000E-03 0. -1.
         11   -1    0    0    0    0 -0.00000000000E+00 -0.00000000000E+00 -0.45593999997E+02  0.45594000000E+02  0.51100000000E-03 0.  1.
    9900012    2    1    2    0    0  0.13860230623E+02  0.28672181307E+02  0.15877904385E+01  0.59301936394E+02  0.49999986078E+02 0.  0.
        -12    1    1    2    0    0 -0.13860230623E+02 -0.28672181307E+02 -0.15877904385E+01  0.31886063606E+02  0.00000000000E+00 0.  1.
         11    1    3    3    0    0 -0.23290081331E+00  0.12400455296E+02  0.11688580762E+02  0.17042548367E+02  0.51100000000E-03 0. -1.
        -11    1    3    3    0    0  0.22144230796E+02  0.21232090359E+02 -0.38392487177E+01  0.30917769155E+02  0.51100000000E-03 0.  1.
        -12    1    3    3    0    0 -0.80510993591E+01 -0.49603643486E+01 -0.62615416056E+01  0.11341618872E+02  0.00000000000E+00 0.  1.
</event>
<event>
 7    1  0.1052674E-011  0.5930194E+02  0.7816164E-02  0.1266605E+00
        -11   -1    0    0    0    0  0.00000000000E+00  0.00000000000E+00  0.45593999997E+02  0.45594000000E+02  0.51100000000E-03 0.  1.
         11   -1    0    0    0    0 -0.00000000000E+00 -0.00000000000E+00 -0.45593999997E+02  0.45594000000E+02  0.51100000000E-03 0. -1.
    9900012    2    1    2    0    0  0.20968243189E+02  0.21564991006E+02  0.10583230937E+02  0.59301939776E+02  0.49999992246E+02 0.  0.
        -12    1    1    2    0    0 -0.20968243189E+02 -0.21564991006E+02 -0.10583230937E+02  0.31886060224E+02  0.00000000000E+00 0.  1.
         11    1    3    3    0    0 -0.95111373976E+01  0.78414607355E+01  0.47250475213E+01  0.13201375512E+02  0.51100000000E-03 0.  1.
        -11    1    3    3    0    0  0.25083906719E+02  0.20921352223E+02  0.12442136564E+02  0.34952998693E+02  0.51100000000E-03 0. -1.
         12    1    3    3    0    0  0.53954738675E+01 -0.71978219522E+01 -0.65839531481E+01  0.11147565571E+02  0.00000000000E+00 0. -1.
</event>
<event>
 7    1  0.1052674E-011  0.5930195E+02  0.7816164E-02  0.1266605E+00
        -11   -1    0    0    0    0  0.00000000000E+00  0.00000000000E+00  0.45593999997E+02  0.45594000000E+02  0.51100000000E-03 0.  1.
         11   -1    0    0    0    0 -0.00000000000E+00 -0.00000000000E+00 -0.45593999997E+02  0.45594000000E+02  0.51100000000E-03 0. -1.
    9900012    2    1    2    0    0  0.81347042657E+01 -0.28517955613E+02  0.11716363521E+02  0.59301946937E+02  0.50000005305E+02 0.  0.
        -12    1    1    2    0    0 -0.81347042657E+01  0.28517955613E+02 -0.11716363521E+02  0.31886053063E+02  0.00000000000E+00 0.  1.
         11    1    3    3    0    0 -0.17616103001E+01  0.43961399951E+01 -0.11357859131E+00  0.47373218239E+01  0.51100000000E-03 0. -1.
        -11    1    3    3    0    0  0.10416954305E+02 -0.24413244856E+02  0.26560181860E+02  0.37549470331E+02  0.51100000000E-03 0.  1.
        -12    1    3    3    0    0 -0.52063973914E+00 -0.85008507512E+01 -0.14730239748E+02  0.17015154782E+02  0.00000000000E+00 0.  1.
</event>
<event>
 7    1  0.1052674E-011  0.5930190E+02  0.7816164E-02  0.1266605E+00
        -11   -1    0    0    0    0  0.00000000000E+00  0.00000000000E+00  0.45593999997E+02  0.45594000000E+02  0.51100000000E-03 0. -1.
         11   -1    0    0    0    0 -0.00000000000E+00 -0.00000000000E+00 -0.45593999997E+02  0.45594000000E+02  0.51100000000E-03 0.  1.
    9900012    2    1    2    0    0 -0.33069917447E+01 -0.16171915455E+02  0.27281063176E+02  0.59301898766E+02  0.49999917453E+02 0.  0.
        -12    1    1    2    0    0  0.33069917447E+01  0.16171915455E+02 -0.27281063176E+02  0.31886101234E+02  0.00000000000E+00 0.  1.
         11    1    3    3    0    0  0.11551435553E+02 -0.17285392428E+02  0.28381686145E+02  0.35181537252E+02  0.51100000000E-03 0. -1.
        -11    1    3    3    0    0 -0.80182911329E+00  0.82640498419E+01 -0.86489398806E+00  0.83477836333E+01  0.51100000000E-03 0.  1.
         12    1    3    3    0    0 -0.14056598184E+02 -0.71505728691E+01 -0.23572898061E+00  0.15772577881E+02  0.00000000000E+00 0. -1.
</event>
<event>
 7    1  0.1644531E-011  0.5930195E+02  0.7816164E-02  0.1266605E+00
        -11   -1    0    0    0    0  0.00000000000E+00  0.00000000000E+00  0.45593999997E+02  0.45594000000E+02  0.51100000000E-03 0. -1.
         11   -1    0    0    0    0 -0.00000000000E+00 -0.00000000000E+00 -0.45593999997E+02  0.45594000000E+02  0.51100000000E-03 0.  1.
    9900012    2    1    2    0    0 -0.14982843295E+02  0.37883437711E+01  0.27890557691E+02  0.59301947406E+02  0.50000006161E+02 0.  0.
        -12    1    1    2    0    0  0.14982843295E+02 -0.37883437711E+01 -0.27890557691E+02  0.31886052594E+02  0.00000000000E+00 0.  1.
         11    1    3    3    0    0 -0.12103182805E+02  0.11140269007E+02  0.33579505154E+02  0.37392188946E+02  0.51100000000E-03 0. -1.
        -11    1    3    3    0    0  0.28882960045E+01  0.58822716255E+01 -0.30741013274E+01  0.72383335457E+01  0.51100000000E-03 0.  1.
         12    1    3    3    0    0 -0.57679564942E+01 -0.13234196862E+02 -0.26148461352E+01  0.14671424914E+02  0.00000000000E+00 0. -1.
</event>
<event>
 7    1  0.1052674E-011  0.5930194E+02  0.7816164E-02  0.1266605E+00
        -11   -1    0    0    0    0  0.00000000000E+00  0.00000000000E+00  0.45593999997E+02  0.45594000000E+02  0.51100000000E-03 0. -1.
         11   -1    0    0    0    0 -0.00000000000E+00 -0.00000000000E+00 -0.45593999997E+02  0.45594000000E+02  0.51100000000E-03 0.  1.
    9900012    2    1    2    0    0  0.11181200947E+02  0.25739475304E+02 -0.15138719799E+02  0.59301942221E+02  0.49999996705E+02 0.  0.
        -12    1    1    2    0    0 -0.11181200947E+02 -0.25739475304E+02  0.15138719799E+02  0.31886057779E+02  0.00000000000E+00 0.  1.
         11    1    3    3    0    0 -0.82523791479E+01  0.11384681846E+02 -0.28213639840E+01  0.14341298314E+02  0.51100000000E-03 0. -1.
        -11    1    3    3    0    0 -0.57776603299E+01 -0.60144698606E+01 -0.91719227965E+01  0.12396748551E+02  0.51100000000E-03 0.  1.
        -12    1    3    3    0    0  0.25211240424E+02  0.20369263318E+02 -0.31454330185E+01  0.32563895356E+02  0.00000000000E+00 0.  1.
</event>
<event>
 7    1  0.2088418E-011  0.5930194E+02  0.7816164E-02  0.1266605E+00
        -11   -1    0    0    0    0  0.00000000000E+00  0.00000000000E+00  0.45593999997E+02  0.45594000000E+02  0.51100000000E-03 0. -1.
         11   -1    0    0    0    0 -0.00000000000E+00 -0.00000000000E+00 -0.45593999997E+02  0.45594000000E+02  0.51100000000E-03 0.  1.
    9900012    2    1    2    0    0  0.50977471374E+01  0.31458289093E+02 -0.10535783724E+01  0.59301937121E+02  0.49999987403E+02 0.  0.
        -12    1    1    2    0    0 -0.50977471374E+01 -0.31458289093E+02  0.10535783724E+01  0.31886062879E+02  0.00000000000E+00 0.  1.
         11    1    3    3    0    0  0.13154983552E+02  0.16875197903E+02 -0.14002974331E+02  0.25571648107E+02  0.51100000000E-03 0. -1.
        -11    1    3    3    0    0 -0.32531498499E+01 -0.68683105625E+01  0.83140929840E+01  0.11264138508E+02  0.51100000000E-03 0.  1.
         12    1    3    3    0    0 -0.48040865642E+01  0.21451401753E+02  0.46353029748E+01  0.22466150506E+02  0.00000000000E+00 0. -1.
</event>
<event>
 7    1  0.1052674E-011  0.5930194E+02  0.7816164E-02  0.1266605E+00
        -11   -1    0    0    0    0  0.00000000000E+00  0.00000000000E+00  0.45593999997E+02  0.45594000000E+02  0.51100000000E-03 0.  1.
         11   -1    0    0    0    0 -0.00000000000E+00 -0.00000000000E+00 -0.45593999997E+02  0.45594000000E+02  0.51100000000E-03 0. -1.
    9900012    2    1    2    0    0  0.31586549452E+02 -0.22390223905E+01 -0.37413235381E+01  0.59301939890E+02  0.49999992454E+02 0.  0.
        -12    1    1    2    0    0 -0.31586549452E+02  0.22390223905E+01  0.37413235381E+01  0.31886060110E+02  0.00000000000E+00 0.  1.
         11    1    3    3    0    0  0.14492960721E+02 -0.20639300513E+02 -0.10780839311E+02  0.27427233412E+02  0.51100000000E-03 0. -1.
        -11    1    3    3    0    0 -0.92080146897E+00  0.11776514696E+02  0.15650051728E+01  0.11915679384E+02  0.51100000000E-03 0.  1.
         12    1    3    3    0    0  0.18014390200E+02  0.66237634272E+01  0.54745106006E+01  0.19959027094E+02  0.00000000000E+00 0. -1.
</event>
<event>
 7    1  0.1052674E-011  0.5930194E+02  0.7816164E-02  0.1266605E+00
        -11   -1    0    0    0    0  0.00000000000E+00  0.00000000000E+00  0.45593999997E+02  0.45594000000E+02  0.51100000000E-03 0. -1.
         11   -1    0    0    0    0 -0.00000000000E+00 -0.00000000000E+00 -0.45593999997E+02  0.45594000000E+02  0.51100000000E-03 0.  1.
    9900012    2    1    2    0    0  0.34012234897E+01  0.25943956092E+02  0.18222613822E+02  0.59301939826E+02  0.49999992337E+02 0.  0.
        -12    1    1    2    0    0 -0.34012234897E+01 -0.25943956092E+02 -0.18222613822E+02  0.31886060174E+02  0.00000000000E+00 0.  1.
         11    1    3    3    0    0 -0.17719226386E+01  0.25482530440E+02  0.66131355482E+00  0.25552620283E+02  0.51100000000E-03 0. -1.
        -11    1    3    3    0    0 -0.70451292123E+01 -0.10145421429E+02  0.52641629064E+01  0.13426646378E+02  0.51100000000E-03 0.  1.
        -12    1    3    3    0    0  0.12218275341E+02  0.10606847081E+02  0.12297137360E+02  0.20322673165E+02  0.00000000000E+00 0.  1.
</event>
<event>
 7    1  0.1052674E-011  0.5930196E+02  0.7816164E-02  0.1266605E+00
        -11   -1    0    0    0    0  0.00000000000E+00  0.00000000000E+00  0.45593999997E+02  0.45594000000E+02  0.51100000000E-03 0. -1.
         11   -1    0    0    0    0 -0.00000000000E+00 -0.00000000000E+00 -0.45593999997E+02  0.45594000000E+02  0.51100000000E-03 0.  1.
    9900012    2    1    2    0    0  0.29804239091E+02  0.29111798010E+01  0.10952248703E+02  0.59301962503E+02  0.50000033695E+02 0.  0.
        -12    1    1    2    0    0 -0.29804239091E+02 -0.29111798010E+01 -0.10952248703E+02  0.31886037497E+02  0.00000000000E+00 0.  1.
         11    1    3    3    0    0  0.11354401749E+02  0.28390721698E+01  0.63675686038E+01  0.13323989644E+02  0.51100000000E-03 0. -1.
        -11    1    3    3    0    0 -0.16825849030E+01 -0.12695128023E+02  0.15205475612E+02  0.19879734815E+02  0.51100000000E-03 0.  1.
        -12    1    3    3    0    0  0.20132422245E+02  0.12767235654E+02 -0.10620795513E+02  0.26098238044E+02  0.00000000000E+00 0.  1.
</event>
<event>
 7    1  0.1052674E-011  0.5930193E+02  0.7816164E-02  0.1266605E+00
        -11   -1    0    0    0    0  0.00000000000E+00  0.00000000000E+00  0.45593999997E+02  0.45594000000E+02  0.51100000000E-03 0. -1.
         11   -1    0    0    0    0 -0.00000000000E+00 -0.00000000000E+00 -0.45593999997E+02  0.45594000000E+02  0.51100000000E-03 0.  1.
    9900012    2    1    2    0    0 -0.29708687970E+02  0.90359433770E+01 -0.72434070714E+01  0.59301931575E+02  0.49999977289E+02 0.  0.
        -12    1    1    2    0    0  0.29708687970E+02 -0.90359433770E+01  0.72434070714E+01  0.31886068425E+02  0.00000000000E+00 0.  1.
         11    1    3    3    0    0  0.57624407218E+01 -0.11040940928E+02  0.66419445663E+01  0.14114656479E+02  0.51100000000E-03 0. -1.
        -11    1    3    3    0    0 -0.15789481206E+02  0.99246693176E+01 -0.13526668758E+02  0.23038609893E+02  0.51100000000E-03 0.  1.
         12    1    3    3    0    0 -0.19681647485E+02  0.10152214987E+02 -0.35868287941E+00  0.22148665203E+02  0.00000000000E+00 0. -1.
</event>
<event>
 7    1  0.1052674E-011  0.5930196E+02  0.7816164E-02  0.1266605E+00
        -11   -1    0    0    0    0  0.00000000000E+00  0.00000000000E+00  0.45593999997E+02  0.45594000000E+02  0.51100000000E-03 0.  1.
         11   -1    0    0    0    0 -0.00000000000E+00 -0.00000000000E+00 -0.45593999997E+02  0.45594000000E+02  0.51100000000E-03 0. -1.
    9900012    2    1    2    0    0  0.22992925882E+02  0.16537772616E+02  0.14647431551E+02  0.59301955800E+02  0.50000021469E+02 0.  0.
        -12    1    1    2    0    0 -0.22992925882E+02 -0.16537772616E+02 -0.14647431551E+02  0.31886044200E+02  0.00000000000E+00 0.  1.
         11    1    3    3    0    0  0.15990415725E+02  0.28263043443E+02 -0.17562110933E+00  0.32473433183E+02  0.51100000000E-03 0. -1.
        -11    1    3    3    0    0 -0.30460840681E+01  0.18562351309E+01  0.77143998773E+01  0.84991883577E+01  0.51100000000E-03 0.  1.
         12    1    3    3    0    0  0.10048594225E+02 -0.13581505958E+02  0.71086527825E+01  0.18329334259E+02  0.00000000000E+00 0. -1.
</event>
<event>
 7    1  0.1052674E-011  0.5930197E+02  0.7816164E-02  0.1266605E+00
        -11   -1    0    0    0    0  0.00000000000E+00  0.00000000000E+00  0.45593999997E+02  0.45594000000E+02  0.51100000000E-03 0.  1.
         11   -1    0    0    0    0 -0.00000000000E+00 -0.00000000000E+00 -0.45593999997E+02  0.45594000000E+02  0.51100000000E-03 0. -1.
    9900012    2    1    2    0    0  0.20258421517E+02 -0.60374578901E+01 -0.23871831629E+02  0.59301970372E+02  0.50000048045E+02 0.  0.
        -12    1    1    2    0    0 -0.20258421517E+02  0.60374578901E+01  0.23871831629E+02  0.31886029628E+02  0.00000000000E+00 0.  1.
         11    1    3    3    0    0  0.19270440715E+02 -0.15803386231E+02 -0.44167912021E+01  0.25310174762E+02  0.51100000000E-03 0.  1.
        -11    1    3    3    0    0 -0.70475874010E+00  0.18373001835E+02 -0.16587459242E+02  0.24763030624E+02  0.51100000000E-03 0. -1.
        -12    1    3    3    0    0  0.16927395422E+01 -0.86070734942E+01 -0.28675811848E+01  0.92287649848E+01  0.00000000000E+00 0.  1.
</event>
<event>
 7    1  0.1052674E-011  0.5930193E+02  0.7816164E-02  0.1266605E+00
        -11   -1    0    0    0    0  0.00000000000E+00  0.00000000000E+00  0.45593999997E+02  0.45594000000E+02  0.51100000000E-03 0. -1.
         11   -1    0    0    0    0 -0.00000000000E+00 -0.00000000000E+00 -0.45593999997E+02  0.45594000000E+02  0.51100000000E-03 0.  1.
    9900012    2    1    2    0    0 -0.29974778723E+02  0.11626003758E+01  0.10811212735E+02  0.59301932197E+02  0.49999978424E+02 0.  0.
        -12    1    1    2    0    0  0.29974778723E+02 -0.11626003758E+01 -0.10811212735E+02  0.31886067803E+02  0.00000000000E+00 0.  1.
         11    1    3    3    0    0  0.28020703990E+01  0.13470655089E+02 -0.28383328491E+01  0.14048710997E+02  0.51100000000E-03 0. -1.
        -11    1    3    3    0    0 -0.57398540255E+01 -0.96622011991E+01  0.14165484082E+02  0.18082173425E+02  0.51100000000E-03 0.  1.
         12    1    3    3    0    0 -0.27036995097E+02 -0.26458535142E+01 -0.51593849755E+00  0.27171047775E+02  0.00000000000E+00 0. -1.
</event>
<event>
 7    1  0.1052674E-011  0.5930198E+02  0.7816164E-02  0.1266605E+00
        -11   -1    0    0    0    0  0.00000000000E+00  0.00000000000E+00  0.45593999997E+02  0.45594000000E+02  0.51100000000E-03 0.  1.
         11   -1    0    0    0    0 -0.00000000000E+00 -0.00000000000E+00 -0.45593999997E+02  0.45594000000E+02  0.51100000000E-03 0. -1.
    9900012    2    1    2    0    0  0.82966953493E+01  0.28744321902E+02 -0.11029381419E+02  0.59301977203E+02  0.50000060504E+02 0.  0.
        -12    1    1    2    0    0 -0.82966953493E+01 -0.28744321902E+02  0.11029381419E+02  0.31886022797E+02  0.00000000000E+00 0.  1.
         11    1    3    3    0    0 -0.14470891142E+02  0.15422292873E+02 -0.83397744436E+01  0.22733359759E+02  0.51100000000E-03 0. -1.
        -11    1    3    3    0    0  0.24884441733E+02  0.17917137686E+02  0.35157295392E+00  0.30665662671E+02  0.51100000000E-03 0.  1.
         12    1    3    3    0    0 -0.21168552422E+01 -0.45951086578E+01 -0.30411799292E+01  0.59029547733E+01  0.00000000000E+00 0. -1.
</event>
<event>
 7    1  0.1052674E-011  0.5930193E+02  0.7816164E-02  0.1266605E+00
        -11   -1    0    0    0    0  0.00000000000E+00  0.00000000000E+00  0.45593999997E+02  0.45594000000E+02  0.51100000000E-03 0.  1.
         11   -1    0    0    0    0 -0.00000000000E+00 -0.00000000000E+00 -0.45593999997E+02  0.45594000000E+02  0.51100000000E-03 0. -1.
    9900012    2    1    2    0    0  0.40505825447E+01 -0.11075194035E+01 -0.31608348424E+02  0.59301929244E+02  0.49999973038E+02 0.  0.
        -12    1    1    2    0    0 -0.40505825447E+01  0.11075194035E+01  0.31608348424E+02  0.31886070756E+02  0.00000000000E+00 0.  1.
         11    1    3    3    0    0 -0.14977084250E+02  0.89266426391E+01 -0.82940973704E+01  0.19307771826E+02  0.51100000000E-03 0. -1.
        -11    1    3    3    0    0  0.16138246914E+02 -0.12266739071E+02 -0.44161500280E+01  0.20746524582E+02  0.51100000000E-03 0.  1.
         12    1    3    3    0    0  0.28894198804E+01  0.22325770287E+01 -0.18898101025E+02  0.19247632836E+02  0.00000000000E+00 0. -1.
</event>
<event>
 7    1  0.1052674E-011  0.5930197E+02  0.7816164E-02  0.1266605E+00
        -11   -1    0    0    0    0  0.00000000000E+00  0.00000000000E+00  0.45593999997E+02  0.45594000000E+02  0.51100000000E-03 0. -1.
         11   -1    0    0    0    0 -0.00000000000E+00 -0.00000000000E+00 -0.45593999997E+02  0.45594000000E+02  0.51100000000E-03 0.  1.
    9900012    2    1    2    0    0  0.57728703240E+01  0.30817025976E+02 -0.58054796579E+01  0.59301973031E+02  0.50000052895E+02 0.  0.
        -12    1    1    2    0    0 -0.57728703240E+01 -0.30817025976E+02  0.58054796579E+01  0.31886026969E+02  0.00000000000E+00 0.  1.
         11    1    3    3    0    0 -0.63526505946E+01  0.41907967676E+00  0.17500302038E+02  0.18622362069E+02  0.51100000000E-03 0. -1.
        -11    1    3    3    0    0  0.47982000387E+01  0.19849955875E+02 -0.12951640359E+02  0.24182399800E+02  0.51100000000E-03 0.  1.
         12    1    3    3    0    0  0.73273208799E+01  0.10547990424E+02 -0.10354141338E+02  0.16497211161E+02  0.00000000000E+00 0. -1.
</event>
<event>
 7    1  0.1052674E-011  0.5930193E+02  0.7816164E-02  0.1266605E+00
        -11   -1    0    0    0    0  0.00000000000E+00  0.00000000000E+00  0.45593999997E+02  0.45594000000E+02  0.51100000000E-03 0. -1.
         11   -1    0    0    0    0 -0.00000000000E+00 -0.00000000000E+00 -0.45593999997E+02  0.45594000000E+02  0.51100000000E-03 0.  1.
    9900012    2    1    2    0    0 -0.30953555205E+02  0.60863333414E+01  0.46427671737E+01  0.59301932190E+02  0.49999978410E+02 0.  0.
        -12    1    1    2    0    0  0.30953555205E+02 -0.60863333414E+01 -0.46427671737E+01  0.31886067810E+02  0.00000000000E+00 0.  1.
         11    1    3    3    0    0 -0.17227455644E+02  0.11275557595E+02  0.71753033583E+00  0.20601899842E+02  0.51100000000E-03 0. -1.
        -11    1    3    3    0    0  0.86993044253E+01 -0.71348989005E+01  0.10354161521E+02  0.15290302184E+02  0.51100000000E-03 0.  1.
        -12    1    3    3    0    0 -0.22425403986E+02  0.19456746469E+01 -0.64289246830E+01  0.23409730164E+02  0.00000000000E+00 0.  1.
</event>
<event>
 7    1  0.1052674E-011  0.5930188E+02  0.7816164E-02  0.1266605E+00
        -11   -1    0    0    0    0  0.00000000000E+00  0.00000000000E+00  0.45593999997E+02  0.45594000000E+02  0.51100000000E-03 0. -1.
         11   -1    0    0    0    0 -0.00000000000E+00 -0.00000000000E+00 -0.45593999997E+02  0.45594000000E+02  0.51100000000E-03 0.  1.
    9900012    2    1    2    0    0  0.31591239395E+02 -0.32773831334E+01 -0.28243293446E+01  0.59301882598E+02  0.49999887966E+02 0.  0.
        -12    1    1    2    0    0 -0.31591239395E+02  0.32773831334E+01  0.28243293446E+01  0.31886117402E+02  0.00000000000E+00 0.  1.
         11    1    3    3    0    0  0.25007699560E+02 -0.11430904588E+02 -0.16569164117E+02  0.32102769613E+02  0.51100000000E-03 0. -1.
        -11    1    3    3    0    0  0.83694138888E+01  0.13758049693E+02  0.13961056776E+02  0.21312956781E+02  0.51100000000E-03 0.  1.
        -12    1    3    3    0    0 -0.17858740537E+01 -0.56045282378E+01 -0.21622200332E+00  0.58861562041E+01  0.00000000000E+00 0.  1.
</event>
<event>
 7    1  0.1052674E-011  0.5930197E+02  0.7816164E-02  0.1266605E+00
        -11   -1    0    0    0    0  0.00000000000E+00  0.00000000000E+00  0.45593999997E+02  0.45594000000E+02  0.51100000000E-03 0.  1.
         11   -1    0    0    0    0 -0.00000000000E+00 -0.00000000000E+00 -0.45593999997E+02  0.45594000000E+02  0.51100000000E-03 0. -1.
    9900012    2    1    2    0    0 -0.25128115060E+02 -0.45609363071E+01 -0.19091740311E+02  0.59301970856E+02  0.50000048929E+02 0.  0.
        -12    1    1    2    0    0  0.25128115060E+02  0.45609363071E+01  0.19091740311E+02  0.31886029144E+02  0.00000000000E+00 0.  1.
         11    1    3    3    0    0 -0.38297092905E+01  0.11691523786E+01 -0.22137917015E+02  0.22497132274E+02  0.51100000000E-03 0. -1.
        -11    1    3    3    0    0 -0.79643178844E+01 -0.12805298831E+02  0.11984305815E+02  0.19262129261E+02  0.51100000000E-03 0.  1.
        -12    1    3    3    0    0 -0.13334087885E+02  0.70752101458E+01 -0.89381291112E+01  0.17542709321E+02  0.00000000000E+00 0.  1.
</event>
<event>
 7    1  0.1052674E-011  0.5930194E+02  0.7816164E-02  0.1266605E+00
        -11   -1    0    0    0    0  0.00000000000E+00  0.00000000000E+00  0.45593999997E+02  0.45594000000E+02  0.51100000000E-03 0.  1.
         11   -1    0    0    0    0 -0.00000000000E+00 -0.00000000000E+00 -0.45593999997E+02  0.45594000000E+02  0.51100000000E-03 0. -1.
    9900012    2    1    2    0    0  0.57556686537E+01  0.31358871378E+02 -0.46283872106E+00  0.59301941049E+02  0.49999994568E+02 0.  0.
        -12    1    1    2    0    0 -0.57556686537E+01 -0.31358871378E+02  0.46283872106E+00  0.31886058951E+02  0.00000000000E+00 0.  1.
         11    1    3    3    0    0  0.20641219352E+02  0.18086435381E+02 -0.14359301538E+02  0.30973676276E+02  0.51100000000E-03 0. -1.
        -11    1    3    3    0    0 -0.13855607373E+02  0.12263872350E+02  0.16859970136E+02  0.25032758816E+02  0.51100000000E-03 0.  1.
        -12    1    3    3    0    0 -0.10299433258E+01  0.10085636470E+01 -0.29635073190E+01  0.32955059572E+01  0.00000000000E+00 0.  1.
</event>
<event>
 7    1  0.1565335E-011  0.5930194E+02  0.7816164E-02  0.1266605E+00
        -11   -1    0    0    0    0  0.00000000000E+00  0.00000000000E+00  0.45593999997E+02  0.45594000000E+02  0.51100000000E-03 0. -1.
         11   -1    0    0    0    0 -0.00000000000E+00 -0.00000000000E+00 -0.45593999997E+02  0.45594000000E+02  0.51100000000E-03 0.  1.
    9900012    2    1    2    0    0  0.41008964633E+01 -0.21049831357E+02  0.23596784137E+02  0.59301937628E+02  0.49999988329E+02 0.  0.
        -12    1    1    2    0    0 -0.41008964633E+01  0.21049831357E+02 -0.23596784137E+02  0.31886062372E+02  0.00000000000E+00 0.  1.
         11    1    3    3    0    0 -0.10426582238E+02 -0.22297538918E+02  0.51018065170E+01  0.25138064543E+02  0.51100000000E-03 0. -1.
        -11    1    3    3    0    0  0.16481100114E+02  0.10399322990E+01  0.98414771512E+00  0.16543175848E+02  0.51100000000E-03 0.  1.
         12    1    3    3    0    0 -0.19536214123E+01  0.20777526206E+00  0.17510829905E+02  0.17620697238E+02  0.00000000000E+00 0. -1.
</event>
<event>
 7    1  0.1052674E-011  0.5930194E+02  0.7816164E-02  0.1266605E+00
        -11   -1    0    0    0    0  0.00000000000E+00  0.00000000000E+00  0.45593999997E+02  0.45594000000E+02  0.51100000000E-03 0.  1.
         11   -1    0    0    0    0 -0.00000000000E+00 -0.00000000000E+00 -0.45593999997E+02  0.45594000000E+02  0.51100000000E-03 0. -1.
    9900012    2    1    2    0    0 -0.19497789767E+02  0.17449408308E+02 -0.18222923476E+02  0.59301943547E+02  0.49999999123E+02 0.  0.
        -12    1    1    2    0    0  0.19497789767E+02 -0.17449408308E+02  0.18222923476E+02  0.31886056453E+02  0.00000000000E+00 0.  1.
         11    1    3    3    0    0  0.64536397407E+01 -0.68303753653E+01 -0.52017025995E+01  0.10740633302E+02  0.51100000000E-03 0.  1.
        -11    1    3    3    0    0 -0.31310008216E+02  0.12857633628E+02 -0.11967847864E+02  0.35900762384E+02  0.51100000000E-03 0. -1.
        -12    1    3    3    0    0  0.53585787082E+01  0.11422150045E+02 -0.10533730127E+01  0.12660547861E+02  0.00000000000E+00 0.  1.
</event>
<event>
 7    1  0.1052674E-011  0.5930188E+02  0.7816164E-02  0.1266605E+00
        -11   -1    0    0    0    0  0.00000000000E+00  0.00000000000E+00  0.45593999997E+02  0.45594000000E+02  0.51100000000E-03 0.  1.
         11   -1    0    0    0    0 -0.00000000000E+00 -0.00000000000E+00 -0.45593999997E+02  0.45594000000E+02  0.51100000000E-03 0. -1.
    9900012    2    1    2    0    0 -0.15057329953E+02  0.20132039944E+02 -0.19613830153E+02  0.59301881533E+02  0.49999886024E+02 0.  0.
        -12    1    1    2    0    0  0.15057329953E+02 -0.20132039944E+02  0.19613830153E+02  0.31886118467E+02  0.00000000000E+00 0.  1.
         11    1    3    3    0    0 -0.16171533788E+02  0.16578203443E+02  0.71192829164E+01  0.24228898529E+02  0.51100000000E-03 0. -1.
        -11    1    3    3    0    0  0.10166039087E+02 -0.36704162846E+01 -0.15822727635E+02  0.19161915784E+02  0.51100000000E-03 0.  1.
         12    1    3    3    0    0 -0.90518352528E+01  0.72242527864E+01 -0.10910385434E+02  0.15911067220E+02  0.00000000000E+00 0. -1.
</event>
<event>
 7    1  0.1052674E-011  0.5930195E+02  0.7816164E-02  0.1266605E+00
        -11   -1    0    0    0    0  0.00000000000E+00  0.00000000000E+00  0.45593999997E+02  0.45594000000E+02  0.51100000000E-03 0.  1.
         11   -1    0    0    0    0 -0.00000000000E+00 -0.00000000000E+00 -0.45593999997E+02  0.45594000000E+02  0.51100000000E-03 0. -1.
    9900012    2    1    2    0    0  0.11919818517E+02 -0.23649368357E+02  0.17757961670E+02  0.59301954465E+02  0.50000019035E+02 0.  0.
        -12    1    1    2    0    0 -0.11919818517E+02  0.23649368357E+02 -0.17757961670E+02  0.31886045535E+02  0.00000000000E+00 0.  1.
         11    1    3    3    0    0  0.58776501075E+01 -0.21478623566E+02  0.93593370418E+01  0.24155231963E+02  0.51100000000E-03 0. -1.
        -11    1    3    3    0    0  0.48994941515E+01  0.54147475092E+01 -0.11611365578E+02  0.13716717697E+02  0.51100000000E-03 0.  1.
        -12    1    3    3    0    0  0.11426742582E+01 -0.75854923011E+01  0.20009990206E+02  0.21430004805E+02  0.00000000000E+00 0.  1.
</event>
<event>
 7    1  0.1052674E-011  0.5930195E+02  0.7816164E-02  0.1266605E+00
        -11   -1    0    0    0    0  0.00000000000E+00  0.00000000000E+00  0.45593999997E+02  0.45594000000E+02  0.51100000000E-03 0.  1.
         11   -1    0    0    0    0 -0.00000000000E+00 -0.00000000000E+00 -0.45593999997E+02  0.45594000000E+02  0.51100000000E-03 0. -1.
    9900012    2    1    2    0    0  0.41162783692E+01  0.31503546290E+02 -0.27024470764E+01  0.59301946674E+02  0.50000004827E+02 0.  0.
        -12    1    1    2    0    0 -0.41162783692E+01 -0.31503546290E+02  0.27024470764E+01  0.31886053326E+02  0.00000000000E+00 0.  1.
         11    1    3    3    0    0  0.67510404401E+00  0.24984946732E+02 -0.11914097297E+02  0.27688427968E+02  0.51100000000E-03 0. -1.
        -11    1    3    3    0    0  0.84718029065E+01 -0.85319524252E+01  0.10124144513E+02  0.15718268322E+02  0.51100000000E-03 0.  1.
        -12    1    3    3    0    0 -0.50306285813E+01  0.15050551983E+02 -0.91249429179E+00  0.15895250384E+02  0.00000000000E+00 0.  1.
</event>
<event>
 7    1  0.1052674E-011  0.5930193E+02  0.7816164E-02  0.1266605E+00
        -11   -1    0    0    0    0  0.00000000000E+00  0.00000000000E+00  0.45593999997E+02  0.45594000000E+02  0.51100000000E-03 0.  1.
         11   -1    0    0    0    0 -0.00000000000E+00 -0.00000000000E+00 -0.45593999997E+02  0.45594000000E+02  0.51100000000E-03 0. -1.
    9900012    2    1    2    0    0 -0.23611375183E+02  0.66911705320E+01 -0.20358104112E+02  0.59301934013E+02  0.49999981735E+02 0.  0.
        -12    1    1    2    0    0  0.23611375183E+02 -0.66911705320E+01  0.20358104112E+02  0.31886065987E+02  0.00000000000E+00 0.  1.
         11    1    3    3    0    0 -0.24717375215E+02  0.19176476899E+02  0.12766877353E+01  0.31309995778E+02  0.51100000000E-03 0.  1.
        -11    1    3    3    0    0 -0.37546885884E+01 -0.33559982549E+01 -0.14702256727E+02  0.15540809625E+02  0.51100000000E-03 0. -1.
         12    1    3    3    0    0  0.48606886202E+01 -0.91293081119E+01 -0.69325351204E+01  0.12451128610E+02  0.00000000000E+00 0. -1.
</event>
<event>
 7    1  0.1052674E-011  0.5930193E+02  0.7816164E-02  0.1266605E+00
        -11   -1    0    0    0    0  0.00000000000E+00  0.00000000000E+00  0.45593999997E+02  0.45594000000E+02  0.51100000000E-03 0.  1.
         11   -1    0    0    0    0 -0.00000000000E+00 -0.00000000000E+00 -0.45593999997E+02  0.45594000000E+02  0.51100000000E-03 0. -1.
    9900012    2    1    2    0    0 -0.28967404902E+02 -0.13318980463E+02  0.46470503807E+00  0.59301925640E+02  0.49999966465E+02 0.  0.
        -12    1    1    2    0    0  0.28967404902E+02  0.13318980463E+02 -0.46470503807E+00  0.31886074360E+02  0.00000000000E+00 0.  1.
         11    1    3    3    0    0 -0.25331022738E+02 -0.69284038689E+01  0.11680926895E+02  0.28742086676E+02  0.51100000000E-03 0. -1.
        -11    1    3    3    0    0  0.95949602009E+01  0.15360252802E+01  0.23738142303E+01  0.10002881044E+02  0.51100000000E-03 0.  1.
         12    1    3    3    0    0 -0.13231342365E+02 -0.79266018746E+01 -0.13590036088E+02  0.20556957920E+02  0.00000000000E+00 0. -1.
</event>
<event>
 7    1  0.1052674E-011  0.5930193E+02  0.7816164E-02  0.1266605E+00
        -11   -1    0    0    0    0  0.00000000000E+00  0.00000000000E+00  0.45593999997E+02  0.45594000000E+02  0.51100000000E-03 0.  1.
         11   -1    0    0    0    0 -0.00000000000E+00 -0.00000000000E+00 -0.45593999997E+02  0.45594000000E+02  0.51100000000E-03 0. -1.
    9900012    2    1    2    0    0  0.20149880452E+02  0.16936137127E+02  0.17996409126E+02  0.59301934635E+02  0.49999982871E+02 0.  0.
        -12    1    1    2    0    0 -0.20149880452E+02 -0.16936137127E+02 -0.17996409126E+02  0.31886065365E+02  0.00000000000E+00 0.  1.
         11    1    3    3    0    0  0.26022015238E+02  0.20654682458E+02  0.12186479243E+02  0.35387447790E+02  0.51100000000E-03 0. -1.
        -11    1    3    3    0    0 -0.12679611829E+02  0.11809715852E+01 -0.14561958508E+01  0.12817478560E+02  0.51100000000E-03 0.  1.
         12    1    3    3    0    0  0.68074770431E+01 -0.48995169163E+01  0.72661257342E+01  0.11097008286E+02  0.00000000000E+00 0. -1.
</event>
<event>
 7    1  0.1052674E-011  0.5930198E+02  0.7816164E-02  0.1266605E+00
        -11   -1    0    0    0    0  0.00000000000E+00  0.00000000000E+00  0.45593999997E+02  0.45594000000E+02  0.51100000000E-03 0.  1.
         11   -1    0    0    0    0 -0.00000000000E+00 -0.00000000000E+00 -0.45593999997E+02  0.45594000000E+02  0.51100000000E-03 0. -1.
    9900012    2    1    2    0    0  0.30263482886E+02  0.75049212223E+00 -0.10013807341E+02  0.59301984691E+02  0.50000074161E+02 0.  0.
        -12    1    1    2    0    0 -0.30263482886E+02 -0.75049212223E+00  0.10013807341E+02  0.31886015309E+02  0.00000000000E+00 0.  1.
         11    1    3    3    0    0  0.52225008513E+01  0.11991125665E+02 -0.91191995758E+01  0.15944322219E+02  0.51100000000E-03 0. -1.
        -11    1    3    3    0    0  0.26489286923E+02 -0.12492479477E+02 -0.12319966437E+02  0.31773037917E+02  0.51100000000E-03 0.  1.
        -12    1    3    3    0    0 -0.14483048889E+01  0.12518459345E+01  0.11425358672E+02  0.11584624555E+02  0.00000000000E+00 0.  1.
</event>
<event>
 7    1  0.1052674E-011  0.5930194E+02  0.7816164E-02  0.1266605E+00
        -11   -1    0    0    0    0  0.00000000000E+00  0.00000000000E+00  0.45593999997E+02  0.45594000000E+02  0.51100000000E-03 0.  1.
         11   -1    0    0    0    0 -0.00000000000E+00 -0.00000000000E+00 -0.45593999997E+02  0.45594000000E+02  0.51100000000E-03 0. -1.
    9900012    2    1    2    0    0  0.31788727346E+02  0.24805954401E+01  0.21019172372E+00  0.59301941595E+02  0.49999995564E+02 0.  0.
        -12    1    1    2    0    0 -0.31788727346E+02 -0.24805954401E+01 -0.21019172372E+00  0.31886058405E+02  0.00000000000E+00 0.  1.
         11    1    3    3    0    0  0.22566593094E+02  0.19419062225E+02 -0.46136448005E+01  0.30127011472E+02  0.51100000000E-03 0. -1.
        -11    1    3    3    0    0 -0.34511420662E+01 -0.15655466589E+02  0.24470105904E+01  0.16217024288E+02  0.51100000000E-03 0.  1.
        -12    1    3    3    0    0  0.12673276318E+02 -0.12830001966E+01  0.23768259338E+01  0.12957905836E+02  0.00000000000E+00 0.  1.
</event>
<event>
 7    1  0.1052674E-011  0.5930202E+02  0.7816164E-02  0.1266604E+00
        -11   -1    0    0    0    0  0.00000000000E+00  0.00000000000E+00  0.45593999997E+02  0.45594000000E+02  0.51100000000E-03 0. -1.
         11   -1    0    0    0    0 -0.00000000000E+00 -0.00000000000E+00 -0.45593999997E+02  0.45594000000E+02  0.51100000000E-03 0.  1.
    9900012    2    1    2    0    0  0.30166659862E+02 -0.69656010997E+01 -0.76268404923E+01  0.59302020921E+02  0.50000140235E+02 0.  0.
        -12    1    1    2    0    0 -0.30166659862E+02  0.69656010997E+01  0.76268404923E+01  0.31885979079E+02  0.00000000000E+00 0.  1.
         11    1    3    3    0    0  0.85332053834E+01 -0.18111365227E+02  0.13184960641E+02  0.23972491148E+02  0.51100000000E-03 0. -1.
        -11    1    3    3    0    0  0.20743111929E+02  0.58200967098E+01 -0.11143138031E+02  0.24255303413E+02  0.51100000000E-03 0.  1.
         12    1    3    3    0    0  0.89034254973E+00  0.53256674171E+01 -0.96686631019E+01  0.11074226360E+02  0.00000000000E+00 0. -1.
</event>
<event>
 7    1  0.1052674E-011  0.5930192E+02  0.7816164E-02  0.1266605E+00
        -11   -1    0    0    0    0  0.00000000000E+00  0.00000000000E+00  0.45593999997E+02  0.45594000000E+02  0.51100000000E-03 0. -1.
         11   -1    0    0    0    0 -0.00000000000E+00 -0.00000000000E+00 -0.45593999997E+02  0.45594000000E+02  0.51100000000E-03 0.  1.
    9900012    2    1    2    0    0  0.17793297297E+02  0.24400352004E+02 -0.10234414005E+02  0.59301924095E+02  0.49999963647E+02 0.  0.
        -12    1    1    2    0    0 -0.17793297297E+02 -0.24400352004E+02  0.10234414005E+02  0.31886075905E+02  0.00000000000E+00 0.  1.
         11    1    3    3    0    0  0.26137069794E+02  0.26647419641E+02  0.46828805742E+00  0.37328952368E+02  0.51100000000E-03 0. -1.
        -11    1    3    3    0    0 -0.84950642679E+01 -0.58084359032E+01 -0.13824732802E+02  0.17234479449E+02  0.51100000000E-03 0.  1.
        -12    1    3    3    0    0  0.15129177068E+00  0.35613682667E+01  0.31220307396E+01  0.47384922782E+01  0.00000000000E+00 0.  1.
</event>
<event>
 7    1  0.1052674E-011  0.5930200E+02  0.7816164E-02  0.1266605E+00
        -11   -1    0    0    0    0  0.00000000000E+00  0.00000000000E+00  0.45593999997E+02  0.45594000000E+02  0.51100000000E-03 0.  1.
         11   -1    0    0    0    0 -0.00000000000E+00 -0.00000000000E+00 -0.45593999997E+02  0.45594000000E+02  0.51100000000E-03 0. -1.
    9900012    2    1    2    0    0 -0.81813166592E+01  0.15513267281E+02 -0.26629339981E+02  0.59301997556E+02  0.50000097623E+02 0.  0.
        -12    1    1    2    0    0  0.81813166592E+01 -0.15513267281E+02  0.26629339981E+02  0.31886002444E+02  0.00000000000E+00 0.  1.
         11    1    3    3    0    0  0.24782567917E+01 -0.12921908693E+02 -0.61915764417E+01  0.14541427030E+02  0.51100000000E-03 0. -1.
        -11    1    3    3    0    0 -0.65426652878E+01  0.17063749220E+02  0.28728712435E+01  0.18499497181E+02  0.51100000000E-03 0.  1.
         12    1    3    3    0    0 -0.41169081631E+01  0.11371426754E+02 -0.23310634783E+02  0.26261073345E+02  0.00000000000E+00 0. -1.
</event>
<event>
 7    1  0.1052674E-011  0.5930195E+02  0.7816164E-02  0.1266605E+00
        -11   -1    0    0    0    0  0.00000000000E+00  0.00000000000E+00  0.45593999997E+02  0.45594000000E+02  0.51100000000E-03 0.  1.
         11   -1    0    0    0    0 -0.00000000000E+00 -0.00000000000E+00 -0.45593999997E+02  0.45594000000E+02  0.51100000000E-03 0. -1.
    9900012    2    1    2    0    0 -0.19847044945E+02  0.22430504232E+02 -0.10940190538E+02  0.59301945334E+02  0.50000002382E+02 0.  0.
        -12    1    1    2    0    0  0.19847044945E+02 -0.22430504232E+02  0.10940190538E+02  0.31886054666E+02  0.00000000000E+00 0.  1.
         11    1    3    3    0    0  0.25110103925E+01  0.76833376793E+01 -0.19918589895E+02  0.21496257227E+02  0.51100000000E-03 0. -1.
        -11    1    3    3    0    0 -0.98338735463E+01  0.37882633738E+01  0.16471892732E+02  0.19554520161E+02  0.51100000000E-03 0.  1.
        -12    1    3    3    0    0 -0.12524181791E+02  0.10958903179E+02 -0.74934933751E+01  0.18251167946E+02  0.00000000000E+00 0.  1.
</event>
<event>
 7    1  0.1052674E-011  0.5930194E+02  0.7816164E-02  0.1266605E+00
        -11   -1    0    0    0    0  0.00000000000E+00  0.00000000000E+00  0.45593999997E+02  0.45594000000E+02  0.51100000000E-03 0.  1.
         11   -1    0    0    0    0 -0.00000000000E+00 -0.00000000000E+00 -0.45593999997E+02  0.45594000000E+02  0.51100000000E-03 0. -1.
    9900012    2    1    2    0    0  0.15813259625E+02 -0.15243497715E+02 -0.23114868706E+02  0.59301944147E+02  0.50000000218E+02 0.  0.
        -12    1    1    2    0    0 -0.15813259625E+02  0.15243497715E+02  0.23114868706E+02  0.31886055853E+02  0.00000000000E+00 0.  1.
         11    1    3    3    0    0 -0.75290764844E+01 -0.15330591916E+02 -0.19626905997E+01  0.17192038735E+02  0.51100000000E-03 0. -1.
        -11    1    3    3    0    0  0.97479561598E+01  0.12231156728E+02 -0.21662750454E+01  0.15789762253E+02  0.51100000000E-03 0.  1.
        -12    1    3    3    0    0  0.13594379950E+02 -0.12144062526E+02 -0.18985903061E+02  0.26320143159E+02  0.00000000000E+00 0.  1.
</event>
<event>
 7    1  0.1052674E-011  0.5930190E+02  0.7816164E-02  0.1266605E+00
        -11   -1    0    0    0    0  0.00000000000E+00  0.00000000000E+00  0.45593999997E+02  0.45594000000E+02  0.51100000000E-03 0. -1.
         11   -1    0    0    0    0 -0.00000000000E+00 -0.00000000000E+00 -0.45593999997E+02  0.45594000000E+02  0.51100000000E-03 0.  1.
    9900012    2    1    2    0    0 -0.98120487376E+01 -0.29306644127E+02 -0.78465062035E+01  0.59301900363E+02  0.49999920367E+02 0.  0.
        -12    1    1    2    0    0  0.98120487376E+01  0.29306644127E+02  0.78465062035E+01  0.31886099637E+02  0.00000000000E+00 0.  1.
         11    1    3    3    0    0 -0.17461874437E+02 -0.30934091594E+02 -0.12885195340E+02  0.37787079019E+02  0.51100000000E-03 0. -1.
        -11    1    3    3    0    0 -0.12198215916E+01  0.23192274576E+01 -0.64629287642E+01  0.69739679658E+01  0.51100000000E-03 0.  1.
         12    1    3    3    0    0  0.88696472912E+01 -0.69177999119E+00  0.11501617901E+02  0.14540853378E+02  0.00000000000E+00 0. -1.
</event>
<event>
 7    1  0.1052674E-011  0.5930205E+02  0.7816164E-02  0.1266604E+00
        -11   -1    0    0    0    0  0.00000000000E+00  0.00000000000E+00  0.45593999997E+02  0.45594000000E+02  0.51100000000E-03 0.  1.
         11   -1    0    0    0    0 -0.00000000000E+00 -0.00000000000E+00 -0.45593999997E+02  0.45594000000E+02  0.51100000000E-03 0. -1.
    9900012    2    1    2    0    0 -0.29068775960E+02 -0.12866997042E+01  0.13040870626E+02  0.59302052646E+02  0.50000198094E+02 0.  0.
        -12    1    1    2    0    0  0.29068775960E+02  0.12866997042E+01 -0.13040870626E+02  0.31885947354E+02  0.00000000000E+00 0.  1.
         11    1    3    3    0    0 -0.22945297968E+02  0.21299826178E+02  0.10183798366E+02  0.32922318319E+02  0.51100000000E-03 0. -1.
        -11    1    3    3    0    0  0.32392762352E+01 -0.86607034253E+01  0.25679179646E+01  0.95966086345E+01  0.51100000000E-03 0.  1.
         12    1    3    3    0    0 -0.93627542279E+01 -0.13925822457E+02  0.28915429472E+00  0.16783125693E+02  0.00000000000E+00 0. -1.
</event>
<event>
 7    1  0.1052674E-011  0.5930201E+02  0.7816164E-02  0.1266605E+00
        -11   -1    0    0    0    0  0.00000000000E+00  0.00000000000E+00  0.45593999997E+02  0.45594000000E+02  0.51100000000E-03 0. -1.
         11   -1    0    0    0    0 -0.00000000000E+00 -0.00000000000E+00 -0.45593999997E+02  0.45594000000E+02  0.51100000000E-03 0.  1.
    9900012    2    1    2    0    0  0.23816083900E+02 -0.20412725845E+02 -0.57298504968E+01  0.59302009103E+02  0.50000118682E+02 0.  0.
        -12    1    1    2    0    0 -0.23816083900E+02  0.20412725845E+02  0.57298504968E+01  0.31885990897E+02  0.00000000000E+00 0.  1.
         11    1    3    3    0    0  0.23249898752E+02  0.26127594169E+01  0.99487167652E+01  0.25423636035E+02  0.51100000000E-03 0. -1.
        -11    1    3    3    0    0  0.88066683322E+01 -0.69838150351E+01 -0.97939807957E+01  0.14908156816E+02  0.51100000000E-03 0.  1.
         12    1    3    3    0    0 -0.82404831837E+01 -0.16041670227E+02 -0.58845864663E+01  0.18970216252E+02  0.00000000000E+00 0. -1.
</event>
<event>
 7    1  0.1052674E-011  0.5930193E+02  0.7816164E-02  0.1266605E+00
        -11   -1    0    0    0    0  0.00000000000E+00  0.00000000000E+00  0.45593999997E+02  0.45594000000E+02  0.51100000000E-03 0. -1.
         11   -1    0    0    0    0 -0.00000000000E+00 -0.00000000000E+00 -0.45593999997E+02  0.45594000000E+02  0.51100000000E-03 0.  1.
    9900012    2    1    2    0    0 -0.26494191805E+02 -0.12004203760E+02 -0.13064401214E+02  0.59301926451E+02  0.49999967944E+02 0.  0.
        -12    1    1    2    0    0  0.26494191805E+02  0.12004203760E+02  0.13064401214E+02  0.31886073549E+02  0.00000000000E+00 0.  1.
         11    1    3    3    0    0 -0.15095097397E+01 -0.92710434856E+00  0.45023574898E+01  0.48383225765E+01  0.51100000000E-03 0. -1.
        -11    1    3    3    0    0 -0.51948952716E+00 -0.18869481938E+02 -0.21363344854E+02  0.28508239539E+02  0.51100000000E-03 0.  1.
        -12    1    3    3    0    0 -0.24465192538E+02  0.77923825266E+01  0.37965861511E+01  0.25955364335E+02  0.00000000000E+00 0.  1.
</event>
<event>
 7    1  0.1052674E-011  0.5930193E+02  0.7816164E-02  0.1266605E+00
        -11   -1    0    0    0    0  0.00000000000E+00  0.00000000000E+00  0.45593999997E+02  0.45594000000E+02  0.51100000000E-03 0.  1.
         11   -1    0    0    0    0 -0.00000000000E+00 -0.00000000000E+00 -0.45593999997E+02  0.45594000000E+02  0.51100000000E-03 0. -1.
    9900012    2    1    2    0    0 -0.29214343874E+02 -0.12775963030E+02  0.13471084979E+00  0.59301933037E+02  0.49999979956E+02 0.  0.
        -12    1    1    2    0    0  0.29214343874E+02  0.12775963030E+02 -0.13471084979E+00  0.31886066963E+02  0.00000000000E+00 0.  1.
         11    1    3    3    0    0 -0.40804634886E+02 -0.15449000545E+02  0.81005385263E+01  0.44376892305E+02  0.51100000000E-03 0. -1.
        -11    1    3    3    0    0  0.54808798257E+01  0.17109955241E+01 -0.62916197296E+01  0.85177478497E+01  0.51100000000E-03 0.  1.
         12    1    3    3    0    0  0.61094111860E+01  0.96204199067E+00 -0.16742079470E+01  0.64072928825E+01  0.00000000000E+00 0. -1.
</event>
<event>
 7    1  0.1052674E-011  0.5930186E+02  0.7816164E-02  0.1266605E+00
        -11   -1    0    0    0    0  0.00000000000E+00  0.00000000000E+00  0.45593999997E+02  0.45594000000E+02  0.51100000000E-03 0. -1.
         11   -1    0    0    0    0 -0.00000000000E+00 -0.00000000000E+00 -0.45593999997E+02  0.45594000000E+02  0.51100000000E-03 0.  1.
    9900012    2    1    2    0    0 -0.20997459319E+02 -0.77227919733E+01  0.22719843403E+02  0.59301857274E+02  0.49999841781E+02 0.  0.
        -12    1    1    2    0    0  0.20997459319E+02  0.77227919733E+01 -0.22719843403E+02  0.31886142726E+02  0.00000000000E+00 0.  1.
         11    1    3    3    0    0 -0.14778123642E+02 -0.76374519804E+01  0.15918354546E+02  0.23024283330E+02  0.51100000000E-03 0.  1.
        -11    1    3    3    0    0 -0.66784671964E+01  0.90504302765E+01 -0.11332716185E+02  0.15966924208E+02  0.51100000000E-03 0. -1.
        -12    1    3    3    0    0  0.45913151985E+00 -0.91357702693E+01  0.18134205042E+02  0.20310649735E+02  0.00000000000E+00 0.  1.
</event>
<event>
 7    1  0.1052674E-011  0.5930194E+02  0.7816164E-02  0.1266605E+00
        -11   -1    0    0    0    0  0.00000000000E+00  0.00000000000E+00  0.45593999997E+02  0.45594000000E+02  0.51100000000E-03 0. -1.
         11   -1    0    0    0    0 -0.00000000000E+00 -0.00000000000E+00 -0.45593999997E+02  0.45594000000E+02  0.51100000000E-03 0.  1.
    9900012    2    1    2    0    0  0.41764344938E+01  0.14703092216E+02  0.27983871060E+02  0.59301944031E+02  0.50000000006E+02 0.  0.
        -12    1    1    2    0    0 -0.41764344938E+01 -0.14703092216E+02 -0.27983871060E+02  0.31886055969E+02  0.00000000000E+00 0.  1.
         11    1    3    3    0    0  0.57418124573E+01 -0.51803174414E+01  0.67388344196E+01  0.10257484520E+02  0.51100000000E-03 0. -1.
        -11    1    3    3    0    0 -0.25020522530E+01  0.30730058104E+02  0.79111785167E+01  0.31830543230E+02  0.51100000000E-03 0.  1.
        -12    1    3    3    0    0  0.93667428943E+00 -0.10846648447E+02  0.13333858123E+02  0.17213916280E+02  0.00000000000E+00 0.  1.
</event>
<event>
 7    1  0.1052674E-011  0.5930195E+02  0.7816164E-02  0.1266605E+00
        -11   -1    0    0    0    0  0.00000000000E+00  0.00000000000E+00  0.45593999997E+02  0.45594000000E+02  0.51100000000E-03 0. -1.
         11   -1    0    0    0    0 -0.00000000000E+00 -0.00000000000E+00 -0.45593999997E+02  0.45594000000E+02  0.51100000000E-03 0.  1.
    9900012    2    1    2    0    0  0.26547484382E+02  0.17660928935E+02 -0.20696340985E+00  0.59301950202E+02  0.50000011260E+02 0.  0.
        -12    1    1    2    0    0 -0.26547484382E+02 -0.17660928935E+02  0.20696340985E+00  0.31886049798E+02  0.00000000000E+00 0.  1.
         11    1    3    3    0    0  0.25602911410E+01  0.11572491308E+02 -0.48186645455E+01  0.12794419645E+02  0.51100000000E-03 0. -1.
        -11    1    3    3    0    0  0.29351498122E+02 -0.33075349244E+01  0.13527744164E+02  0.32487691388E+02  0.51100000000E-03 0.  1.
        -12    1    3    3    0    0 -0.53643048805E+01  0.93959725515E+01 -0.89160430285E+01  0.14019839169E+02  0.00000000000E+00 0.  1.
</event>
<event>
 7    1  0.1052674E-011  0.5930184E+02  0.7816164E-02  0.1266605E+00
        -11   -1    0    0    0    0  0.00000000000E+00  0.00000000000E+00  0.45593999997E+02  0.45594000000E+02  0.51100000000E-03 0. -1.
         11   -1    0    0    0    0 -0.00000000000E+00 -0.00000000000E+00 -0.45593999997E+02  0.45594000000E+02  0.51100000000E-03 0.  1.
    9900012    2    1    2    0    0  0.92259512278E+01 -0.30290759818E+02 -0.37521786363E+01  0.59301840762E+02  0.49999811668E+02 0.  0.
        -12    1    1    2    0    0 -0.92259512278E+01  0.30290759818E+02  0.37521786363E+01  0.31886159238E+02  0.00000000000E+00 0.  1.
         11    1    3    3    0    0  0.11631974187E+02 -0.31369114078E+02  0.83502875387E+01  0.34482625245E+02  0.51100000000E-03 0. -1.
        -11    1    3    3    0    0  0.77528471375E+01  0.58685084455E+01 -0.24934370080E+01  0.10038090380E+02  0.51100000000E-03 0.  1.
        -12    1    3    3    0    0 -0.10158870097E+02 -0.47901541860E+01 -0.96090291671E+01  0.14781125137E+02  0.00000000000E+00 0.  1.
</event>
<event>
 7    1  0.1052674E-011  0.5930192E+02  0.7816164E-02  0.1266605E+00
        -11   -1    0    0    0    0  0.00000000000E+00  0.00000000000E+00  0.45593999997E+02  0.45594000000E+02  0.51100000000E-03 0.  1.
         11   -1    0    0    0    0 -0.00000000000E+00 -0.00000000000E+00 -0.45593999997E+02  0.45594000000E+02  0.51100000000E-03 0. -1.
    9900012    2    1    2    0    0  0.63453733763E+01  0.40483127725E+01 -0.30984986447E+02  0.59301921772E+02  0.49999959412E+02 0.  0.
        -12    1    1    2    0    0 -0.63453733763E+01 -0.40483127725E+01  0.30984986447E+02  0.31886078228E+02  0.00000000000E+00 0.  1.
         11    1    3    3    0    0 -0.76705606961E+01  0.25993107643E+01  0.44639308915E+01  0.92477347014E+01  0.51100000000E-03 0.  1.
        -11    1    3    3    0    0  0.16979467993E+02 -0.10759868355E+02 -0.30548384966E+02  0.36568851836E+02  0.51100000000E-03 0. -1.
         12    1    3    3    0    0 -0.29635339208E+01  0.12208870363E+02 -0.49005323731E+01  0.13485335234E+02  0.00000000000E+00 0. -1.
</event>
<event>
 7    1  0.1052674E-011  0.5930196E+02  0.7816164E-02  0.1266605E+00
        -11   -1    0    0    0    0  0.00000000000E+00  0.00000000000E+00  0.45593999997E+02  0.45594000000E+02  0.51100000000E-03 0.  1.
         11   -1    0    0    0    0 -0.00000000000E+00 -0.00000000000E+00 -0.45593999997E+02  0.45594000000E+02  0.51100000000E-03 0. -1.
    9900012    2    1    2    0    0 -0.17636519958E+02 -0.65607639647E+00 -0.26556396959E+02  0.59301960862E+02  0.50000030701E+02 0.  0.
        -12    1    1    2    0    0  0.17636519958E+02  0.65607639647E+00  0.26556396959E+02  0.31886039138E+02  0.00000000000E+00 0.  1.
         11    1    3    3    0    0  0.22240866769E+01 -0.17753865821E+02  0.16013396527E+01  0.17964147686E+02  0.51100000000E-03 0. -1.
        -11    1    3    3    0    0 -0.69275935226E+01  0.15037514487E+02 -0.11547092849E+02  0.20185483583E+02  0.51100000000E-03 0.  1.
         12    1    3    3    0    0 -0.12933013113E+02  0.20602749375E+01 -0.16610643763E+02  0.21152329593E+02  0.00000000000E+00 0. -1.
</event>
<event>
 7    1  0.1052674E-011  0.5930193E+02  0.7816164E-02  0.1266605E+00
        -11   -1    0    0    0    0  0.00000000000E+00  0.00000000000E+00  0.45593999997E+02  0.45594000000E+02  0.51100000000E-03 0. -1.
         11   -1    0    0    0    0 -0.00000000000E+00 -0.00000000000E+00 -0.45593999997E+02  0.45594000000E+02  0.51100000000E-03 0.  1.
    9900012    2    1    2    0    0 -0.27557623175E+02 -0.13776982874E+02 -0.82154339930E+01  0.59301933954E+02  0.49999981628E+02 0.  0.
        -12    1    1    2    0    0  0.27557623175E+02  0.13776982874E+02  0.82154339930E+01  0.31886066046E+02  0.00000000000E+00 0.  1.
         11    1    3    3    0    0  0.73565229435E+01 -0.13132182356E+02  0.53891488437E+01  0.15987982011E+02  0.51100000000E-03 0. -1.
        -11    1    3    3    0    0 -0.26323449041E+02  0.49550136270E+01 -0.65231785473E+00  0.26793686725E+02  0.51100000000E-03 0.  1.
         12    1    3    3    0    0 -0.85906970775E+01 -0.55998141453E+01 -0.12952264982E+02  0.16520265219E+02  0.00000000000E+00 0. -1.
</event>
<event>
 7    1  0.1052674E-011  0.5930194E+02  0.7816164E-02  0.1266605E+00
        -11   -1    0    0    0    0  0.00000000000E+00  0.00000000000E+00  0.45593999997E+02  0.45594000000E+02  0.51100000000E-03 0.  1.
         11   -1    0    0    0    0 -0.00000000000E+00 -0.00000000000E+00 -0.45593999997E+02  0.45594000000E+02  0.51100000000E-03 0. -1.
    9900012    2    1    2    0    0 -0.29269991079E+02  0.36375058102E+01 -0.12114330937E+02  0.59301939718E+02  0.49999992140E+02 0.  0.
        -12    1    1    2    0    0  0.29269991079E+02 -0.36375058102E+01  0.12114330937E+02  0.31886060282E+02  0.00000000000E+00 0.  1.
         11    1    3    3    0    0 -0.16811692473E+01 -0.51803474829E+01 -0.17739738807E+02  0.18556957274E+02  0.51100000000E-03 0. -1.
        -11    1    3    3    0    0 -0.31521610085E+02  0.20576257921E+01  0.79728576274E+01  0.32579321437E+02  0.51100000000E-03 0.  1.
        -12    1    3    3    0    0  0.39327882538E+01  0.67602275010E+01 -0.23474497571E+01  0.81656610067E+01  0.00000000000E+00 0.  1.
</event>
<event>
 7    1  0.1052674E-011  0.5930189E+02  0.7816164E-02  0.1266605E+00
        -11   -1    0    0    0    0  0.00000000000E+00  0.00000000000E+00  0.45593999997E+02  0.45594000000E+02  0.51100000000E-03 0.  1.
         11   -1    0    0    0    0 -0.00000000000E+00 -0.00000000000E+00 -0.45593999997E+02  0.45594000000E+02  0.51100000000E-03 0. -1.
    9900012    2    1    2    0    0  0.29316568030E+02  0.11407075968E+02 -0.52097533709E+01  0.59301889021E+02  0.49999899680E+02 0.  0.
        -12    1    1    2    0    0 -0.29316568030E+02 -0.11407075968E+02  0.52097533709E+01  0.31886110979E+02  0.00000000000E+00 0.  1.
         11    1    3    3    0    0 -0.32751815003E+01 -0.13681165361E+01 -0.16547144907E+02  0.16923550500E+02  0.51100000000E-03 0. -1.
        -11    1    3    3    0    0  0.30938669046E+02  0.42983738620E+01  0.12539024574E+02  0.33658645215E+02  0.51100000000E-03 0.  1.
        -12    1    3    3    0    0  0.16530804848E+01  0.84768186422E+01 -0.12016330379E+01  0.87196933054E+01  0.00000000000E+00 0.  1.
</event>
<event>
 7    1  0.1052674E-011  0.5930198E+02  0.7816164E-02  0.1266605E+00
        -11   -1    0    0    0    0  0.00000000000E+00  0.00000000000E+00  0.45593999997E+02  0.45594000000E+02  0.51100000000E-03 0.  1.
         11   -1    0    0    0    0 -0.00000000000E+00 -0.00000000000E+00 -0.45593999997E+02  0.45594000000E+02  0.51100000000E-03 0. -1.
    9900012    2    1    2    0    0  0.25693036875E+02  0.14662815873E+02 -0.11899081333E+02  0.59301977204E+02  0.50000060506E+02 0.  0.
        -12    1    1    2    0    0 -0.25693036875E+02 -0.14662815873E+02  0.11899081333E+02  0.31886022796E+02  0.00000000000E+00 0.  1.
         11    1    3    3    0    0  0.32322927909E+02  0.17218874813E+02 -0.11718866534E+02  0.38452479134E+02  0.51100000000E-03 0. -1.
        -11    1    3    3    0    0 -0.82020664515E+00 -0.10761559158E+02  0.49592826353E-01  0.10792884422E+02  0.51100000000E-03 0.  1.
        -12    1    3    3    0    0 -0.58096843890E+01  0.82055002175E+01 -0.22980762470E+00  0.10056613648E+02  0.00000000000E+00 0.  1.
</event>
<event>
 7    1  0.1052674E-011  0.5930196E+02  0.7816164E-02  0.1266605E+00
        -11   -1    0    0    0    0  0.00000000000E+00  0.00000000000E+00  0.45593999997E+02  0.45594000000E+02  0.51100000000E-03 0.  1.
         11   -1    0    0    0    0 -0.00000000000E+00 -0.00000000000E+00 -0.45593999997E+02  0.45594000000E+02  0.51100000000E-03 0. -1.
    9900012    2    1    2    0    0  0.41727032380E+01 -0.10563572372E+02 -0.29794612513E+02  0.59301961544E+02  0.50000031946E+02 0.  0.
        -12    1    1    2    0    0 -0.41727032380E+01  0.10563572372E+02  0.29794612513E+02  0.31886038456E+02  0.00000000000E+00 0.  1.
         11    1    3    3    0    0 -0.28354715321E+01 -0.17362107857E+02 -0.10451236098E+02  0.20462429579E+02  0.51100000000E-03 0. -1.
        -11    1    3    3    0    0  0.11258665329E+01  0.16640090235E+02 -0.21461450314E+02  0.27180029954E+02  0.51100000000E-03 0.  1.
        -12    1    3    3    0    0  0.58823082372E+01 -0.98415547503E+01  0.21180738987E+01  0.11659502011E+02  0.00000000000E+00 0.  1.
</event>
<event>
 7    1  0.1052674E-011  0.5930199E+02  0.7816164E-02  0.1266605E+00
        -11   -1    0    0    0    0  0.00000000000E+00  0.00000000000E+00  0.45593999997E+02  0.45594000000E+02  0.51100000000E-03 0.  1.
         11   -1    0    0    0    0 -0.00000000000E+00 -0.00000000000E+00 -0.45593999997E+02  0.45594000000E+02  0.51100000000E-03 0. -1.
    9900012    2    1    2    0    0  0.12217633418E+01  0.23083028778E+02 -0.21963579334E+02  0.59301988327E+02  0.50000080792E+02 0.  0.
        -12    1    1    2    0    0 -0.12217633418E+01 -0.23083028778E+02  0.21963579334E+02  0.31886011673E+02  0.00000000000E+00 0.  1.
         11    1    3    3    0    0  0.15153172294E+02  0.52510894767E+01 -0.17411076103E+02  0.23671462620E+02  0.51100000000E-03 0. -1.
        -11    1    3    3    0    0 -0.10566197915E+02  0.17649625905E+02  0.84201197494E+01  0.22227286155E+02  0.51100000000E-03 0.  1.
        -12    1    3    3    0    0 -0.33652110370E+01  0.18231339609E+00 -0.12972622980E+02  0.13403239552E+02  0.00000000000E+00 0.  1.
</event>
<event>
 7    1  0.1052674E-011  0.5930186E+02  0.7816164E-02  0.1266605E+00
        -11   -1    0    0    0    0  0.00000000000E+00  0.00000000000E+00  0.45593999997E+02  0.45594000000E+02  0.51100000000E-03 0.  1.
         11   -1    0    0    0    0 -0.00000000000E+00 -0.00000000000E+00 -0.45593999997E+02  0.45594000000E+02  0.51100000000E-03 0. -1.
    9900012    2    1    2    0    0 -0.68391358873E+01 -0.15899890139E+02 -0.26779576981E+02  0.59301858349E+02  0.49999843743E+02 0.  0.
        -12    1    1    2    0    0  0.68391358873E+01  0.15899890139E+02  0.26779576981E+02  0.31886141651E+02  0.00000000000E+00 0.  1.
         11    1    3    3    0    0  0.23328995630E+01 -0.67625901757E+01 -0.23642539831E+02  0.24701107995E+02  0.51100000000E-03 0. -1.
        -11    1    3    3    0    0  0.68673679303E+01  0.14862318937E+01  0.93270672683E+01  0.11677491667E+02  0.51100000000E-03 0.  1.
        -12    1    3    3    0    0 -0.16039403381E+02 -0.10623531857E+02 -0.12464104418E+02  0.22923258688E+02  0.00000000000E+00 0.  1.
</event>
<event>
 7    1  0.1052674E-011  0.5930195E+02  0.7816164E-02  0.1266605E+00
        -11   -1    0    0    0    0  0.00000000000E+00  0.00000000000E+00  0.45593999997E+02  0.45594000000E+02  0.51100000000E-03 0.  1.
         11   -1    0    0    0    0 -0.00000000000E+00 -0.00000000000E+00 -0.45593999997E+02  0.45594000000E+02  0.51100000000E-03 0. -1.
    9900012    2    1    2    0    0  0.16979317802E+02  0.26189344343E+02 -0.65223628122E+01  0.59301949652E+02  0.50000010258E+02 0.  0.
        -12    1    1    2    0    0 -0.16979317802E+02 -0.26189344343E+02  0.65223628122E+01  0.31886050348E+02  0.00000000000E+00 0.  1.
         11    1    3    3    0    0 -0.68617878594E+00 -0.12266011369E+02  0.18531632629E+01  0.12424173637E+02  0.51100000000E-03 0. -1.
        -11    1    3    3    0    0  0.19223113694E+02  0.34664301594E+02 -0.11991813396E+02  0.41411900390E+02  0.51100000000E-03 0.  1.
         12    1    3    3    0    0 -0.15576171066E+01  0.37910541167E+01  0.36162873207E+01  0.54658756254E+01  0.00000000000E+00 0. -1.
</event>
<event>
 7    1  0.1052674E-011  0.5930192E+02  0.7816164E-02  0.1266605E+00
        -11   -1    0    0    0    0  0.00000000000E+00  0.00000000000E+00  0.45593999997E+02  0.45594000000E+02  0.51100000000E-03 0.  1.
         11   -1    0    0    0    0 -0.00000000000E+00 -0.00000000000E+00 -0.45593999997E+02  0.45594000000E+02  0.51100000000E-03 0. -1.
    9900012    2    1    2    0    0 -0.25174406448E+02 -0.19310944768E+02  0.31715310047E+01  0.59301922524E+02  0.49999960783E+02 0.  0.
        -12    1    1    2    0    0  0.25174406448E+02  0.19310944768E+02 -0.31715310047E+01  0.31886077476E+02  0.00000000000E+00 0.  1.
         11    1    3    3    0    0 -0.94327786352E+01 -0.77772761463E+01 -0.18954438854E+01  0.12371582147E+02  0.51100000000E-03 0. -1.
        -11    1    3    3    0    0 -0.14846150789E+02  0.13940006018E+02  0.65648884103E+01  0.21396955884E+02  0.51100000000E-03 0.  1.
        -12    1    3    3    0    0 -0.89547702461E+00 -0.25473674640E+02 -0.14979135202E+01  0.25533384493E+02  0.00000000000E+00 0.  1.
</event>
<event>
 7    1  0.1052674E-011  0.5930195E+02  0.7816164E-02  0.1266605E+00
        -11   -1    0    0    0    0  0.00000000000E+00  0.00000000000E+00  0.45593999997E+02  0.45594000000E+02  0.51100000000E-03 0. -1.
         11   -1    0    0    0    0 -0.00000000000E+00 -0.00000000000E+00 -0.45593999997E+02  0.45594000000E+02  0.51100000000E-03 0.  1.
    9900012    2    1    2    0    0  0.31628749333E+02  0.29245645115E+01 -0.27909861415E+01  0.59301945594E+02  0.50000002856E+02 0.  0.
        -12    1    1    2    0    0 -0.31628749333E+02 -0.29245645115E+01  0.27909861415E+01  0.31886054406E+02  0.00000000000E+00 0.  1.
         11    1    3    3    0    0 -0.61031185679E+01  0.13991727554E+02 -0.24788500287E+01  0.15464837339E+02  0.51100000000E-03 0.  1.
        -11    1    3    3    0    0  0.39078164555E+02 -0.77891782644E+01  0.14628785288E+01  0.39873728906E+02  0.51100000000E-03 0. -1.
         12    1    3    3    0    0 -0.13462966537E+01 -0.32779847780E+01 -0.17750146416E+01  0.39633793488E+01  0.00000000000E+00 0. -1.
</event>
<event>
 7    1  0.1052674E-011  0.5930198E+02  0.7816164E-02  0.1266605E+00
        -11   -1    0    0    0    0  0.00000000000E+00  0.00000000000E+00  0.45593999997E+02  0.45594000000E+02  0.51100000000E-03 0.  1.
         11   -1    0    0    0    0 -0.00000000000E+00 -0.00000000000E+00 -0.45593999997E+02  0.45594000000E+02  0.51100000000E-03 0. -1.
    9900012    2    1    2    0    0 -0.10332193451E+02  0.29774503177E+02  0.48418097697E+01  0.59301978254E+02  0.50000062421E+02 0.  0.
        -12    1    1    2    0    0  0.10332193451E+02 -0.29774503177E+02 -0.48418097697E+01  0.31886021746E+02  0.00000000000E+00 0.  1.
         11    1    3    3    0    0  0.10724307157E+02  0.33443462158E+01 -0.11648736921E+02  0.16182969064E+02  0.51100000000E-03 0. -1.
        -11    1    3    3    0    0 -0.20210459902E+02  0.11638903436E+02  0.38376511985E+01  0.23635869555E+02  0.51100000000E-03 0.  1.
        -12    1    3    3    0    0 -0.84604070560E+00  0.14791253524E+02  0.12652895492E+02  0.19483139635E+02  0.00000000000E+00 0.  1.
</event>
<event>
 7    1  0.1052674E-011  0.5930194E+02  0.7816164E-02  0.1266605E+00
        -11   -1    0    0    0    0  0.00000000000E+00  0.00000000000E+00  0.45593999997E+02  0.45594000000E+02  0.51100000000E-03 0. -1.
         11   -1    0    0    0    0 -0.00000000000E+00 -0.00000000000E+00 -0.45593999997E+02  0.45594000000E+02  0.51100000000E-03 0.  1.
    9900012    2    1    2    0    0  0.21749227293E+02  0.15097362533E+02  0.17769675262E+02  0.59301943451E+02  0.49999998948E+02 0.  0.
        -12    1    1    2    0    0 -0.21749227293E+02 -0.15097362533E+02 -0.17769675262E+02  0.31886056549E+02  0.00000000000E+00 0.  1.
         11    1    3    3    0    0 -0.59601669942E+01 -0.50931358445E+01  0.38954628498E+01  0.87543277528E+01  0.51100000000E-03 0. -1.
        -11    1    3    3    0    0  0.13483748778E+02  0.15561807399E+02  0.24644333645E+02  0.32114241572E+02  0.51100000000E-03 0.  1.
        -12    1    3    3    0    0  0.14225645509E+02  0.46286909786E+01 -0.10770121233E+02  0.18433374127E+02  0.00000000000E+00 0.  1.
</event>
<event>
 7    1  0.1052674E-011  0.5930193E+02  0.7816164E-02  0.1266605E+00
        -11   -1    0    0    0    0  0.00000000000E+00  0.00000000000E+00  0.45593999997E+02  0.45594000000E+02  0.51100000000E-03 0.  1.
         11   -1    0    0    0    0 -0.00000000000E+00 -0.00000000000E+00 -0.45593999997E+02  0.45594000000E+02  0.51100000000E-03 0. -1.
    9900012    2    1    2    0    0 -0.30601311444E+01  0.25710147415E+01 -0.31634582702E+02  0.59301931848E+02  0.49999977788E+02 0.  0.
        -12    1    1    2    0    0  0.30601311444E+01 -0.25710147415E+01  0.31634582702E+02  0.31886068152E+02  0.00000000000E+00 0.  1.
         11    1    3    3    0    0 -0.21513126591E+02 -0.25392547004E+01 -0.17726742915E+02  0.27991067232E+02  0.51100000000E-03 0. -1.
        -11    1    3    3    0    0  0.10451425489E+02  0.12693280574E+02 -0.51453024829E+01  0.17228633271E+02  0.51100000000E-03 0.  1.
         12    1    3    3    0    0  0.80015699579E+01 -0.75830111325E+01 -0.87625373047E+01  0.14082231345E+02  0.00000000000E+00 0. -1.
</event>
<event>
 7    1  0.1052674E-011  0.5930196E+02  0.7816164E-02  0.1266605E+00
        -11   -1    0    0    0    0  0.00000000000E+00  0.00000000000E+00  0.45593999997E+02  0.45594000000E+02  0.51100000000E-03 0.  1.
         11   -1    0    0    0    0 -0.00000000000E+00 -0.00000000000E+00 -0.45593999997E+02  0.45594000000E+02  0.51100000000E-03 0. -1.
    9900012    2    1    2    0    0  0.31602581318E+02  0.42348216056E+01 -0.25048988329E+00  0.59301959086E+02  0.50000027462E+02 0.  0.
        -12    1    1    2    0    0 -0.31602581318E+02 -0.42348216056E+01  0.25048988329E+00  0.31886040914E+02  0.00000000000E+00 0.  1.
         11    1    3    3    0    0  0.23224957357E+02 -0.21078931426E+02 -0.33203029213E+01  0.31539568895E+02  0.51100000000E-03 0.  1.
        -11    1    3    3    0    0  0.79958004637E+01  0.18323415556E+02  0.47805682219E+01  0.20555637073E+02  0.51100000000E-03 0. -1.
        -12    1    3    3    0    0  0.38182349718E+00  0.69903374752E+01 -0.17107551839E+01  0.72067531177E+01  0.00000000000E+00 0.  1.
</event>
<event>
 7    1  0.1052674E-011  0.5930194E+02  0.7816164E-02  0.1266605E+00
        -11   -1    0    0    0    0  0.00000000000E+00  0.00000000000E+00  0.45593999997E+02  0.45594000000E+02  0.51100000000E-03 0.  1.
         11   -1    0    0    0    0 -0.00000000000E+00 -0.00000000000E+00 -0.45593999997E+02  0.45594000000E+02  0.51100000000E-03 0. -1.
    9900012    2    1    2    0    0 -0.21804813746E+02  0.18484518264E+01  0.23191678753E+02  0.59301942858E+02  0.49999997867E+02 0.  0.
        -12    1    1    2    0    0  0.21804813746E+02 -0.18484518264E+01 -0.23191678753E+02  0.31886057142E+02  0.00000000000E+00 0.  1.
         11    1    3    3    0    0 -0.15779390051E+02  0.46805345223E+01  0.28274910794E+02  0.32716465800E+02  0.51100000000E-03 0. -1.
        -11    1    3    3    0    0 -0.68621578255E+01 -0.99093611474E+01 -0.11745494821E+02  0.16829774129E+02  0.51100000000E-03 0.  1.
         12    1    3    3    0    0  0.83673413070E+00  0.70772784515E+01  0.66622627808E+01  0.97557029293E+01  0.00000000000E+00 0. -1.
</event>
<event>
 7    1  0.1052674E-011  0.5930180E+02  0.7816164E-02  0.1266605E+00
        -11   -1    0    0    0    0  0.00000000000E+00  0.00000000000E+00  0.45593999997E+02  0.45594000000E+02  0.51100000000E-03 0.  1.
         11   -1    0    0    0    0 -0.00000000000E+00 -0.00000000000E+00 -0.45593999997E+02  0.45594000000E+02  0.51100000000E-03 0. -1.
    9900012    2    1    2    0    0 -0.14878650644E+02 -0.16806115846E+02 -0.22647522826E+02  0.59301795068E+02  0.49999728333E+02 0.  0.
        -12    1    1    2    0    0  0.14878650644E+02  0.16806115846E+02  0.22647522826E+02  0.31886204932E+02  0.00000000000E+00 0.  1.
         11    1    3    3    0    0 -0.26787418739E+02 -0.65338659169E+01 -0.52685277520E+01  0.28071597593E+02  0.51100000000E-03 0. -1.
        -11    1    3    3    0    0  0.30823574252E+01  0.63514945755E+01 -0.37658202195E+01  0.80014881632E+01  0.51100000000E-03 0.  1.
        -12    1    3    3    0    0  0.88264106696E+01 -0.16623744504E+02 -0.13613174854E+02  0.23228709311E+02  0.00000000000E+00 0.  1.
</event>
<event>
 7    1  0.1052674E-011  0.5930195E+02  0.7816164E-02  0.1266605E+00
        -11   -1    0    0    0    0  0.00000000000E+00  0.00000000000E+00  0.45593999997E+02  0.45594000000E+02  0.51100000000E-03 0. -1.
         11   -1    0    0    0    0 -0.00000000000E+00 -0.00000000000E+00 -0.45593999997E+02  0.45594000000E+02  0.51100000000E-03 0.  1.
    9900012    2    1    2    0    0  0.15785164637E+02 -0.27156336016E+02 -0.54847193954E+01  0.59301950460E+02  0.50000011732E+02 0.  0.
        -12    1    1    2    0    0 -0.15785164637E+02  0.27156336016E+02  0.54847193954E+01  0.31886049540E+02  0.00000000000E+00 0.  1.
         11    1    3    3    0    0  0.24362374042E+02 -0.11669736346E+02  0.93666366135E+00  0.27029342472E+02  0.51100000000E-03 0.  1.
        -11    1    3    3    0    0 -0.86448970203E+01 -0.22016228835E+02 -0.89230580830E+01  0.25279824810E+02  0.51100000000E-03 0. -1.
         12    1    3    3    0    0  0.67687614480E-01  0.65296291653E+01  0.25016750262E+01  0.69927831789E+01  0.00000000000E+00 0. -1.
</event>
<event>
 7    1  0.1052674E-011  0.5930195E+02  0.7816164E-02  0.1266605E+00
        -11   -1    0    0    0    0  0.00000000000E+00  0.00000000000E+00  0.45593999997E+02  0.45594000000E+02  0.51100000000E-03 0.  1.
         11   -1    0    0    0    0 -0.00000000000E+00 -0.00000000000E+00 -0.45593999997E+02  0.45594000000E+02  0.51100000000E-03 0. -1.
    9900012    2    1    2    0    0 -0.16996429040E+02 -0.16196483809E+02 -0.21575805173E+02  0.59301952005E+02  0.50000014548E+02 0.  0.
        -12    1    1    2    0    0  0.16996429040E+02  0.16196483809E+02  0.21575805173E+02  0.31886047995E+02  0.00000000000E+00 0.  1.
         11    1    3    3    0    0 -0.12802946001E+02 -0.31452462237E+01  0.21521529750E+01  0.13358134705E+02  0.51100000000E-03 0.  1.
        -11    1    3    3    0    0 -0.79224892141E+01  0.49256514631E+01 -0.25831224745E+02  0.27464159367E+02  0.51100000000E-03 0. -1.
        -12    1    3    3    0    0  0.37290061750E+01 -0.17976889049E+02  0.21032665970E+01  0.18479657932E+02  0.00000000000E+00 0.  1.
</event>
<event>
 7    1  0.1052674E-011  0.5930194E+02  0.7816164E-02  0.1266605E+00
        -11   -1    0    0    0    0  0.00000000000E+00  0.00000000000E+00  0.45593999997E+02  0.45594000000E+02  0.51100000000E-03 0. -1.
         11   -1    0    0    0    0 -0.00000000000E+00 -0.00000000000E+00 -0.45593999997E+02  0.45594000000E+02  0.51100000000E-03 0.  1.
    9900012    2    1    2    0    0  0.30028260038E+02 -0.46628578998E+01  0.96582536418E+01  0.59301944927E+02  0.50000001640E+02 0.  0.
        -12    1    1    2    0    0 -0.30028260038E+02  0.46628578998E+01 -0.96582536418E+01  0.31886055073E+02  0.00000000000E+00 0.  1.
         11    1    3    3    0    0  0.22540297066E+01 -0.69541785178E+01  0.18498733681E+02  0.19890811869E+02  0.51100000000E-03 0. -1.
        -11    1    3    3    0    0  0.24904445411E+02 -0.90374118620E+01 -0.80870726447E+01  0.27700306110E+02  0.51100000000E-03 0.  1.
        -12    1    3    3    0    0  0.28697849206E+01  0.11328732480E+02 -0.75340739415E+00  0.11710826948E+02  0.00000000000E+00 0.  1.
</event>
<event>
 7    1  0.1052674E-011  0.5930189E+02  0.7816164E-02  0.1266605E+00
        -11   -1    0    0    0    0  0.00000000000E+00  0.00000000000E+00  0.45593999997E+02  0.45594000000E+02  0.51100000000E-03 0.  1.
         11   -1    0    0    0    0 -0.00000000000E+00 -0.00000000000E+00 -0.45593999997E+02  0.45594000000E+02  0.51100000000E-03 0. -1.
    9900012    2    1    2    0    0 -0.31225351976E+02 -0.52708650427E+01 -0.37308779903E+01  0.59301888997E+02  0.49999899638E+02 0.  0.
        -12    1    1    2    0    0  0.31225351976E+02  0.52708650427E+01  0.37308779903E+01  0.31886111003E+02  0.00000000000E+00 0.  1.
         11    1    3    3    0    0 -0.56425950321E+00 -0.15115059024E+02  0.68541399436E+01  0.16606102273E+02  0.51100000000E-03 0. -1.
        -11    1    3    3    0    0 -0.12114165787E+02  0.72011319095E+01 -0.17726976181E+02  0.22646302088E+02  0.51100000000E-03 0.  1.
        -12    1    3    3    0    0 -0.18546926685E+02  0.26430620715E+01  0.71419582466E+01  0.20049484636E+02  0.00000000000E+00 0.  1.
</event>
<event>
 7    1  0.1052674E-011  0.5930193E+02  0.7816164E-02  0.1266605E+00
        -11   -1    0    0    0    0  0.00000000000E+00  0.00000000000E+00  0.45593999997E+02  0.45594000000E+02  0.51100000000E-03 0. -1.
         11   -1    0    0    0    0 -0.00000000000E+00 -0.00000000000E+00 -0.45593999997E+02  0.45594000000E+02  0.51100000000E-03 0.  1.
    9900012    2    1    2    0    0 -0.17958943532E+02  0.18842327886E+02  0.18416417909E+02  0.59301930604E+02  0.49999975518E+02 0.  0.
        -12    1    1    2    0    0  0.17958943532E+02 -0.18842327886E+02 -0.18416417909E+02  0.31886069396E+02  0.00000000000E+00 0.  1.
         11    1    3    3    0    0 -0.25432034788E+02  0.11328538451E+02  0.24370102325E+02  0.37000352221E+02  0.51100000000E-03 0. -1.
        -11    1    3    3    0    0  0.90366874568E+01 -0.13983910529E+01  0.29488884038E+01  0.96079738138E+01  0.51100000000E-03 0.  1.
         12    1    3    3    0    0 -0.15635962005E+01  0.89121804877E+01 -0.89025728198E+01  0.12693604568E+02  0.00000000000E+00 0. -1.
</event>
<event>
 7    1  0.1052674E-011  0.5930196E+02  0.7816164E-02  0.1266605E+00
        -11   -1    0    0    0    0  0.00000000000E+00  0.00000000000E+00  0.45593999997E+02  0.45594000000E+02  0.51100000000E-03 0.  1.
         11   -1    0    0    0    0 -0.00000000000E+00 -0.00000000000E+00 -0.45593999997E+02  0.45594000000E+02  0.51100000000E-03 0. -1.
    9900012    2    1    2    0    0 -0.31838083074E+02  0.12283148166E+01 -0.12438434977E+01  0.59301961711E+02  0.50000032251E+02 0.  0.
        -12    1    1    2    0    0  0.31838083074E+02 -0.12283148166E+01  0.12438434977E+01  0.31886038289E+02  0.00000000000E+00 0.  1.
         11    1    3    3    0    0 -0.24786751849E+02 -0.36809163510E+01 -0.30205502529E+01  0.25239967046E+02  0.51100000000E-03 0. -1.
        -11    1    3    3    0    0  0.76705759878E+01 -0.71526546482E+01  0.88851124061E+01  0.13745669399E+02  0.51100000000E-03 0.  1.
        -12    1    3    3    0    0 -0.14721907213E+02  0.12061885816E+02 -0.71084056509E+01  0.20316325266E+02  0.00000000000E+00 0.  1.
</event>
<event>
 7    1  0.1052674E-011  0.5930189E+02  0.7816164E-02  0.1266605E+00
        -11   -1    0    0    0    0  0.00000000000E+00  0.00000000000E+00  0.45593999997E+02  0.45594000000E+02  0.51100000000E-03 0.  1.
         11   -1    0    0    0    0 -0.00000000000E+00 -0.00000000000E+00 -0.45593999997E+02  0.45594000000E+02  0.51100000000E-03 0. -1.
    9900012    2    1    2    0    0 -0.11903823967E+02 -0.28912788799E+02  0.62509086335E+01  0.59301886410E+02  0.49999894918E+02 0.  0.
        -12    1    1    2    0    0  0.11903823967E+02  0.28912788799E+02 -0.62509086335E+01  0.31886113590E+02  0.00000000000E+00 0.  1.
         11    1    3    3    0    0 -0.87926107528E+01 -0.39071021926E+02  0.11307638649E+02  0.41613909337E+02  0.51100000000E-03 0. -1.
        -11    1    3    3    0    0 -0.43841603166E+01  0.37220440308E+01 -0.85121217121E+01  0.10272813137E+02  0.51100000000E-03 0.  1.
         12    1    3    3    0    0  0.12729471023E+01  0.64361890968E+01  0.34553916966E+01  0.74151639356E+01  0.00000000000E+00 0. -1.
</event>
<event>
 7    1  0.1052674E-011  0.5930191E+02  0.7816164E-02  0.1266605E+00
        -11   -1    0    0    0    0  0.00000000000E+00  0.00000000000E+00  0.45593999997E+02  0.45594000000E+02  0.51100000000E-03 0.  1.
         11   -1    0    0    0    0 -0.00000000000E+00 -0.00000000000E+00 -0.45593999997E+02  0.45594000000E+02  0.51100000000E-03 0. -1.
    9900012    2    1    2    0    0  0.35446003439E+01 -0.31456506843E+02 -0.38271036175E+01  0.59301909985E+02  0.49999937914E+02 0.  0.
        -12    1    1    2    0    0 -0.35446003439E+01  0.31456506843E+02  0.38271036175E+01  0.31886090015E+02  0.00000000000E+00 0.  1.
         11    1    3    3    0    0  0.17536735848E+01  0.12822015972E+02 -0.20351136414E+01  0.13100425658E+02  0.51100000000E-03 0.  1.
        -11    1    3    3    0    0 -0.56135219236E+01 -0.20064466184E+02 -0.30898505502E+00  0.20837223992E+02  0.51100000000E-03 0. -1.
         12    1    3    3    0    0  0.74044486827E+01 -0.24214056630E+02 -0.14830049211E+01  0.25364260336E+02  0.00000000000E+00 0. -1.
</event>
<event>
 7    1  0.1052674E-011  0.5930195E+02  0.7816164E-02  0.1266605E+00
        -11   -1    0    0    0    0  0.00000000000E+00  0.00000000000E+00  0.45593999997E+02  0.45594000000E+02  0.51100000000E-03 0.  1.
         11   -1    0    0    0    0 -0.00000000000E+00 -0.00000000000E+00 -0.45593999997E+02  0.45594000000E+02  0.51100000000E-03 0. -1.
    9900012    2    1    2    0    0 -0.11073281127E+02 -0.27407094469E+02 -0.11956337395E+02  0.59301946841E+02  0.50000005131E+02 0.  0.
        -12    1    1    2    0    0  0.11073281127E+02  0.27407094469E+02  0.11956337395E+02  0.31886053159E+02  0.00000000000E+00 0.  1.
         11    1    3    3    0    0 -0.40709562455E+01 -0.17811864260E+02  0.71637987217E+00  0.18285196022E+02  0.51100000000E-03 0. -1.
        -11    1    3    3    0    0  0.45093495125E+01  0.49203927677E+01  0.98220644936E+01  0.11875076808E+02  0.51100000000E-03 0.  1.
        -12    1    3    3    0    0 -0.11511674394E+02 -0.14515622976E+02 -0.22494781761E+02  0.29141674012E+02  0.00000000000E+00 0.  1.
</event>
<event>
 7    1  0.1052674E-011  0.5930196E+02  0.7816164E-02  0.1266605E+00
        -11   -1    0    0    0    0  0.00000000000E+00  0.00000000000E+00  0.45593999997E+02  0.45594000000E+02  0.51100000000E-03 0. -1.
         11   -1    0    0    0    0 -0.00000000000E+00 -0.00000000000E+00 -0.45593999997E+02  0.45594000000E+02  0.51100000000E-03 0.  1.
    9900012    2    1    2    0    0 -0.76486736090E+01  0.30531396122E+02  0.51040344670E+01  0.59301960344E+02  0.50000029757E+02 0.  0.
        -12    1    1    2    0    0  0.76486736090E+01 -0.30531396122E+02 -0.51040344670E+01  0.31886039656E+02  0.00000000000E+00 0.  1.
         11    1    3    3    0    0  0.74181457128E+01 -0.48887577708E+01  0.28235674391E-01  0.88842352441E+01  0.51100000000E-03 0. -1.
        -11    1    3    3    0    0 -0.47188114345E+01  0.35367546238E+02 -0.49340252769E+01  0.36020481867E+02  0.51100000000E-03 0.  1.
        -12    1    3    3    0    0 -0.10348007887E+02  0.52607654801E-01  0.10009824070E+02  0.14397243233E+02  0.00000000000E+00 0.  1.
</event>
<event>
 7    1  0.1052674E-011  0.5930199E+02  0.7816164E-02  0.1266605E+00
        -11   -1    0    0    0    0  0.00000000000E+00  0.00000000000E+00  0.45593999997E+02  0.45594000000E+02  0.51100000000E-03 0.  1.
         11   -1    0    0    0    0 -0.00000000000E+00 -0.00000000000E+00 -0.45593999997E+02  0.45594000000E+02  0.51100000000E-03 0. -1.
    9900012    2    1    2    0    0 -0.22451821110E+01  0.31786252790E+02  0.11449861717E+01  0.59301988922E+02  0.50000081877E+02 0.  0.
        -12    1    1    2    0    0  0.22451821110E+01 -0.31786252790E+02 -0.11449861717E+01  0.31886011078E+02  0.00000000000E+00 0.  1.
         11    1    3    3    0    0 -0.88516177938E+01  0.38635070333E+02  0.23117435656E+01  0.39703450175E+02  0.51100000000E-03 0. -1.
        -11    1    3    3    0    0  0.11086589315E+02 -0.26023845852E+01 -0.48859752609E+01  0.12391836937E+02  0.51100000000E-03 0.  1.
         12    1    3    3    0    0 -0.44801536322E+01 -0.42464329585E+01  0.37192178670E+01  0.72067018102E+01  0.00000000000E+00 0. -1.
</event>
<event>
 7    1  0.1052674E-011  0.5930196E+02  0.7816164E-02  0.1266605E+00
        -11   -1    0    0    0    0  0.00000000000E+00  0.00000000000E+00  0.45593999997E+02  0.45594000000E+02  0.51100000000E-03 0. -1.
         11   -1    0    0    0    0 -0.00000000000E+00 -0.00000000000E+00 -0.45593999997E+02  0.45594000000E+02  0.51100000000E-03 0.  1.
    9900012    2    1    2    0    0 -0.27114457877E+02  0.15611415226E+02  0.61489319656E+01  0.59301961117E+02  0.50000031167E+02 0.  0.
        -12    1    1    2    0    0  0.27114457877E+02 -0.15611415226E+02 -0.61489319656E+01  0.31886038883E+02  0.00000000000E+00 0.  1.
         11    1    3    3    0    0 -0.14899842890E+02  0.82882342225E+01  0.13611327298E+02  0.21816699470E+02  0.51100000000E-03 0. -1.
        -11    1    3    3    0    0 -0.16729407788E+02  0.10897737666E+02 -0.17080515540E+02  0.26275041057E+02  0.51100000000E-03 0.  1.
        -12    1    3    3    0    0  0.45147928011E+01 -0.35745566625E+01  0.96181202071E+01  0.11210220591E+02  0.00000000000E+00 0.  1.
</event>
<event>
 7    1  0.1052674E-011  0.5930190E+02  0.7816164E-02  0.1266605E+00
        -11   -1    0    0    0    0  0.00000000000E+00  0.00000000000E+00  0.45593999997E+02  0.45594000000E+02  0.51100000000E-03 0.  1.
         11   -1    0    0    0    0 -0.00000000000E+00 -0.00000000000E+00 -0.45593999997E+02  0.45594000000E+02  0.51100000000E-03 0. -1.
    9900012    2    1    2    0    0 -0.20395409961E+02 -0.24426524221E+02  0.20236831313E+01  0.59301903870E+02  0.49999926762E+02 0.  0.
        -12    1    1    2    0    0  0.20395409961E+02  0.24426524221E+02 -0.20236831313E+01  0.31886096130E+02  0.00000000000E+00 0.  1.
         11    1    3    3    0    0  0.34032097330E+01 -0.76218712855E+01 -0.13908943276E+02  0.16221389019E+02  0.51100000000E-03 0.  1.
        -11    1    3    3    0    0 -0.55825387483E+01 -0.14823543375E+02  0.18746216168E+02  0.24542265542E+02  0.51100000000E-03 0. -1.
         12    1    3    3    0    0 -0.18216080946E+02 -0.19811095599E+01 -0.28135897601E+01  0.18538249309E+02  0.00000000000E+00 0. -1.
</event>
<event>
 7    1  0.1376475E-011  0.5930195E+02  0.7816164E-02  0.1266605E+00
        -11   -1    0    0    0    0  0.00000000000E+00  0.00000000000E+00  0.45593999997E+02  0.45594000000E+02  0.51100000000E-03 0. -1.
         11   -1    0    0    0    0 -0.00000000000E+00 -0.00000000000E+00 -0.45593999997E+02  0.45594000000E+02  0.51100000000E-03 0.  1.
    9900012    2    1    2    0    0 -0.13590995535E+02 -0.10931558226E+01  0.28823776866E+02  0.59301948785E+02  0.50000008675E+02 0.  0.
        -12    1    1    2    0    0  0.13590995535E+02  0.10931558226E+01 -0.28823776866E+02  0.31886051215E+02  0.00000000000E+00 0.  1.
         11    1    3    3    0    0 -0.10740274399E+02  0.11494716289E+02  0.25840075404E+02  0.30252132055E+02  0.51100000000E-03 0. -1.
        -11    1    3    3    0    0 -0.13094414710E+02 -0.43215450764E+01 -0.37143561637E+01  0.14280612397E+02  0.51100000000E-03 0.  1.
         12    1    3    3    0    0  0.10243693574E+02 -0.82663270349E+01  0.66980576254E+01  0.14769204333E+02  0.00000000000E+00 0. -1.
</event>
<event>
 7    1  0.1052674E-011  0.5930194E+02  0.7816164E-02  0.1266605E+00
        -11   -1    0    0    0    0  0.00000000000E+00  0.00000000000E+00  0.45593999997E+02  0.45594000000E+02  0.51100000000E-03 0. -1.
         11   -1    0    0    0    0 -0.00000000000E+00 -0.00000000000E+00 -0.45593999997E+02  0.45594000000E+02  0.51100000000E-03 0.  1.
    9900012    2    1    2    0    0  0.22339806788E+02  0.95928941134E+01  0.20630805357E+02  0.59301941691E+02  0.49999995738E+02 0.  0.
        -12    1    1    2    0    0 -0.22339806788E+02 -0.95928941134E+01 -0.20630805357E+02  0.31886058309E+02  0.00000000000E+00 0.  1.
         11    1    3    3    0    0  0.58012788362E+01  0.56615522776E+01  0.38974750087E+01  0.89943494502E+01  0.51100000000E-03 0. -1.
        -11    1    3    3    0    0  0.18650591886E+02 -0.44483680105E+01 -0.10413044723E+02  0.21818892188E+02  0.51100000000E-03 0.  1.
        -12    1    3    3    0    0 -0.21120639338E+01  0.83797098462E+01  0.27146375071E+02  0.28488700053E+02  0.00000000000E+00 0.  1.
</event>
<event>
 7    1  0.1052674E-011  0.5930195E+02  0.7816164E-02  0.1266605E+00
        -11   -1    0    0    0    0  0.00000000000E+00  0.00000000000E+00  0.45593999997E+02  0.45594000000E+02  0.51100000000E-03 0.  1.
         11   -1    0    0    0    0 -0.00000000000E+00 -0.00000000000E+00 -0.45593999997E+02  0.45594000000E+02  0.51100000000E-03 0. -1.
    9900012    2    1    2    0    0 -0.69814117569E+01  0.24120503062E+02 -0.19651499889E+02  0.59301949352E+02  0.50000009710E+02 0.  0.
        -12    1    1    2    0    0  0.69814117569E+01 -0.24120503062E+02  0.19651499889E+02  0.31886050648E+02  0.00000000000E+00 0.  1.
         11    1    3    3    0    0  0.12279083242E+02 -0.93315112521E+01 -0.12648730294E+02  0.19946011276E+02  0.51100000000E-03 0. -1.
        -11    1    3    3    0    0 -0.11385533834E+02  0.22707077895E+02 -0.43063569060E+01  0.25764053976E+02  0.51100000000E-03 0.  1.
         12    1    3    3    0    0 -0.78749611653E+01  0.10744936419E+02 -0.26964126891E+01  0.13591884100E+02  0.00000000000E+00 0. -1.
</event>
<event>
 7    1  0.1052674E-011  0.5930194E+02  0.7816164E-02  0.1266605E+00
        -11   -1    0    0    0    0  0.00000000000E+00  0.00000000000E+00  0.45593999997E+02  0.45594000000E+02  0.51100000000E-03 0.  1.
         11   -1    0    0    0    0 -0.00000000000E+00 -0.00000000000E+00 -0.45593999997E+02  0.45594000000E+02  0.51100000000E-03 0. -1.
    9900012    2    1    2    0    0 -0.13922639473E+02 -0.28474395576E+02 -0.34770022380E+01  0.59301942893E+02  0.49999997930E+02 0.  0.
        -12    1    1    2    0    0  0.13922639473E+02  0.28474395576E+02  0.34770022380E+01  0.31886057107E+02  0.00000000000E+00 0.  1.
         11    1    3    3    0    0 -0.22025754818E+02  0.47870165268E+01  0.55392153423E-01  0.22540019323E+02  0.51100000000E-03 0. -1.
        -11    1    3    3    0    0  0.19662634488E+01 -0.12180959850E+01  0.26905184839E+01  0.35480754998E+01  0.51100000000E-03 0.  1.
         12    1    3    3    0    0  0.61368518960E+01 -0.32043316117E+02 -0.62229128754E+01  0.33213848070E+02  0.00000000000E+00 0. -1.
</event>
<event>
 7    1  0.1052674E-011  0.5930192E+02  0.7816164E-02  0.1266605E+00
        -11   -1    0    0    0    0  0.00000000000E+00  0.00000000000E+00  0.45593999997E+02  0.45594000000E+02  0.51100000000E-03 0. -1.
         11   -1    0    0    0    0 -0.00000000000E+00 -0.00000000000E+00 -0.45593999997E+02  0.45594000000E+02  0.51100000000E-03 0.  1.
    9900012    2    1    2    0    0  0.14956718615E+02  0.23439822797E+02  0.15607478739E+02  0.59301919697E+02  0.49999955627E+02 0.  0.
        -12    1    1    2    0    0 -0.14956718615E+02 -0.23439822797E+02 -0.15607478739E+02  0.31886080303E+02  0.00000000000E+00 0.  1.
         11    1    3    3    0    0  0.46656151826E+01  0.21000404851E+02  0.22726945287E+02  0.31293753551E+02  0.51100000000E-03 0. -1.
        -11    1    3    3    0    0  0.16684316357E+02  0.56455056847E+01 -0.10049907073E+02  0.20279023131E+02  0.51100000000E-03 0.  1.
         12    1    3    3    0    0 -0.63932129242E+01 -0.32060877381E+01  0.29304405247E+01  0.77291430151E+01  0.00000000000E+00 0. -1.
</event>
<event>
 7    1  0.1052674E-011  0.5930192E+02  0.7816164E-02  0.1266605E+00
        -11   -1    0    0    0    0  0.00000000000E+00  0.00000000000E+00  0.45593999997E+02  0.45594000000E+02  0.51100000000E-03 0. -1.
         11   -1    0    0    0    0 -0.00000000000E+00 -0.00000000000E+00 -0.45593999997E+02  0.45594000000E+02  0.51100000000E-03 0.  1.
    9900012    2    1    2    0    0 -0.16671082955E+02  0.23671869409E+02 -0.13358121929E+02  0.59301924204E+02  0.49999963846E+02 0.  0.
        -12    1    1    2    0    0  0.16671082955E+02 -0.23671869409E+02  0.13358121929E+02  0.31886075796E+02  0.00000000000E+00 0.  1.
         11    1    3    3    0    0  0.33631824607E+01  0.17225045395E+02  0.48316476827E+00  0.17556953995E+02  0.51100000000E-03 0. -1.
        -11    1    3    3    0    0 -0.23481720278E+02  0.93059624205E+01 -0.21302823341E+02  0.33042433421E+02  0.51100000000E-03 0.  1.
        -12    1    3    3    0    0  0.34474548623E+01 -0.28591384071E+01  0.74615366436E+01  0.87025367878E+01  0.00000000000E+00 0.  1.
</event>
<event>
 7    1  0.1052674E-011  0.5930195E+02  0.7816164E-02  0.1266605E+00
        -11   -1    0    0    0    0  0.00000000000E+00  0.00000000000E+00  0.45593999997E+02  0.45594000000E+02  0.51100000000E-03 0. -1.
         11   -1    0    0    0    0 -0.00000000000E+00 -0.00000000000E+00 -0.45593999997E+02  0.45594000000E+02  0.51100000000E-03 0.  1.
    9900012    2    1    2    0    0 -0.15612867832E+02  0.20685334282E+02  0.18576206701E+02  0.59301950515E+02  0.50000011832E+02 0.  0.
        -12    1    1    2    0    0  0.15612867832E+02 -0.20685334282E+02 -0.18576206701E+02  0.31886049485E+02  0.00000000000E+00 0.  1.
         11    1    3    3    0    0  0.58478937502E+01  0.31684979680E+01 -0.91989183932E+00  0.67144204474E+01  0.51100000000E-03 0.  1.
        -11    1    3    3    0    0 -0.22518474078E+02 -0.35567247574E+01  0.21571409026E+02  0.31385628135E+02  0.51100000000E-03 0. -1.
        -12    1    3    3    0    0  0.10577124958E+01  0.21073561072E+02 -0.20753104851E+01  0.21201901933E+02  0.00000000000E+00 0.  1.
</event>
<event>
 7    1  0.1052674E-011  0.5930198E+02  0.7816164E-02  0.1266605E+00
        -11   -1    0    0    0    0  0.00000000000E+00  0.00000000000E+00  0.45593999997E+02  0.45594000000E+02  0.51100000000E-03 0. -1.
         11   -1    0    0    0    0 -0.00000000000E+00 -0.00000000000E+00 -0.45593999997E+02  0.45594000000E+02  0.51100000000E-03 0.  1.
    9900012    2    1    2    0    0  0.16638272491E+02 -0.19194454804E+02  0.19273272624E+02  0.59301980425E+02  0.50000066379E+02 0.  0.
        -12    1    1    2    0    0 -0.16638272491E+02  0.19194454804E+02 -0.19273272624E+02  0.31886019575E+02  0.00000000000E+00 0.  1.
         11    1    3    3    0    0  0.90132290301E+01 -0.68048942281E+01  0.30286380092E+02  0.32323516243E+02  0.51100000000E-03 0. -1.
        -11    1    3    3    0    0  0.67405201873E+01  0.26403361058E+01 -0.93589179335E+01  0.11831962318E+02  0.51100000000E-03 0.  1.
         12    1    3    3    0    0  0.88452327409E+00 -0.15029896682E+02 -0.16541895342E+01  0.15146501864E+02  0.00000000000E+00 0. -1.
</event>
<event>
 7    1  0.1052674E-011  0.5930196E+02  0.7816164E-02  0.1266605E+00
        -11   -1    0    0    0    0  0.00000000000E+00  0.00000000000E+00  0.45593999997E+02  0.45594000000E+02  0.51100000000E-03 0.  1.
         11   -1    0    0    0    0 -0.00000000000E+00 -0.00000000000E+00 -0.45593999997E+02  0.45594000000E+02  0.51100000000E-03 0. -1.
    9900012    2    1    2    0    0  0.99669141067E+01  0.25239556009E+02 -0.16743514661E+02  0.59301955285E+02  0.50000020531E+02 0.  0.
        -12    1    1    2    0    0 -0.99669141067E+01 -0.25239556009E+02  0.16743514661E+02  0.31886044715E+02  0.00000000000E+00 0.  1.
         11    1    3    3    0    0  0.38389345143E+01  0.22006699220E+02 -0.23007555955E+02  0.32068362291E+02  0.51100000000E-03 0. -1.
        -11    1    3    3    0    0  0.65334804171E+01 -0.10617903739E+02  0.45497196654E+01  0.13271254480E+02  0.51100000000E-03 0.  1.
         12    1    3    3    0    0 -0.40550082474E+00  0.13850760528E+02  0.17143216281E+01  0.13962338514E+02  0.00000000000E+00 0. -1.
</event>
<event>
 7    1  0.1052674E-011  0.5930194E+02  0.7816164E-02  0.1266605E+00
        -11   -1    0    0    0    0  0.00000000000E+00  0.00000000000E+00  0.45593999997E+02  0.45594000000E+02  0.51100000000E-03 0. -1.
         11   -1    0    0    0    0 -0.00000000000E+00 -0.00000000000E+00 -0.45593999997E+02  0.45594000000E+02  0.51100000000E-03 0.  1.
    9900012    2    1    2    0    0 -0.41381370445E+01  0.26081723437E+02 -0.17870097854E+02  0.59301939206E+02  0.49999991207E+02 0.  0.
        -12    1    1    2    0    0  0.41381370445E+01 -0.26081723437E+02  0.17870097854E+02  0.31886060794E+02  0.00000000000E+00 0.  1.
         11    1    3    3    0    0  0.34100309940E+01  0.12061472870E+00  0.49458425813E+01  0.60086785895E+01  0.51100000000E-03 0. -1.
        -11    1    3    3    0    0 -0.18684897609E+02  0.25741289224E+02 -0.26666984577E+02  0.41507438324E+02  0.51100000000E-03 0.  1.
        -12    1    3    3    0    0  0.11136729570E+02  0.21981948411E+00  0.38510441418E+01  0.11785822292E+02  0.00000000000E+00 0.  1.
</event>
<event>
 7    1  0.1052674E-011  0.5930194E+02  0.7816164E-02  0.1266605E+00
        -11   -1    0    0    0    0  0.00000000000E+00  0.00000000000E+00  0.45593999997E+02  0.45594000000E+02  0.51100000000E-03 0.  1.
         11   -1    0    0    0    0 -0.00000000000E+00 -0.00000000000E+00 -0.45593999997E+02  0.45594000000E+02  0.51100000000E-03 0. -1.
    9900012    2    1    2    0    0 -0.43756627292E+01  0.31304585120E+02  0.41949109057E+01  0.59301941113E+02  0.49999994684E+02 0.  0.
        -12    1    1    2    0    0  0.43756627292E+01 -0.31304585120E+02 -0.41949109057E+01  0.31886058887E+02  0.00000000000E+00 0.  1.
         11    1    3    3    0    0  0.46142451889E+01  0.72518681143E+01 -0.14122906853E+02  0.16532917106E+02  0.51100000000E-03 0. -1.
        -11    1    3    3    0    0  0.10014519873E+02  0.37847922002E+01  0.68596979173E+01  0.12714979987E+02  0.51100000000E-03 0.  1.
        -12    1    3    3    0    0 -0.19004427792E+02  0.20267924806E+02  0.11458119841E+02  0.30054044019E+02  0.00000000000E+00 0.  1.
</event>
<event>
 7    1  0.1052674E-011  0.5930195E+02  0.7816164E-02  0.1266605E+00
        -11   -1    0    0    0    0  0.00000000000E+00  0.00000000000E+00  0.45593999997E+02  0.45594000000E+02  0.51100000000E-03 0.  1.
         11   -1    0    0    0    0 -0.00000000000E+00 -0.00000000000E+00 -0.45593999997E+02  0.45594000000E+02  0.51100000000E-03 0. -1.
    9900012    2    1    2    0    0 -0.15621915523E+02  0.12372881893E+02 -0.24891518337E+02  0.59301950761E+02  0.50000012280E+02 0.  0.
        -12    1    1    2    0    0  0.15621915523E+02 -0.12372881893E+02  0.24891518337E+02  0.31886049239E+02  0.00000000000E+00 0.  1.
         11    1    3    3    0    0 -0.32832898697E+01  0.24905362223E+01 -0.85278098200E+01  0.94713411738E+01  0.51100000000E-03 0. -1.
        -11    1    3    3    0    0  0.36925976236E+01  0.24596076821E+02 -0.53435346564E+01  0.25439253823E+02  0.51100000000E-03 0.  1.
        -12    1    3    3    0    0 -0.16031223277E+02 -0.14713731150E+02 -0.11020173861E+02  0.24391355764E+02  0.00000000000E+00 0.  1.
</event>
<event>
 7    1  0.1052674E-011  0.5930194E+02  0.7816164E-02  0.1266605E+00
        -11   -1    0    0    0    0  0.00000000000E+00  0.00000000000E+00  0.45593999997E+02  0.45594000000E+02  0.51100000000E-03 0.  1.
         11   -1    0    0    0    0 -0.00000000000E+00 -0.00000000000E+00 -0.45593999997E+02  0.45594000000E+02  0.51100000000E-03 0. -1.
    9900012    2    1    2    0    0  0.19201406452E+01 -0.10584998228E+02 -0.30016523883E+02  0.59301939823E+02  0.49999992332E+02 0.  0.
        -12    1    1    2    0    0 -0.19201406452E+01  0.10584998228E+02  0.30016523883E+02  0.31886060177E+02  0.00000000000E+00 0.  1.
         11    1    3    3    0    0  0.47779193324E+01 -0.26310649862E+01 -0.39377912553E+01  0.67273483885E+01  0.51100000000E-03 0. -1.
        -11    1    3    3    0    0  0.78388424189E+00  0.18622246679E+02 -0.83696458590E+01  0.20431679273E+02  0.51100000000E-03 0.  1.
        -12    1    3    3    0    0 -0.36416629292E+01 -0.26576179920E+02 -0.17709086769E+02  0.32142912161E+02  0.00000000000E+00 0.  1.
</event>
<event>
 7    1  0.1052674E-011  0.5930196E+02  0.7816164E-02  0.1266605E+00
        -11   -1    0    0    0    0  0.00000000000E+00  0.00000000000E+00  0.45593999997E+02  0.45594000000E+02  0.51100000000E-03 0. -1.
         11   -1    0    0    0    0 -0.00000000000E+00 -0.00000000000E+00 -0.45593999997E+02  0.45594000000E+02  0.51100000000E-03 0.  1.
    9900012    2    1    2    0    0 -0.17432467966E+02 -0.77207321184E+01  0.25558146769E+02  0.59301960577E+02  0.50000030181E+02 0.  0.
        -12    1    1    2    0    0  0.17432467966E+02  0.77207321184E+01 -0.25558146769E+02  0.31886039423E+02  0.00000000000E+00 0.  1.
         11    1    3    3    0    0 -0.15648540728E+02 -0.12891177842E+02  0.29695873258E+02  0.35956976818E+02  0.51100000000E-03 0. -1.
        -11    1    3    3    0    0 -0.27272987081E+01  0.82295672777E+01 -0.12029800580E+02  0.14828352507E+02  0.51100000000E-03 0.  1.
        -12    1    3    3    0    0  0.94337147075E+00 -0.30591215543E+01  0.78920740912E+01  0.85166312517E+01  0.00000000000E+00 0.  1.
</event>
<event>
 7    1  0.1052674E-011  0.5930197E+02  0.7816164E-02  0.1266605E+00
        -11   -1    0    0    0    0  0.00000000000E+00  0.00000000000E+00  0.45593999997E+02  0.45594000000E+02  0.51100000000E-03 0.  1.
         11   -1    0    0    0    0 -0.00000000000E+00 -0.00000000000E+00 -0.45593999997E+02  0.45594000000E+02  0.51100000000E-03 0. -1.
    9900012    2    1    2    0    0  0.10496604018E+02  0.14101932148E+02 -0.26602179044E+02  0.59301966755E+02  0.50000041450E+02 0.  0.
        -12    1    1    2    0    0 -0.10496604018E+02 -0.14101932148E+02  0.26602179044E+02  0.31886033245E+02  0.00000000000E+00 0.  1.
         11    1    3    3    0    0  0.65572827070E+01  0.21718214395E+01 -0.28789620037E+02  0.29606705102E+02  0.51100000000E-03 0. -1.
        -11    1    3    3    0    0  0.10438122757E+02  0.61858197214E+01  0.11676613965E+02  0.16839301834E+02  0.51100000000E-03 0.  1.
        -12    1    3    3    0    0 -0.64988014458E+01  0.57442909867E+01 -0.94891729719E+01  0.12855959819E+02  0.00000000000E+00 0.  1.
</event>
<event>
 7    1  0.1052674E-011  0.5930193E+02  0.7816164E-02  0.1266605E+00
        -11   -1    0    0    0    0  0.00000000000E+00  0.00000000000E+00  0.45593999997E+02  0.45594000000E+02  0.51100000000E-03 0. -1.
         11   -1    0    0    0    0 -0.00000000000E+00 -0.00000000000E+00 -0.45593999997E+02  0.45594000000E+02  0.51100000000E-03 0.  1.
    9900012    2    1    2    0    0 -0.64446462677E+01 -0.27745882825E+02  0.14330166782E+02  0.59301934717E+02  0.49999983020E+02 0.  0.
        -12    1    1    2    0    0  0.64446462677E+01  0.27745882825E+02 -0.14330166782E+02  0.31886065283E+02  0.00000000000E+00 0.  1.
         11    1    3    3    0    0  0.11159655032E+01 -0.14084209991E+02 -0.25463209489E+00  0.14130647113E+02  0.51100000000E-03 0. -1.
        -11    1    3    3    0    0 -0.75357529179E+01  0.10770433339E+02 -0.47888462630E+01  0.13990098468E+02  0.51100000000E-03 0.  1.
        -12    1    3    3    0    0 -0.24858853041E-01 -0.24432106173E+02  0.19373645140E+02  0.31181189137E+02  0.00000000000E+00 0.  1.
</event>
<event>
 7    1  0.1052674E-011  0.5930195E+02  0.7816164E-02  0.1266605E+00
        -11   -1    0    0    0    0  0.00000000000E+00  0.00000000000E+00  0.45593999997E+02  0.45594000000E+02  0.51100000000E-03 0. -1.
         11   -1    0    0    0    0 -0.00000000000E+00 -0.00000000000E+00 -0.45593999997E+02  0.45594000000E+02  0.51100000000E-03 0.  1.
    9900012    2    1    2    0    0  0.13406751124E+02  0.23335262316E+01  0.28836327049E+02  0.59301951671E+02  0.50000013940E+02 0.  0.
        -12    1    1    2    0    0 -0.13406751124E+02 -0.23335262316E+01 -0.28836327049E+02  0.31886048329E+02  0.00000000000E+00 0.  1.
         11    1    3    3    0    0 -0.12396083581E+02  0.12187009319E+02  0.20336193967E+02  0.26753445939E+02  0.51100000000E-03 0. -1.
        -11    1    3    3    0    0  0.14254137283E+02 -0.13159505361E+02  0.55729877915E+01  0.20184429747E+02  0.51100000000E-03 0.  1.
         12    1    3    3    0    0  0.11548697422E+02  0.33060222736E+01  0.29271452902E+01  0.12364075985E+02  0.00000000000E+00 0. -1.
</event>
<event>
 7    1  0.1052674E-011  0.5930196E+02  0.7816164E-02  0.1266605E+00
        -11   -1    0    0    0    0  0.00000000000E+00  0.00000000000E+00  0.45593999997E+02  0.45594000000E+02  0.51100000000E-03 0. -1.
         11   -1    0    0    0    0 -0.00000000000E+00 -0.00000000000E+00 -0.45593999997E+02  0.45594000000E+02  0.51100000000E-03 0.  1.
    9900012    2    1    2    0    0 -0.10742419892E+02  0.23986462315E+02  0.18054633796E+02  0.59301956641E+02  0.50000023004E+02 0.  0.
        -12    1    1    2    0    0  0.10742419892E+02 -0.23986462315E+02 -0.18054633796E+02  0.31886043359E+02  0.00000000000E+00 0.  1.
         11    1    3    3    0    0 -0.13145189317E+01 -0.71551692351E+01 -0.48479400930E+01  0.87422497226E+01  0.51100000000E-03 0. -1.
        -11    1    3    3    0    0  0.27656743051E+01  0.20288595122E+02  0.26848468063E+02  0.33765608005E+02  0.51100000000E-03 0.  1.
         12    1    3    3    0    0 -0.12193575266E+02  0.10853036429E+02 -0.39458941739E+01  0.16794098913E+02  0.00000000000E+00 0. -1.
</event>
<event>
 7    1  0.1052674E-011  0.5930200E+02  0.7816164E-02  0.1266605E+00
        -11   -1    0    0    0    0  0.00000000000E+00  0.00000000000E+00  0.45593999997E+02  0.45594000000E+02  0.51100000000E-03 0. -1.
         11   -1    0    0    0    0 -0.00000000000E+00 -0.00000000000E+00 -0.45593999997E+02  0.45594000000E+02  0.51100000000E-03 0.  1.
    9900012    2    1    2    0    0 -0.31773199240E+02  0.10733949624E+01  0.24553026121E+01  0.59302001857E+02  0.50000105466E+02 0.  0.
        -12    1    1    2    0    0  0.31773199240E+02 -0.10733949624E+01 -0.24553026121E+01  0.31885998143E+02  0.00000000000E+00 0.  1.
         11    1    3    3    0    0 -0.62410937710E+01  0.65742684179E+01  0.14329398927E+02  0.16955940863E+02  0.51100000000E-03 0. -1.
        -11    1    3    3    0    0  0.11822918580E+01 -0.87447442578E+00 -0.14984231065E+02  0.15056217998E+02  0.51100000000E-03 0.  1.
        -12    1    3    3    0    0 -0.26714397327E+02 -0.46263990297E+01  0.31101347496E+01  0.27289842995E+02  0.00000000000E+00 0.  1.
</event>
<event>
 7    1  0.1052674E-011  0.5930195E+02  0.7816164E-02  0.1266605E+00
        -11   -1    0    0    0    0  0.00000000000E+00  0.00000000000E+00  0.45593999997E+02  0.45594000000E+02  0.51100000000E-03 0. -1.
         11   -1    0    0    0    0 -0.00000000000E+00 -0.00000000000E+00 -0.45593999997E+02  0.45594000000E+02  0.51100000000E-03 0.  1.
    9900012    2    1    2    0    0 -0.14184846892E+02 -0.12174112174E+02  0.25832177569E+02  0.59301948402E+02  0.50000007977E+02 0.  0.
        -12    1    1    2    0    0  0.14184846892E+02  0.12174112174E+02 -0.25832177569E+02  0.31886051598E+02  0.00000000000E+00 0.  1.
         11    1    3    3    0    0  0.32993515202E+01  0.29242673604E+01  0.10633556927E+02  0.11511281129E+02  0.51100000000E-03 0. -1.
        -11    1    3    3    0    0 -0.20822996548E+02 -0.12403596811E+02 -0.69629004165E+01  0.25217620458E+02  0.51100000000E-03 0.  1.
        -12    1    3    3    0    0  0.33387981353E+01 -0.26947827232E+01  0.22161521058E+02  0.22573046815E+02  0.00000000000E+00 0.  1.
</event>
<event>
 7    1  0.1052674E-011  0.5930193E+02  0.7816164E-02  0.1266605E+00
        -11   -1    0    0    0    0  0.00000000000E+00  0.00000000000E+00  0.45593999997E+02  0.45594000000E+02  0.51100000000E-03 0. -1.
         11   -1    0    0    0    0 -0.00000000000E+00 -0.00000000000E+00 -0.45593999997E+02  0.45594000000E+02  0.51100000000E-03 0.  1.
    9900012    2    1    2    0    0 -0.53753869402E+00 -0.62338453605E+01  0.31266145196E+02  0.59301927629E+02  0.49999970093E+02 0.  0.
        -12    1    1    2    0    0  0.53753869402E+00  0.62338453605E+01 -0.31266145196E+02  0.31886072371E+02  0.00000000000E+00 0.  1.
         11    1    3    3    0    0  0.67970529077E+01 -0.79190445009E+01  0.17950117027E+02  0.20763378713E+02  0.51100000000E-03 0. -1.
        -11    1    3    3    0    0 -0.38880499060E+01  0.17935760760E+02  0.11885826203E+02  0.21865070567E+02  0.51100000000E-03 0.  1.
        -12    1    3    3    0    0 -0.34465416957E+01 -0.16250561619E+02  0.14302019660E+01  0.16673478349E+02  0.00000000000E+00 0.  1.
</event>
<event>
 7    1  0.1052674E-011  0.5930192E+02  0.7816164E-02  0.1266605E+00
        -11   -1    0    0    0    0  0.00000000000E+00  0.00000000000E+00  0.45593999997E+02  0.45594000000E+02  0.51100000000E-03 0.  1.
         11   -1    0    0    0    0 -0.00000000000E+00 -0.00000000000E+00 -0.45593999997E+02  0.45594000000E+02  0.51100000000E-03 0. -1.
    9900012    2    1    2    0    0 -0.17547085411E+01 -0.43841776452E+00 -0.31834746358E+02  0.59301917019E+02  0.49999950742E+02 0.  0.
        -12    1    1    2    0    0  0.17547085411E+01  0.43841776452E+00  0.31834746358E+02  0.31886082981E+02  0.00000000000E+00 0.  1.
         11    1    3    3    0    0  0.59262993311E+01 -0.61847197904E+00  0.11671264898E+02  0.13104272430E+02  0.51100000000E-03 0.  1.
        -11    1    3    3    0    0 -0.10204014796E+02  0.39899027547E+01 -0.29832623240E+02  0.31780916469E+02  0.51100000000E-03 0. -1.
        -12    1    3    3    0    0  0.25230069239E+01 -0.38098485401E+01 -0.13673388016E+02  0.14416728119E+02  0.00000000000E+00 0.  1.
</event>
<event>
 7    1  0.1052674E-011  0.5930194E+02  0.7816164E-02  0.1266605E+00
        -11   -1    0    0    0    0  0.00000000000E+00  0.00000000000E+00  0.45593999997E+02  0.45594000000E+02  0.51100000000E-03 0. -1.
         11   -1    0    0    0    0 -0.00000000000E+00 -0.00000000000E+00 -0.45593999997E+02  0.45594000000E+02  0.51100000000E-03 0.  1.
    9900012    2    1    2    0    0 -0.19712085185E+02  0.23369891348E+02  0.90555278713E+01  0.59301941777E+02  0.49999995896E+02 0.  0.
        -12    1    1    2    0    0  0.19712085185E+02 -0.23369891348E+02 -0.90555278713E+01  0.31886058223E+02  0.00000000000E+00 0.  1.
         11    1    3    3    0    0 -0.68293395164E+00  0.31569359257E+02  0.17507381494E+02  0.36105390868E+02  0.51100000000E-03 0. -1.
        -11    1    3    3    0    0 -0.11005341833E+02 -0.56967916487E+01 -0.80589045476E+01  0.14782318043E+02  0.51100000000E-03 0.  1.
         12    1    3    3    0    0 -0.80238094007E+01 -0.25026762607E+01 -0.39294907524E+00  0.84142328670E+01  0.00000000000E+00 0. -1.
</event>
<event>
 7    1  0.1052674E-011  0.5930193E+02  0.7816164E-02  0.1266605E+00
        -11   -1    0    0    0    0  0.00000000000E+00  0.00000000000E+00  0.45593999997E+02  0.45594000000E+02  0.51100000000E-03 0. -1.
         11   -1    0    0    0    0 -0.00000000000E+00 -0.00000000000E+00 -0.45593999997E+02  0.45594000000E+02  0.51100000000E-03 0.  1.
    9900012    2    1    2    0    0  0.59781815410E+01  0.10636652269E+02  0.29459197368E+02  0.59301931951E+02  0.49999977976E+02 0.  0.
        -12    1    1    2    0    0 -0.59781815410E+01 -0.10636652269E+02 -0.29459197368E+02  0.31886068049E+02  0.00000000000E+00 0.  1.
         11    1    3    3    0    0 -0.39446795475E+01  0.13982230247E+02  0.14362424595E+02  0.20428962282E+02  0.51100000000E-03 0. -1.
        -11    1    3    3    0    0  0.27092131103E+01 -0.13506287505E+02 -0.54733679442E+01  0.14822867292E+02  0.51100000000E-03 0.  1.
        -12    1    3    3    0    0  0.72136479781E+01  0.10160709527E+02  0.20570140717E+02  0.24050102377E+02  0.00000000000E+00 0.  1.
</event>
<event>
 7    1  0.1052674E-011  0.5930200E+02  0.7816164E-02  0.1266605E+00
        -11   -1    0    0    0    0  0.00000000000E+00  0.00000000000E+00  0.45593999997E+02  0.45594000000E+02  0.51100000000E-03 0.  1.
         11   -1    0    0    0    0 -0.00000000000E+00 -0.00000000000E+00 -0.45593999997E+02  0.45594000000E+02  0.51100000000E-03 0. -1.
    9900012    2    1    2    0    0  0.27885274568E+01  0.24647065518E+02 -0.20036550592E+02  0.59301998625E+02  0.50000099572E+02 0.  0.
        -12    1    1    2    0    0 -0.27885274568E+01 -0.24647065518E+02  0.20036550592E+02  0.31886001375E+02  0.00000000000E+00 0.  1.
         11    1    3    3    0    0 -0.12094683331E+02 -0.17077218789E+01 -0.87381925486E+01  0.15018444932E+02  0.51100000000E-03 0. -1.
        -11    1    3    3    0    0  0.18071461679E+02  0.65930989056E+01 -0.14397565982E+02  0.24027829425E+02  0.51100000000E-03 0.  1.
        -12    1    3    3    0    0 -0.31882508913E+01  0.19761688492E+02  0.30992079386E+01  0.20255724268E+02  0.00000000000E+00 0.  1.
</event>
<event>
 7    1  0.1052674E-011  0.5930195E+02  0.7816164E-02  0.1266605E+00
        -11   -1    0    0    0    0  0.00000000000E+00  0.00000000000E+00  0.45593999997E+02  0.45594000000E+02  0.51100000000E-03 0.  1.
         11   -1    0    0    0    0 -0.00000000000E+00 -0.00000000000E+00 -0.45593999997E+02  0.45594000000E+02  0.51100000000E-03 0. -1.
    9900012    2    1    2    0    0  0.11512616294E+02  0.16370010638E+02 -0.24823434518E+02  0.59301945313E+02  0.50000002344E+02 0.  0.
        -12    1    1    2    0    0 -0.11512616294E+02 -0.16370010638E+02  0.24823434518E+02  0.31886054687E+02  0.00000000000E+00 0.  1.
         11    1    3    3    0    0 -0.58088638163E+01  0.12091253536E+02 -0.24337109837E+01  0.13633204331E+02  0.51100000000E-03 0. -1.
        -11    1    3    3    0    0 -0.27918865127E+01 -0.11381958570E+02 -0.15180032216E+02  0.19177512601E+02  0.51100000000E-03 0.  1.
        -12    1    3    3    0    0  0.20113366623E+02  0.15660715672E+02 -0.72096913184E+01  0.26491228382E+02  0.00000000000E+00 0.  1.
</event>
<event>
 7    1  0.1052674E-011  0.5930195E+02  0.7816164E-02  0.1266605E+00
        -11   -1    0    0    0    0  0.00000000000E+00  0.00000000000E+00  0.45593999997E+02  0.45594000000E+02  0.51100000000E-03 0.  1.
         11   -1    0    0    0    0 -0.00000000000E+00 -0.00000000000E+00 -0.45593999997E+02  0.45594000000E+02  0.51100000000E-03 0. -1.
    9900012    2    1    2    0    0  0.25550688361E+02 -0.51546525017E+01 -0.18366064632E+02  0.59301945867E+02  0.50000003355E+02 0.  0.
        -12    1    1    2    0    0 -0.25550688361E+02  0.51546525017E+01  0.18366064632E+02  0.31886054133E+02  0.00000000000E+00 0.  1.
         11    1    3    3    0    0  0.36445118741E+02  0.55274737015E+00  0.55627221428E+00  0.36453554679E+02  0.51100000000E-03 0. -1.
        -11    1    3    3    0    0 -0.67023405476E+01 -0.42114794632E+01 -0.90769812941E+01  0.12043650516E+02  0.51100000000E-03 0.  1.
         12    1    3    3    0    0 -0.41920898330E+01 -0.14959204087E+01 -0.98453555517E+01  0.10804740671E+02  0.00000000000E+00 0. -1.
</event>
<event>
 7    1  0.1052674E-011  0.5930212E+02  0.7816164E-02  0.1266604E+00
        -11   -1    0    0    0    0  0.00000000000E+00  0.00000000000E+00  0.45593999997E+02  0.45594000000E+02  0.51100000000E-03 0.  1.
         11   -1    0    0    0    0 -0.00000000000E+00 -0.00000000000E+00 -0.45593999997E+02  0.45594000000E+02  0.51100000000E-03 0. -1.
    9900012    2    1    2    0    0  0.89280905721E+01  0.38254231910E+01 -0.30370457209E+02  0.59302120132E+02  0.50000321171E+02 0.  0.
        -12    1    1    2    0    0 -0.89280905721E+01 -0.38254231910E+01  0.30370457209E+02  0.31885879868E+02  0.00000000000E+00 0.  1.
         11    1    3    3    0    0  0.15691812171E+02 -0.13302248586E+02  0.17226780005E+01  0.20643410726E+02  0.51100000000E-03 0.  1.
        -11    1    3    3    0    0 -0.57391242324E+01  0.16337747180E+02 -0.19826079568E+02  0.26323619834E+02  0.51100000000E-03 0. -1.
        -12    1    3    3    0    0 -0.10245973660E+01  0.78992459720E+00 -0.12267055642E+02  0.12335089572E+02  0.00000000000E+00 0.  1.
</event>
<event>
 7    1  0.1052674E-011  0.5930195E+02  0.7816164E-02  0.1266605E+00
        -11   -1    0    0    0    0  0.00000000000E+00  0.00000000000E+00  0.45593999997E+02  0.45594000000E+02  0.51100000000E-03 0. -1.
         11   -1    0    0    0    0 -0.00000000000E+00 -0.00000000000E+00 -0.45593999997E+02  0.45594000000E+02  0.51100000000E-03 0.  1.
    9900012    2    1    2    0    0  0.20603810282E+02 -0.82304467959E+01  0.22901158520E+02  0.59301947968E+02  0.50000007186E+02 0.  0.
        -12    1    1    2    0    0 -0.20603810282E+02  0.82304467959E+01 -0.22901158520E+02  0.31886052032E+02  0.00000000000E+00 0.  1.
         11    1    3    3    0    0  0.27196512233E+01 -0.21771361995E+02  0.21836828365E+02  0.30955383686E+02  0.51100000000E-03 0. -1.
        -11    1    3    3    0    0  0.32974828200E+01  0.11608876096E+02 -0.41106445635E+01  0.12748991966E+02  0.51100000000E-03 0.  1.
        -12    1    3    3    0    0  0.14586676239E+02  0.19320391029E+01  0.51749747193E+01  0.15597572316E+02  0.00000000000E+00 0.  1.
</event>
<event>
 7    1  0.1052674E-011  0.5930195E+02  0.7816164E-02  0.1266605E+00
        -11   -1    0    0    0    0  0.00000000000E+00  0.00000000000E+00  0.45593999997E+02  0.45594000000E+02  0.51100000000E-03 0.  1.
         11   -1    0    0    0    0 -0.00000000000E+00 -0.00000000000E+00 -0.45593999997E+02  0.45594000000E+02  0.51100000000E-03 0. -1.
    9900012    2    1    2    0    0  0.21898826312E+02  0.22939355191E+02  0.33087250639E+01  0.59301948630E+02  0.50000008394E+02 0.  0.
        -12    1    1    2    0    0 -0.21898826312E+02 -0.22939355191E+02 -0.33087250639E+01  0.31886051370E+02  0.00000000000E+00 0.  1.
         11    1    3    3    0    0  0.34691235361E+02  0.24128685531E+02 -0.82140366875E+00  0.42265233710E+02  0.51100000000E-03 0. -1.
        -11    1    3    3    0    0 -0.91990553467E+01 -0.18326196680E+01  0.75451523999E+01  0.12037875191E+02  0.51100000000E-03 0.  1.
         12    1    3    3    0    0 -0.35933537024E+01  0.64328932833E+00 -0.34150236673E+01  0.49988397292E+01  0.00000000000E+00 0. -1.
</event>
<event>
 7    1  0.1052674E-011  0.5930195E+02  0.7816164E-02  0.1266605E+00
        -11   -1    0    0    0    0  0.00000000000E+00  0.00000000000E+00  0.45593999997E+02  0.45594000000E+02  0.51100000000E-03 0. -1.
         11   -1    0    0    0    0 -0.00000000000E+00 -0.00000000000E+00 -0.45593999997E+02  0.45594000000E+02  0.51100000000E-03 0.  1.
    9900012    2    1    2    0    0  0.17063792531E+02 -0.24565029194E+02  0.11050167224E+02  0.59301954925E+02  0.50000019873E+02 0.  0.
        -12    1    1    2    0    0 -0.17063792531E+02  0.24565029194E+02 -0.11050167224E+02  0.31886045075E+02  0.00000000000E+00 0.  1.
         11    1    3    3    0    0  0.23063750939E+02 -0.24039518719E+02  0.11231614709E+02  0.35156567478E+02  0.51100000000E-03 0. -1.
        -11    1    3    3    0    0 -0.10400471952E+02 -0.61590714505E+01 -0.72477992849E+01  0.14093777801E+02  0.51100000000E-03 0.  1.
        -12    1    3    3    0    0  0.44005135440E+01  0.56335609749E+01  0.70663518005E+01  0.10051609646E+02  0.00000000000E+00 0.  1.
</event>
<event>
 7    1  0.1052674E-011  0.5930192E+02  0.7816164E-02  0.1266605E+00
        -11   -1    0    0    0    0  0.00000000000E+00  0.00000000000E+00  0.45593999997E+02  0.45594000000E+02  0.51100000000E-03 0.  1.
         11   -1    0    0    0    0 -0.00000000000E+00 -0.00000000000E+00 -0.45593999997E+02  0.45594000000E+02  0.51100000000E-03 0. -1.
    9900012    2    1    2    0    0 -0.87860714195E+01 -0.25721025885E+02 -0.16672002226E+02  0.59301923386E+02  0.49999962355E+02 0.  0.
        -12    1    1    2    0    0  0.87860714195E+01  0.25721025885E+02  0.16672002226E+02  0.31886076614E+02  0.00000000000E+00 0.  1.
         11    1    3    3    0    0 -0.20891321428E+02  0.51685735501E+01  0.51998180943E+00  0.21527467220E+02  0.51100000000E-03 0. -1.
        -11    1    3    3    0    0  0.76913449767E+01 -0.18673343055E+02 -0.13423771963E+02  0.24249704790E+02  0.51100000000E-03 0.  1.
         12    1    3    3    0    0  0.44139050321E+01 -0.12216256380E+02 -0.37682120718E+01  0.13524751376E+02  0.00000000000E+00 0. -1.
</event>
<event>
 7    1  0.1052674E-011  0.5930195E+02  0.7816164E-02  0.1266605E+00
        -11   -1    0    0    0    0  0.00000000000E+00  0.00000000000E+00  0.45593999997E+02  0.45594000000E+02  0.51100000000E-03 0. -1.
         11   -1    0    0    0    0 -0.00000000000E+00 -0.00000000000E+00 -0.45593999997E+02  0.45594000000E+02  0.51100000000E-03 0.  1.
    9900012    2    1    2    0    0 -0.15594761184E+02 -0.45041526087E+00  0.27808646720E+02  0.59301948462E+02  0.50000008087E+02 0.  0.
        -12    1    1    2    0    0  0.15594761184E+02  0.45041526087E+00 -0.27808646720E+02  0.31886051538E+02  0.00000000000E+00 0.  1.
         11    1    3    3    0    0 -0.19521883577E+02 -0.30802829790E+00  0.30339087945E+02  0.36078512683E+02  0.51100000000E-03 0. -1.
        -11    1    3    3    0    0  0.11975469859E+02  0.19203530706E+01 -0.67761460546E+01  0.13893012268E+02  0.51100000000E-03 0.  1.
        -12    1    3    3    0    0 -0.80483474671E+01 -0.20627400336E+01  0.42457048297E+01  0.93304235113E+01  0.00000000000E+00 0.  1.
</event>
<event>
 7    1  0.1240496E-011  0.5930192E+02  0.7816164E-02  0.1266605E+00
        -11   -1    0    0    0    0  0.00000000000E+00  0.00000000000E+00  0.45593999997E+02  0.45594000000E+02  0.51100000000E-03 0.  1.
         11   -1    0    0    0    0 -0.00000000000E+00 -0.00000000000E+00 -0.45593999997E+02  0.45594000000E+02  0.51100000000E-03 0. -1.
    9900012    2    1    2    0    0  0.11246415863E+02 -0.19424095163E+02 -0.22648285169E+02  0.59301918965E+02  0.49999954291E+02 0.  0.
        -12    1    1    2    0    0 -0.11246415863E+02  0.19424095163E+02  0.22648285169E+02  0.31886081035E+02  0.00000000000E+00 0.  1.
         11    1    3    3    0    0  0.10356201282E+02 -0.29261033375E+02 -0.30828813510E+02  0.43747853912E+02  0.51100000000E-03 0. -1.
        -11    1    3    3    0    0  0.41637634392E+00  0.82214049342E+01  0.11345740695E+01  0.83097609431E+01  0.51100000000E-03 0.  1.
         12    1    3    3    0    0  0.47383823729E+00  0.16155332779E+01  0.70459542714E+01  0.72443041102E+01  0.00000000000E+00 0. -1.
</event>
<event>
 7    1  0.1052674E-011  0.5930189E+02  0.7816164E-02  0.1266605E+00
        -11   -1    0    0    0    0  0.00000000000E+00  0.00000000000E+00  0.45593999997E+02  0.45594000000E+02  0.51100000000E-03 0.  1.
         11   -1    0    0    0    0 -0.00000000000E+00 -0.00000000000E+00 -0.45593999997E+02  0.45594000000E+02  0.51100000000E-03 0. -1.
    9900012    2    1    2    0    0  0.26670819723E+02  0.91432403746E+00 -0.17451518380E+02  0.59301888495E+02  0.49999898721E+02 0.  0.
        -12    1    1    2    0    0 -0.26670819723E+02 -0.91432403746E+00  0.17451518380E+02  0.31886111505E+02  0.00000000000E+00 0.  1.
         11    1    3    3    0    0 -0.12662193681E+02 -0.36014615467E+01 -0.14448231007E+02  0.19546177467E+02  0.51100000000E-03 0. -1.
        -11    1    3    3    0    0  0.27433038758E+02  0.22250261084E+01 -0.19905264384E+01  0.27595009557E+02  0.51100000000E-03 0.  1.
         12    1    3    3    0    0  0.11899974645E+02  0.22907594757E+01 -0.10127609351E+01  0.12160701470E+02  0.00000000000E+00 0. -1.
</event>
<event>
 7    1  0.1052674E-011  0.5930195E+02  0.7816164E-02  0.1266605E+00
        -11   -1    0    0    0    0  0.00000000000E+00  0.00000000000E+00  0.45593999997E+02  0.45594000000E+02  0.51100000000E-03 0. -1.
         11   -1    0    0    0    0 -0.00000000000E+00 -0.00000000000E+00 -0.45593999997E+02  0.45594000000E+02  0.51100000000E-03 0.  1.
    9900012    2    1    2    0    0  0.14174792052E+02 -0.18065642556E+02  0.22123016164E+02  0.59301952662E+02  0.50000015747E+02 0.  0.
        -12    1    1    2    0    0 -0.14174792052E+02  0.18065642556E+02 -0.22123016164E+02  0.31886047338E+02  0.00000000000E+00 0.  1.
         11    1    3    3    0    0  0.22525427756E+01 -0.17080436389E+02  0.26960908890E+02  0.31995403805E+02  0.51100000000E-03 0. -1.
        -11    1    3    3    0    0  0.11151338128E+02  0.91461675947E+01  0.26771181121E+01  0.14668731553E+02  0.51100000000E-03 0.  1.
         12    1    3    3    0    0  0.77091114806E+00 -0.10131373762E+02 -0.75150108390E+01  0.12637817304E+02  0.00000000000E+00 0. -1.
</event>
<event>
 7    1  0.1052674E-011  0.5930196E+02  0.7816164E-02  0.1266605E+00
        -11   -1    0    0    0    0  0.00000000000E+00  0.00000000000E+00  0.45593999997E+02  0.45594000000E+02  0.51100000000E-03 0.  1.
         11   -1    0    0    0    0 -0.00000000000E+00 -0.00000000000E+00 -0.45593999997E+02  0.45594000000E+02  0.51100000000E-03 0. -1.
    9900012    2    1    2    0    0  0.24583806020E+02 -0.19253835103E+02 -0.64533472222E+01  0.59301962696E+02  0.50000034046E+02 0.  0.
        -12    1    1    2    0    0 -0.24583806020E+02  0.19253835103E+02  0.64533472222E+01  0.31886037304E+02  0.00000000000E+00 0.  1.
         11    1    3    3    0    0  0.92165591152E+01  0.14760688205E+02 -0.11954469710E+02  0.21112371362E+02  0.51100000000E-03 0. -1.
        -11    1    3    3    0    0  0.14763668650E+02 -0.31116535594E+02  0.35048544248E+01  0.34619195603E+02  0.51100000000E-03 0.  1.
         12    1    3    3    0    0  0.60357825429E+00 -0.28979877141E+01  0.19962680628E+01  0.35703957314E+01  0.00000000000E+00 0. -1.
</event>
<event>
 7    1  0.1052674E-011  0.5930182E+02  0.7816164E-02  0.1266605E+00
        -11   -1    0    0    0    0  0.00000000000E+00  0.00000000000E+00  0.45593999997E+02  0.45594000000E+02  0.51100000000E-03 0. -1.
         11   -1    0    0    0    0 -0.00000000000E+00 -0.00000000000E+00 -0.45593999997E+02  0.45594000000E+02  0.51100000000E-03 0.  1.
    9900012    2    1    2    0    0  0.26944737606E+02 -0.18101596226E+01  0.16953855146E+02  0.59301815424E+02  0.49999765457E+02 0.  0.
        -12    1    1    2    0    0 -0.26944737606E+02  0.18101596226E+01 -0.16953855146E+02  0.31886184576E+02  0.00000000000E+00 0.  1.
         11    1    3    3    0    0  0.14595051851E+02 -0.21886750777E+02  0.18815990662E+02  0.32343266733E+02  0.51100000000E-03 0. -1.
        -11    1    3    3    0    0  0.49383510958E+00  0.53485567939E+01  0.45026886255E+01  0.70089327299E+01  0.51100000000E-03 0.  1.
         12    1    3    3    0    0  0.11855850644E+02  0.14728034361E+02 -0.63648241409E+01  0.19949615961E+02  0.00000000000E+00 0. -1.
</event>
<event>
 7    1  0.1052674E-011  0.5930195E+02  0.7816164E-02  0.1266605E+00
        -11   -1    0    0    0    0  0.00000000000E+00  0.00000000000E+00  0.45593999997E+02  0.45594000000E+02  0.51100000000E-03 0. -1.
         11   -1    0    0    0    0 -0.00000000000E+00 -0.00000000000E+00 -0.45593999997E+02  0.45594000000E+02  0.51100000000E-03 0.  1.
    9900012    2    1    2    0    0 -0.44602017267E+01  0.18282815758E+02  0.25740344324E+02  0.59301951681E+02  0.50000013957E+02 0.  0.
        -12    1    1    2    0    0  0.44602017267E+01 -0.18282815758E+02 -0.25740344324E+02  0.31886048319E+02  0.00000000000E+00 0.  1.
         11    1    3    3    0    0 -0.91715828151E+01  0.13542778650E+02 -0.93740387188E+01  0.18851986290E+02  0.51100000000E-03 0.  1.
        -11    1    3    3    0    0  0.88039753443E+01  0.90427428523E+01  0.15677619241E+02  0.20126324192E+02  0.51100000000E-03 0. -1.
         12    1    3    3    0    0 -0.40925942559E+01 -0.43027057447E+01  0.19436763803E+02  0.20323641199E+02  0.00000000000E+00 0. -1.
</event>
<event>
 7    1  0.1052674E-011  0.5930208E+02  0.7816164E-02  0.1266604E+00
        -11   -1    0    0    0    0  0.00000000000E+00  0.00000000000E+00  0.45593999997E+02  0.45594000000E+02  0.51100000000E-03 0.  1.
         11   -1    0    0    0    0 -0.00000000000E+00 -0.00000000000E+00 -0.45593999997E+02  0.45594000000E+02  0.51100000000E-03 0. -1.
    9900012    2    1    2    0    0  0.13732343801E+02 -0.17781487276E+02 -0.22626387043E+02  0.59302079178E+02  0.50000246482E+02 0.  0.
        -12    1    1    2    0    0 -0.13732343801E+02  0.17781487276E+02  0.22626387043E+02  0.31885920822E+02  0.00000000000E+00 0.  1.
         11    1    3    3    0    0  0.29675902957E+01  0.38007405271E+01 -0.18322541609E+02  0.18946444310E+02  0.51100000000E-03 0. -1.
        -11    1    3    3    0    0  0.15507364071E+02 -0.21748902533E+02  0.74074711746E+01  0.27719374656E+02  0.51100000000E-03 0.  1.
        -12    1    3    3    0    0 -0.47426105658E+01  0.16667473055E+00 -0.11711316609E+02  0.12636260212E+02  0.00000000000E+00 0.  1.
</event>
<event>
 7    1  0.1052674E-011  0.5930195E+02  0.7816164E-02  0.1266605E+00
        -11   -1    0    0    0    0  0.00000000000E+00  0.00000000000E+00  0.45593999997E+02  0.45594000000E+02  0.51100000000E-03 0.  1.
         11   -1    0    0    0    0 -0.00000000000E+00 -0.00000000000E+00 -0.45593999997E+02  0.45594000000E+02  0.51100000000E-03 0. -1.
    9900012    2    1    2    0    0  0.30068950824E+02 -0.57276822433E+01 -0.89315315122E+01  0.59301946580E+02  0.50000004656E+02 0.  0.
        -12    1    1    2    0    0 -0.30068950824E+02  0.57276822433E+01  0.89315315122E+01  0.31886053420E+02  0.00000000000E+00 0.  1.
         11    1    3    3    0    0  0.20753635222E+01  0.84569816819E+01 -0.56782163601E+01  0.10395663240E+02  0.51100000000E-03 0. -1.
        -11    1    3    3    0    0  0.43846352231E+01 -0.95706667861E+01  0.15268783523E+02  0.18546116556E+02  0.51100000000E-03 0.  1.
        -12    1    3    3    0    0  0.23608952078E+02 -0.46139971391E+01 -0.18522098675E+02  0.30360166784E+02  0.00000000000E+00 0.  1.
</event>
<event>
 7    1  0.1052674E-011  0.5930195E+02  0.7816164E-02  0.1266605E+00
        -11   -1    0    0    0    0  0.00000000000E+00  0.00000000000E+00  0.45593999997E+02  0.45594000000E+02  0.51100000000E-03 0. -1.
         11   -1    0    0    0    0 -0.00000000000E+00 -0.00000000000E+00 -0.45593999997E+02  0.45594000000E+02  0.51100000000E-03 0.  1.
    9900012    2    1    2    0    0 -0.31163879137E+02  0.16231427495E+01  0.65496804767E+01  0.59301948667E+02  0.50000008461E+02 0.  0.
        -12    1    1    2    0    0  0.31163879137E+02 -0.16231427495E+01 -0.65496804767E+01  0.31886051333E+02  0.00000000000E+00 0.  1.
         11    1    3    3    0    0  0.46141329560E+00  0.46524955022E+01  0.14454043577E+02  0.15191378892E+02  0.51100000000E-03 0. -1.
        -11    1    3    3    0    0 -0.26318937520E+02  0.44725724790E+01 -0.16618929069E+02  0.31446449409E+02  0.51100000000E-03 0.  1.
        -12    1    3    3    0    0 -0.53063549130E+01 -0.75019252317E+01  0.87145659681E+01  0.12664120366E+02  0.00000000000E+00 0.  1.
</event>
<event>
 7    1  0.1052674E-011  0.5930199E+02  0.7816164E-02  0.1266605E+00
        -11   -1    0    0    0    0  0.00000000000E+00  0.00000000000E+00  0.45593999997E+02  0.45594000000E+02  0.51100000000E-03 0.  1.
         11   -1    0    0    0    0 -0.00000000000E+00 -0.00000000000E+00 -0.45593999997E+02  0.45594000000E+02  0.51100000000E-03 0. -1.
    9900012    2    1    2    0    0 -0.13549957084E+02 -0.27274495776E+02  0.94455444455E+01  0.59301987915E+02  0.50000080040E+02 0.  0.
        -12    1    1    2    0    0  0.13549957084E+02  0.27274495776E+02 -0.94455444455E+01  0.31886012085E+02  0.00000000000E+00 0.  1.
         11    1    3    3    0    0 -0.12619159922E+02 -0.26757924651E+02 -0.80568798111E+01  0.30661752092E+02  0.51100000000E-03 0. -1.
        -11    1    3    3    0    0  0.52458155530E+01 -0.16269659402E+01  0.20826553184E+02  0.21538591337E+02  0.51100000000E-03 0.  1.
         12    1    3    3    0    0 -0.61766127156E+01  0.11103948157E+01 -0.33241289275E+01  0.71016444864E+01  0.00000000000E+00 0. -1.
</event>
<event>
 7    1  0.1191346E-011  0.5930194E+02  0.7816164E-02  0.1266605E+00
        -11   -1    0    0    0    0  0.00000000000E+00  0.00000000000E+00  0.45593999997E+02  0.45594000000E+02  0.51100000000E-03 0. -1.
         11   -1    0    0    0    0 -0.00000000000E+00 -0.00000000000E+00 -0.45593999997E+02  0.45594000000E+02  0.51100000000E-03 0.  1.
    9900012    2    1    2    0    0  0.89534960918E+01  0.13797492845E+02  0.27316380514E+02  0.59301944341E+02  0.50000000572E+02 0.  0.
        -12    1    1    2    0    0 -0.89534960918E+01 -0.13797492845E+02 -0.27316380514E+02  0.31886055659E+02  0.00000000000E+00 0.  1.
         11    1    3    3    0    0  0.15834711662E+02  0.23430345692E+02  0.15707524169E+02  0.32348810001E+02  0.51100000000E-03 0. -1.
        -11    1    3    3    0    0  0.46278953514E+01 -0.86380266644E+01  0.11877091618E+02  0.15397994207E+02  0.51100000000E-03 0.  1.
         12    1    3    3    0    0 -0.11509110921E+02 -0.99482618286E+00 -0.26823527346E+00  0.11555140133E+02  0.00000000000E+00 0. -1.
</event>
<event>
 7    1  0.1052674E-011  0.5930193E+02  0.7816164E-02  0.1266605E+00
        -11   -1    0    0    0    0  0.00000000000E+00  0.00000000000E+00  0.45593999997E+02  0.45594000000E+02  0.51100000000E-03 0.  1.
         11   -1    0    0    0    0 -0.00000000000E+00 -0.00000000000E+00 -0.45593999997E+02  0.45594000000E+02  0.51100000000E-03 0. -1.
    9900012    2    1    2    0    0  0.18128579472E+02  0.31615791731E+01 -0.26039975200E+02  0.59301932745E+02  0.49999979424E+02 0.  0.
        -12    1    1    2    0    0 -0.18128579472E+02 -0.31615791731E+01  0.26039975200E+02  0.31886067255E+02  0.00000000000E+00 0.  1.
         11    1    3    3    0    0  0.25859239083E+02  0.11376638029E+02 -0.21414287152E+02  0.35449962388E+02  0.51100000000E-03 0. -1.
        -11    1    3    3    0    0 -0.16604444642E+01 -0.14530780266E+02 -0.32900284648E+01  0.14990828480E+02  0.51100000000E-03 0.  1.
         12    1    3    3    0    0 -0.60702151466E+01  0.63157214102E+01 -0.13356595830E+01  0.88611418778E+01  0.00000000000E+00 0. -1.
</event>
<event>
 7    1  0.1052674E-011  0.5930196E+02  0.7816164E-02  0.1266605E+00
        -11   -1    0    0    0    0  0.00000000000E+00  0.00000000000E+00  0.45593999997E+02  0.45594000000E+02  0.51100000000E-03 0.  1.
         11   -1    0    0    0    0 -0.00000000000E+00 -0.00000000000E+00 -0.45593999997E+02  0.45594000000E+02  0.51100000000E-03 0. -1.
    9900012    2    1    2    0    0 -0.20154552169E+02 -0.24351037211E+02 -0.41881115395E+01  0.59301964426E+02  0.50000037201E+02 0.  0.
        -12    1    1    2    0    0  0.20154552169E+02  0.24351037211E+02  0.41881115395E+01  0.31886035574E+02  0.00000000000E+00 0.  1.
         11    1    3    3    0    0 -0.26035564187E+01  0.28686555457E+01 -0.49386148696E+01  0.62767513697E+01  0.51100000000E-03 0. -1.
        -11    1    3    3    0    0 -0.11197051661E+02 -0.37683244338E+02 -0.47632697513E+01  0.39599111211E+02  0.51100000000E-03 0.  1.
        -12    1    3    3    0    0 -0.63539440886E+01  0.10463551580E+02  0.55137730814E+01  0.13426101845E+02  0.00000000000E+00 0.  1.
</event>
<event>
 7    1  0.1052674E-011  0.5930195E+02  0.7816164E-02  0.1266605E+00
        -11   -1    0    0    0    0  0.00000000000E+00  0.00000000000E+00  0.45593999997E+02  0.45594000000E+02  0.51100000000E-03 0.  1.
         11   -1    0    0    0    0 -0.00000000000E+00 -0.00000000000E+00 -0.45593999997E+02  0.45594000000E+02  0.51100000000E-03 0. -1.
    9900012    2    1    2    0    0  0.27952853957E+01 -0.96265866245E+01 -0.30269376711E+02  0.59301953570E+02  0.50000017402E+02 0.  0.
        -12    1    1    2    0    0 -0.27952853957E+01  0.96265866245E+01  0.30269376711E+02  0.31886046430E+02  0.00000000000E+00 0.  1.
         11    1    3    3    0    0 -0.61061867538E+01  0.83921732062E+01 -0.80969048472E+01  0.13163356569E+02  0.51100000000E-03 0. -1.
        -11    1    3    3    0    0  0.20732913511E+02 -0.10450009722E+02 -0.22156852347E+02  0.32093340618E+02  0.51100000000E-03 0.  1.
        -12    1    3    3    0    0 -0.11831441361E+02 -0.75687501083E+01 -0.15619516673E-01  0.14045256383E+02  0.00000000000E+00 0.  1.
</event>
<event>
 7    1  0.1052674E-011  0.5930195E+02  0.7816164E-02  0.1266605E+00
        -11   -1    0    0    0    0  0.00000000000E+00  0.00000000000E+00  0.45593999997E+02  0.45594000000E+02  0.51100000000E-03 0.  1.
         11   -1    0    0    0    0 -0.00000000000E+00 -0.00000000000E+00 -0.45593999997E+02  0.45594000000E+02  0.51100000000E-03 0. -1.
    9900012    2    1    2    0    0 -0.28637805363E+02 -0.12697750754E+02 -0.59467255084E+01  0.59301947963E+02  0.50000007178E+02 0.  0.
        -12    1    1    2    0    0  0.28637805363E+02  0.12697750754E+02  0.59467255084E+01  0.31886052037E+02  0.00000000000E+00 0.  1.
         11    1    3    3    0    0 -0.18385867646E+02 -0.46505214026E+01 -0.22908099713E+02  0.29739679069E+02  0.51100000000E-03 0. -1.
        -11    1    3    3    0    0 -0.86234454139E+01 -0.11806362385E+02  0.19774728446E+02  0.24592557592E+02  0.51100000000E-03 0.  1.
        -12    1    3    3    0    0 -0.16284923023E+01  0.37591330329E+01 -0.28133542415E+01  0.49697113021E+01  0.00000000000E+00 0.  1.
</event>
<event>
 7    1  0.1052674E-011  0.5930192E+02  0.7816164E-02  0.1266605E+00
        -11   -1    0    0    0    0  0.00000000000E+00  0.00000000000E+00  0.45593999997E+02  0.45594000000E+02  0.51100000000E-03 0. -1.
         11   -1    0    0    0    0 -0.00000000000E+00 -0.00000000000E+00 -0.45593999997E+02  0.45594000000E+02  0.51100000000E-03 0.  1.
    9900012    2    1    2    0    0  0.22164437477E+02  0.16390397989E+02  0.16025441042E+02  0.59301918467E+02  0.49999953384E+02 0.  0.
        -12    1    1    2    0    0 -0.22164437477E+02 -0.16390397989E+02 -0.16025441042E+02  0.31886081533E+02  0.00000000000E+00 0.  1.
         11    1    3    3    0    0 -0.37683426299E+01  0.22065059330E+02  0.88079316543E+01  0.24055080746E+02  0.51100000000E-03 0. -1.
        -11    1    3    3    0    0  0.77082061551E+01  0.27160369130E+01 -0.69150686777E+01  0.10705674837E+02  0.51100000000E-03 0.  1.
         12    1    3    3    0    0  0.18224573952E+02 -0.83906982538E+01  0.14132578065E+02  0.24541162884E+02  0.00000000000E+00 0. -1.
</event>
<event>
 7    1  0.1052674E-011  0.5930192E+02  0.7816164E-02  0.1266605E+00
        -11   -1    0    0    0    0  0.00000000000E+00  0.00000000000E+00  0.45593999997E+02  0.45594000000E+02  0.51100000000E-03 0. -1.
         11   -1    0    0    0    0 -0.00000000000E+00 -0.00000000000E+00 -0.45593999997E+02  0.45594000000E+02  0.51100000000E-03 0.  1.
    9900012    2    1    2    0    0  0.27743434535E+02 -0.12588118865E+02  0.94107950590E+01  0.59301922160E+02  0.49999960119E+02 0.  0.
        -12    1    1    2    0    0 -0.27743434535E+02  0.12588118865E+02 -0.94107950590E+01  0.31886077840E+02  0.00000000000E+00 0.  1.
         11    1    3    3    0    0  0.28649438577E+02 -0.39101720885E+01  0.13051689300E+02  0.31724223716E+02  0.51100000000E-03 0. -1.
        -11    1    3    3    0    0 -0.12442486447E+02 -0.26937142312E+01 -0.64649366523E+01  0.14278199169E+02  0.51100000000E-03 0.  1.
        -12    1    3    3    0    0  0.11536482405E+02 -0.59842325452E+01  0.28240424114E+01  0.13299499275E+02  0.00000000000E+00 0.  1.
</event>
<event>
 7    1  0.1052674E-011  0.5930189E+02  0.7816164E-02  0.1266605E+00
        -11   -1    0    0    0    0  0.00000000000E+00  0.00000000000E+00  0.45593999997E+02  0.45594000000E+02  0.51100000000E-03 0. -1.
         11   -1    0    0    0    0 -0.00000000000E+00 -0.00000000000E+00 -0.45593999997E+02  0.45594000000E+02  0.51100000000E-03 0.  1.
    9900012    2    1    2    0    0  0.31225590481E+02  0.32889091677E+01 -0.55560529906E+01  0.59301887832E+02  0.49999897512E+02 0.  0.
        -12    1    1    2    0    0 -0.31225590481E+02 -0.32889091677E+01  0.55560529906E+01  0.31886112168E+02  0.00000000000E+00 0.  1.
         11    1    3    3    0    0  0.76911622854E+01  0.12565641234E+02 -0.11789972028E+02  0.18869360286E+02  0.51100000000E-03 0. -1.
        -11    1    3    3    0    0  0.27466777700E+02 -0.32855027617E+01  0.13010498614E+02  0.30569453382E+02  0.51100000000E-03 0.  1.
        -12    1    3    3    0    0 -0.39323495047E+01 -0.59912293043E+01 -0.67765795766E+01  0.98630741638E+01  0.00000000000E+00 0.  1.
</event>
<event>
 7    1  0.1052674E-011  0.5930193E+02  0.7816164E-02  0.1266605E+00
        -11   -1    0    0    0    0  0.00000000000E+00  0.00000000000E+00  0.45593999997E+02  0.45594000000E+02  0.51100000000E-03 0.  1.
         11   -1    0    0    0    0 -0.00000000000E+00 -0.00000000000E+00 -0.45593999997E+02  0.45594000000E+02  0.51100000000E-03 0. -1.
    9900012    2    1    2    0    0  0.12417431410E+02  0.16249099265E+02 -0.24464163836E+02  0.59301934988E+02  0.49999983514E+02 0.  0.
        -12    1    1    2    0    0 -0.12417431410E+02 -0.16249099265E+02  0.24464163836E+02  0.31886065012E+02  0.00000000000E+00 0.  1.
         11    1    3    3    0    0  0.10349410128E+02  0.18733763186E+02 -0.31956322163E+02  0.38461288324E+02  0.51100000000E-03 0. -1.
        -11    1    3    3    0    0  0.56706664239E+01  0.71656077409E+01  0.32130866302E+01  0.96863986053E+01  0.51100000000E-03 0.  1.
         12    1    3    3    0    0 -0.36026451418E+01 -0.96502716618E+01  0.42790716969E+01  0.11154248059E+02  0.00000000000E+00 0. -1.
</event>
<event>
 7    1  0.1052674E-011  0.5930195E+02  0.7816164E-02  0.1266605E+00
        -11   -1    0    0    0    0  0.00000000000E+00  0.00000000000E+00  0.45593999997E+02  0.45594000000E+02  0.51100000000E-03 0.  1.
         11   -1    0    0    0    0 -0.00000000000E+00 -0.00000000000E+00 -0.45593999997E+02  0.45594000000E+02  0.51100000000E-03 0. -1.
    9900012    2    1    2    0    0 -0.15329674475E+01 -0.20820232558E+02 -0.24101622185E+02  0.59301948741E+02  0.50000008595E+02 0.  0.
        -12    1    1    2    0    0  0.15329674475E+01  0.20820232558E+02  0.24101622185E+02  0.31886051259E+02  0.00000000000E+00 0.  1.
         11    1    3    3    0    0  0.13403020223E+02  0.89298016321E+01 -0.17446220766E+02  0.23743481791E+02  0.51100000000E-03 0. -1.
        -11    1    3    3    0    0 -0.10568275708E+02 -0.18070683633E+02 -0.91426169523E+01  0.22843500244E+02  0.51100000000E-03 0.  1.
        -12    1    3    3    0    0 -0.43677119617E+01 -0.11679350558E+02  0.24872155333E+01  0.12714966706E+02  0.00000000000E+00 0.  1.
</event>
<event>
 7    1  0.1052674E-011  0.5930195E+02  0.7816164E-02  0.1266605E+00
        -11   -1    0    0    0    0  0.00000000000E+00  0.00000000000E+00  0.45593999997E+02  0.45594000000E+02  0.51100000000E-03 0. -1.
         11   -1    0    0    0    0 -0.00000000000E+00 -0.00000000000E+00 -0.45593999997E+02  0.45594000000E+02  0.51100000000E-03 0.  1.
    9900012    2    1    2    0    0 -0.91544699655E+01 -0.89253898364E+01  0.29210502357E+02  0.59301947375E+02  0.50000006104E+02 0.  0.
        -12    1    1    2    0    0  0.91544699655E+01  0.89253898364E+01 -0.29210502357E+02  0.31886052625E+02  0.00000000000E+00 0.  1.
         11    1    3    3    0    0 -0.33412074780E+01  0.10030081529E+01 -0.22883695675E+01  0.41720892014E+01  0.51100000000E-03 0. -1.
        -11    1    3    3    0    0  0.87444892158E+01 -0.19213624826E+02  0.23362444309E+01  0.21238820798E+02  0.51100000000E-03 0.  1.
        -12    1    3    3    0    0 -0.14557751703E+02  0.92852268366E+01  0.29162627493E+02  0.33891037375E+02  0.00000000000E+00 0.  1.
</event>
<event>
 7    1  0.1052674E-011  0.5930175E+02  0.7816164E-02  0.1266605E+00
        -11   -1    0    0    0    0  0.00000000000E+00  0.00000000000E+00  0.45593999997E+02  0.45594000000E+02  0.51100000000E-03 0.  1.
         11   -1    0    0    0    0 -0.00000000000E+00 -0.00000000000E+00 -0.45593999997E+02  0.45594000000E+02  0.51100000000E-03 0. -1.
    9900012    2    1    2    0    0 -0.24760419727E+02  0.90979544241E+01 -0.17913180281E+02  0.59301746103E+02  0.49999639032E+02 0.  0.
        -12    1    1    2    0    0  0.24760419727E+02 -0.90979544241E+01  0.17913180281E+02  0.31886253897E+02  0.00000000000E+00 0.  1.
         11    1    3    3    0    0 -0.11888189414E+02  0.22398542365E+02 -0.21556738650E+02  0.33282378658E+02  0.51100000000E-03 0. -1.
        -11    1    3    3    0    0  0.26292779965E+01 -0.87549331580E+01  0.37089096181E+01  0.98649869843E+01  0.51100000000E-03 0.  1.
         12    1    3    3    0    0 -0.15501508310E+02 -0.45456547830E+01 -0.65351248835E-01  0.16154380461E+02  0.00000000000E+00 0. -1.
</event>
<event>
 7    1  0.1052674E-011  0.5930197E+02  0.7816164E-02  0.1266605E+00
        -11   -1    0    0    0    0  0.00000000000E+00  0.00000000000E+00  0.45593999997E+02  0.45594000000E+02  0.51100000000E-03 0. -1.
         11   -1    0    0    0    0 -0.00000000000E+00 -0.00000000000E+00 -0.45593999997E+02  0.45594000000E+02  0.51100000000E-03 0.  1.
    9900012    2    1    2    0    0 -0.25951599546E+02  0.14735225625E+02  0.11229702169E+02  0.59301974785E+02  0.50000056093E+02 0.  0.
        -12    1    1    2    0    0  0.25951599546E+02 -0.14735225625E+02 -0.11229702169E+02  0.31886025215E+02  0.00000000000E+00 0.  1.
         11    1    3    3    0    0 -0.88664434440E+01  0.12746184358E+02  0.13762967012E+02  0.20748452865E+02  0.51100000000E-03 0. -1.
        -11    1    3    3    0    0 -0.98930063398E+01 -0.18816416374E+01 -0.18248402280E+02  0.20842656638E+02  0.51100000000E-03 0.  1.
        -12    1    3    3    0    0 -0.71921497625E+01  0.38706829040E+01  0.15715137437E+02  0.17710865281E+02  0.00000000000E+00 0.  1.
</event>
<event>
 7    1  0.1052674E-011  0.5930194E+02  0.7816164E-02  0.1266605E+00
        -11   -1    0    0    0    0  0.00000000000E+00  0.00000000000E+00  0.45593999997E+02  0.45594000000E+02  0.51100000000E-03 0.  1.
         11   -1    0    0    0    0 -0.00000000000E+00 -0.00000000000E+00 -0.45593999997E+02  0.45594000000E+02  0.51100000000E-03 0. -1.
    9900012    2    1    2    0    0 -0.11947762096E+01  0.15792639506E+02 -0.27674642714E+02  0.59301940317E+02  0.49999993233E+02 0.  0.
        -12    1    1    2    0    0  0.11947762096E+01 -0.15792639506E+02  0.27674642714E+02  0.31886059683E+02  0.00000000000E+00 0.  1.
         11    1    3    3    0    0 -0.32909082766E+01  0.23951469968E+02 -0.32567547534E+02  0.40560425830E+02  0.51100000000E-03 0. -1.
        -11    1    3    3    0    0 -0.67378033098E+01 -0.16553182958E+01  0.60835342985E+00  0.69647804171E+01  0.51100000000E-03 0.  1.
         12    1    3    3    0    0  0.88339353768E+01 -0.65035121662E+01  0.42845513901E+01  0.11776734070E+02  0.00000000000E+00 0. -1.
</event>
<event>
 7    1  0.1052674E-011  0.5930189E+02  0.7816164E-02  0.1266605E+00
        -11   -1    0    0    0    0  0.00000000000E+00  0.00000000000E+00  0.45593999997E+02  0.45594000000E+02  0.51100000000E-03 0.  1.
         11   -1    0    0    0    0 -0.00000000000E+00 -0.00000000000E+00 -0.45593999997E+02  0.45594000000E+02  0.51100000000E-03 0. -1.
    9900012    2    1    2    0    0  0.15197860881E+02 -0.26743680469E+02 -0.83979058776E+01  0.59301886353E+02  0.49999894814E+02 0.  0.
        -12    1    1    2    0    0 -0.15197860881E+02  0.26743680469E+02  0.83979058776E+01  0.31886113647E+02  0.00000000000E+00 0.  1.
         11    1    3    3    0    0  0.50981795048E+01 -0.21883624510E+02  0.14509743008E+02  0.26747282075E+02  0.51100000000E-03 0. -1.
        -11    1    3    3    0    0  0.37697272944E+01  0.70772531198E+01 -0.31425120712E+01  0.86124176614E+01  0.51100000000E-03 0.  1.
         12    1    3    3    0    0  0.63299540817E+01 -0.11937309079E+02 -0.19765136814E+02  0.23942186617E+02  0.00000000000E+00 0. -1.
</event>
<event>
 7    1  0.1052674E-011  0.5930199E+02  0.7816164E-02  0.1266605E+00
        -11   -1    0    0    0    0  0.00000000000E+00  0.00000000000E+00  0.45593999997E+02  0.45594000000E+02  0.51100000000E-03 0.  1.
         11   -1    0    0    0    0 -0.00000000000E+00 -0.00000000000E+00 -0.45593999997E+02  0.45594000000E+02  0.51100000000E-03 0. -1.
    9900012    2    1    2    0    0  0.90801135670E+01  0.23783860867E+02 -0.19198885619E+02  0.59301988817E+02  0.50000081685E+02 0.  0.
        -12    1    1    2    0    0 -0.90801135670E+01 -0.23783860867E+02  0.19198885619E+02  0.31886011183E+02  0.00000000000E+00 0.  1.
         11    1    3    3    0    0  0.16504762267E+02  0.13187587113E+02 -0.15357380682E+02  0.26118360841E+02  0.51100000000E-03 0. -1.
        -11    1    3    3    0    0 -0.14216909807E+02  0.16935128848E+02  0.20118334701E+01  0.22202850892E+02  0.51100000000E-03 0.  1.
        -12    1    3    3    0    0  0.67922611065E+01 -0.63388550945E+01 -0.58533384071E+01  0.10980777083E+02  0.00000000000E+00 0.  1.
</event>
<event>
 7    1  0.1052674E-011  0.5930174E+02  0.7816164E-02  0.1266605E+00
        -11   -1    0    0    0    0  0.00000000000E+00  0.00000000000E+00  0.45593999997E+02  0.45594000000E+02  0.51100000000E-03 0.  1.
         11   -1    0    0    0    0 -0.00000000000E+00 -0.00000000000E+00 -0.45593999997E+02  0.45594000000E+02  0.51100000000E-03 0. -1.
    9900012    2    1    2    0    0 -0.21752097006E+02 -0.23314740059E+02 -0.55158289702E-01  0.59301735393E+02  0.49999619499E+02 0.  0.
        -12    1    1    2    0    0  0.21752097006E+02  0.23314740059E+02  0.55158289702E-01  0.31886264607E+02  0.00000000000E+00 0.  1.
         11    1    3    3    0    0 -0.22461118410E+02 -0.20639965952E+02  0.18855444688E+01  0.30562482113E+02  0.51100000000E-03 0. -1.
        -11    1    3    3    0    0  0.13539555391E+02  0.26859048466E+01  0.27293001794E+01  0.14070633417E+02  0.51100000000E-03 0.  1.
         12    1    3    3    0    0 -0.12830533987E+02 -0.53606789528E+01 -0.46700029379E+01  0.14668619862E+02  0.00000000000E+00 0. -1.
</event>
<event>
 7    1  0.1052674E-011  0.5930211E+02  0.7816164E-02  0.1266604E+00
        -11   -1    0    0    0    0  0.00000000000E+00  0.00000000000E+00  0.45593999997E+02  0.45594000000E+02  0.51100000000E-03 0. -1.
         11   -1    0    0    0    0 -0.00000000000E+00 -0.00000000000E+00 -0.45593999997E+02  0.45594000000E+02  0.51100000000E-03 0.  1.
    9900012    2    1    2    0    0 -0.29919557844E+02  0.95804558195E+01 -0.54538811804E+01  0.59302111346E+02  0.50000305148E+02 0.  0.
        -12    1    1    2    0    0  0.29919557844E+02 -0.95804558195E+01  0.54538811804E+01  0.31885888654E+02  0.00000000000E+00 0.  1.
         11    1    3    3    0    0 -0.24933243335E+02 -0.30968630540E+01  0.54403386432E+01  0.25707089854E+02  0.51100000000E-03 0. -1.
        -11    1    3    3    0    0 -0.11050444789E+02  0.15613719984E+02 -0.16162252418E+02  0.25042343845E+02  0.51100000000E-03 0.  1.
        -12    1    3    3    0    0  0.60641302793E+01 -0.29364011103E+01  0.52680325941E+01  0.85526776472E+01  0.00000000000E+00 0.  1.
</event>
<event>
 7    1  0.1052674E-011  0.5930191E+02  0.7816164E-02  0.1266605E+00
        -11   -1    0    0    0    0  0.00000000000E+00  0.00000000000E+00  0.45593999997E+02  0.45594000000E+02  0.51100000000E-03 0.  1.
         11   -1    0    0    0    0 -0.00000000000E+00 -0.00000000000E+00 -0.45593999997E+02  0.45594000000E+02  0.51100000000E-03 0. -1.
    9900012    2    1    2    0    0  0.10027889662E+02  0.12159162057E+02 -0.27718566226E+02  0.59301910452E+02  0.49999938766E+02 0.  0.
        -12    1    1    2    0    0 -0.10027889662E+02 -0.12159162057E+02  0.27718566226E+02  0.31886089548E+02  0.00000000000E+00 0.  1.
         11    1    3    3    0    0  0.16009284690E+02 -0.11511293850E+02 -0.18819103356E+02  0.27257397780E+02  0.51100000000E-03 0. -1.
        -11    1    3    3    0    0 -0.38315984454E+01  0.13385967984E+01  0.43820137348E+01  0.59728579984E+01  0.51100000000E-03 0.  1.
         12    1    3    3    0    0 -0.21497965829E+01  0.22331859109E+02 -0.13281476606E+02  0.26071654674E+02  0.00000000000E+00 0. -1.
</event>
<event>
 7    1  0.1052674E-011  0.5930196E+02  0.7816164E-02  0.1266605E+00
        -11   -1    0    0    0    0  0.00000000000E+00  0.00000000000E+00  0.45593999997E+02  0.45594000000E+02  0.51100000000E-03 0.  1.
         11   -1    0    0    0    0 -0.00000000000E+00 -0.00000000000E+00 -0.45593999997E+02  0.45594000000E+02  0.51100000000E-03 0. -1.
    9900012    2    1    2    0    0 -0.97929143121E+01 -0.28571403233E+02 -0.10222201848E+02  0.59301958163E+02  0.50000025779E+02 0.  0.
        -12    1    1    2    0    0  0.97929143121E+01  0.28571403233E+02  0.10222201848E+02  0.31886041837E+02  0.00000000000E+00 0.  1.
         11    1    3    3    0    0  0.43810781612E+01 -0.26015551002E+01 -0.77994391809E+01  0.93162860944E+01  0.51100000000E-03 0. -1.
        -11    1    3    3    0    0 -0.21854283577E+02 -0.24040040790E+02  0.11084798269E+02  0.34327919028E+02  0.51100000000E-03 0.  1.
        -12    1    3    3    0    0  0.76802911039E+01 -0.19298073431E+01 -0.13507560937E+02  0.15657753041E+02  0.00000000000E+00 0.  1.
</event>
<event>
 7    1  0.1052674E-011  0.5930194E+02  0.7816164E-02  0.1266605E+00
        -11   -1    0    0    0    0  0.00000000000E+00  0.00000000000E+00  0.45593999997E+02  0.45594000000E+02  0.51100000000E-03 0.  1.
         11   -1    0    0    0    0 -0.00000000000E+00 -0.00000000000E+00 -0.45593999997E+02  0.45594000000E+02  0.51100000000E-03 0. -1.
    9900012    2    1    2    0    0 -0.22595930505E+02 -0.18619015182E+02  0.12628426882E+02  0.59301937728E+02  0.49999988510E+02 0.  0.
        -12    1    1    2    0    0  0.22595930505E+02  0.18619015182E+02 -0.12628426882E+02  0.31886062272E+02  0.00000000000E+00 0.  1.
         11    1    3    3    0    0 -0.60976457832E+01 -0.10313617359E+02  0.39177979905E+01  0.12605599092E+02  0.51100000000E-03 0. -1.
        -11    1    3    3    0    0 -0.22779951887E+02  0.82922726003E+01  0.14231363344E+02  0.28110846585E+02  0.51100000000E-03 0.  1.
        -12    1    3    3    0    0  0.62816671653E+01 -0.16597670423E+02 -0.55207344522E+01  0.18585492050E+02  0.00000000000E+00 0.  1.
</event>
<event>
 7    1  0.1052674E-011  0.5930192E+02  0.7816164E-02  0.1266605E+00
        -11   -1    0    0    0    0  0.00000000000E+00  0.00000000000E+00  0.45593999997E+02  0.45594000000E+02  0.51100000000E-03 0. -1.
         11   -1    0    0    0    0 -0.00000000000E+00 -0.00000000000E+00 -0.45593999997E+02  0.45594000000E+02  0.51100000000E-03 0.  1.
    9900012    2    1    2    0    0  0.88332181987E+01  0.25404113833E+02  0.17126800532E+02  0.59301920908E+02  0.49999957836E+02 0.  0.
        -12    1    1    2    0    0 -0.88332181987E+01 -0.25404113833E+02 -0.17126800532E+02  0.31886079092E+02  0.00000000000E+00 0.  1.
         11    1    3    3    0    0  0.44018092244E+01  0.19583522413E+02  0.60880784697E+01  0.20975103677E+02  0.51100000000E-03 0. -1.
        -11    1    3    3    0    0  0.12471780994E+02 -0.11728616382E+02  0.28394126763E+01  0.17354193383E+02  0.51100000000E-03 0.  1.
        -12    1    3    3    0    0 -0.80403720193E+01  0.17549207801E+02  0.81993093860E+01  0.20972623848E+02  0.00000000000E+00 0.  1.
</event>
<event>
 7    1  0.1052674E-011  0.5930192E+02  0.7816164E-02  0.1266605E+00
        -11   -1    0    0    0    0  0.00000000000E+00  0.00000000000E+00  0.45593999997E+02  0.45594000000E+02  0.51100000000E-03 0.  1.
         11   -1    0    0    0    0 -0.00000000000E+00 -0.00000000000E+00 -0.45593999997E+02  0.45594000000E+02  0.51100000000E-03 0. -1.
    9900012    2    1    2    0    0 -0.15426759731E+02 -0.77232078528E+01 -0.26815835792E+02  0.59301923029E+02  0.49999961704E+02 0.  0.
        -12    1    1    2    0    0  0.15426759731E+02  0.77232078528E+01  0.26815835792E+02  0.31886076971E+02  0.00000000000E+00 0.  1.
         11    1    3    3    0    0 -0.28309380313E+02 -0.13916292029E+02 -0.65506717566E+01  0.32217937523E+02  0.51100000000E-03 0.  1.
        -11    1    3    3    0    0  0.12654339050E+02  0.86068576218E+01 -0.15760248918E+02  0.21968061843E+02  0.51100000000E-03 0. -1.
        -12    1    3    3    0    0  0.22828153096E+00 -0.24137734452E+01 -0.45049151183E+01  0.51159236629E+01  0.00000000000E+00 0.  1.
</event>
<event>
 7    1  0.1052674E-011  0.5930194E+02  0.7816164E-02  0.1266605E+00
        -11   -1    0    0    0    0  0.00000000000E+00  0.00000000000E+00  0.45593999997E+02  0.45594000000E+02  0.51100000000E-03 0.  1.
         11   -1    0    0    0    0 -0.00000000000E+00 -0.00000000000E+00 -0.45593999997E+02  0.45594000000E+02  0.51100000000E-03 0. -1.
    9900012    2    1    2    0    0  0.30949355936E+02  0.56664407488E+01  0.51719853393E+01  0.59301943236E+02  0.49999998557E+02 0.  0.
        -12    1    1    2    0    0 -0.30949355936E+02 -0.56664407488E+01 -0.51719853393E+01  0.31886056764E+02  0.00000000000E+00 0.  1.
         11    1    3    3    0    0  0.23993379593E+02 -0.73650444968E+01  0.51260036238E+01  0.25616441168E+02  0.51100000000E-03 0. -1.
        -11    1    3    3    0    0  0.73088250411E+01  0.20215943285E+02  0.80223688524E+01  0.22944752965E+02  0.51100000000E-03 0.  1.
         12    1    3    3    0    0 -0.35284869838E+00 -0.71844580393E+01 -0.79763871369E+01  0.10740749102E+02  0.00000000000E+00 0. -1.
</event>
<event>
 7    1  0.1052674E-011  0.5930195E+02  0.7816164E-02  0.1266605E+00
        -11   -1    0    0    0    0  0.00000000000E+00  0.00000000000E+00  0.45593999997E+02  0.45594000000E+02  0.51100000000E-03 0.  1.
         11   -1    0    0    0    0 -0.00000000000E+00 -0.00000000000E+00 -0.45593999997E+02  0.45594000000E+02  0.51100000000E-03 0. -1.
    9900012    2    1    2    0    0 -0.22757773614E+02 -0.22212256193E+02 -0.23279738256E+01  0.59301952155E+02  0.50000014822E+02 0.  0.
        -12    1    1    2    0    0  0.22757773614E+02  0.22212256193E+02  0.23279738256E+01  0.31886047845E+02  0.00000000000E+00 0.  1.
         11    1    3    3    0    0 -0.52170712265E+01 -0.21317564108E+02 -0.70775131163E+01  0.23059652293E+02  0.51100000000E-03 0. -1.
        -11    1    3    3    0    0 -0.60834599367E+01  0.15080491273E+02  0.25646462043E+01  0.16462293651E+02  0.51100000000E-03 0.  1.
        -12    1    3    3    0    0 -0.11457242451E+02 -0.15975183358E+02  0.21848930864E+01  0.19780006211E+02  0.00000000000E+00 0.  1.
</event>
<event>
 7    1  0.1052674E-011  0.5930193E+02  0.7816164E-02  0.1266605E+00
        -11   -1    0    0    0    0  0.00000000000E+00  0.00000000000E+00  0.45593999997E+02  0.45594000000E+02  0.51100000000E-03 0. -1.
         11   -1    0    0    0    0 -0.00000000000E+00 -0.00000000000E+00 -0.45593999997E+02  0.45594000000E+02  0.51100000000E-03 0.  1.
    9900012    2    1    2    0    0  0.90565245006E+01 -0.27673939147E+02  0.12994389209E+02  0.59301926318E+02  0.49999967701E+02 0.  0.
        -12    1    1    2    0    0 -0.90565245006E+01  0.27673939147E+02 -0.12994389209E+02  0.31886073682E+02  0.00000000000E+00 0.  1.
         11    1    3    3    0    0  0.20916963459E+02 -0.20121639569E+01  0.15935231471E+02  0.26372329560E+02  0.51100000000E-03 0. -1.
        -11    1    3    3    0    0  0.25966190894E+01 -0.45623086127E+01 -0.50259252539E+01  0.72675315955E+01  0.51100000000E-03 0.  1.
         12    1    3    3    0    0 -0.14457058048E+02 -0.21099466578E+02  0.20850829922E+01  0.25662065162E+02  0.00000000000E+00 0. -1.
</event>
<event>
 7    1  0.1052674E-011  0.5930195E+02  0.7816164E-02  0.1266605E+00
        -11   -1    0    0    0    0  0.00000000000E+00  0.00000000000E+00  0.45593999997E+02  0.45594000000E+02  0.51100000000E-03 0.  1.
         11   -1    0    0    0    0 -0.00000000000E+00 -0.00000000000E+00 -0.45593999997E+02  0.45594000000E+02  0.51100000000E-03 0. -1.
    9900012    2    1    2    0    0 -0.20489738200E+02  0.23704297496E+02 -0.59158608307E+01  0.59301945044E+02  0.50000001854E+02 0.  0.
        -12    1    1    2    0    0  0.20489738200E+02 -0.23704297496E+02  0.59158608307E+01  0.31886054956E+02  0.00000000000E+00 0.  1.
         11    1    3    3    0    0 -0.83109311290E+01 -0.47661110919E+01 -0.93093917380E+01  0.13358598952E+02  0.51100000000E-03 0. -1.
        -11    1    3    3    0    0 -0.23430133421E+02  0.22806161923E+02  0.55463219181E+01  0.33164044700E+02  0.51100000000E-03 0.  1.
         12    1    3    3    0    0  0.11251326350E+02  0.56642466651E+01 -0.21527910107E+01  0.12779301392E+02  0.00000000000E+00 0. -1.
</event>
<event>
 7    1  0.1052674E-011  0.5930200E+02  0.7816164E-02  0.1266605E+00
        -11   -1    0    0    0    0  0.00000000000E+00  0.00000000000E+00  0.45593999997E+02  0.45594000000E+02  0.51100000000E-03 0.  1.
         11   -1    0    0    0    0 -0.00000000000E+00 -0.00000000000E+00 -0.45593999997E+02  0.45594000000E+02  0.51100000000E-03 0. -1.
    9900012    2    1    2    0    0  0.31063063927E+02 -0.64661325841E+01 -0.31610715193E+01  0.59301997048E+02  0.50000096696E+02 0.  0.
        -12    1    1    2    0    0 -0.31063063927E+02  0.64661325841E+01  0.31610715193E+01  0.31886002952E+02  0.00000000000E+00 0.  1.
         11    1    3    3    0    0  0.24686013216E+02  0.12384131396E+02 -0.16652055732E+02  0.32249913477E+02  0.51100000000E-03 0. -1.
        -11    1    3    3    0    0  0.65548420778E-01 -0.16534738957E+02  0.79834336181E+01  0.18361293570E+02  0.51100000000E-03 0.  1.
         12    1    3    3    0    0  0.63115022900E+01 -0.23155250228E+01  0.55075505943E+01  0.86907900007E+01  0.00000000000E+00 0. -1.
</event>
<event>
 7    1  0.1052674E-011  0.5930195E+02  0.7816164E-02  0.1266605E+00
        -11   -1    0    0    0    0  0.00000000000E+00  0.00000000000E+00  0.45593999997E+02  0.45594000000E+02  0.51100000000E-03 0.  1.
         11   -1    0    0    0    0 -0.00000000000E+00 -0.00000000000E+00 -0.45593999997E+02  0.45594000000E+02  0.51100000000E-03 0. -1.
    9900012    2    1    2    0    0  0.67013756309E+00  0.52423654148E+01 -0.31445009781E+02  0.59301951019E+02  0.50000012751E+02 0.  0.
        -12    1    1    2    0    0 -0.67013756309E+00 -0.52423654148E+01  0.31445009781E+02  0.31886048981E+02  0.00000000000E+00 0.  1.
         11    1    3    3    0    0  0.18055057613E+00  0.11381565726E+02 -0.41179933342E+02  0.42724226701E+02  0.51100000000E-03 0. -1.
        -11    1    3    3    0    0  0.55711146240E+01 -0.59711215667E+01  0.47006669910E+01  0.94227321590E+01  0.51100000000E-03 0.  1.
         12    1    3    3    0    0 -0.50815276371E+01 -0.16807874471E+00  0.50342565700E+01  0.71549921596E+01  0.00000000000E+00 0. -1.
</event>
<event>
 7    1  0.1052674E-011  0.5930194E+02  0.7816164E-02  0.1266605E+00
        -11   -1    0    0    0    0  0.00000000000E+00  0.00000000000E+00  0.45593999997E+02  0.45594000000E+02  0.51100000000E-03 0. -1.
         11   -1    0    0    0    0 -0.00000000000E+00 -0.00000000000E+00 -0.45593999997E+02  0.45594000000E+02  0.51100000000E-03 0.  1.
    9900012    2    1    2    0    0  0.62653322695E+01 -0.72845805565E+01  0.30403970238E+02  0.59301938647E+02  0.49999990188E+02 0.  0.
        -12    1    1    2    0    0 -0.62653322695E+01  0.72845805565E+01 -0.30403970238E+02  0.31886061353E+02  0.00000000000E+00 0.  1.
         11    1    3    3    0    0 -0.34177739417E+01 -0.66592423042E+01  0.20667673896E+02  0.21981342801E+02  0.51100000000E-03 0. -1.
        -11    1    3    3    0    0  0.68321732309E+01 -0.10125686044E+02 -0.96348943507E+01  0.15557612231E+02  0.51100000000E-03 0.  1.
        -12    1    3    3    0    0  0.28509329804E+01  0.95003477914E+01  0.19371190693E+02  0.21762983616E+02  0.00000000000E+00 0.  1.
</event>
<event>
 7    1  0.1052674E-011  0.5930193E+02  0.7816164E-02  0.1266605E+00
        -11   -1    0    0    0    0  0.00000000000E+00  0.00000000000E+00  0.45593999997E+02  0.45594000000E+02  0.51100000000E-03 0.  1.
         11   -1    0    0    0    0 -0.00000000000E+00 -0.00000000000E+00 -0.45593999997E+02  0.45594000000E+02  0.51100000000E-03 0. -1.
    9900012    2    1    2    0    0  0.12301241408E+02  0.23505867646E+02 -0.17688282067E+02  0.59301926606E+02  0.49999968227E+02 0.  0.
        -12    1    1    2    0    0 -0.12301241408E+02 -0.23505867646E+02  0.17688282067E+02  0.31886073394E+02  0.00000000000E+00 0.  1.
         11    1    3    3    0    0 -0.29075437720E+01  0.26432143728E+02 -0.29575690535E+02  0.39772270538E+02  0.51100000000E-03 0. -1.
        -11    1    3    3    0    0  0.14527378617E+02 -0.28408519095E+01  0.11466347357E+02  0.18724109886E+02  0.51100000000E-03 0.  1.
         12    1    3    3    0    0  0.68140656314E+00 -0.85424172306E-01  0.42106110992E+00  0.80554618228E+00  0.00000000000E+00 0. -1.
</event>
<event>
 7    1  0.1052674E-011  0.5930195E+02  0.7816164E-02  0.1266605E+00
        -11   -1    0    0    0    0  0.00000000000E+00  0.00000000000E+00  0.45593999997E+02  0.45594000000E+02  0.51100000000E-03 0. -1.
         11   -1    0    0    0    0 -0.00000000000E+00 -0.00000000000E+00 -0.45593999997E+02  0.45594000000E+02  0.51100000000E-03 0.  1.
    9900012    2    1    2    0    0 -0.57600934387E+01  0.16655533565E+02  0.26573195413E+02  0.59301949928E+02  0.50000010761E+02 0.  0.
        -12    1    1    2    0    0  0.57600934387E+01 -0.16655533565E+02 -0.26573195413E+02  0.31886050072E+02  0.00000000000E+00 0.  1.
         11    1    3    3    0    0 -0.11119165170E+02  0.37863317745E+01 -0.90626151958E+01  0.14835873309E+02  0.51100000000E-03 0.  1.
        -11    1    3    3    0    0  0.50103552031E+01  0.18249335576E+02  0.18355005811E+02  0.26363765794E+02  0.51100000000E-03 0. -1.
         12    1    3    3    0    0  0.34871652862E+00 -0.53801337856E+01  0.17280804797E+02  0.18102310825E+02  0.00000000000E+00 0. -1.
</event>
<event>
 7    1  0.1052674E-011  0.5930202E+02  0.7816164E-02  0.1266604E+00
        -11   -1    0    0    0    0  0.00000000000E+00  0.00000000000E+00  0.45593999997E+02  0.45594000000E+02  0.51100000000E-03 0.  1.
         11   -1    0    0    0    0 -0.00000000000E+00 -0.00000000000E+00 -0.45593999997E+02  0.45594000000E+02  0.51100000000E-03 0. -1.
    9900012    2    1    2    0    0 -0.24450767055E+02  0.13069250839E+02  0.15750248169E+02  0.59302021193E+02  0.50000140731E+02 0.  0.
        -12    1    1    2    0    0  0.24450767055E+02 -0.13069250839E+02 -0.15750248169E+02  0.31885978807E+02  0.00000000000E+00 0.  1.
         11    1    3    3    0    0  0.35955333077E+01 -0.69724042671E+01 -0.79078698954E+01  0.11138971567E+02  0.51100000000E-03 0. -1.
        -11    1    3    3    0    0 -0.35176559242E+01  0.11944012524E+02  0.17722404886E+02  0.21659108328E+02  0.51100000000E-03 0.  1.
         12    1    3    3    0    0 -0.24528644439E+02  0.80976425825E+01  0.59357131785E+01  0.26503941298E+02  0.00000000000E+00 0. -1.
</event>
<event>
 7    1  0.1052674E-011  0.5930192E+02  0.7816164E-02  0.1266605E+00
        -11   -1    0    0    0    0  0.00000000000E+00  0.00000000000E+00  0.45593999997E+02  0.45594000000E+02  0.51100000000E-03 0.  1.
         11   -1    0    0    0    0 -0.00000000000E+00 -0.00000000000E+00 -0.45593999997E+02  0.45594000000E+02  0.51100000000E-03 0. -1.
    9900012    2    1    2    0    0  0.17786801582E+02 -0.80707188432E+01  0.25203481297E+02  0.59301917101E+02  0.49999950891E+02 0.  0.
        -12    1    1    2    0    0 -0.17786801582E+02  0.80707188432E+01 -0.25203481297E+02  0.31886082899E+02  0.00000000000E+00 0.  1.
         11    1    3    3    0    0 -0.26334015448E+01 -0.14482467035E+02 -0.53633105044E+01  0.15666580831E+02  0.51100000000E-03 0. -1.
        -11    1    3    3    0    0  0.21022907024E+02 -0.33894359031E+01  0.21741300949E+02  0.30432467246E+02  0.51100000000E-03 0.  1.
        -12    1    3    3    0    0 -0.60270389738E+00  0.98011840948E+01  0.88254908531E+01  0.13202869023E+02  0.00000000000E+00 0.  1.
</event>
<event>
 7    1  0.1052674E-011  0.5930196E+02  0.7816164E-02  0.1266605E+00
        -11   -1    0    0    0    0  0.00000000000E+00  0.00000000000E+00  0.45593999997E+02  0.45594000000E+02  0.51100000000E-03 0. -1.
         11   -1    0    0    0    0 -0.00000000000E+00 -0.00000000000E+00 -0.45593999997E+02  0.45594000000E+02  0.51100000000E-03 0.  1.
    9900012    2    1    2    0    0  0.23535762177E+02  0.21399528829E+02 -0.22017848606E+01  0.59301956157E+02  0.50000022121E+02 0.  0.
        -12    1    1    2    0    0 -0.23535762177E+02 -0.21399528829E+02  0.22017848606E+01  0.31886043843E+02  0.00000000000E+00 0.  1.
         11    1    3    3    0    0 -0.89276629032E+01  0.69563892075E+00  0.58331446998E+00  0.89737023827E+01  0.51100000000E-03 0.  1.
        -11    1    3    3    0    0  0.24963091741E+02  0.94824872280E+01  0.12882591848E+02  0.29648519125E+02  0.51100000000E-03 0. -1.
        -12    1    3    3    0    0  0.75003333388E+01  0.11221402681E+02 -0.15667691179E+02  0.20679734650E+02  0.00000000000E+00 0.  1.
</event>
<event>
 7    1  0.1052674E-011  0.5930193E+02  0.7816164E-02  0.1266605E+00
        -11   -1    0    0    0    0  0.00000000000E+00  0.00000000000E+00  0.45593999997E+02  0.45594000000E+02  0.51100000000E-03 0.  1.
         11   -1    0    0    0    0 -0.00000000000E+00 -0.00000000000E+00 -0.45593999997E+02  0.45594000000E+02  0.51100000000E-03 0. -1.
    9900012    2    1    2    0    0 -0.22572237154E+01 -0.31243141813E+02  0.59575727049E+01  0.59301927150E+02  0.49999969219E+02 0.  0.
        -12    1    1    2    0    0  0.22572237154E+01  0.31243141813E+02 -0.59575727049E+01  0.31886072850E+02  0.00000000000E+00 0.  1.
         11    1    3    3    0    0  0.19344271702E+01 -0.61268476345E+01 -0.20896966695E+02  0.21862376077E+02  0.51100000000E-03 0. -1.
        -11    1    3    3    0    0  0.13035976673E+01 -0.28662689362E+01  0.37383476160E+01  0.48877507764E+01  0.51100000000E-03 0.  1.
         12    1    3    3    0    0 -0.54952485529E+01 -0.22250025242E+02  0.23116191784E+02  0.32551800297E+02  0.00000000000E+00 0. -1.
</event>
<event>
 7    1  0.1052674E-011  0.5930194E+02  0.7816164E-02  0.1266605E+00
        -11   -1    0    0    0    0  0.00000000000E+00  0.00000000000E+00  0.45593999997E+02  0.45594000000E+02  0.51100000000E-03 0.  1.
         11   -1    0    0    0    0 -0.00000000000E+00 -0.00000000000E+00 -0.45593999997E+02  0.45594000000E+02  0.51100000000E-03 0. -1.
    9900012    2    1    2    0    0 -0.20641139473E+02 -0.75637417410E+01 -0.23096619864E+02  0.59301942279E+02  0.49999996811E+02 0.  0.
        -12    1    1    2    0    0  0.20641139473E+02  0.75637417410E+01  0.23096619864E+02  0.31886057721E+02  0.00000000000E+00 0.  1.
         11    1    3    3    0    0 -0.44465340871E+01  0.24357716153E+01 -0.12414873385E+02  0.13410209923E+02  0.51100000000E-03 0. -1.
        -11    1    3    3    0    0 -0.56390517249E+01 -0.90389621512E+01  0.14833299501E+02  0.18262763084E+02  0.51100000000E-03 0.  1.
        -12    1    3    3    0    0 -0.10555553661E+02 -0.96055120505E+00 -0.25515045980E+02  0.27628969272E+02  0.00000000000E+00 0.  1.
</event>
<event>
 7    1  0.1445555E-011  0.5930195E+02  0.7816164E-02  0.1266605E+00
        -11   -1    0    0    0    0  0.00000000000E+00  0.00000000000E+00  0.45593999997E+02  0.45594000000E+02  0.51100000000E-03 0.  1.
         11   -1    0    0    0    0 -0.00000000000E+00 -0.00000000000E+00 -0.45593999997E+02  0.45594000000E+02  0.51100000000E-03 0. -1.
    9900012    2    1    2    0    0  0.12343176529E+02  0.29351481887E+02 -0.16902561193E+01  0.59301945657E+02  0.50000002972E+02 0.  0.
        -12    1    1    2    0    0 -0.12343176529E+02 -0.29351481887E+02  0.16902561193E+01  0.31886054343E+02  0.00000000000E+00 0.  1.
         11    1    3    3    0    0  0.89364874449E-01  0.44145779064E+01 -0.16699579014E+02  0.17273460096E+02  0.51100000000E-03 0. -1.
        -11    1    3    3    0    0  0.13509624768E+01  0.29783617418E+01  0.17112419207E+02  0.17422130457E+02  0.51100000000E-03 0.  1.
         12    1    3    3    0    0  0.10902849177E+02  0.21958542239E+02 -0.21030963128E+01  0.24606355105E+02  0.00000000000E+00 0. -1.
</event>
<event>
 7    1  0.1052674E-011  0.5930194E+02  0.7816164E-02  0.1266605E+00
        -11   -1    0    0    0    0  0.00000000000E+00  0.00000000000E+00  0.45593999997E+02  0.45594000000E+02  0.51100000000E-03 0. -1.
         11   -1    0    0    0    0 -0.00000000000E+00 -0.00000000000E+00 -0.45593999997E+02  0.45594000000E+02  0.51100000000E-03 0.  1.
    9900012    2    1    2    0    0  0.22598950240E+02 -0.17338792023E+02  0.14330896228E+02  0.59301939606E+02  0.49999991935E+02 0.  0.
        -12    1    1    2    0    0 -0.22598950240E+02  0.17338792023E+02 -0.14330896228E+02  0.31886060394E+02  0.00000000000E+00 0.  1.
         11    1    3    3    0    0  0.65559065775E+01 -0.17057694039E+02  0.73804365963E+01  0.19708264297E+02  0.51100000000E-03 0. -1.
        -11    1    3    3    0    0 -0.10336837968E+02  0.33076948504E+01  0.71020660219E+01  0.12970366473E+02  0.51100000000E-03 0.  1.
        -12    1    3    3    0    0  0.26379881631E+02 -0.35887928336E+01 -0.15160638982E+00  0.26623308836E+02  0.00000000000E+00 0.  1.
</event>
<event>
 7    1  0.1052674E-011  0.5930195E+02  0.7816164E-02  0.1266605E+00
        -11   -1    0    0    0    0  0.00000000000E+00  0.00000000000E+00  0.45593999997E+02  0.45594000000E+02  0.51100000000E-03 0.  1.
         11   -1    0    0    0    0 -0.00000000000E+00 -0.00000000000E+00 -0.45593999997E+02  0.45594000000E+02  0.51100000000E-03 0. -1.
    9900012    2    1    2    0    0  0.79792753264E+01 -0.23829866223E+02 -0.19626235913E+02  0.59301945132E+02  0.50000002014E+02 0.  0.
        -12    1    1    2    0    0 -0.79792753264E+01  0.23829866223E+02  0.19626235913E+02  0.31886054868E+02  0.00000000000E+00 0.  1.
         11    1    3    3    0    0  0.23660756020E+01 -0.18322277091E+02 -0.34325993036E+02  0.38981764323E+02  0.51100000000E-03 0. -1.
        -11    1    3    3    0    0 -0.34868222136E+00  0.31865872156E+01  0.53111739800E+01  0.62035865982E+01  0.51100000000E-03 0.  1.
         12    1    3    3    0    0  0.59618819458E+01 -0.86941763470E+01  0.93885831430E+01  0.14116594211E+02  0.00000000000E+00 0. -1.
</event>
<event>
 7    1  0.1052674E-011  0.5930192E+02  0.7816164E-02  0.1266605E+00
        -11   -1    0    0    0    0  0.00000000000E+00  0.00000000000E+00  0.45593999997E+02  0.45594000000E+02  0.51100000000E-03 0. -1.
         11   -1    0    0    0    0 -0.00000000000E+00 -0.00000000000E+00 -0.45593999997E+02  0.45594000000E+02  0.51100000000E-03 0.  1.
    9900012    2    1    2    0    0  0.29479231747E+02  0.44920572826E+01  0.11292416663E+02  0.59301915933E+02  0.49999948762E+02 0.  0.
        -12    1    1    2    0    0 -0.29479231747E+02 -0.44920572826E+01 -0.11292416663E+02  0.31886084067E+02  0.00000000000E+00 0.  1.
         11    1    3    3    0    0  0.23497205220E+02 -0.92576989019E+01  0.28050009958E+01  0.25410463847E+02  0.51100000000E-03 0.  1.
        -11    1    3    3    0    0  0.54272167518E+00  0.42883690864E+01  0.18549981473E+02  0.19046954327E+02  0.51100000000E-03 0. -1.
         12    1    3    3    0    0  0.54393048527E+01  0.94613870980E+01 -0.10062565806E+02  0.14844497758E+02  0.00000000000E+00 0. -1.
</event>
<event>
 7    1  0.1052674E-011  0.5930200E+02  0.7816164E-02  0.1266605E+00
        -11   -1    0    0    0    0  0.00000000000E+00  0.00000000000E+00  0.45593999997E+02  0.45594000000E+02  0.51100000000E-03 0.  1.
         11   -1    0    0    0    0 -0.00000000000E+00 -0.00000000000E+00 -0.45593999997E+02  0.45594000000E+02  0.51100000000E-03 0. -1.
    9900012    2    1    2    0    0 -0.29806582167E+02 -0.70422028816E+01  0.88708412853E+01  0.59302003277E+02  0.50000108056E+02 0.  0.
        -12    1    1    2    0    0  0.29806582167E+02  0.70422028816E+01 -0.88708412853E+01  0.31885996723E+02  0.00000000000E+00 0.  1.
         11    1    3    3    0    0 -0.20172592824E+02  0.83772321921E+01  0.14408867636E+02  0.26167288497E+02  0.51100000000E-03 0. -1.
        -11    1    3    3    0    0 -0.55881952037E+01 -0.13228269538E+02  0.96260217276E+01  0.17288011314E+02  0.51100000000E-03 0.  1.
         12    1    3    3    0    0 -0.40457941396E+01 -0.21911655353E+01 -0.15164048078E+02  0.15846703466E+02  0.00000000000E+00 0. -1.
</event>
<event>
 7    1  0.1052674E-011  0.5930186E+02  0.7816164E-02  0.1266605E+00
        -11   -1    0    0    0    0  0.00000000000E+00  0.00000000000E+00  0.45593999997E+02  0.45594000000E+02  0.51100000000E-03 0.  1.
         11   -1    0    0    0    0 -0.00000000000E+00 -0.00000000000E+00 -0.45593999997E+02  0.45594000000E+02  0.51100000000E-03 0. -1.
    9900012    2    1    2    0    0 -0.15897902642E+02 -0.25612911030E+02 -0.10390447475E+02  0.59301860086E+02  0.49999846910E+02 0.  0.
        -12    1    1    2    0    0  0.15897902642E+02  0.25612911030E+02  0.10390447475E+02  0.31886139914E+02  0.00000000000E+00 0.  1.
         11    1    3    3    0    0 -0.17939452965E+02 -0.47129243581E+01 -0.76649038828E+01  0.20069538622E+02  0.51100000000E-03 0. -1.
        -11    1    3    3    0    0 -0.36931389213E+01 -0.26672659842E+02 -0.95927848918E+01  0.28584813807E+02  0.51100000000E-03 0.  1.
        -12    1    3    3    0    0  0.57346892443E+01  0.57726731696E+01  0.68672412993E+01  0.10647507657E+02  0.00000000000E+00 0.  1.
</event>
<event>
 7    1  0.1052674E-011  0.5930195E+02  0.7816164E-02  0.1266605E+00
        -11   -1    0    0    0    0  0.00000000000E+00  0.00000000000E+00  0.45593999997E+02  0.45594000000E+02  0.51100000000E-03 0.  1.
         11   -1    0    0    0    0 -0.00000000000E+00 -0.00000000000E+00 -0.45593999997E+02  0.45594000000E+02  0.51100000000E-03 0. -1.
    9900012    2    1    2    0    0  0.12852383750E+02  0.58392457288E+01 -0.28590902756E+02  0.59301948518E+02  0.50000008189E+02 0.  0.
        -12    1    1    2    0    0 -0.12852383750E+02 -0.58392457288E+01  0.28590902756E+02  0.31886051482E+02  0.00000000000E+00 0.  1.
         11    1    3    3    0    0  0.11164262330E+02  0.17487633973E+02 -0.19760494674E+02  0.28651967566E+02  0.51100000000E-03 0. -1.
        -11    1    3    3    0    0  0.10037486447E+02 -0.16000129352E+02 -0.19496598232E+01  0.18988323968E+02  0.51100000000E-03 0.  1.
         12    1    3    3    0    0 -0.83493650269E+01  0.43517411069E+01 -0.68807482587E+01  0.11661656984E+02  0.00000000000E+00 0. -1.
</event>
<event>
 7    1  0.1052674E-011  0.5930194E+02  0.7816164E-02  0.1266605E+00
        -11   -1    0    0    0    0  0.00000000000E+00  0.00000000000E+00  0.45593999997E+02  0.45594000000E+02  0.51100000000E-03 0. -1.
         11   -1    0    0    0    0 -0.00000000000E+00 -0.00000000000E+00 -0.45593999997E+02  0.45594000000E+02  0.51100000000E-03 0.  1.
    9900012    2    1    2    0    0 -0.31552023626E+02  0.12884629614E+01  0.44193594200E+01  0.59301936126E+02  0.49999985590E+02 0.  0.
        -12    1    1    2    0    0  0.31552023626E+02 -0.12884629614E+01 -0.44193594200E+01  0.31886063874E+02  0.00000000000E+00 0.  1.
         11    1    3    3    0    0  0.64139493892E+01 -0.13090199526E+02  0.35254581710E+01  0.14997363967E+02  0.51100000000E-03 0.  1.
        -11    1    3    3    0    0 -0.19863193598E+01  0.69214282898E+01  0.22232254135E+01  0.75362036643E+01  0.51100000000E-03 0. -1.
         12    1    3    3    0    0 -0.35979653655E+02  0.74572341975E+01 -0.13293241646E+01  0.36768368495E+02  0.00000000000E+00 0. -1.
</event>
<event>
 7    1  0.1052674E-011  0.5930199E+02  0.7816164E-02  0.1266605E+00
        -11   -1    0    0    0    0  0.00000000000E+00  0.00000000000E+00  0.45593999997E+02  0.45594000000E+02  0.51100000000E-03 0. -1.
         11   -1    0    0    0    0 -0.00000000000E+00 -0.00000000000E+00 -0.45593999997E+02  0.45594000000E+02  0.51100000000E-03 0.  1.
    9900012    2    1    2    0    0  0.21280674586E+02  0.18890200525E+02  0.14387878677E+02  0.59301986772E+02  0.50000077956E+02 0.  0.
        -12    1    1    2    0    0 -0.21280674586E+02 -0.18890200525E+02 -0.14387878677E+02  0.31886013228E+02  0.00000000000E+00 0.  1.
         11    1    3    3    0    0  0.11999048138E+02 -0.18061263580E+01 -0.14824266044E+02  0.19157194801E+02  0.51100000000E-03 0.  1.
        -11    1    3    3    0    0  0.13060804726E+02  0.19408768191E+02  0.23357433814E+02  0.33058351704E+02  0.51100000000E-03 0. -1.
        -12    1    3    3    0    0 -0.37791782784E+01  0.12875586921E+01  0.58547109076E+01  0.70864402669E+01  0.00000000000E+00 0.  1.
</event>
<event>
 7    1  0.1052674E-011  0.5930194E+02  0.7816164E-02  0.1266605E+00
        -11   -1    0    0    0    0  0.00000000000E+00  0.00000000000E+00  0.45593999997E+02  0.45594000000E+02  0.51100000000E-03 0.  1.
         11   -1    0    0    0    0 -0.00000000000E+00 -0.00000000000E+00 -0.45593999997E+02  0.45594000000E+02  0.51100000000E-03 0. -1.
    9900012    2    1    2    0    0  0.97458096591E+01  0.18913595327E+02 -0.23749023672E+02  0.59301936908E+02  0.49999987015E+02 0.  0.
        -12    1    1    2    0    0 -0.97458096591E+01 -0.18913595327E+02  0.23749023672E+02  0.31886063092E+02  0.00000000000E+00 0.  1.
         11    1    3    3    0    0  0.13610170637E+01  0.33850545814E+02 -0.11206230791E+02  0.35683209331E+02  0.51100000000E-03 0. -1.
        -11    1    3    3    0    0  0.47269514897E+01 -0.87701825453E+01 -0.97694026184E+00  0.10010723490E+02  0.51100000000E-03 0.  1.
         12    1    3    3    0    0  0.36578411057E+01 -0.61667679416E+01 -0.11565852620E+02  0.13608004087E+02  0.00000000000E+00 0. -1.
</event>
<event>
 7    1  0.1052674E-011  0.5930192E+02  0.7816164E-02  0.1266605E+00
        -11   -1    0    0    0    0  0.00000000000E+00  0.00000000000E+00  0.45593999997E+02  0.45594000000E+02  0.51100000000E-03 0. -1.
         11   -1    0    0    0    0 -0.00000000000E+00 -0.00000000000E+00 -0.45593999997E+02  0.45594000000E+02  0.51100000000E-03 0.  1.
    9900012    2    1    2    0    0 -0.14293697243E+02 -0.28436443481E+02  0.19444134316E+01  0.59301924006E+02  0.49999963485E+02 0.  0.
        -12    1    1    2    0    0  0.14293697243E+02  0.28436443481E+02 -0.19444134316E+01  0.31886075994E+02  0.00000000000E+00 0.  1.
         11    1    3    3    0    0 -0.88510446841E+01 -0.24167575892E+02 -0.21679561191E+01  0.25828525907E+02  0.51100000000E-03 0. -1.
        -11    1    3    3    0    0 -0.89756018080E+01  0.12273211803E+02 -0.23110895366E+01  0.15379671351E+02  0.51100000000E-03 0.  1.
        -12    1    3    3    0    0  0.35329492494E+01 -0.16542079391E+02  0.64234590872E+01  0.18093726748E+02  0.00000000000E+00 0.  1.
</event>
<event>
 7    1  0.1052674E-011  0.5930194E+02  0.7816164E-02  0.1266605E+00
        -11   -1    0    0    0    0  0.00000000000E+00  0.00000000000E+00  0.45593999997E+02  0.45594000000E+02  0.51100000000E-03 0.  1.
         11   -1    0    0    0    0 -0.00000000000E+00 -0.00000000000E+00 -0.45593999997E+02  0.45594000000E+02  0.51100000000E-03 0. -1.
    9900012    2    1    2    0    0  0.56303374049E+01 -0.41040324356E+01 -0.31115540761E+02  0.59301942570E+02  0.49999997342E+02 0.  0.
        -12    1    1    2    0    0 -0.56303374049E+01  0.41040324356E+01  0.31115540761E+02  0.31886057430E+02  0.00000000000E+00 0.  1.
         11    1    3    3    0    0  0.11979701163E+02  0.17587129482E+02 -0.28894044763E+02  0.35884344586E+02  0.51100000000E-03 0. -1.
        -11    1    3    3    0    0 -0.15809073535E+01 -0.11005947228E+02  0.13088468068E+01  0.11195678750E+02  0.51100000000E-03 0.  1.
         12    1    3    3    0    0 -0.47684564044E+01 -0.10685214690E+02 -0.35303428052E+01  0.12221919234E+02  0.00000000000E+00 0. -1.
</event>
<event>
 7    1  0.1052674E-011  0.5930195E+02  0.7816164E-02  0.1266605E+00
        -11   -1    0    0    0    0  0.00000000000E+00  0.00000000000E+00  0.45593999997E+02  0.45594000000E+02  0.51100000000E-03 0.  1.
         11   -1    0    0    0    0 -0.00000000000E+00 -0.00000000000E+00 -0.45593999997E+02  0.45594000000E+02  0.51100000000E-03 0. -1.
    9900012    2    1    2    0    0 -0.20739168563E+02  0.17492311656E+02 -0.16751892199E+02  0.59301953334E+02  0.50000016973E+02 0.  0.
        -12    1    1    2    0    0  0.20739168563E+02 -0.17492311656E+02  0.16751892199E+02  0.31886046666E+02  0.00000000000E+00 0.  1.
         11    1    3    3    0    0 -0.10930461635E+02 -0.55535534016E+01  0.98338290248E+01  0.15716906199E+02  0.51100000000E-03 0.  1.
        -11    1    3    3    0    0 -0.15320408170E+02  0.57941037300E+01 -0.11486776113E+02  0.20005813412E+02  0.51100000000E-03 0. -1.
         12    1    3    3    0    0  0.55117012425E+01  0.17251761327E+02 -0.15098945111E+02  0.23579233723E+02  0.00000000000E+00 0. -1.
</event>
<event>
 7    1  0.1052674E-011  0.5930198E+02  0.7816164E-02  0.1266605E+00
        -11   -1    0    0    0    0  0.00000000000E+00  0.00000000000E+00  0.45593999997E+02  0.45594000000E+02  0.51100000000E-03 0.  1.
         11   -1    0    0    0    0 -0.00000000000E+00 -0.00000000000E+00 -0.45593999997E+02  0.45594000000E+02  0.51100000000E-03 0. -1.
    9900012    2    1    2    0    0 -0.14278691934E+02 -0.14725042970E+02 -0.24413325814E+02  0.59301977810E+02  0.50000061610E+02 0.  0.
        -12    1    1    2    0    0  0.14278691934E+02  0.14725042970E+02  0.24413325814E+02  0.31886022190E+02  0.00000000000E+00 0.  1.
         11    1    3    3    0    0 -0.24389463567E+02 -0.15680143201E+02 -0.13498720006E+02  0.31983249772E+02  0.51100000000E-03 0. -1.
        -11    1    3    3    0    0  0.10529647190E+02  0.63226730474E+01 -0.15824925321E+02  0.20031922676E+02  0.51100000000E-03 0.  1.
        -12    1    3    3    0    0 -0.41887555652E+00 -0.53675728164E+01  0.49103195125E+01  0.72868053622E+01  0.00000000000E+00 0.  1.
</event>
<event>
 7    1  0.1052674E-011  0.5930195E+02  0.7816164E-02  0.1266605E+00
        -11   -1    0    0    0    0  0.00000000000E+00  0.00000000000E+00  0.45593999997E+02  0.45594000000E+02  0.51100000000E-03 0.  1.
         11   -1    0    0    0    0 -0.00000000000E+00 -0.00000000000E+00 -0.45593999997E+02  0.45594000000E+02  0.51100000000E-03 0. -1.
    9900012    2    1    2    0    0  0.13199061381E+02 -0.27407343940E+02 -0.95573272967E+01  0.59301949316E+02  0.50000009644E+02 0.  0.
        -12    1    1    2    0    0 -0.13199061381E+02  0.27407343940E+02  0.95573272967E+01  0.31886050684E+02  0.00000000000E+00 0.  1.
         11    1    3    3    0    0  0.18295624772E+02 -0.36953529521E+02 -0.79351130691E+01  0.41991180616E+02  0.51100000000E-03 0. -1.
        -11    1    3    3    0    0 -0.82759971564E+01  0.19827200603E+01 -0.29345038664E+01  0.90019231819E+01  0.51100000000E-03 0.  1.
         12    1    3    3    0    0  0.31794337655E+01  0.75634655204E+01  0.13122896388E+01  0.83088455181E+01  0.00000000000E+00 0. -1.
</event>
<event>
 7    1  0.1052674E-011  0.5930196E+02  0.7816164E-02  0.1266605E+00
        -11   -1    0    0    0    0  0.00000000000E+00  0.00000000000E+00  0.45593999997E+02  0.45594000000E+02  0.51100000000E-03 0.  1.
         11   -1    0    0    0    0 -0.00000000000E+00 -0.00000000000E+00 -0.45593999997E+02  0.45594000000E+02  0.51100000000E-03 0. -1.
    9900012    2    1    2    0    0 -0.20461149234E+02  0.57817969768E+01 -0.23761983948E+02  0.59301957828E+02  0.50000025168E+02 0.  0.
        -12    1    1    2    0    0  0.20461149234E+02 -0.57817969768E+01  0.23761983948E+02  0.31886042172E+02  0.00000000000E+00 0.  1.
         11    1    3    3    0    0 -0.89252081095E+01  0.18243961000E+02 -0.24426813582E+02  0.31767446778E+02  0.51100000000E-03 0. -1.
        -11    1    3    3    0    0 -0.91820925237E+01 -0.10791184937E+01  0.92544413184E+01  0.13081284502E+02  0.51100000000E-03 0.  1.
        -12    1    3    3    0    0 -0.23538486011E+01 -0.11383045529E+02 -0.85896116844E+01  0.14453226548E+02  0.00000000000E+00 0.  1.
</event>
<event>
 7    1  0.1052674E-011  0.5930194E+02  0.7816164E-02  0.1266605E+00
        -11   -1    0    0    0    0  0.00000000000E+00  0.00000000000E+00  0.45593999997E+02  0.45594000000E+02  0.51100000000E-03 0.  1.
         11   -1    0    0    0    0 -0.00000000000E+00 -0.00000000000E+00 -0.45593999997E+02  0.45594000000E+02  0.51100000000E-03 0. -1.
    9900012    2    1    2    0    0  0.23127814852E+02 -0.21887325691E+02 -0.16643926652E+01  0.59301936450E+02  0.49999986181E+02 0.  0.
        -12    1    1    2    0    0 -0.23127814852E+02  0.21887325691E+02  0.16643926652E+01  0.31886063550E+02  0.00000000000E+00 0.  1.
         11    1    3    3    0    0  0.13996794968E+02 -0.27740010551E+02 -0.72740123106E+01  0.31911278729E+02  0.51100000000E-03 0. -1.
        -11    1    3    3    0    0  0.15219132669E+02  0.85893297404E+01 -0.16203266050E+01  0.17550613755E+02  0.51100000000E-03 0.  1.
        -12    1    3    3    0    0 -0.60881127854E+01 -0.27366448806E+01  0.72299462504E+01  0.98400439671E+01  0.00000000000E+00 0.  1.
</event>
<event>
 7    1  0.1052674E-011  0.5930195E+02  0.7816164E-02  0.1266605E+00
        -11   -1    0    0    0    0  0.00000000000E+00  0.00000000000E+00  0.45593999997E+02  0.45594000000E+02  0.51100000000E-03 0.  1.
         11   -1    0    0    0    0 -0.00000000000E+00 -0.00000000000E+00 -0.45593999997E+02  0.45594000000E+02  0.51100000000E-03 0. -1.
    9900012    2    1    2    0    0 -0.28762833032E+01  0.84709650693E+01 -0.30605386578E+02  0.59301953798E+02  0.50000017818E+02 0.  0.
        -12    1    1    2    0    0  0.28762833032E+01 -0.84709650693E+01  0.30605386578E+02  0.31886046202E+02  0.00000000000E+00 0.  1.
         11    1    3    3    0    0  0.99871809347E+01 -0.80157573176E+01 -0.20680073734E+02  0.24324095015E+02  0.51100000000E-03 0. -1.
        -11    1    3    3    0    0 -0.29909148791E+01  0.17582568924E+02  0.36020011420E+01  0.18195238780E+02  0.51100000000E-03 0.  1.
        -12    1    3    3    0    0 -0.98725493588E+01 -0.10958465371E+01 -0.13527313985E+02  0.16782620002E+02  0.00000000000E+00 0.  1.
</event>
<event>
 7    1  0.1052674E-011  0.5930192E+02  0.7816164E-02  0.1266605E+00
        -11   -1    0    0    0    0  0.00000000000E+00  0.00000000000E+00  0.45593999997E+02  0.45594000000E+02  0.51100000000E-03 0. -1.
         11   -1    0    0    0    0 -0.00000000000E+00 -0.00000000000E+00 -0.45593999997E+02  0.45594000000E+02  0.51100000000E-03 0.  1.
    9900012    2    1    2    0    0  0.17401006375E+02 -0.87698587869E+01  0.25239185557E+02  0.59301922575E+02  0.49999960875E+02 0.  0.
        -12    1    1    2    0    0 -0.17401006375E+02  0.87698587869E+01 -0.25239185557E+02  0.31886077425E+02  0.00000000000E+00 0.  1.
         11    1    3    3    0    0  0.14211272465E+02  0.50765538047E+01  0.21798039451E+02  0.26512000826E+02  0.51100000000E-03 0. -1.
        -11    1    3    3    0    0 -0.11449802799E+02 -0.13843815649E+02  0.16375147396E+01  0.18039697077E+02  0.51100000000E-03 0.  1.
        -12    1    3    3    0    0  0.14639536708E+02 -0.25969426793E-02  0.18036313658E+01  0.14750224672E+02  0.00000000000E+00 0.  1.
</event>
<event>
 7    1  0.1052674E-011  0.5930196E+02  0.7816164E-02  0.1266605E+00
        -11   -1    0    0    0    0  0.00000000000E+00  0.00000000000E+00  0.45593999997E+02  0.45594000000E+02  0.51100000000E-03 0.  1.
         11   -1    0    0    0    0 -0.00000000000E+00 -0.00000000000E+00 -0.45593999997E+02  0.45594000000E+02  0.51100000000E-03 0. -1.
    9900012    2    1    2    0    0  0.26978321751E+02  0.31991809513E+01 -0.16692970036E+02  0.59301955217E+02  0.50000020407E+02 0.  0.
        -12    1    1    2    0    0 -0.26978321751E+02 -0.31991809513E+01  0.16692970036E+02  0.31886044783E+02  0.00000000000E+00 0.  1.
         11    1    3    3    0    0  0.10197894551E+02  0.16136023555E+02 -0.10929752438E+02  0.21996085971E+02  0.51100000000E-03 0. -1.
        -11    1    3    3    0    0 -0.11700411612E+01 -0.17125737470E+02  0.20459300043E+01  0.17287154481E+02  0.51100000000E-03 0.  1.
        -12    1    3    3    0    0  0.17950468361E+02  0.41888948658E+01 -0.78091476028E+01  0.20018714765E+02  0.00000000000E+00 0.  1.
</event>
<event>
 7    1  0.1052674E-011  0.5930194E+02  0.7816164E-02  0.1266605E+00
        -11   -1    0    0    0    0  0.00000000000E+00  0.00000000000E+00  0.45593999997E+02  0.45594000000E+02  0.51100000000E-03 0.  1.
         11   -1    0    0    0    0 -0.00000000000E+00 -0.00000000000E+00 -0.45593999997E+02  0.45594000000E+02  0.51100000000E-03 0. -1.
    9900012    2    1    2    0    0  0.17179032082E+02  0.10212750024E+02 -0.24845551299E+02  0.59301939948E+02  0.49999992559E+02 0.  0.
        -12    1    1    2    0    0 -0.17179032082E+02 -0.10212750024E+02  0.24845551299E+02  0.31886060052E+02  0.00000000000E+00 0.  1.
         11    1    3    3    0    0  0.52893437920E+01 -0.72472566206E+00 -0.13794974306E+02  0.14792014785E+02  0.51100000000E-03 0. -1.
        -11    1    3    3    0    0 -0.11999016853E+02  0.14128153422E+02 -0.15377860916E+01  0.18599621256E+02  0.51100000000E-03 0.  1.
        -12    1    3    3    0    0  0.23888705143E+02 -0.31906777363E+01 -0.95127909014E+01  0.25910303907E+02  0.00000000000E+00 0.  1.
</event>
<event>
 7    1  0.1052674E-011  0.5930194E+02  0.7816164E-02  0.1266605E+00
        -11   -1    0    0    0    0  0.00000000000E+00  0.00000000000E+00  0.45593999997E+02  0.45594000000E+02  0.51100000000E-03 0.  1.
         11   -1    0    0    0    0 -0.00000000000E+00 -0.00000000000E+00 -0.45593999997E+02  0.45594000000E+02  0.51100000000E-03 0. -1.
    9900012    2    1    2    0    0 -0.14551875289E+02 -0.24592662784E+01 -0.28265102560E+02  0.59301935837E+02  0.49999985063E+02 0.  0.
        -12    1    1    2    0    0  0.14551875289E+02  0.24592662784E+01  0.28265102560E+02  0.31886064163E+02  0.00000000000E+00 0.  1.
         11    1    3    3    0    0  0.84667404335E+01  0.13640696204E+02 -0.76753770009E+01  0.17795103227E+02  0.51100000000E-03 0. -1.
        -11    1    3    3    0    0 -0.26056174665E+02 -0.99529175774E+01 -0.20558430306E+02  0.34650163973E+02  0.51100000000E-03 0.  1.
        -12    1    3    3    0    0  0.30375589429E+01 -0.61470449054E+01 -0.31295253372E-01  0.68566686366E+01  0.00000000000E+00 0.  1.
</event>
<event>
 7    1  0.1052674E-011  0.5930194E+02  0.7816164E-02  0.1266605E+00
        -11   -1    0    0    0    0  0.00000000000E+00  0.00000000000E+00  0.45593999997E+02  0.45594000000E+02  0.51100000000E-03 0.  1.
         11   -1    0    0    0    0 -0.00000000000E+00 -0.00000000000E+00 -0.45593999997E+02  0.45594000000E+02  0.51100000000E-03 0. -1.
    9900012    2    1    2    0    0  0.22103910888E+02  0.17370246925E+02 -0.15047004050E+02  0.59301942143E+02  0.49999996563E+02 0.  0.
        -12    1    1    2    0    0 -0.22103910888E+02 -0.17370246925E+02  0.15047004050E+02  0.31886057857E+02  0.00000000000E+00 0.  1.
         11    1    3    3    0    0 -0.88893022044E+01  0.13216361965E+02 -0.14673322184E+02  0.21656368612E+02  0.51100000000E-03 0. -1.
        -11    1    3    3    0    0  0.11536963489E+02 -0.14619746612E+01  0.95929826990E+01  0.15075284866E+02  0.51100000000E-03 0.  1.
         12    1    3    3    0    0  0.19456249603E+02  0.56158596204E+01 -0.99666645655E+01  0.22570288666E+02  0.00000000000E+00 0. -1.
</event>
<event>
 7    1  0.1052674E-011  0.5930195E+02  0.7816164E-02  0.1266605E+00
        -11   -1    0    0    0    0  0.00000000000E+00  0.00000000000E+00  0.45593999997E+02  0.45594000000E+02  0.51100000000E-03 0. -1.
         11   -1    0    0    0    0 -0.00000000000E+00 -0.00000000000E+00 -0.45593999997E+02  0.45594000000E+02  0.51100000000E-03 0.  1.
    9900012    2    1    2    0    0 -0.63287989558E+01 -0.14730025488E+02  0.27562530301E+02  0.59301946251E+02  0.50000004055E+02 0.  0.
        -12    1    1    2    0    0  0.63287989558E+01  0.14730025488E+02 -0.27562530301E+02  0.31886053749E+02  0.00000000000E+00 0.  1.
         11    1    3    3    0    0 -0.13491573449E+02 -0.15391319116E+02  0.13460891610E+02  0.24497160273E+02  0.51100000000E-03 0. -1.
        -11    1    3    3    0    0  0.78199141569E+01  0.15188299713E+02  0.56929124668E+01  0.18006797556E+02  0.51100000000E-03 0.  1.
        -12    1    3    3    0    0 -0.65713966420E+00 -0.14527006085E+02  0.84087262240E+01  0.16797988423E+02  0.00000000000E+00 0.  1.
</event>
<event>
 7    1  0.1052674E-011  0.5930195E+02  0.7816164E-02  0.1266605E+00
        -11   -1    0    0    0    0  0.00000000000E+00  0.00000000000E+00  0.45593999997E+02  0.45594000000E+02  0.51100000000E-03 0. -1.
         11   -1    0    0    0    0 -0.00000000000E+00 -0.00000000000E+00 -0.45593999997E+02  0.45594000000E+02  0.51100000000E-03 0.  1.
    9900012    2    1    2    0    0 -0.20075560926E+02 -0.22104560629E+02  0.11183950353E+02  0.59301945171E+02  0.50000002084E+02 0.  0.
        -12    1    1    2    0    0  0.20075560926E+02  0.22104560629E+02 -0.11183950353E+02  0.31886054829E+02  0.00000000000E+00 0.  1.
         11    1    3    3    0    0  0.11680182058E+01 -0.30356310787E+02 -0.52740107807E+01  0.30833181171E+02  0.51100000000E-03 0. -1.
        -11    1    3    3    0    0 -0.49599257649E+01  0.92572368875E+00  0.57437576837E+01  0.76451671356E+01  0.51100000000E-03 0.  1.
         12    1    3    3    0    0 -0.16283653367E+02  0.73260264692E+01  0.10714203450E+02  0.20823596864E+02  0.00000000000E+00 0. -1.
</event>
<event>
 7    1  0.1052674E-011  0.5930195E+02  0.7816164E-02  0.1266605E+00
        -11   -1    0    0    0    0  0.00000000000E+00  0.00000000000E+00  0.45593999997E+02  0.45594000000E+02  0.51100000000E-03 0.  1.
         11   -1    0    0    0    0 -0.00000000000E+00 -0.00000000000E+00 -0.45593999997E+02  0.45594000000E+02  0.51100000000E-03 0. -1.
    9900012    2    1    2    0    0  0.55046126433E+01 -0.68261493753E+01 -0.30656537338E+02  0.59301947294E+02  0.50000005956E+02 0.  0.
        -12    1    1    2    0    0 -0.55046126433E+01  0.68261493753E+01  0.30656537338E+02  0.31886052706E+02  0.00000000000E+00 0.  1.
         11    1    3    3    0    0 -0.14232318930E+02  0.90144937361E+01 -0.28294615039E+02  0.32930308834E+02  0.51100000000E-03 0. -1.
        -11    1    3    3    0    0  0.91205466298E+01 -0.47792159919E+01  0.18728353754E+01  0.10465791367E+02  0.51100000000E-03 0.  1.
        -12    1    3    3    0    0  0.10616384944E+02 -0.11061427119E+02 -0.42347576743E+01  0.15905847093E+02  0.00000000000E+00 0.  1.
</event>
<event>
 7    1  0.1052674E-011  0.5930194E+02  0.7816164E-02  0.1266605E+00
        -11   -1    0    0    0    0  0.00000000000E+00  0.00000000000E+00  0.45593999997E+02  0.45594000000E+02  0.51100000000E-03 0.  1.
         11   -1    0    0    0    0 -0.00000000000E+00 -0.00000000000E+00 -0.45593999997E+02  0.45594000000E+02  0.51100000000E-03 0. -1.
    9900012    2    1    2    0    0 -0.24378232754E+02 -0.11136301486E+01  0.20522733647E+02  0.59301937204E+02  0.49999987554E+02 0.  0.
        -12    1    1    2    0    0  0.24378232754E+02  0.11136301486E+01 -0.20522733647E+02  0.31886062796E+02  0.00000000000E+00 0.  1.
         11    1    3    3    0    0 -0.11121252999E+02  0.16041282675E+02 -0.88405878891E+01  0.21428042669E+02  0.51100000000E-03 0. -1.
        -11    1    3    3    0    0 -0.84348058013E+01 -0.15775545075E+02  0.17642930390E+02  0.25125420680E+02  0.51100000000E-03 0.  1.
         12    1    3    3    0    0 -0.48221739531E+01 -0.13793677480E+01  0.11720391146E+02  0.12748473855E+02  0.00000000000E+00 0. -1.
</event>
<event>
 7    1  0.1052674E-011  0.5930183E+02  0.7816164E-02  0.1266605E+00
        -11   -1    0    0    0    0  0.00000000000E+00  0.00000000000E+00  0.45593999997E+02  0.45594000000E+02  0.51100000000E-03 0.  1.
         11   -1    0    0    0    0 -0.00000000000E+00 -0.00000000000E+00 -0.45593999997E+02  0.45594000000E+02  0.51100000000E-03 0. -1.
    9900012    2    1    2    0    0 -0.23901281271E+01 -0.26941370403E+02  0.16887201210E+02  0.59301831896E+02  0.49999795498E+02 0.  0.
        -12    1    1    2    0    0  0.23901281271E+01  0.26941370403E+02 -0.16887201210E+02  0.31886168104E+02  0.00000000000E+00 0.  1.
         11    1    3    3    0    0  0.47305700065E+01 -0.68579329635E+00 -0.97148337046E+01  0.10827123311E+02  0.51100000000E-03 0. -1.
        -11    1    3    3    0    0  0.24047298592E+01 -0.28397859706E+01  0.22571647845E+02  0.22876328306E+02  0.51100000000E-03 0.  1.
         12    1    3    3    0    0 -0.95254279927E+01 -0.23415791136E+02  0.40303870695E+01  0.25598380279E+02  0.00000000000E+00 0. -1.
</event>
<event>
 7    1  0.1052674E-011  0.5930202E+02  0.7816164E-02  0.1266604E+00
        -11   -1    0    0    0    0  0.00000000000E+00  0.00000000000E+00  0.45593999997E+02  0.45594000000E+02  0.51100000000E-03 0. -1.
         11   -1    0    0    0    0 -0.00000000000E+00 -0.00000000000E+00 -0.45593999997E+02  0.45594000000E+02  0.51100000000E-03 0.  1.
    9900012    2    1    2    0    0 -0.26093860134E+02 -0.18105340198E+02 -0.28324496336E+01  0.59302021086E+02  0.50000140536E+02 0.  0.
        -12    1    1    2    0    0  0.26093860134E+02  0.18105340198E+02  0.28324496336E+01  0.31885978914E+02  0.00000000000E+00 0.  1.
         11    1    3    3    0    0  0.64608260964E+01  0.18982687869E+01  0.23443646901E+01  0.71303397042E+01  0.51100000000E-03 0.  1.
        -11    1    3    3    0    0 -0.24843236622E+02 -0.11463524662E+02  0.13286830186E+02  0.30416092126E+02  0.51100000000E-03 0. -1.
        -12    1    3    3    0    0 -0.77114496087E+01 -0.85400843224E+01 -0.18463644510E+02  0.21755589256E+02  0.00000000000E+00 0.  1.
</event>
<event>
 7    1  0.1052674E-011  0.5930194E+02  0.7816164E-02  0.1266605E+00
        -11   -1    0    0    0    0  0.00000000000E+00  0.00000000000E+00  0.45593999997E+02  0.45594000000E+02  0.51100000000E-03 0.  1.
         11   -1    0    0    0    0 -0.00000000000E+00 -0.00000000000E+00 -0.45593999997E+02  0.45594000000E+02  0.51100000000E-03 0. -1.
    9900012    2    1    2    0    0  0.13317535472E+01  0.12365378281E+02 -0.29360599860E+02  0.59301937658E+02  0.49999988384E+02 0.  0.
        -12    1    1    2    0    0 -0.13317535472E+01 -0.12365378281E+02  0.29360599860E+02  0.31886062342E+02  0.00000000000E+00 0.  1.
         11    1    3    3    0    0 -0.18415885474E+02 -0.22665854268E+01 -0.96815607692E+01  0.20928804707E+02  0.51100000000E-03 0. -1.
        -11    1    3    3    0    0  0.12439238610E+02  0.20221194784E+02 -0.14334358067E+02  0.27732745937E+02  0.51100000000E-03 0.  1.
         12    1    3    3    0    0  0.73084004103E+01 -0.55892310770E+01 -0.53446810230E+01  0.10640387015E+02  0.00000000000E+00 0. -1.
</event>
<event>
 7    1  0.1052674E-011  0.5930195E+02  0.7816164E-02  0.1266605E+00
        -11   -1    0    0    0    0  0.00000000000E+00  0.00000000000E+00  0.45593999997E+02  0.45594000000E+02  0.51100000000E-03 0. -1.
         11   -1    0    0    0    0 -0.00000000000E+00 -0.00000000000E+00 -0.45593999997E+02  0.45594000000E+02  0.51100000000E-03 0.  1.
    9900012    2    1    2    0    0 -0.27959792588E+00 -0.15062143585E+02  0.28102916180E+02  0.59301949097E+02  0.50000009245E+02 0.  0.
        -12    1    1    2    0    0  0.27959792588E+00  0.15062143585E+02 -0.28102916180E+02  0.31886050903E+02  0.00000000000E+00 0.  1.
         11    1    3    3    0    0 -0.17259821821E+02  0.35577279311E+01  0.73284082982E+00  0.17637911817E+02  0.51100000000E-03 0.  1.
        -11    1    3    3    0    0  0.96776419616E+01 -0.53420801605E+01  0.23581970540E+02  0.26044268260E+02  0.51100000000E-03 0. -1.
         12    1    3    3    0    0  0.73025819336E+01 -0.13277791356E+02  0.37881048099E+01  0.15619769020E+02  0.00000000000E+00 0. -1.
</event>
<event>
 7    1  0.1052674E-011  0.5930197E+02  0.7816164E-02  0.1266605E+00
        -11   -1    0    0    0    0  0.00000000000E+00  0.00000000000E+00  0.45593999997E+02  0.45594000000E+02  0.51100000000E-03 0.  1.
         11   -1    0    0    0    0 -0.00000000000E+00 -0.00000000000E+00 -0.45593999997E+02  0.45594000000E+02  0.51100000000E-03 0. -1.
    9900012    2    1    2    0    0 -0.11096831180E+02  0.28833239341E+02 -0.78882084370E+01  0.59301965668E+02  0.50000039466E+02 0.  0.
        -12    1    1    2    0    0  0.11096831180E+02 -0.28833239341E+02  0.78882084370E+01  0.31886034332E+02  0.00000000000E+00 0.  1.
         11    1    3    3    0    0 -0.13688101704E+02  0.38010713401E+02 -0.15358927531E+01  0.40429412911E+02  0.51100000000E-03 0. -1.
        -11    1    3    3    0    0 -0.19087057504E+00 -0.35721414969E+01 -0.10680596592E+02  0.11263736958E+02  0.51100000000E-03 0.  1.
         12    1    3    3    0    0  0.27821410990E+01 -0.56053325635E+01  0.43282809077E+01  0.76088157987E+01  0.00000000000E+00 0. -1.
</event>
<event>
 7    1  0.1052674E-011  0.5930195E+02  0.7816164E-02  0.1266605E+00
        -11   -1    0    0    0    0  0.00000000000E+00  0.00000000000E+00  0.45593999997E+02  0.45594000000E+02  0.51100000000E-03 0.  1.
         11   -1    0    0    0    0 -0.00000000000E+00 -0.00000000000E+00 -0.45593999997E+02  0.45594000000E+02  0.51100000000E-03 0. -1.
    9900012    2    1    2    0    0  0.90404146778E+01  0.64957133073E+01 -0.29879705721E+02  0.59301949713E+02  0.50000010368E+02 0.  0.
        -12    1    1    2    0    0 -0.90404146778E+01 -0.64957133073E+01  0.29879705721E+02  0.31886050287E+02  0.00000000000E+00 0.  1.
         11    1    3    3    0    0 -0.63532622856E+01 -0.48677511052E+01 -0.19395902395E+02  0.20982372899E+02  0.51100000000E-03 0. -1.
        -11    1    3    3    0    0  0.16262948027E+02  0.13517761062E+02  0.57541548727E+01  0.21916287122E+02  0.51100000000E-03 0.  1.
        -12    1    3    3    0    0 -0.86927106395E+00 -0.21542966491E+01 -0.16237958199E+02  0.16403289691E+02  0.00000000000E+00 0.  1.
</event>
<event>
 7    1  0.1052674E-011  0.5930198E+02  0.7816164E-02  0.1266605E+00
        -11   -1    0    0    0    0  0.00000000000E+00  0.00000000000E+00  0.45593999997E+02  0.45594000000E+02  0.51100000000E-03 0. -1.
         11   -1    0    0    0    0 -0.00000000000E+00 -0.00000000000E+00 -0.45593999997E+02  0.45594000000E+02  0.51100000000E-03 0.  1.
    9900012    2    1    2    0    0 -0.27149109514E+02 -0.98897223371E+01  0.13484717597E+02  0.59301978549E+02  0.50000062959E+02 0.  0.
        -12    1    1    2    0    0  0.27149109514E+02  0.98897223371E+01 -0.13484717597E+02  0.31886021451E+02  0.00000000000E+00 0.  1.
         11    1    3    3    0    0 -0.27394493673E+02  0.10726724040E+02  0.18857180199E+02  0.34944443586E+02  0.51100000000E-03 0. -1.
        -11    1    3    3    0    0  0.32018665947E+01 -0.11471623503E+02  0.22128920467E+01  0.12113917077E+02  0.51100000000E-03 0.  1.
         12    1    3    3    0    0 -0.29564824359E+01 -0.91448228737E+01 -0.75853546488E+01  0.12243617886E+02  0.00000000000E+00 0. -1.
</event>
<event>
 7    1  0.1052674E-011  0.5930196E+02  0.7816164E-02  0.1266605E+00
        -11   -1    0    0    0    0  0.00000000000E+00  0.00000000000E+00  0.45593999997E+02  0.45594000000E+02  0.51100000000E-03 0.  1.
         11   -1    0    0    0    0 -0.00000000000E+00 -0.00000000000E+00 -0.45593999997E+02  0.45594000000E+02  0.51100000000E-03 0. -1.
    9900012    2    1    2    0    0 -0.28044298283E+02 -0.15136224869E+02 -0.10637926886E+01  0.59301958785E+02  0.50000026914E+02 0.  0.
        -12    1    1    2    0    0  0.28044298283E+02  0.15136224869E+02  0.10637926886E+01  0.31886041215E+02  0.00000000000E+00 0.  1.
         11    1    3    3    0    0 -0.29180496995E+02  0.47240308487E+01 -0.16237154733E+02  0.33726296364E+02  0.51100000000E-03 0. -1.
        -11    1    3    3    0    0  0.22502750688E+01 -0.75073673419E+01  0.82158035550E+01  0.11354458622E+02  0.51100000000E-03 0.  1.
         12    1    3    3    0    0 -0.11140763566E+01 -0.12352888375E+02  0.69575584899E+01  0.14221203799E+02  0.00000000000E+00 0. -1.
</event>
<event>
 7    1  0.1052674E-011  0.5930194E+02  0.7816164E-02  0.1266605E+00
        -11   -1    0    0    0    0  0.00000000000E+00  0.00000000000E+00  0.45593999997E+02  0.45594000000E+02  0.51100000000E-03 0.  1.
         11   -1    0    0    0    0 -0.00000000000E+00 -0.00000000000E+00 -0.45593999997E+02  0.45594000000E+02  0.51100000000E-03 0. -1.
    9900012    2    1    2    0    0 -0.15619653439E+02 -0.22062831472E+02 -0.16910900254E+02  0.59301942647E+02  0.49999997482E+02 0.  0.
        -12    1    1    2    0    0  0.15619653439E+02  0.22062831472E+02  0.16910900254E+02  0.31886057353E+02  0.00000000000E+00 0.  1.
         11    1    3    3    0    0  0.52431852911E+01 -0.18281605677E+02 -0.91232349742E+01  0.21093636832E+02  0.51100000000E-03 0. -1.
        -11    1    3    3    0    0  0.78416351952E+00  0.10814011356E+02  0.39114159753E+00  0.10849458329E+02  0.51100000000E-03 0.  1.
        -12    1    3    3    0    0 -0.21647002249E+02 -0.14595237150E+02 -0.81788068775E+01  0.27358847486E+02  0.00000000000E+00 0.  1.
</event>
<event>
 7    1  0.1052674E-011  0.5930191E+02  0.7816164E-02  0.1266605E+00
        -11   -1    0    0    0    0  0.00000000000E+00  0.00000000000E+00  0.45593999997E+02  0.45594000000E+02  0.51100000000E-03 0. -1.
         11   -1    0    0    0    0 -0.00000000000E+00 -0.00000000000E+00 -0.45593999997E+02  0.45594000000E+02  0.51100000000E-03 0.  1.
    9900012    2    1    2    0    0 -0.27796529120E+02  0.11568282620E+02 -0.10500020171E+02  0.59301911851E+02  0.49999941317E+02 0.  0.
        -12    1    1    2    0    0  0.27796529120E+02 -0.11568282620E+02  0.10500020171E+02  0.31886088149E+02  0.00000000000E+00 0.  1.
         11    1    3    3    0    0 -0.20082184307E+02  0.23226847063E+02  0.11445947119E+02  0.32768739016E+02  0.51100000000E-03 0. -1.
        -11    1    3    3    0    0 -0.42229758495E+01 -0.59910283820E+01 -0.68398807188E+01  0.10025463311E+02  0.51100000000E-03 0.  1.
         12    1    3    3    0    0 -0.34913689636E+01 -0.56675360603E+01 -0.15106086570E+02  0.16507709523E+02  0.00000000000E+00 0. -1.
</event>
<event>
 7    1  0.1052674E-011  0.5930194E+02  0.7816164E-02  0.1266605E+00
        -11   -1    0    0    0    0  0.00000000000E+00  0.00000000000E+00  0.45593999997E+02  0.45594000000E+02  0.51100000000E-03 0.  1.
         11   -1    0    0    0    0 -0.00000000000E+00 -0.00000000000E+00 -0.45593999997E+02  0.45594000000E+02  0.51100000000E-03 0. -1.
    9900012    2    1    2    0    0 -0.17687440152E+02  0.11300573641E+02 -0.24003590404E+02  0.59301939471E+02  0.49999991690E+02 0.  0.
        -12    1    1    2    0    0  0.17687440152E+02 -0.11300573641E+02  0.24003590404E+02  0.31886060529E+02  0.00000000000E+00 0.  1.
         11    1    3    3    0    0 -0.29920285778E+02  0.19714446747E+02 -0.23811062657E+02  0.43021501795E+02  0.51100000000E-03 0. -1.
        -11    1    3    3    0    0  0.12923279831E+01 -0.43192010577E+01  0.71001500966E+00  0.45639600094E+01  0.51100000000E-03 0.  1.
         12    1    3    3    0    0  0.10940517643E+02 -0.40946720485E+01 -0.90254275677E+00  0.11716477666E+02  0.00000000000E+00 0. -1.
</event>
<event>
 7    1  0.1052674E-011  0.5930194E+02  0.7816164E-02  0.1266605E+00
        -11   -1    0    0    0    0  0.00000000000E+00  0.00000000000E+00  0.45593999997E+02  0.45594000000E+02  0.51100000000E-03 0.  1.
         11   -1    0    0    0    0 -0.00000000000E+00 -0.00000000000E+00 -0.45593999997E+02  0.45594000000E+02  0.51100000000E-03 0. -1.
    9900012    2    1    2    0    0  0.77847853385E+01  0.14546451405E+02 -0.27285868185E+02  0.59301941387E+02  0.49999995184E+02 0.  0.
        -12    1    1    2    0    0 -0.77847853385E+01 -0.14546451405E+02  0.27285868185E+02  0.31886058613E+02  0.00000000000E+00 0.  1.
         11    1    3    3    0    0  0.14593735857E+01 -0.31042905591E+00 -0.29796186773E+02  0.29833519469E+02  0.51100000000E-03 0. -1.
        -11    1    3    3    0    0 -0.94740412323E+00 -0.51912721741E+01  0.58539424609E+01  0.78813402385E+01  0.51100000000E-03 0.  1.
         12    1    3    3    0    0  0.72728158760E+01  0.20048152635E+02 -0.33436238735E+01  0.21587081680E+02  0.00000000000E+00 0. -1.
</event>
<event>
 7    1  0.1052674E-011  0.5930191E+02  0.7816164E-02  0.1266605E+00
        -11   -1    0    0    0    0  0.00000000000E+00  0.00000000000E+00  0.45593999997E+02  0.45594000000E+02  0.51100000000E-03 0. -1.
         11   -1    0    0    0    0 -0.00000000000E+00 -0.00000000000E+00 -0.45593999997E+02  0.45594000000E+02  0.51100000000E-03 0.  1.
    9900012    2    1    2    0    0  0.24380279682E+01  0.26033945935E+02  0.18248631698E+02  0.59301907731E+02  0.49999933803E+02 0.  0.
        -12    1    1    2    0    0 -0.24380279682E+01 -0.26033945935E+02 -0.18248631698E+02  0.31886092269E+02  0.00000000000E+00 0.  1.
         11    1    3    3    0    0 -0.43652172129E+01  0.26466553845E+02  0.50218271869E-01  0.26824170367E+02  0.51100000000E-03 0. -1.
        -11    1    3    3    0    0  0.59229512558E+01  0.37949018767E+01  0.24133608904E+02  0.25137893922E+02  0.51100000000E-03 0.  1.
         12    1    3    3    0    0  0.88029392524E+00 -0.42275097864E+01 -0.59351954780E+01  0.73398434418E+01  0.00000000000E+00 0. -1.
</event>
<event>
 7    1  0.1052674E-011  0.5930193E+02  0.7816164E-02  0.1266605E+00
        -11   -1    0    0    0    0  0.00000000000E+00  0.00000000000E+00  0.45593999997E+02  0.45594000000E+02  0.51100000000E-03 0.  1.
         11   -1    0    0    0    0 -0.00000000000E+00 -0.00000000000E+00 -0.45593999997E+02  0.45594000000E+02  0.51100000000E-03 0. -1.
    9900012    2    1    2    0    0  0.15801905903E+02 -0.26773421957E+02  0.70855530074E+01  0.59301930708E+02  0.49999975708E+02 0.  0.
        -12    1    1    2    0    0 -0.15801905903E+02  0.26773421957E+02 -0.70855530074E+01  0.31886069292E+02  0.00000000000E+00 0.  1.
         11    1    3    3    0    0 -0.26204789121E+01 -0.12369042963E+02  0.25485805192E+02  0.28449717048E+02  0.51100000000E-03 0.  1.
        -11    1    3    3    0    0  0.14597293012E+02 -0.67550512609E+01 -0.13474734067E+02  0.20982853458E+02  0.51100000000E-03 0. -1.
        -12    1    3    3    0    0  0.38250918033E+01 -0.76493277334E+01 -0.49255181175E+01  0.98693602023E+01  0.00000000000E+00 0.  1.
</event>
<event>
 7    1  0.1052674E-011  0.5930191E+02  0.7816164E-02  0.1266605E+00
        -11   -1    0    0    0    0  0.00000000000E+00  0.00000000000E+00  0.45593999997E+02  0.45594000000E+02  0.51100000000E-03 0.  1.
         11   -1    0    0    0    0 -0.00000000000E+00 -0.00000000000E+00 -0.45593999997E+02  0.45594000000E+02  0.51100000000E-03 0. -1.
    9900012    2    1    2    0    0 -0.13213973452E+02  0.22672076259E+02 -0.18113266547E+02  0.59301912731E+02  0.49999942923E+02 0.  0.
        -12    1    1    2    0    0  0.13213973452E+02 -0.22672076259E+02  0.18113266547E+02  0.31886087269E+02  0.00000000000E+00 0.  1.
         11    1    3    3    0    0 -0.12362837405E+02  0.21421524803E+02  0.89095424209E+01  0.26288807885E+02  0.51100000000E-03 0.  1.
        -11    1    3    3    0    0  0.70613696566E+01 -0.11675099726E+01 -0.22442516686E+02  0.23556157930E+02  0.51100000000E-03 0. -1.
        -12    1    3    3    0    0 -0.79125057039E+01  0.24180614283E+01 -0.45802922818E+01  0.94569469160E+01  0.00000000000E+00 0.  1.
</event>
<event>
 7    1  0.1052674E-011  0.5930194E+02  0.7816164E-02  0.1266605E+00
        -11   -1    0    0    0    0  0.00000000000E+00  0.00000000000E+00  0.45593999997E+02  0.45594000000E+02  0.51100000000E-03 0.  1.
         11   -1    0    0    0    0 -0.00000000000E+00 -0.00000000000E+00 -0.45593999997E+02  0.45594000000E+02  0.51100000000E-03 0. -1.
    9900012    2    1    2    0    0 -0.20909597093E+02  0.22999575348E+02 -0.71083876372E+01  0.59301938914E+02  0.49999990673E+02 0.  0.
        -12    1    1    2    0    0  0.20909597093E+02 -0.22999575348E+02  0.71083876372E+01  0.31886061086E+02  0.00000000000E+00 0.  1.
         11    1    3    3    0    0 -0.32671157101E+01  0.45137245946E+01  0.19482648293E+01  0.59028375283E+01  0.51100000000E-03 0. -1.
        -11    1    3    3    0    0 -0.40073019292E+01  0.15713110518E+02 -0.26511082971E+02  0.31077288032E+02  0.51100000000E-03 0.  1.
        -12    1    3    3    0    0 -0.13635179454E+02  0.27727402361E+01  0.17454430504E+02  0.22321813353E+02  0.00000000000E+00 0.  1.
</event>
<event>
 7    1  0.1052674E-011  0.5930196E+02  0.7816164E-02  0.1266605E+00
        -11   -1    0    0    0    0  0.00000000000E+00  0.00000000000E+00  0.45593999997E+02  0.45594000000E+02  0.51100000000E-03 0. -1.
         11   -1    0    0    0    0 -0.00000000000E+00 -0.00000000000E+00 -0.45593999997E+02  0.45594000000E+02  0.51100000000E-03 0.  1.
    9900012    2    1    2    0    0 -0.28521411582E+02 -0.10872808919E+02  0.92212223810E+01  0.59301955488E+02  0.50000020901E+02 0.  0.
        -12    1    1    2    0    0  0.28521411582E+02  0.10872808919E+02 -0.92212223810E+01  0.31886044512E+02  0.00000000000E+00 0.  1.
         11    1    3    3    0    0  0.85354659068E+01 -0.31278661403E+01  0.76784641811E+01  0.11899434326E+02  0.51100000000E-03 0. -1.
        -11    1    3    3    0    0 -0.27453564117E+02  0.79182362914E+01 -0.21824878753E+01  0.28655887742E+02  0.51100000000E-03 0.  1.
         12    1    3    3    0    0 -0.96033133721E+01 -0.15663179070E+02  0.37252460752E+01  0.18746633421E+02  0.00000000000E+00 0. -1.
</event>
<event>
 7    1  0.1052674E-011  0.5930195E+02  0.7816164E-02  0.1266605E+00
        -11   -1    0    0    0    0  0.00000000000E+00  0.00000000000E+00  0.45593999997E+02  0.45594000000E+02  0.51100000000E-03 0. -1.
         11   -1    0    0    0    0 -0.00000000000E+00 -0.00000000000E+00 -0.45593999997E+02  0.45594000000E+02  0.51100000000E-03 0.  1.
    9900012    2    1    2    0    0  0.98539239889E+01  0.21838205820E+02  0.21040753114E+02  0.59301947516E+02  0.50000006363E+02 0.  0.
        -12    1    1    2    0    0 -0.98539239889E+01 -0.21838205820E+02 -0.21040753114E+02  0.31886052484E+02  0.00000000000E+00 0.  1.
         11    1    3    3    0    0 -0.13984483860E+02  0.21164685603E+02  0.11115636342E+02  0.27695975828E+02  0.51100000000E-03 0. -1.
        -11    1    3    3    0    0  0.19820244916E+02  0.13616567652E+01  0.15146051628E+02  0.24981975459E+02  0.51100000000E-03 0.  1.
        -12    1    3    3    0    0  0.40181629331E+01 -0.68813654826E+00 -0.52209348570E+01  0.66239962294E+01  0.00000000000E+00 0.  1.
</event>
<event>
 7    1  0.1052674E-011  0.5930195E+02  0.7816164E-02  0.1266605E+00
        -11   -1    0    0    0    0  0.00000000000E+00  0.00000000000E+00  0.45593999997E+02  0.45594000000E+02  0.51100000000E-03 0.  1.
         11   -1    0    0    0    0 -0.00000000000E+00 -0.00000000000E+00 -0.45593999997E+02  0.45594000000E+02  0.51100000000E-03 0. -1.
    9900012    2    1    2    0    0 -0.43300943789E+00 -0.30787315623E+02 -0.82869750443E+01  0.59301948883E+02  0.50000008856E+02 0.  0.
        -12    1    1    2    0    0  0.43300943789E+00  0.30787315623E+02  0.82869750443E+01  0.31886051117E+02  0.00000000000E+00 0.  1.
         11    1    3    3    0    0 -0.21932001656E+02 -0.19980103430E+02 -0.16083945904E+02  0.33747748752E+02  0.51100000000E-03 0. -1.
        -11    1    3    3    0    0  0.96595410769E+01 -0.32572778369E+01  0.44262559563E+01  0.11113430378E+02  0.51100000000E-03 0.  1.
         12    1    3    3    0    0  0.11839451141E+02 -0.75499343554E+01  0.33707149038E+01  0.14440769753E+02  0.00000000000E+00 0. -1.
</event>
<event>
 7    1  0.1052674E-011  0.5930192E+02  0.7816164E-02  0.1266605E+00
        -11   -1    0    0    0    0  0.00000000000E+00  0.00000000000E+00  0.45593999997E+02  0.45594000000E+02  0.51100000000E-03 0.  1.
         11   -1    0    0    0    0 -0.00000000000E+00 -0.00000000000E+00 -0.45593999997E+02  0.45594000000E+02  0.51100000000E-03 0. -1.
    9900012    2    1    2    0    0 -0.30706627584E+02  0.51522904454E+01  0.68759654596E+01  0.59301921919E+02  0.49999959679E+02 0.  0.
        -12    1    1    2    0    0  0.30706627584E+02 -0.51522904454E+01 -0.68759654596E+01  0.31886078081E+02  0.00000000000E+00 0.  1.
         11    1    3    3    0    0 -0.61054709716E+01  0.55580916615E+01 -0.11963320241E+02  0.14535824371E+02  0.51100000000E-03 0. -1.
        -11    1    3    3    0    0 -0.22984397918E+02  0.13465024837E+02  0.11991147511E+02  0.29212618171E+02  0.51100000000E-03 0.  1.
        -12    1    3    3    0    0 -0.16167586942E+01 -0.13870826053E+02  0.68481381892E+01  0.15553479377E+02  0.00000000000E+00 0.  1.
</event>
<event>
 7    1  0.1052674E-011  0.5930196E+02  0.7816164E-02  0.1266605E+00
        -11   -1    0    0    0    0  0.00000000000E+00  0.00000000000E+00  0.45593999997E+02  0.45594000000E+02  0.51100000000E-03 0.  1.
         11   -1    0    0    0    0 -0.00000000000E+00 -0.00000000000E+00 -0.45593999997E+02  0.45594000000E+02  0.51100000000E-03 0. -1.
    9900012    2    1    2    0    0  0.80538966366E+01  0.15772145854E+02 -0.26515919607E+02  0.59301955584E+02  0.50000021076E+02 0.  0.
        -12    1    1    2    0    0 -0.80538966366E+01 -0.15772145854E+02  0.26515919607E+02  0.31886044416E+02  0.00000000000E+00 0.  1.
         11    1    3    3    0    0 -0.38742283872E+01  0.24016111836E+02 -0.30841953464E+01  0.24521328155E+02  0.51100000000E-03 0. -1.
        -11    1    3    3    0    0  0.11281954466E+02 -0.11023801022E+02 -0.56248681681E+01  0.16746516884E+02  0.51100000000E-03 0.  1.
        -12    1    3    3    0    0  0.64617055734E+00  0.27798350406E+01 -0.17806856093E+02  0.18034110545E+02  0.00000000000E+00 0.  1.
</event>
<event>
 7    1  0.1052674E-011  0.5930195E+02  0.7816164E-02  0.1266605E+00
        -11   -1    0    0    0    0  0.00000000000E+00  0.00000000000E+00  0.45593999997E+02  0.45594000000E+02  0.51100000000E-03 0.  1.
         11   -1    0    0    0    0 -0.00000000000E+00 -0.00000000000E+00 -0.45593999997E+02  0.45594000000E+02  0.51100000000E-03 0. -1.
    9900012    2    1    2    0    0  0.93559500236E+01 -0.29261064791E+02  0.85426255383E+01  0.59301950313E+02  0.50000011463E+02 0.  0.
        -12    1    1    2    0    0 -0.93559500236E+01  0.29261064791E+02 -0.85426255383E+01  0.31886049687E+02  0.00000000000E+00 0.  1.
         11    1    3    3    0    0  0.11370591252E+01 -0.15743695107E+02 -0.18377506907E+02  0.24225804413E+02  0.51100000000E-03 0. -1.
        -11    1    3    3    0    0  0.19571050312E+01 -0.65825604246E+01  0.24471883774E+02  0.25417188231E+02  0.51100000000E-03 0.  1.
        -12    1    3    3    0    0  0.62617858672E+01 -0.69348092597E+01  0.24482486713E+01  0.96589576701E+01  0.00000000000E+00 0.  1.
</event>
<event>
 7    1  0.1052674E-011  0.5930194E+02  0.7816164E-02  0.1266605E+00
        -11   -1    0    0    0    0  0.00000000000E+00  0.00000000000E+00  0.45593999997E+02  0.45594000000E+02  0.51100000000E-03 0.  1.
         11   -1    0    0    0    0 -0.00000000000E+00 -0.00000000000E+00 -0.45593999997E+02  0.45594000000E+02  0.51100000000E-03 0. -1.
    9900012    2    1    2    0    0 -0.15865200490E+02 -0.16576356857E+02 -0.22141372485E+02  0.59301943976E+02  0.49999999906E+02 0.  0.
        -12    1    1    2    0    0  0.15865200490E+02  0.16576356857E+02  0.22141372485E+02  0.31886056024E+02  0.00000000000E+00 0.  1.
         11    1    3    3    0    0 -0.11467468800E+02 -0.74171677443E+01 -0.19186066245E+02  0.23550421573E+02  0.51100000000E-03 0. -1.
        -11    1    3    3    0    0 -0.10847669807E+02  0.82041458304E+01  0.63646918784E+01  0.15016299545E+02  0.51100000000E-03 0.  1.
        -12    1    3    3    0    0  0.64499381168E+01 -0.17363334944E+02 -0.93199981174E+01  0.20735222858E+02  0.00000000000E+00 0.  1.
</event>
<event>
 7    1  0.1052674E-011  0.5930195E+02  0.7816164E-02  0.1266605E+00
        -11   -1    0    0    0    0  0.00000000000E+00  0.00000000000E+00  0.45593999997E+02  0.45594000000E+02  0.51100000000E-03 0.  1.
         11   -1    0    0    0    0 -0.00000000000E+00 -0.00000000000E+00 -0.45593999997E+02  0.45594000000E+02  0.51100000000E-03 0. -1.
    9900012    2    1    2    0    0  0.20581095406E+02  0.39068779226E+01 -0.24039030117E+02  0.59301950509E+02  0.50000011820E+02 0.  0.
        -12    1    1    2    0    0 -0.20581095406E+02 -0.39068779226E+01  0.24039030117E+02  0.31886049491E+02  0.00000000000E+00 0.  1.
         11    1    3    3    0    0  0.22132129975E+02 -0.10510363343E+02 -0.13670165586E+02  0.28056591779E+02  0.51100000000E-03 0. -1.
        -11    1    3    3    0    0  0.35656691190E+01  0.20418359267E+02 -0.40030173863E+01  0.21110365698E+02  0.51100000000E-03 0.  1.
         12    1    3    3    0    0 -0.51167036879E+01 -0.60011180012E+01 -0.63658471443E+01  0.10134993032E+02  0.00000000000E+00 0. -1.
</event>
<event>
 7    1  0.1052674E-011  0.5930194E+02  0.7816164E-02  0.1266605E+00
        -11   -1    0    0    0    0  0.00000000000E+00  0.00000000000E+00  0.45593999997E+02  0.45594000000E+02  0.51100000000E-03 0.  1.
         11   -1    0    0    0    0 -0.00000000000E+00 -0.00000000000E+00 -0.45593999997E+02  0.45594000000E+02  0.51100000000E-03 0. -1.
    9900012    2    1    2    0    0 -0.57380995082E+01  0.12271759761E+02 -0.28865187780E+02  0.59301938168E+02  0.49999989313E+02 0.  0.
        -12    1    1    2    0    0  0.57380995082E+01 -0.12271759761E+02  0.28865187780E+02  0.31886061832E+02  0.00000000000E+00 0.  1.
         11    1    3    3    0    0 -0.78801100431E+01 -0.12422020518E+02 -0.13810341266E+02  0.20177419414E+02  0.51100000000E-03 0. -1.
        -11    1    3    3    0    0  0.34701303678E+01  0.20122861621E+02  0.28318484507E+01  0.20615303309E+02  0.51100000000E-03 0.  1.
        -12    1    3    3    0    0 -0.13281198329E+01  0.45709186581E+01 -0.17886694964E+02  0.18509215446E+02  0.00000000000E+00 0.  1.
</event>
<event>
 7    1  0.1052674E-011  0.5930193E+02  0.7816164E-02  0.1266605E+00
        -11   -1    0    0    0    0  0.00000000000E+00  0.00000000000E+00  0.45593999997E+02  0.45594000000E+02  0.51100000000E-03 0.  1.
         11   -1    0    0    0    0 -0.00000000000E+00 -0.00000000000E+00 -0.45593999997E+02  0.45594000000E+02  0.51100000000E-03 0. -1.
    9900012    2    1    2    0    0 -0.10940513413E+02 -0.29935660225E+02 -0.93970015765E+00  0.59301927441E+02  0.49999969750E+02 0.  0.
        -12    1    1    2    0    0  0.10940513413E+02  0.29935660225E+02  0.93970015765E+00  0.31886072559E+02  0.00000000000E+00 0.  1.
         11    1    3    3    0    0 -0.29036744142E+01 -0.23831372416E+01 -0.86256703218E+01  0.94081271769E+01  0.51100000000E-03 0. -1.
        -11    1    3    3    0    0  0.29296143673E+01  0.13941223860E+00  0.18103980347E+02  0.18340015833E+02  0.51100000000E-03 0.  1.
        -12    1    3    3    0    0 -0.10966453366E+02 -0.27691935222E+02 -0.10418010183E+02  0.31553784431E+02  0.00000000000E+00 0.  1.
</event>
<event>
 7    1  0.1052674E-011  0.5930194E+02  0.7816164E-02  0.1266605E+00
        -11   -1    0    0    0    0  0.00000000000E+00  0.00000000000E+00  0.45593999997E+02  0.45594000000E+02  0.51100000000E-03 0. -1.
         11   -1    0    0    0    0 -0.00000000000E+00 -0.00000000000E+00 -0.45593999997E+02  0.45594000000E+02  0.51100000000E-03 0.  1.
    9900012    2    1    2    0    0 -0.18709090080E+02  0.25671598620E+02 -0.27676269765E+01  0.59301940563E+02  0.49999993682E+02 0.  0.
        -12    1    1    2    0    0  0.18709090080E+02 -0.25671598620E+02  0.27676269765E+01  0.31886059437E+02  0.00000000000E+00 0.  1.
         11    1    3    3    0    0  0.47130710226E+01  0.29028180427E+02  0.98276752997E+01  0.31006958887E+02  0.51100000000E-03 0. -1.
        -11    1    3    3    0    0 -0.12165155075E+02  0.26667894404E+01 -0.48692265396E+01  0.13372065334E+02  0.51100000000E-03 0.  1.
         12    1    3    3    0    0 -0.11257006027E+02 -0.60233712475E+01 -0.77260757366E+01  0.14922916343E+02  0.00000000000E+00 0. -1.
</event>
<event>
 7    1  0.1052674E-011  0.5930194E+02  0.7816164E-02  0.1266605E+00
        -11   -1    0    0    0    0  0.00000000000E+00  0.00000000000E+00  0.45593999997E+02  0.45594000000E+02  0.51100000000E-03 0.  1.
         11   -1    0    0    0    0 -0.00000000000E+00 -0.00000000000E+00 -0.45593999997E+02  0.45594000000E+02  0.51100000000E-03 0. -1.
    9900012    2    1    2    0    0 -0.58818245575E+01  0.25039485880E+01 -0.31238677107E+02  0.59301944019E+02  0.49999999984E+02 0.  0.
        -12    1    1    2    0    0  0.58818245575E+01 -0.25039485880E+01  0.31238677107E+02  0.31886055981E+02  0.00000000000E+00 0.  1.
         11    1    3    3    0    0 -0.17911374461E+02  0.16362235675E+02 -0.14729667964E+02  0.28381388443E+02  0.51100000000E-03 0. -1.
        -11    1    3    3    0    0  0.79447908234E+01 -0.45930910152E+01 -0.18453926286E+02  0.20609793350E+02  0.51100000000E-03 0.  1.
         12    1    3    3    0    0  0.40847590801E+01 -0.92651960713E+01  0.19449171434E+01  0.10310762226E+02  0.00000000000E+00 0. -1.
</event>
<event>
 7    1  0.1052674E-011  0.5930192E+02  0.7816164E-02  0.1266605E+00
        -11   -1    0    0    0    0  0.00000000000E+00  0.00000000000E+00  0.45593999997E+02  0.45594000000E+02  0.51100000000E-03 0.  1.
         11   -1    0    0    0    0 -0.00000000000E+00 -0.00000000000E+00 -0.45593999997E+02  0.45594000000E+02  0.51100000000E-03 0. -1.
    9900012    2    1    2    0    0  0.55209014870E+01 -0.25464555072E+02 -0.18379284796E+02  0.59301921096E+02  0.49999958178E+02 0.  0.
        -12    1    1    2    0    0 -0.55209014870E+01  0.25464555072E+02  0.18379284796E+02  0.31886078904E+02  0.00000000000E+00 0.  1.
         11    1    3    3    0    0  0.16441228080E+02 -0.42070271341E+01 -0.23925479501E+02  0.29333285321E+02  0.51100000000E-03 0. -1.
        -11    1    3    3    0    0 -0.10032001311E+02 -0.18023896667E+02 -0.29472162095E+01  0.20837177953E+02  0.51100000000E-03 0.  1.
        -12    1    3    3    0    0 -0.88832528187E+00 -0.32336312704E+01  0.84934109144E+01  0.91314578223E+01  0.00000000000E+00 0.  1.
</event>
<event>
 7    1  0.1052674E-011  0.5930200E+02  0.7816164E-02  0.1266605E+00
        -11   -1    0    0    0    0  0.00000000000E+00  0.00000000000E+00  0.45593999997E+02  0.45594000000E+02  0.51100000000E-03 0. -1.
         11   -1    0    0    0    0 -0.00000000000E+00 -0.00000000000E+00 -0.45593999997E+02  0.45594000000E+02  0.51100000000E-03 0.  1.
    9900012    2    1    2    0    0  0.73097222855E+01  0.29592208595E+02  0.93587507777E+01  0.59301998909E+02  0.50000100091E+02 0.  0.
        -12    1    1    2    0    0 -0.73097222855E+01 -0.29592208595E+02 -0.93587507777E+01  0.31886001091E+02  0.00000000000E+00 0.  1.
         11    1    3    3    0    0  0.48799259753E+00  0.60817866314E+01  0.19149873353E+02  0.20098356029E+02  0.51100000000E-03 0. -1.
        -11    1    3    3    0    0 -0.33791562816E+01  0.26122944332E+02 -0.26350274308E+01  0.26472066175E+02  0.51100000000E-03 0.  1.
        -12    1    3    3    0    0  0.10200885970E+02 -0.26125223682E+01 -0.71560951441E+01  0.12731576705E+02  0.00000000000E+00 0.  1.
</event>
<event>
 7    1  0.1052674E-011  0.5930196E+02  0.7816164E-02  0.1266605E+00
        -11   -1    0    0    0    0  0.00000000000E+00  0.00000000000E+00  0.45593999997E+02  0.45594000000E+02  0.51100000000E-03 0.  1.
         11   -1    0    0    0    0 -0.00000000000E+00 -0.00000000000E+00 -0.45593999997E+02  0.45594000000E+02  0.51100000000E-03 0. -1.
    9900012    2    1    2    0    0  0.92753667413E+01 -0.29127281859E+02  0.90713132507E+01  0.59301957586E+02  0.50000024728E+02 0.  0.
        -12    1    1    2    0    0 -0.92753667413E+01  0.29127281859E+02 -0.90713132507E+01  0.31886042414E+02  0.00000000000E+00 0.  1.
         11    1    3    3    0    0 -0.70812033474E+01 -0.12083885257E+02  0.22040965881E+02  0.26114515139E+02  0.51100000000E-03 0.  1.
        -11    1    3    3    0    0  0.77195393219E+01 -0.54306433868E+01  0.45378003279E+01  0.10472574040E+02  0.51100000000E-03 0. -1.
         12    1    3    3    0    0  0.86370307668E+01 -0.11612753216E+02 -0.17507452958E+02  0.22714868408E+02  0.00000000000E+00 0. -1.
</event>
<event>
 7    1  0.1052674E-011  0.5930194E+02  0.7816164E-02  0.1266605E+00
        -11   -1    0    0    0    0  0.00000000000E+00  0.00000000000E+00  0.45593999997E+02  0.45594000000E+02  0.51100000000E-03 0.  1.
         11   -1    0    0    0    0 -0.00000000000E+00 -0.00000000000E+00 -0.45593999997E+02  0.45594000000E+02  0.51100000000E-03 0. -1.
    9900012    2    1    2    0    0 -0.68763487239E+01  0.23417910458E+02 -0.20519206677E+02  0.59301944355E+02  0.50000000596E+02 0.  0.
        -12    1    1    2    0    0  0.68763487239E+01 -0.23417910458E+02  0.20519206677E+02  0.31886055645E+02  0.00000000000E+00 0.  1.
         11    1    3    3    0    0 -0.19570359665E+02 -0.15651143314E+01  0.48857254069E+01  0.20231630515E+02  0.51100000000E-03 0. -1.
        -11    1    3    3    0    0  0.56276399202E+01  0.20491723873E+02 -0.19317367654E+02  0.28718317703E+02  0.51100000000E-03 0.  1.
         12    1    3    3    0    0  0.70663710210E+01  0.44913009162E+01 -0.60875644298E+01  0.10351996137E+02  0.00000000000E+00 0. -1.
</event>
<event>
 7    1  0.1052674E-011  0.5930193E+02  0.7816164E-02  0.1266605E+00
        -11   -1    0    0    0    0  0.00000000000E+00  0.00000000000E+00  0.45593999997E+02  0.45594000000E+02  0.51100000000E-03 0.  1.
         11   -1    0    0    0    0 -0.00000000000E+00 -0.00000000000E+00 -0.45593999997E+02  0.45594000000E+02  0.51100000000E-03 0. -1.
    9900012    2    1    2    0    0 -0.25131652308E+02 -0.13056236064E+02  0.14651146422E+02  0.59301931892E+02  0.49999977868E+02 0.  0.
        -12    1    1    2    0    0  0.25131652308E+02  0.13056236064E+02 -0.14651146422E+02  0.31886068108E+02  0.00000000000E+00 0.  1.
         11    1    3    3    0    0 -0.14039628246E+02 -0.82710615065E+01 -0.12487582018E+02  0.20529523244E+02  0.51100000000E-03 0. -1.
        -11    1    3    3    0    0  0.32644321327E+01 -0.88198296552E+01  0.20287392365E+02  0.22361220932E+02  0.51100000000E-03 0.  1.
        -12    1    3    3    0    0 -0.14356456195E+02  0.40346550980E+01  0.68513360749E+01  0.16411187716E+02  0.00000000000E+00 0.  1.
</event>
<event>
 7    1  0.1052674E-011  0.5930183E+02  0.7816164E-02  0.1266605E+00
        -11   -1    0    0    0    0  0.00000000000E+00  0.00000000000E+00  0.45593999997E+02  0.45594000000E+02  0.51100000000E-03 0.  1.
         11   -1    0    0    0    0 -0.00000000000E+00 -0.00000000000E+00 -0.45593999997E+02  0.45594000000E+02  0.51100000000E-03 0. -1.
    9900012    2    1    2    0    0 -0.31453219739E+02 -0.48229369742E+01  0.20401622142E+01  0.59301827216E+02  0.49999786962E+02 0.  0.
        -12    1    1    2    0    0  0.31453219739E+02  0.48229369742E+01 -0.20401622142E+01  0.31886172784E+02  0.00000000000E+00 0.  1.
         11    1    3    3    0    0 -0.18498516609E+02  0.14590163218E+01  0.18539555435E+02  0.26230496781E+02  0.51100000000E-03 0. -1.
        -11    1    3    3    0    0 -0.10945573124E+01  0.56891493796E+01 -0.15086643341E+02  0.16160794657E+02  0.51100000000E-03 0.  1.
         12    1    3    3    0    0 -0.11860145817E+02 -0.11971102676E+02 -0.14127498799E+01  0.16910535778E+02  0.00000000000E+00 0. -1.
</event>
<event>
 7    1  0.1052674E-011  0.5930209E+02  0.7816164E-02  0.1266604E+00
        -11   -1    0    0    0    0  0.00000000000E+00  0.00000000000E+00  0.45593999997E+02  0.45594000000E+02  0.51100000000E-03 0. -1.
         11   -1    0    0    0    0 -0.00000000000E+00 -0.00000000000E+00 -0.45593999997E+02  0.45594000000E+02  0.51100000000E-03 0.  1.
    9900012    2    1    2    0    0 -0.29366105371E+02 -0.10389092971E+02 -0.68125009881E+01  0.59302085129E+02  0.50000257335E+02 0.  0.
        -12    1    1    2    0    0  0.29366105371E+02  0.10389092971E+02  0.68125009881E+01  0.31885914871E+02  0.00000000000E+00 0.  1.
         11    1    3    3    0    0 -0.75702251790E+01 -0.38523264100E+01  0.13350619136E+01  0.85983206852E+01  0.51100000000E-03 0. -1.
        -11    1    3    3    0    0 -0.50427588595E+01  0.55190226313E+01 -0.23705855790E+02  0.24856721963E+02  0.51100000000E-03 0.  1.
        -12    1    3    3    0    0 -0.16753121333E+02 -0.12055789192E+02  0.15558292889E+02  0.25847042481E+02  0.00000000000E+00 0.  1.
</event>
<event>
 7    1  0.1052674E-011  0.5930194E+02  0.7816164E-02  0.1266605E+00
        -11   -1    0    0    0    0  0.00000000000E+00  0.00000000000E+00  0.45593999997E+02  0.45594000000E+02  0.51100000000E-03 0.  1.
         11   -1    0    0    0    0 -0.00000000000E+00 -0.00000000000E+00 -0.45593999997E+02  0.45594000000E+02  0.51100000000E-03 0. -1.
    9900012    2    1    2    0    0  0.14963592204E+01  0.31774248103E+02  0.22087591034E+01  0.59301944267E+02  0.50000000436E+02 0.  0.
        -12    1    1    2    0    0 -0.14963592204E+01 -0.31774248103E+02 -0.22087591034E+01  0.31886055733E+02  0.00000000000E+00 0.  1.
         11    1    3    3    0    0 -0.98139884240E+01 -0.31212032845E+01  0.87620902878E+01  0.13521483099E+02  0.51100000000E-03 0. -1.
        -11    1    3    3    0    0  0.59862618287E+01  0.29380456806E+02  0.64647691781E+01  0.30673112225E+02  0.51100000000E-03 0.  1.
        -12    1    3    3    0    0  0.53240858158E+01  0.55149945824E+01 -0.13018100362E+02  0.15107348942E+02  0.00000000000E+00 0.  1.
</event>
<event>
 7    1  0.1052674E-011  0.5930195E+02  0.7816164E-02  0.1266605E+00
        -11   -1    0    0    0    0  0.00000000000E+00  0.00000000000E+00  0.45593999997E+02  0.45594000000E+02  0.51100000000E-03 0.  1.
         11   -1    0    0    0    0 -0.00000000000E+00 -0.00000000000E+00 -0.45593999997E+02  0.45594000000E+02  0.51100000000E-03 0. -1.
    9900012    2    1    2    0    0 -0.31671904456E+01 -0.26252689990E+02 -0.17818120157E+02  0.59301949241E+02  0.50000009508E+02 0.  0.
        -12    1    1    2    0    0  0.31671904456E+01  0.26252689990E+02  0.17818120157E+02  0.31886050759E+02  0.00000000000E+00 0.  1.
         11    1    3    3    0    0  0.13775793264E+02 -0.23385007344E+02 -0.23371613009E+02  0.35817081727E+02  0.51100000000E-03 0. -1.
        -11    1    3    3    0    0 -0.12130366408E+02 -0.77420381816E+01  0.76812284926E+01  0.16312149331E+02  0.51100000000E-03 0.  1.
         12    1    3    3    0    0 -0.48126173016E+01  0.48743555357E+01 -0.21277356415E+01  0.71727181835E+01  0.00000000000E+00 0. -1.
</event>
<event>
 7    1  0.1052674E-011  0.5930195E+02  0.7816164E-02  0.1266605E+00
        -11   -1    0    0    0    0  0.00000000000E+00  0.00000000000E+00  0.45593999997E+02  0.45594000000E+02  0.51100000000E-03 0.  1.
         11   -1    0    0    0    0 -0.00000000000E+00 -0.00000000000E+00 -0.45593999997E+02  0.45594000000E+02  0.51100000000E-03 0. -1.
    9900012    2    1    2    0    0 -0.38802098695E+01  0.91055871585E+00 -0.31635976661E+02  0.59301950306E+02  0.50000011450E+02 0.  0.
        -12    1    1    2    0    0  0.38802098695E+01 -0.91055871585E+00  0.31635976661E+02  0.31886049694E+02  0.00000000000E+00 0.  1.
         11    1    3    3    0    0  0.18132519665E+02 -0.17052782561E+01 -0.28207753840E+02  0.33576384861E+02  0.51100000000E-03 0. -1.
        -11    1    3    3    0    0 -0.11840793732E+02  0.57341023176E+01  0.27246633718E+01  0.13435330898E+02  0.51100000000E-03 0.  1.
         12    1    3    3    0    0 -0.10171935803E+02 -0.31182653456E+01 -0.61528861923E+01  0.12290234548E+02  0.00000000000E+00 0. -1.
</event>
<event>
 7    1  0.1052674E-011  0.5930194E+02  0.7816164E-02  0.1266605E+00
        -11   -1    0    0    0    0  0.00000000000E+00  0.00000000000E+00  0.45593999997E+02  0.45594000000E+02  0.51100000000E-03 0. -1.
         11   -1    0    0    0    0 -0.00000000000E+00 -0.00000000000E+00 -0.45593999997E+02  0.45594000000E+02  0.51100000000E-03 0.  1.
    9900012    2    1    2    0    0  0.37844116612E+01  0.11946330623E+01  0.31638136383E+02  0.59301943588E+02  0.49999999197E+02 0.  0.
        -12    1    1    2    0    0 -0.37844116612E+01 -0.11946330623E+01 -0.31638136383E+02  0.31886056412E+02  0.00000000000E+00 0.  1.
         11    1    3    3    0    0 -0.86949629015E+01 -0.15710803929E+02 -0.13597707855E+00  0.17956899231E+02  0.51100000000E-03 0. -1.
        -11    1    3    3    0    0  0.56585600379E+01  0.14505540264E+02  0.10255737729E+02  0.18644306280E+02  0.51100000000E-03 0.  1.
         12    1    3    3    0    0  0.68208145248E+01  0.23998967277E+01  0.21518375732E+02  0.22700738077E+02  0.00000000000E+00 0. -1.
</event>
<event>
 7    1  0.1052674E-011  0.5930193E+02  0.7816164E-02  0.1266605E+00
        -11   -1    0    0    0    0  0.00000000000E+00  0.00000000000E+00  0.45593999997E+02  0.45594000000E+02  0.51100000000E-03 0. -1.
         11   -1    0    0    0    0 -0.00000000000E+00 -0.00000000000E+00 -0.45593999997E+02  0.45594000000E+02  0.51100000000E-03 0.  1.
    9900012    2    1    2    0    0 -0.20668591538E+02 -0.21595259431E+02  0.11098444850E+02  0.59301931190E+02  0.49999976588E+02 0.  0.
        -12    1    1    2    0    0  0.20668591538E+02  0.21595259431E+02 -0.11098444850E+02  0.31886068810E+02  0.00000000000E+00 0.  1.
         11    1    3    3    0    0 -0.81586977825E+01  0.31175248940E+01  0.11981692808E+02  0.14827146515E+02  0.51100000000E-03 0. -1.
        -11    1    3    3    0    0 -0.13868118275E+02 -0.32635007441E+02  0.29262266723E+01  0.35579927178E+02  0.51100000000E-03 0.  1.
        -12    1    3    3    0    0  0.13582245197E+01  0.79222231165E+01 -0.38094746297E+01  0.88948574979E+01  0.00000000000E+00 0.  1.
</event>
<event>
 7    1  0.1052674E-011  0.5930194E+02  0.7816164E-02  0.1266605E+00
        -11   -1    0    0    0    0  0.00000000000E+00  0.00000000000E+00  0.45593999997E+02  0.45594000000E+02  0.51100000000E-03 0.  1.
         11   -1    0    0    0    0 -0.00000000000E+00 -0.00000000000E+00 -0.45593999997E+02  0.45594000000E+02  0.51100000000E-03 0. -1.
    9900012    2    1    2    0    0 -0.74797415690E+01 -0.21338454107E+01 -0.30922825882E+02  0.59301937360E+02  0.49999987839E+02 0.  0.
        -12    1    1    2    0    0  0.74797415690E+01  0.21338454107E+01  0.30922825882E+02  0.31886062640E+02  0.00000000000E+00 0.  1.
         11    1    3    3    0    0  0.75818499578E+01 -0.15857264002E+02 -0.10363705934E+02  0.20404501252E+02  0.51100000000E-03 0. -1.
        -11    1    3    3    0    0 -0.21277798241E+02  0.12309970377E+02 -0.99482043107E+01  0.26518801593E+02  0.51100000000E-03 0.  1.
         12    1    3    3    0    0  0.62162067140E+01  0.14134482147E+01 -0.10610915638E+02  0.12378634514E+02  0.00000000000E+00 0. -1.
</event>
<event>
 7    1  0.1052674E-011  0.5930193E+02  0.7816164E-02  0.1266605E+00
        -11   -1    0    0    0    0  0.00000000000E+00  0.00000000000E+00  0.45593999997E+02  0.45594000000E+02  0.51100000000E-03 0. -1.
         11   -1    0    0    0    0 -0.00000000000E+00 -0.00000000000E+00 -0.45593999997E+02  0.45594000000E+02  0.51100000000E-03 0.  1.
    9900012    2    1    2    0    0  0.26063341483E+02  0.17270499581E+02  0.62572620369E+01  0.59301933243E+02  0.49999980331E+02 0.  0.
        -12    1    1    2    0    0 -0.26063341483E+02 -0.17270499581E+02 -0.62572620369E+01  0.31886066757E+02  0.00000000000E+00 0.  1.
         11    1    3    3    0    0  0.11171154804E+02 -0.13251096321E+02  0.32562711913E+01  0.17634895965E+02  0.51100000000E-03 0. -1.
        -11    1    3    3    0    0 -0.16622576867E+01  0.21597725102E+02 -0.31296056548E+01  0.21886508675E+02  0.51100000000E-03 0.  1.
         12    1    3    3    0    0  0.16554444366E+02  0.89238708006E+01  0.61305965004E+01  0.19780528602E+02  0.00000000000E+00 0. -1.
</event>
<event>
 7    1  0.1052674E-011  0.5930193E+02  0.7816164E-02  0.1266605E+00
        -11   -1    0    0    0    0  0.00000000000E+00  0.00000000000E+00  0.45593999997E+02  0.45594000000E+02  0.51100000000E-03 0. -1.
         11   -1    0    0    0    0 -0.00000000000E+00 -0.00000000000E+00 -0.45593999997E+02  0.45594000000E+02  0.51100000000E-03 0.  1.
    9900012    2    1    2    0    0 -0.27756541137E+02  0.48615008500E+01  0.14921857962E+02  0.59301927626E+02  0.49999970088E+02 0.  0.
        -12    1    1    2    0    0  0.27756541137E+02 -0.48615008500E+01 -0.14921857962E+02  0.31886072374E+02  0.00000000000E+00 0.  1.
         11    1    3    3    0    0 -0.12209026862E+02  0.19714035835E+02  0.82696480243E+01  0.24618907866E+02  0.51100000000E-03 0. -1.
        -11    1    3    3    0    0 -0.19150013680E+02 -0.12980807966E+02 -0.38229763175E+01  0.23448657692E+02  0.51100000000E-03 0.  1.
        -12    1    3    3    0    0  0.36024994046E+01 -0.18717270190E+01  0.10475186255E+02  0.11234362068E+02  0.00000000000E+00 0.  1.
</event>
<event>
 7    1  0.1052674E-011  0.5930198E+02  0.7816164E-02  0.1266605E+00
        -11   -1    0    0    0    0  0.00000000000E+00  0.00000000000E+00  0.45593999997E+02  0.45594000000E+02  0.51100000000E-03 0.  1.
         11   -1    0    0    0    0 -0.00000000000E+00 -0.00000000000E+00 -0.45593999997E+02  0.45594000000E+02  0.51100000000E-03 0. -1.
    9900012    2    1    2    0    0 -0.13357534674E+02  0.21376455620E+02 -0.19527972883E+02  0.59301979359E+02  0.50000064435E+02 0.  0.
        -12    1    1    2    0    0  0.13357534674E+02 -0.21376455620E+02  0.19527972883E+02  0.31886020641E+02  0.00000000000E+00 0.  1.
         11    1    3    3    0    0 -0.67296872197E+01  0.76249163535E+01 -0.16526783166E+02  0.19405220987E+02  0.51100000000E-03 0. -1.
        -11    1    3    3    0    0 -0.14352487937E+02  0.94189060837E-01  0.11606928214E+02  0.18458698881E+02  0.51100000000E-03 0.  1.
        -12    1    3    3    0    0  0.77246404831E+01  0.13657350206E+02 -0.14608117930E+02  0.21438059490E+02  0.00000000000E+00 0.  1.
</event>
<event>
 7    1  0.1052674E-011  0.5930194E+02  0.7816164E-02  0.1266605E+00
        -11   -1    0    0    0    0  0.00000000000E+00  0.00000000000E+00  0.45593999997E+02  0.45594000000E+02  0.51100000000E-03 0. -1.
         11   -1    0    0    0    0 -0.00000000000E+00 -0.00000000000E+00 -0.45593999997E+02  0.45594000000E+02  0.51100000000E-03 0.  1.
    9900012    2    1    2    0    0  0.22496818578E+02  0.22396256881E+02  0.30036446376E+01  0.59301936437E+02  0.49999986157E+02 0.  0.
        -12    1    1    2    0    0 -0.22496818578E+02 -0.22396256881E+02 -0.30036446376E+01  0.31886063563E+02  0.00000000000E+00 0.  1.
         11    1    3    3    0    0  0.13092285344E+02  0.12193926709E+02  0.17945805842E+02  0.25340712928E+02  0.51100000000E-03 0. -1.
        -11    1    3    3    0    0 -0.86743773210E+01  0.21956989857E+01 -0.10313592447E+02  0.13654160734E+02  0.51100000000E-03 0.  1.
        -12    1    3    3    0    0  0.18078910555E+02  0.80066311864E+01 -0.46285687578E+01  0.20307062775E+02  0.00000000000E+00 0.  1.
</event>
<event>
 7    1  0.1052674E-011  0.5930194E+02  0.7816164E-02  0.1266605E+00
        -11   -1    0    0    0    0  0.00000000000E+00  0.00000000000E+00  0.45593999997E+02  0.45594000000E+02  0.51100000000E-03 0. -1.
         11   -1    0    0    0    0 -0.00000000000E+00 -0.00000000000E+00 -0.45593999997E+02  0.45594000000E+02  0.51100000000E-03 0.  1.
    9900012    2    1    2    0    0 -0.10216069431E+02  0.12783202879E+02 -0.27366810796E+02  0.59301942175E+02  0.49999996621E+02 0.  0.
        -12    1    1    2    0    0  0.10216069431E+02 -0.12783202879E+02  0.27366810796E+02  0.31886057825E+02  0.00000000000E+00 0.  1.
         11    1    3    3    0    0 -0.83544184218E+01 -0.11467739096E+02  0.27604751225E+01  0.14454257861E+02  0.51100000000E-03 0. -1.
        -11    1    3    3    0    0 -0.97552733577E+01  0.40035160313E+01 -0.15135226535E+02  0.18446370413E+02  0.51100000000E-03 0.  1.
         12    1    3    3    0    0  0.78936223489E+01  0.20247425944E+02 -0.14992059384E+02  0.26401313901E+02  0.00000000000E+00 0. -1.
</event>
<event>
 7    1  0.1052674E-011  0.5930181E+02  0.7816164E-02  0.1266605E+00
        -11   -1    0    0    0    0  0.00000000000E+00  0.00000000000E+00  0.45593999997E+02  0.45594000000E+02  0.51100000000E-03 0. -1.
         11   -1    0    0    0    0 -0.00000000000E+00 -0.00000000000E+00 -0.45593999997E+02  0.45594000000E+02  0.51100000000E-03 0.  1.
    9900012    2    1    2    0    0  0.15556939085E+02 -0.20274275840E+02 -0.19069988388E+02  0.59301810644E+02  0.49999756739E+02 0.  0.
        -12    1    1    2    0    0 -0.15556939085E+02  0.20274275840E+02  0.19069988388E+02  0.31886189356E+02  0.00000000000E+00 0.  1.
         11    1    3    3    0    0  0.59771878918E+01  0.12681821262E+01  0.11078259621E+02  0.12651596638E+02  0.51100000000E-03 0. -1.
        -11    1    3    3    0    0 -0.93546023087E+01 -0.66296761322E+01 -0.88041927248E+01  0.14455967618E+02  0.51100000000E-03 0.  1.
         12    1    3    3    0    0  0.18934353502E+02 -0.14912781834E+02 -0.21344055283E+02  0.32194246389E+02  0.00000000000E+00 0. -1.
</event>
<event>
 7    1  0.1052674E-011  0.5930193E+02  0.7816164E-02  0.1266605E+00
        -11   -1    0    0    0    0  0.00000000000E+00  0.00000000000E+00  0.45593999997E+02  0.45594000000E+02  0.51100000000E-03 0.  1.
         11   -1    0    0    0    0 -0.00000000000E+00 -0.00000000000E+00 -0.45593999997E+02  0.45594000000E+02  0.51100000000E-03 0. -1.
    9900012    2    1    2    0    0  0.10837479327E+02  0.15037955693E+02 -0.25944754852E+02  0.59301931350E+02  0.49999976879E+02 0.  0.
        -12    1    1    2    0    0 -0.10837479327E+02 -0.15037955693E+02  0.25944754852E+02  0.31886068650E+02  0.00000000000E+00 0.  1.
         11    1    3    3    0    0  0.15002317757E+02  0.16150682860E+01 -0.15959695863E+02  0.21963375787E+02  0.51100000000E-03 0. -1.
        -11    1    3    3    0    0 -0.12309031787E+01  0.21997900633E+02  0.22118396852E+01  0.22143057376E+02  0.51100000000E-03 0.  1.
        -12    1    3    3    0    0 -0.29339352513E+01 -0.85750132261E+01 -0.12196898675E+02  0.15195498188E+02  0.00000000000E+00 0.  1.
</event>
<event>
 7    1  0.1052674E-011  0.5930196E+02  0.7816164E-02  0.1266605E+00
        -11   -1    0    0    0    0  0.00000000000E+00  0.00000000000E+00  0.45593999997E+02  0.45594000000E+02  0.51100000000E-03 0. -1.
         11   -1    0    0    0    0 -0.00000000000E+00 -0.00000000000E+00 -0.45593999997E+02  0.45594000000E+02  0.51100000000E-03 0.  1.
    9900012    2    1    2    0    0  0.87065882115E-01  0.11618972158E+02  0.29693631573E+02  0.59301955239E+02  0.50000020448E+02 0.  0.
        -12    1    1    2    0    0 -0.87065882115E-01 -0.11618972158E+02 -0.29693631573E+02  0.31886044761E+02  0.00000000000E+00 0.  1.
         11    1    3    3    0    0  0.16100452861E+02 -0.12436201617E+02  0.75669320513E+01  0.21705809220E+02  0.51100000000E-03 0. -1.
        -11    1    3    3    0    0 -0.46190587650E+01  0.15257579309E+02  0.12789363447E+02  0.20437642914E+02  0.51100000000E-03 0.  1.
        -12    1    3    3    0    0 -0.11394328214E+02  0.87975944659E+01  0.93373360747E+01  0.17158503105E+02  0.00000000000E+00 0.  1.
</event>
<event>
 7    1  0.1052674E-011  0.5930197E+02  0.7816164E-02  0.1266605E+00
        -11   -1    0    0    0    0  0.00000000000E+00  0.00000000000E+00  0.45593999997E+02  0.45594000000E+02  0.51100000000E-03 0. -1.
         11   -1    0    0    0    0 -0.00000000000E+00 -0.00000000000E+00 -0.45593999997E+02  0.45594000000E+02  0.51100000000E-03 0.  1.
    9900012    2    1    2    0    0 -0.12884965867E+02  0.25145428522E+02 -0.14778507528E+02  0.59301965350E+02  0.50000038886E+02 0.  0.
        -12    1    1    2    0    0  0.12884965867E+02 -0.25145428522E+02  0.14778507528E+02  0.31886034650E+02  0.00000000000E+00 0.  1.
         11    1    3    3    0    0 -0.25532548112E+02  0.10950571207E+02 -0.16212672085E+02  0.32166391767E+02  0.51100000000E-03 0. -1.
        -11    1    3    3    0    0  0.47070688973E+01 -0.39707631186E+01 -0.29546381195E+01  0.68303253236E+01  0.51100000000E-03 0.  1.
         12    1    3    3    0    0  0.79405133480E+01  0.18165620433E+02  0.43888026764E+01  0.20305248260E+02  0.00000000000E+00 0. -1.
</event>
<event>
 7    1  0.1052674E-011  0.5930205E+02  0.7816164E-02  0.1266604E+00
        -11   -1    0    0    0    0  0.00000000000E+00  0.00000000000E+00  0.45593999997E+02  0.45594000000E+02  0.51100000000E-03 0.  1.
         11   -1    0    0    0    0 -0.00000000000E+00 -0.00000000000E+00 -0.45593999997E+02  0.45594000000E+02  0.51100000000E-03 0. -1.
    9900012    2    1    2    0    0  0.17136918227E+02 -0.14610308118E+00 -0.26889006059E+02  0.59302047619E+02  0.50000188925E+02 0.  0.
        -12    1    1    2    0    0 -0.17136918227E+02  0.14610308118E+00  0.26889006059E+02  0.31885952381E+02  0.00000000000E+00 0.  1.
         11    1    3    3    0    0 -0.49437599774E+00  0.16050219828E+02 -0.20868453474E+02  0.26331470046E+02  0.51100000000E-03 0. -1.
        -11    1    3    3    0    0  0.17292341650E+02 -0.21182254840E+02 -0.42718253645E+01  0.27676009323E+02  0.51100000000E-03 0.  1.
        -12    1    3    3    0    0  0.33895257468E+00  0.49859319302E+01 -0.17487272203E+01  0.52945682498E+01  0.00000000000E+00 0.  1.
</event>
<event>
 7    1  0.1052674E-011  0.5930196E+02  0.7816164E-02  0.1266605E+00
        -11   -1    0    0    0    0  0.00000000000E+00  0.00000000000E+00  0.45593999997E+02  0.45594000000E+02  0.51100000000E-03 0.  1.
         11   -1    0    0    0    0 -0.00000000000E+00 -0.00000000000E+00 -0.45593999997E+02  0.45594000000E+02  0.51100000000E-03 0. -1.
    9900012    2    1    2    0    0 -0.10556574575E+02 -0.55382199643E+01 -0.29573749994E+02  0.59301955469E+02  0.50000020866E+02 0.  0.
        -12    1    1    2    0    0  0.10556574575E+02  0.55382199643E+01  0.29573749994E+02  0.31886044531E+02  0.00000000000E+00 0.  1.
         11    1    3    3    0    0 -0.27431618495E+02 -0.29998177854E+01 -0.11527746761E+02  0.29906212492E+02  0.51100000000E-03 0. -1.
        -11    1    3    3    0    0  0.10148314897E+02  0.62831287680E+01 -0.11148717031E+02  0.16332785864E+02  0.51100000000E-03 0.  1.
        -12    1    3    3    0    0  0.67267290220E+01 -0.88215309469E+01 -0.68972862022E+01  0.13062957113E+02  0.00000000000E+00 0.  1.
</event>
<event>
 7    1  0.1052674E-011  0.5930197E+02  0.7816164E-02  0.1266605E+00
        -11   -1    0    0    0    0  0.00000000000E+00  0.00000000000E+00  0.45593999997E+02  0.45594000000E+02  0.51100000000E-03 0.  1.
         11   -1    0    0    0    0 -0.00000000000E+00 -0.00000000000E+00 -0.45593999997E+02  0.45594000000E+02  0.51100000000E-03 0. -1.
    9900012    2    1    2    0    0 -0.11076101143E+02 -0.20678491399E+02 -0.21597203491E+02  0.59301965099E+02  0.50000038430E+02 0.  0.
        -12    1    1    2    0    0  0.11076101143E+02  0.20678491399E+02  0.21597203491E+02  0.31886034901E+02  0.00000000000E+00 0.  1.
         11    1    3    3    0    0 -0.29920735185E+01 -0.33050433075E+02 -0.24244560818E+02  0.41098447171E+02  0.51100000000E-03 0. -1.
        -11    1    3    3    0    0 -0.90646540614E+01  0.11113682280E+02  0.51478200472E+01  0.15237517468E+02  0.51100000000E-03 0.  1.
        -12    1    3    3    0    0  0.98062643705E+00  0.12582593955E+01 -0.25004627206E+01  0.29660004606E+01  0.00000000000E+00 0.  1.
</event>
<event>
 7    1  0.1052674E-011  0.5930197E+02  0.7816164E-02  0.1266605E+00
        -11   -1    0    0    0    0  0.00000000000E+00  0.00000000000E+00  0.45593999997E+02  0.45594000000E+02  0.51100000000E-03 0.  1.
         11   -1    0    0    0    0 -0.00000000000E+00 -0.00000000000E+00 -0.45593999997E+02  0.45594000000E+02  0.51100000000E-03 0. -1.
    9900012    2    1    2    0    0 -0.26445088378E+02  0.17813658018E+02  0.22294775221E+00  0.59301971445E+02  0.50000050003E+02 0.  0.
        -12    1    1    2    0    0  0.26445088378E+02 -0.17813658018E+02 -0.22294775221E+00  0.31886028555E+02  0.00000000000E+00 0.  1.
         11    1    3    3    0    0 -0.31586806295E+02  0.45399951254E+01  0.14826662275E+02  0.35187608645E+02  0.51100000000E-03 0. -1.
        -11    1    3    3    0    0  0.42475892388E+01  0.12213873521E+00 -0.86765205203E+01  0.96612080410E+01  0.51100000000E-03 0.  1.
         12    1    3    3    0    0  0.89412867857E+00  0.13151524157E+02 -0.59271940024E+01  0.14453154759E+02  0.00000000000E+00 0. -1.
</event>
<event>
 7    1  0.1052674E-011  0.5930193E+02  0.7816164E-02  0.1266605E+00
        -11   -1    0    0    0    0  0.00000000000E+00  0.00000000000E+00  0.45593999997E+02  0.45594000000E+02  0.51100000000E-03 0. -1.
         11   -1    0    0    0    0 -0.00000000000E+00 -0.00000000000E+00 -0.45593999997E+02  0.45594000000E+02  0.51100000000E-03 0.  1.
    9900012    2    1    2    0    0  0.59406936441E+01  0.29829330213E+02 -0.95729247398E+01  0.59301926708E+02  0.49999968413E+02 0.  0.
        -12    1    1    2    0    0 -0.59406936441E+01 -0.29829330213E+02  0.95729247398E+01  0.31886073292E+02  0.00000000000E+00 0.  1.
         11    1    3    3    0    0  0.88929657711E+01  0.22362664447E+02 -0.25503475944E+02  0.35065665356E+02  0.51100000000E-03 0. -1.
        -11    1    3    3    0    0  0.31187260607E+01 -0.26822401801E+01 -0.33366556121E+00  0.41270083103E+01  0.51100000000E-03 0.  1.
         12    1    3    3    0    0 -0.60709981877E+01  0.10148905946E+02  0.16264216766E+02  0.20109253042E+02  0.00000000000E+00 0. -1.
</event>
<event>
 7    1  0.1052674E-011  0.5930191E+02  0.7816164E-02  0.1266605E+00
        -11   -1    0    0    0    0  0.00000000000E+00  0.00000000000E+00  0.45593999997E+02  0.45594000000E+02  0.51100000000E-03 0.  1.
         11   -1    0    0    0    0 -0.00000000000E+00 -0.00000000000E+00 -0.45593999997E+02  0.45594000000E+02  0.51100000000E-03 0. -1.
    9900012    2    1    2    0    0  0.11848048334E+02  0.29437671651E+02 -0.31256861763E+01  0.59301910939E+02  0.49999939654E+02 0.  0.
        -12    1    1    2    0    0 -0.11848048334E+02 -0.29437671651E+02  0.31256861763E+01  0.31886089061E+02  0.00000000000E+00 0.  1.
         11    1    3    3    0    0  0.16598113387E+02 -0.22352477600E+01 -0.14342345240E+02  0.22049865482E+02  0.51100000000E-03 0. -1.
        -11    1    3    3    0    0  0.23986878193E+01  0.21454059731E+02  0.12103770551E+02  0.24749376639E+02  0.51100000000E-03 0.  1.
         12    1    3    3    0    0 -0.71487528721E+01  0.10218859679E+02 -0.88711148797E+00  0.12502668818E+02  0.00000000000E+00 0. -1.
</event>
<event>
 7    1  0.1052674E-011  0.5930191E+02  0.7816164E-02  0.1266605E+00
        -11   -1    0    0    0    0  0.00000000000E+00  0.00000000000E+00  0.45593999997E+02  0.45594000000E+02  0.51100000000E-03 0.  1.
         11   -1    0    0    0    0 -0.00000000000E+00 -0.00000000000E+00 -0.45593999997E+02  0.45594000000E+02  0.51100000000E-03 0. -1.
    9900012    2    1    2    0    0 -0.17977784441E+02 -0.26118491402E+02  0.33684111280E+01  0.59301913379E+02  0.49999944103E+02 0.  0.
        -12    1    1    2    0    0  0.17977784441E+02  0.26118491402E+02 -0.33684111280E+01  0.31886086621E+02  0.00000000000E+00 0.  1.
         11    1    3    3    0    0 -0.17837972466E+01  0.77927939500E+01  0.27832817035E+01  0.84650001457E+01  0.51100000000E-03 0. -1.
        -11    1    3    3    0    0 -0.26517318725E+02 -0.26096252292E+02 -0.32141811074E+01  0.37343185944E+02  0.51100000000E-03 0.  1.
        -12    1    3    3    0    0  0.10323331531E+02 -0.78150330601E+01  0.37993105319E+01  0.13493727289E+02  0.00000000000E+00 0.  1.
</event>
<event>
 7    1  0.1052674E-011  0.5930195E+02  0.7816164E-02  0.1266605E+00
        -11   -1    0    0    0    0  0.00000000000E+00  0.00000000000E+00  0.45593999997E+02  0.45594000000E+02  0.51100000000E-03 0. -1.
         11   -1    0    0    0    0 -0.00000000000E+00 -0.00000000000E+00 -0.45593999997E+02  0.45594000000E+02  0.51100000000E-03 0.  1.
    9900012    2    1    2    0    0 -0.25533870281E+02 -0.17371653814E+02  0.79352123059E+01  0.59301945334E+02  0.50000002383E+02 0.  0.
        -12    1    1    2    0    0  0.25533870281E+02  0.17371653814E+02 -0.79352123059E+01  0.31886054666E+02  0.00000000000E+00 0.  1.
         11    1    3    3    0    0  0.94854903307E+00  0.66901066830E+01 -0.94254193172E+01  0.11597232526E+02  0.51100000000E-03 0. -1.
        -11    1    3    3    0    0 -0.15066193929E+02 -0.27597528009E+02  0.77879821580E+01  0.32392382100E+02  0.51100000000E-03 0.  1.
         12    1    3    3    0    0 -0.11416225385E+02  0.35357675119E+01  0.95726494651E+01  0.15312330709E+02  0.00000000000E+00 0. -1.
</event>
<event>
 7    1  0.1052674E-011  0.5930170E+02  0.7816164E-02  0.1266606E+00
        -11   -1    0    0    0    0  0.00000000000E+00  0.00000000000E+00  0.45593999997E+02  0.45594000000E+02  0.51100000000E-03 0.  1.
         11   -1    0    0    0    0 -0.00000000000E+00 -0.00000000000E+00 -0.45593999997E+02  0.45594000000E+02  0.51100000000E-03 0. -1.
    9900012    2    1    2    0    0  0.21199859509E+02 -0.23469144470E+02 -0.40622077333E+01  0.59301697031E+02  0.49999549535E+02 0.  0.
        -12    1    1    2    0    0 -0.21199859509E+02  0.23469144470E+02  0.40622077333E+01  0.31886302969E+02  0.00000000000E+00 0.  1.
         11    1    3    3    0    0  0.16145340185E+02 -0.21792656697E+02  0.50748926094E+01  0.27592506788E+02  0.51100000000E-03 0. -1.
        -11    1    3    3    0    0 -0.13549824268E+01  0.11631678451E+02  0.35508231401E+01  0.12236840532E+02  0.51100000000E-03 0.  1.
        -12    1    3    3    0    0  0.64095017515E+01 -0.13308166224E+02 -0.12687923483E+02  0.19472349711E+02  0.00000000000E+00 0.  1.
</event>
<event>
 7    1  0.1052674E-011  0.5930192E+02  0.7816164E-02  0.1266605E+00
        -11   -1    0    0    0    0  0.00000000000E+00  0.00000000000E+00  0.45593999997E+02  0.45594000000E+02  0.51100000000E-03 0. -1.
         11   -1    0    0    0    0 -0.00000000000E+00 -0.00000000000E+00 -0.45593999997E+02  0.45594000000E+02  0.51100000000E-03 0.  1.
    9900012    2    1    2    0    0 -0.14114577808E+02  0.28588064618E+02 -0.47269412209E+00  0.59301918631E+02  0.49999953683E+02 0.  0.
        -12    1    1    2    0    0  0.14114577808E+02 -0.28588064618E+02  0.47269412209E+00  0.31886081369E+02  0.00000000000E+00 0.  1.
         11    1    3    3    0    0 -0.30767369254E+01 -0.12204903246E+02  0.27741815613E+01  0.12888834585E+02  0.51100000000E-03 0.  1.
        -11    1    3    3    0    0 -0.92464943645E+01  0.40365840479E+02 -0.72180520422E+01  0.42035687352E+02  0.51100000000E-03 0. -1.
         12    1    3    3    0    0 -0.17913465183E+01  0.42712738511E+00  0.39711763588E+01  0.43773966949E+01  0.00000000000E+00 0. -1.
</event>
<event>
 7    1  0.1052674E-011  0.5930193E+02  0.7816164E-02  0.1266605E+00
        -11   -1    0    0    0    0  0.00000000000E+00  0.00000000000E+00  0.45593999997E+02  0.45594000000E+02  0.51100000000E-03 0.  1.
         11   -1    0    0    0    0 -0.00000000000E+00 -0.00000000000E+00 -0.45593999997E+02  0.45594000000E+02  0.51100000000E-03 0. -1.
    9900012    2    1    2    0    0  0.27767280494E+02  0.38262488511E+01 -0.15200641961E+02  0.59301928396E+02  0.49999971491E+02 0.  0.
        -12    1    1    2    0    0 -0.27767280494E+02 -0.38262488511E+01  0.15200641961E+02  0.31886071604E+02  0.00000000000E+00 0.  1.
         11    1    3    3    0    0 -0.47110499898E+01  0.85413502723E+01 -0.11399947828E+02  0.15003581813E+02  0.51100000000E-03 0. -1.
        -11    1    3    3    0    0  0.32476885919E+02 -0.10235883768E+02 -0.10484514779E+02  0.35629292527E+02  0.51100000000E-03 0.  1.
        -12    1    3    3    0    0  0.14445647387E-02  0.55207823471E+01  0.66838206456E+01  0.86690540564E+01  0.00000000000E+00 0.  1.
</event>
<event>
 7    1  0.1052674E-011  0.5930196E+02  0.7816164E-02  0.1266605E+00
        -11   -1    0    0    0    0  0.00000000000E+00  0.00000000000E+00  0.45593999997E+02  0.45594000000E+02  0.51100000000E-03 0.  1.
         11   -1    0    0    0    0 -0.00000000000E+00 -0.00000000000E+00 -0.45593999997E+02  0.45594000000E+02  0.51100000000E-03 0. -1.
    9900012    2    1    2    0    0 -0.24780787351E+02  0.10890043346E+02  0.16853464840E+02  0.59301956926E+02  0.50000023522E+02 0.  0.
        -12    1    1    2    0    0  0.24780787351E+02 -0.10890043346E+02 -0.16853464840E+02  0.31886043074E+02  0.00000000000E+00 0.  1.
         11    1    3    3    0    0  0.27748314657E+01  0.11150054282E+02 -0.89040766136E+01  0.14536367523E+02  0.51100000000E-03 0. -1.
        -11    1    3    3    0    0 -0.44904995395E+01 -0.91598165859E+01  0.14175266000E+02  0.17464392129E+02  0.51100000000E-03 0.  1.
        -12    1    3    3    0    0 -0.23065119278E+02  0.88998056500E+01  0.11582275453E+02  0.27301197274E+02  0.00000000000E+00 0.  1.
</event>
<event>
 7    1  0.1052674E-011  0.5930194E+02  0.7816164E-02  0.1266605E+00
        -11   -1    0    0    0    0  0.00000000000E+00  0.00000000000E+00  0.45593999997E+02  0.45594000000E+02  0.51100000000E-03 0.  1.
         11   -1    0    0    0    0 -0.00000000000E+00 -0.00000000000E+00 -0.45593999997E+02  0.45594000000E+02  0.51100000000E-03 0. -1.
    9900012    2    1    2    0    0  0.64946529292E+01 -0.17313988846E+01 -0.31169578578E+02  0.59301938978E+02  0.49999990791E+02 0.  0.
        -12    1    1    2    0    0 -0.64946529292E+01  0.17313988846E+01  0.31169578578E+02  0.31886061022E+02  0.00000000000E+00 0.  1.
         11    1    3    3    0    0  0.19520834504E+02 -0.52386382823E+01 -0.90553952563E+01  0.22147381206E+02  0.51100000000E-03 0. -1.
        -11    1    3    3    0    0 -0.11382136194E+02 -0.10166507128E+02 -0.15919948526E+02  0.22053472581E+02  0.51100000000E-03 0.  1.
        -12    1    3    3    0    0 -0.16440453810E+01  0.13673746526E+02 -0.61942347949E+01  0.15101085192E+02  0.00000000000E+00 0.  1.
</event>
<event>
 7    1  0.1052674E-011  0.5930198E+02  0.7816164E-02  0.1266605E+00
        -11   -1    0    0    0    0  0.00000000000E+00  0.00000000000E+00  0.45593999997E+02  0.45594000000E+02  0.51100000000E-03 0. -1.
         11   -1    0    0    0    0 -0.00000000000E+00 -0.00000000000E+00 -0.45593999997E+02  0.45594000000E+02  0.51100000000E-03 0.  1.
    9900012    2    1    2    0    0  0.22029530906E+02 -0.20479105397E+02 -0.10584145911E+02  0.59301982148E+02  0.50000069522E+02 0.  0.
        -12    1    1    2    0    0 -0.22029530906E+02  0.20479105397E+02  0.10584145911E+02  0.31886017852E+02  0.00000000000E+00 0.  1.
         11    1    3    3    0    0 -0.35552782034E+01  0.63105108794E+01  0.30665424930E-01  0.72431685948E+01  0.51100000000E-03 0. -1.
        -11    1    3    3    0    0  0.20817862893E+02 -0.35243439315E+02 -0.62109785595E+01  0.41401203909E+02  0.51100000000E-03 0.  1.
        -12    1    3    3    0    0  0.47669462165E+01  0.84538230384E+01 -0.44038327765E+01  0.10657609644E+02  0.00000000000E+00 0.  1.
</event>
<event>
 7    1  0.1052674E-011  0.5930192E+02  0.7816164E-02  0.1266605E+00
        -11   -1    0    0    0    0  0.00000000000E+00  0.00000000000E+00  0.45593999997E+02  0.45594000000E+02  0.51100000000E-03 0.  1.
         11   -1    0    0    0    0 -0.00000000000E+00 -0.00000000000E+00 -0.45593999997E+02  0.45594000000E+02  0.51100000000E-03 0. -1.
    9900012    2    1    2    0    0 -0.84928982911E+01 -0.20339792170E+02 -0.23040950825E+02  0.59301923386E+02  0.49999962354E+02 0.  0.
        -12    1    1    2    0    0  0.84928982911E+01  0.20339792170E+02  0.23040950825E+02  0.31886076614E+02  0.00000000000E+00 0.  1.
         11    1    3    3    0    0  0.10266950030E+02  0.14231818749E+01 -0.78913492469E+01  0.13027244634E+02  0.51100000000E-03 0. -1.
        -11    1    3    3    0    0 -0.17292182322E+02  0.20830288353E+01  0.98606465800E+00  0.17445082470E+02  0.51100000000E-03 0.  1.
        -12    1    3    3    0    0 -0.14676659986E+01 -0.23846002880E+02 -0.16135666237E+02  0.28829596282E+02  0.00000000000E+00 0.  1.
</event>
<event>
 7    1  0.1052674E-011  0.5930195E+02  0.7816164E-02  0.1266605E+00
        -11   -1    0    0    0    0  0.00000000000E+00  0.00000000000E+00  0.45593999997E+02  0.45594000000E+02  0.51100000000E-03 0.  1.
         11   -1    0    0    0    0 -0.00000000000E+00 -0.00000000000E+00 -0.45593999997E+02  0.45594000000E+02  0.51100000000E-03 0. -1.
    9900012    2    1    2    0    0 -0.17492151641E+02 -0.43076004055E+01 -0.26309487896E+02  0.59301953779E+02  0.50000017784E+02 0.  0.
        -12    1    1    2    0    0  0.17492151641E+02  0.43076004055E+01  0.26309487896E+02  0.31886046221E+02  0.00000000000E+00 0.  1.
         11    1    3    3    0    0 -0.73702832077E+01 -0.16444266601E+01 -0.14530096008E+02  0.16375252788E+02  0.51100000000E-03 0. -1.
        -11    1    3    3    0    0  0.97034447277E+00  0.12613514015E+02  0.84835066710E+01  0.15231946360E+02  0.51100000000E-03 0.  1.
        -12    1    3    3    0    0 -0.11092212906E+02 -0.15276687761E+02 -0.20262898559E+02  0.27694754631E+02  0.00000000000E+00 0.  1.
</event>
<event>
 7    1  0.1052674E-011  0.5930194E+02  0.7816164E-02  0.1266605E+00
        -11   -1    0    0    0    0  0.00000000000E+00  0.00000000000E+00  0.45593999997E+02  0.45594000000E+02  0.51100000000E-03 0.  1.
         11   -1    0    0    0    0 -0.00000000000E+00 -0.00000000000E+00 -0.45593999997E+02  0.45594000000E+02  0.51100000000E-03 0. -1.
    9900012    2    1    2    0    0 -0.75341455508E+01  0.45876791611E+01 -0.30641646176E+02  0.59301943021E+02  0.49999998164E+02 0.  0.
        -12    1    1    2    0    0  0.75341455508E+01 -0.45876791611E+01  0.30641646176E+02  0.31886056979E+02  0.00000000000E+00 0.  1.
         11    1    3    3    0    0  0.63217883738E-01  0.68913998973E+01 -0.36072378219E+01  0.77786601681E+01  0.51100000000E-03 0. -1.
        -11    1    3    3    0    0 -0.24110758012E+02 -0.37056872722E+01 -0.67127457817E+01  0.25300626993E+02  0.51100000000E-03 0.  1.
        -12    1    3    3    0    0  0.16513394577E+02  0.14019665359E+01 -0.20321662573E+02  0.26222655860E+02  0.00000000000E+00 0.  1.
</event>
<event>
 7    1  0.1052674E-011  0.5930194E+02  0.7816164E-02  0.1266605E+00
        -11   -1    0    0    0    0  0.00000000000E+00  0.00000000000E+00  0.45593999997E+02  0.45594000000E+02  0.51100000000E-03 0. -1.
         11   -1    0    0    0    0 -0.00000000000E+00 -0.00000000000E+00 -0.45593999997E+02  0.45594000000E+02  0.51100000000E-03 0.  1.
    9900012    2    1    2    0    0 -0.17994187905E+02  0.21280664162E+02  0.15493980390E+02  0.59301938878E+02  0.49999990608E+02 0.  0.
        -12    1    1    2    0    0  0.17994187905E+02 -0.21280664162E+02 -0.15493980390E+02  0.31886061122E+02  0.00000000000E+00 0.  1.
         11    1    3    3    0    0 -0.29733684351E+02  0.25032402733E+02  0.18912474435E+02  0.43224933328E+02  0.51100000000E-03 0. -1.
        -11    1    3    3    0    0  0.76915457407E+01 -0.30795603997E+01 -0.68325651836E+01  0.10739064921E+02  0.51100000000E-03 0.  1.
         12    1    3    3    0    0  0.40479507057E+01 -0.67217817151E+00  0.34140711387E+01  0.53379406282E+01  0.00000000000E+00 0. -1.
</event>
<event>
 7    1  0.1052674E-011  0.5930168E+02  0.7816164E-02  0.1266606E+00
        -11   -1    0    0    0    0  0.00000000000E+00  0.00000000000E+00  0.45593999997E+02  0.45594000000E+02  0.51100000000E-03 0.  1.
         11   -1    0    0    0    0 -0.00000000000E+00 -0.00000000000E+00 -0.45593999997E+02  0.45594000000E+02  0.51100000000E-03 0. -1.
    9900012    2    1    2    0    0  0.19416106041E+02 -0.10638301136E+02 -0.22947303760E+02  0.59301680446E+02  0.49999519288E+02 0.  0.
        -12    1    1    2    0    0 -0.19416106041E+02  0.10638301136E+02  0.22947303760E+02  0.31886319554E+02  0.00000000000E+00 0.  1.
         11    1    3    3    0    0 -0.75217314036E+01 -0.64773303504E+01 -0.28491635124E+02  0.30171269845E+02  0.51100000000E-03 0. -1.
        -11    1    3    3    0    0  0.65182365282E+01  0.16200874372E+01  0.40780419205E+01  0.78576406706E+01  0.51100000000E-03 0.  1.
         12    1    3    3    0    0  0.20419600917E+02 -0.57810582229E+01  0.14662894434E+01  0.21272769930E+02  0.00000000000E+00 0. -1.
</event>
<event>
 7    1  0.1052674E-011  0.5930195E+02  0.7816164E-02  0.1266605E+00
        -11   -1    0    0    0    0  0.00000000000E+00  0.00000000000E+00  0.45593999997E+02  0.45594000000E+02  0.51100000000E-03 0.  1.
         11   -1    0    0    0    0 -0.00000000000E+00 -0.00000000000E+00 -0.45593999997E+02  0.45594000000E+02  0.51100000000E-03 0. -1.
    9900012    2    1    2    0    0 -0.99396042018E+01 -0.21952811654E+02 -0.20880570432E+02  0.59301954576E+02  0.50000019238E+02 0.  0.
        -12    1    1    2    0    0  0.99396042018E+01  0.21952811654E+02  0.20880570432E+02  0.31886045424E+02  0.00000000000E+00 0.  1.
         11    1    3    3    0    0 -0.10290892873E+02 -0.26185956110E+02 -0.19056718984E+02  0.33981837976E+02  0.51100000000E-03 0. -1.
        -11    1    3    3    0    0  0.55911631252E+01  0.73022433848E+01  0.90262276970E+01  0.12886296995E+02  0.51100000000E-03 0.  1.
         12    1    3    3    0    0 -0.52398744543E+01 -0.30690989282E+01 -0.10850079145E+02  0.12433819605E+02  0.00000000000E+00 0. -1.
</event>
<event>
 7    1  0.1052674E-011  0.5930191E+02  0.7816164E-02  0.1266605E+00
        -11   -1    0    0    0    0  0.00000000000E+00  0.00000000000E+00  0.45593999997E+02  0.45594000000E+02  0.51100000000E-03 0.  1.
         11   -1    0    0    0    0 -0.00000000000E+00 -0.00000000000E+00 -0.45593999997E+02  0.45594000000E+02  0.51100000000E-03 0. -1.
    9900012    2    1    2    0    0 -0.12230390986E+00 -0.15318808018E+02 -0.27965016989E+02  0.59301905656E+02  0.49999930019E+02 0.  0.
        -12    1    1    2    0    0  0.12230390986E+00  0.15318808018E+02  0.27965016989E+02  0.31886094344E+02  0.00000000000E+00 0.  1.
         11    1    3    3    0    0 -0.43337557252E+01 -0.12172606993E+02 -0.42008822614E+02  0.43951052062E+02  0.51100000000E-03 0. -1.
        -11    1    3    3    0    0  0.35561312947E+01 -0.33581966839E+01  0.88508673630E+01  0.10112438286E+02  0.51100000000E-03 0.  1.
         12    1    3    3    0    0  0.65532052068E+00  0.21199565815E+00  0.51929382620E+01  0.52384153078E+01  0.00000000000E+00 0. -1.
</event>
<event>
 7    1  0.1052674E-011  0.5930195E+02  0.7816164E-02  0.1266605E+00
        -11   -1    0    0    0    0  0.00000000000E+00  0.00000000000E+00  0.45593999997E+02  0.45594000000E+02  0.51100000000E-03 0.  1.
         11   -1    0    0    0    0 -0.00000000000E+00 -0.00000000000E+00 -0.45593999997E+02  0.45594000000E+02  0.51100000000E-03 0. -1.
    9900012    2    1    2    0    0  0.93456874258E+01 -0.22760356752E+02  0.20281625259E+02  0.59301952329E+02  0.50000015139E+02 0.  0.
        -12    1    1    2    0    0 -0.93456874258E+01  0.22760356752E+02 -0.20281625259E+02  0.31886047671E+02  0.00000000000E+00 0.  1.
         11    1    3    3    0    0 -0.13080086936E+01 -0.25503311083E+02 -0.67630682882E+01  0.26417207571E+02  0.51100000000E-03 0. -1.
        -11    1    3    3    0    0 -0.73510075713E+00  0.64526504584E+01  0.71202907303E+01  0.96371993549E+01  0.51100000000E-03 0.  1.
         12    1    3    3    0    0  0.11388796877E+02 -0.37096961279E+01  0.19924402817E+02  0.23247545403E+02  0.00000000000E+00 0. -1.
</event>
<event>
 7    1  0.1052674E-011  0.5930194E+02  0.7816164E-02  0.1266605E+00
        -11   -1    0    0    0    0  0.00000000000E+00  0.00000000000E+00  0.45593999997E+02  0.45594000000E+02  0.51100000000E-03 0.  1.
         11   -1    0    0    0    0 -0.00000000000E+00 -0.00000000000E+00 -0.45593999997E+02  0.45594000000E+02  0.51100000000E-03 0. -1.
    9900012    2    1    2    0    0 -0.23785083925E+02 -0.15999107943E+02 -0.13964922865E+02  0.59301941245E+02  0.49999994926E+02 0.  0.
        -12    1    1    2    0    0  0.23785083925E+02  0.15999107943E+02  0.13964922865E+02  0.31886058755E+02  0.00000000000E+00 0.  1.
         11    1    3    3    0    0 -0.16575670482E+02  0.92556114030E+01 -0.12198389520E+02  0.22565901301E+02  0.51100000000E-03 0. -1.
        -11    1    3    3    0    0 -0.25949408865E+01 -0.21409783763E+02  0.98109765549E+01  0.23693201983E+02  0.51100000000E-03 0.  1.
        -12    1    3    3    0    0 -0.46144725564E+01 -0.38449355826E+01 -0.11577509900E+02  0.13042837961E+02  0.00000000000E+00 0.  1.
</event>
<event>
 7    1  0.1052674E-011  0.5930185E+02  0.7816164E-02  0.1266605E+00
        -11   -1    0    0    0    0  0.00000000000E+00  0.00000000000E+00  0.45593999997E+02  0.45594000000E+02  0.51100000000E-03 0.  1.
         11   -1    0    0    0    0 -0.00000000000E+00 -0.00000000000E+00 -0.45593999997E+02  0.45594000000E+02  0.51100000000E-03 0. -1.
    9900012    2    1    2    0    0 -0.27265246298E+02  0.47942582611E+01 -0.15822387624E+02  0.59301850685E+02  0.49999829765E+02 0.  0.
        -12    1    1    2    0    0  0.27265246298E+02 -0.47942582611E+01  0.15822387624E+02  0.31886149315E+02  0.00000000000E+00 0.  1.
         11    1    3    3    0    0 -0.19357127680E+02 -0.18128487151E+01 -0.31115377165E+01  0.19689247819E+02  0.51100000000E-03 0. -1.
        -11    1    3    3    0    0  0.10838165382E+02  0.10087404205E+02  0.27572333437E+01  0.15060673571E+02  0.51100000000E-03 0.  1.
        -12    1    3    3    0    0 -0.18746284000E+02 -0.34802972288E+01 -0.15468083252E+02  0.24551929295E+02  0.00000000000E+00 0.  1.
</event>
<event>
 7    1  0.1052674E-011  0.5930194E+02  0.7816164E-02  0.1266605E+00
        -11   -1    0    0    0    0  0.00000000000E+00  0.00000000000E+00  0.45593999997E+02  0.45594000000E+02  0.51100000000E-03 0.  1.
         11   -1    0    0    0    0 -0.00000000000E+00 -0.00000000000E+00 -0.45593999997E+02  0.45594000000E+02  0.51100000000E-03 0. -1.
    9900012    2    1    2    0    0 -0.23334583468E+02 -0.85980926620E+01 -0.19957220784E+02  0.59301942789E+02  0.49999997740E+02 0.  0.
        -12    1    1    2    0    0  0.23334583468E+02  0.85980926620E+01  0.19957220784E+02  0.31886057211E+02  0.00000000000E+00 0.  1.
         11    1    3    3    0    0  0.81919135469E+01 -0.95501000705E+01 -0.10953223813E+02  0.16681875526E+02  0.51100000000E-03 0. -1.
        -11    1    3    3    0    0 -0.33125622583E+02 -0.34959585165E+01 -0.99998426263E+00  0.33324594015E+02  0.51100000000E-03 0.  1.
         12    1    3    3    0    0  0.15991255681E+01  0.44479659250E+01 -0.80040127087E+01  0.92954732475E+01  0.00000000000E+00 0. -1.
</event>
<event>
 7    1  0.1052674E-011  0.5930196E+02  0.7816164E-02  0.1266605E+00
        -11   -1    0    0    0    0  0.00000000000E+00  0.00000000000E+00  0.45593999997E+02  0.45594000000E+02  0.51100000000E-03 0. -1.
         11   -1    0    0    0    0 -0.00000000000E+00 -0.00000000000E+00 -0.45593999997E+02  0.45594000000E+02  0.51100000000E-03 0.  1.
    9900012    2    1    2    0    0 -0.22875736773E+02  0.10371309414E+02  0.19643229486E+02  0.59301955145E+02  0.50000020275E+02 0.  0.
        -12    1    1    2    0    0  0.22875736773E+02 -0.10371309414E+02 -0.19643229486E+02  0.31886044855E+02  0.00000000000E+00 0.  1.
         11    1    3    3    0    0 -0.65581031269E+01 -0.19057169985E+02  0.47213983270E+01  0.20699662965E+02  0.51100000000E-03 0. -1.
        -11    1    3    3    0    0 -0.10520413334E+01  0.13239028113E+02  0.67485811454E+01  0.14897046824E+02  0.51100000000E-03 0.  1.
         12    1    3    3    0    0 -0.15265592313E+02  0.16189451286E+02  0.81732500137E+01  0.23705245356E+02  0.00000000000E+00 0. -1.
</event>
<event>
 7    1  0.1052674E-011  0.5930193E+02  0.7816164E-02  0.1266605E+00
        -11   -1    0    0    0    0  0.00000000000E+00  0.00000000000E+00  0.45593999997E+02  0.45594000000E+02  0.51100000000E-03 0.  1.
         11   -1    0    0    0    0 -0.00000000000E+00 -0.00000000000E+00 -0.45593999997E+02  0.45594000000E+02  0.51100000000E-03 0. -1.
    9900012    2    1    2    0    0  0.25671858561E+02 -0.12015564921E+02 -0.14604904758E+02  0.59301931485E+02  0.49999977125E+02 0.  0.
        -12    1    1    2    0    0 -0.25671858561E+02  0.12015564921E+02  0.14604904758E+02  0.31886068515E+02  0.00000000000E+00 0.  1.
         11    1    3    3    0    0  0.43190836821E+01 -0.13007088731E+01 -0.10836858916E+02  0.11738136090E+02  0.51100000000E-03 0. -1.
        -11    1    3    3    0    0  0.53327868874E+01 -0.20492169922E+02  0.10833184405E+02  0.23784985363E+02  0.51100000000E-03 0.  1.
        -12    1    3    3    0    0  0.16019987991E+02  0.97773138738E+01 -0.14601230247E+02  0.23778810032E+02  0.00000000000E+00 0.  1.
</event>
<event>
 7    1  0.1052674E-011  0.5930231E+02  0.7816164E-02  0.1266604E+00
        -11   -1    0    0    0    0  0.00000000000E+00  0.00000000000E+00  0.45593999997E+02  0.45594000000E+02  0.51100000000E-03 0.  1.
         11   -1    0    0    0    0 -0.00000000000E+00 -0.00000000000E+00 -0.45593999997E+02  0.45594000000E+02  0.51100000000E-03 0. -1.
    9900012    2    1    2    0    0 -0.59948209925E+01 -0.21643486915E+02 -0.22634466539E+02  0.59302306028E+02  0.50000660196E+02 0.  0.
        -12    1    1    2    0    0  0.59948209925E+01  0.21643486915E+02  0.22634466539E+02  0.31885693972E+02  0.00000000000E+00 0.  1.
         11    1    3    3    0    0 -0.96212988623E+01 -0.10607455809E+02 -0.25607926985E+02  0.29340303940E+02  0.51100000000E-03 0. -1.
        -11    1    3    3    0    0  0.75231625036E+01  0.67675152683E+01  0.55734015521E+01  0.11552490731E+02  0.51100000000E-03 0.  1.
         12    1    3    3    0    0 -0.38966846338E+01 -0.17803546374E+02 -0.25999411060E+01  0.18409511357E+02  0.00000000000E+00 0. -1.
</event>
<event>
 7    1  0.1052674E-011  0.5930193E+02  0.7816164E-02  0.1266605E+00
        -11   -1    0    0    0    0  0.00000000000E+00  0.00000000000E+00  0.45593999997E+02  0.45594000000E+02  0.51100000000E-03 0.  1.
         11   -1    0    0    0    0 -0.00000000000E+00 -0.00000000000E+00 -0.45593999997E+02  0.45594000000E+02  0.51100000000E-03 0. -1.
    9900012    2    1    2    0    0 -0.21825736048E+02  0.38173633255E+01 -0.22930037531E+02  0.59301927210E+02  0.49999969329E+02 0.  0.
        -12    1    1    2    0    0  0.21825736048E+02 -0.38173633255E+01  0.22930037531E+02  0.31886072790E+02  0.00000000000E+00 0.  1.
         11    1    3    3    0    0 -0.17901407629E+01 -0.33857707325E+01 -0.85519013100E+01  0.93703288993E+01  0.51100000000E-03 0. -1.
        -11    1    3    3    0    0 -0.31861838285E+02  0.37859432455E+01 -0.18392294516E+02  0.36983599108E+02  0.51100000000E-03 0.  1.
        -12    1    3    3    0    0  0.11826243000E+02  0.34171908125E+01  0.40141582953E+01  0.12947999203E+02  0.00000000000E+00 0.  1.
</event>
<event>
 7    1  0.1052674E-011  0.5930192E+02  0.7816164E-02  0.1266605E+00
        -11   -1    0    0    0    0  0.00000000000E+00  0.00000000000E+00  0.45593999997E+02  0.45594000000E+02  0.51100000000E-03 0.  1.
         11   -1    0    0    0    0 -0.00000000000E+00 -0.00000000000E+00 -0.45593999997E+02  0.45594000000E+02  0.51100000000E-03 0. -1.
    9900012    2    1    2    0    0  0.83197735869E+01 -0.27799411247E+01 -0.30655759485E+02  0.59301916911E+02  0.49999950545E+02 0.  0.
        -12    1    1    2    0    0 -0.83197735869E+01  0.27799411247E+01  0.30655759485E+02  0.31886083089E+02  0.00000000000E+00 0.  1.
         11    1    3    3    0    0 -0.77732554040E+01 -0.24327907605E+00 -0.39408479286E+02  0.40168531517E+02  0.51100000000E-03 0. -1.
        -11    1    3    3    0    0  0.30149395649E+01 -0.18073072147E+01  0.36742853623E+01  0.50849378692E+01  0.51100000000E-03 0.  1.
         12    1    3    3    0    0  0.13078089426E+02 -0.72935483391E+00  0.50784344391E+01  0.14048447525E+02  0.00000000000E+00 0. -1.
</event>
<event>
 7    1  0.1052674E-011  0.5930195E+02  0.7816164E-02  0.1266605E+00
        -11   -1    0    0    0    0  0.00000000000E+00  0.00000000000E+00  0.45593999997E+02  0.45594000000E+02  0.51100000000E-03 0.  1.
         11   -1    0    0    0    0 -0.00000000000E+00 -0.00000000000E+00 -0.45593999997E+02  0.45594000000E+02  0.51100000000E-03 0. -1.
    9900012    2    1    2    0    0 -0.29965193431E+02 -0.10800715701E+02  0.14670317833E+01  0.59301945693E+02  0.50000003038E+02 0.  0.
        -12    1    1    2    0    0  0.29965193431E+02  0.10800715701E+02 -0.14670317833E+01  0.31886054307E+02  0.00000000000E+00 0.  1.
         11    1    3    3    0    0 -0.18235100851E+02  0.70527368097E+01  0.60021856602E+01  0.20452047147E+02  0.51100000000E-03 0. -1.
        -11    1    3    3    0    0 -0.13611826200E+02 -0.26457448972E+02 -0.40645694373E+01  0.30029970756E+02  0.51100000000E-03 0.  1.
         12    1    3    3    0    0  0.18817336204E+01  0.86039964609E+01 -0.47058443960E+00  0.88199277906E+01  0.00000000000E+00 0. -1.
</event>
<event>
 7    1  0.1052674E-011  0.5930203E+02  0.7816164E-02  0.1266604E+00
        -11   -1    0    0    0    0  0.00000000000E+00  0.00000000000E+00  0.45593999997E+02  0.45594000000E+02  0.51100000000E-03 0. -1.
         11   -1    0    0    0    0 -0.00000000000E+00 -0.00000000000E+00 -0.45593999997E+02  0.45594000000E+02  0.51100000000E-03 0.  1.
    9900012    2    1    2    0    0 -0.70976235808E+01  0.27430458694E+02  0.14625625570E+02  0.59302027411E+02  0.50000152070E+02 0.  0.
        -12    1    1    2    0    0  0.70976235808E+01 -0.27430458694E+02 -0.14625625570E+02  0.31885972589E+02  0.00000000000E+00 0.  1.
         11    1    3    3    0    0 -0.12304473444E+02 -0.74247374855E+00  0.42833982109E+01  0.13049859559E+02  0.51100000000E-03 0.  1.
        -11    1    3    3    0    0  0.78900305756E+01  0.35954105747E+02  0.92052511976E+01  0.37943206934E+02  0.51100000000E-03 0. -1.
         12    1    3    3    0    0 -0.26831807123E+01 -0.77811733053E+01  0.11369761618E+01  0.83089609178E+01  0.00000000000E+00 0. -1.
</event>
<event>
 7    1  0.1052674E-011  0.5930197E+02  0.7816164E-02  0.1266605E+00
        -11   -1    0    0    0    0  0.00000000000E+00  0.00000000000E+00  0.45593999997E+02  0.45594000000E+02  0.51100000000E-03 0.  1.
         11   -1    0    0    0    0 -0.00000000000E+00 -0.00000000000E+00 -0.45593999997E+02  0.45594000000E+02  0.51100000000E-03 0. -1.
    9900012    2    1    2    0    0  0.95836720848E+01  0.30407043584E+02  0.53277107307E+00  0.59301969905E+02  0.50000047195E+02 0.  0.
        -12    1    1    2    0    0 -0.95836720848E+01 -0.30407043584E+02 -0.53277107307E+00  0.31886030095E+02  0.00000000000E+00 0.  1.
         11    1    3    3    0    0  0.56070329560E+01  0.38501228267E+01 -0.15860432184E+02  0.17257333910E+02  0.51100000000E-03 0. -1.
        -11    1    3    3    0    0  0.10582800869E+02  0.19058102234E+02  0.21674995411E+02  0.30741053354E+02  0.51100000000E-03 0.  1.
        -12    1    3    3    0    0 -0.66061617400E+01  0.74988185240E+01 -0.52817921532E+01  0.11303582642E+02  0.00000000000E+00 0.  1.
</event>
<event>
 7    1  0.1052674E-011  0.5930195E+02  0.7816164E-02  0.1266605E+00
        -11   -1    0    0    0    0  0.00000000000E+00  0.00000000000E+00  0.45593999997E+02  0.45594000000E+02  0.51100000000E-03 0.  1.
         11   -1    0    0    0    0 -0.00000000000E+00 -0.00000000000E+00 -0.45593999997E+02  0.45594000000E+02  0.51100000000E-03 0. -1.
    9900012    2    1    2    0    0 -0.15104084947E+02  0.15835704968E+01 -0.28037100882E+02  0.59301951272E+02  0.50000013213E+02 0.  0.
        -12    1    1    2    0    0  0.15104084947E+02 -0.15835704968E+01  0.28037100882E+02  0.31886048728E+02  0.00000000000E+00 0.  1.
         11    1    3    3    0    0  0.54609613905E+01 -0.92664793248E+01 -0.37439822106E+01  0.11388904313E+02  0.51100000000E-03 0. -1.
        -11    1    3    3    0    0 -0.27100308155E+02 -0.54884045607E+00 -0.21207032715E+02  0.34416074221E+02  0.51100000000E-03 0.  1.
        -12    1    3    3    0    0  0.65352618175E+01  0.11398890278E+02 -0.30860859560E+01  0.13496972739E+02  0.00000000000E+00 0.  1.
</event>
<event>
 7    1  0.1052674E-011  0.5930194E+02  0.7816164E-02  0.1266605E+00
        -11   -1    0    0    0    0  0.00000000000E+00  0.00000000000E+00  0.45593999997E+02  0.45594000000E+02  0.51100000000E-03 0.  1.
         11   -1    0    0    0    0 -0.00000000000E+00 -0.00000000000E+00 -0.45593999997E+02  0.45594000000E+02  0.51100000000E-03 0. -1.
    9900012    2    1    2    0    0 -0.20431134738E+02 -0.93998242547E+01 -0.22603825907E+02  0.59301938651E+02  0.49999990195E+02 0.  0.
        -12    1    1    2    0    0  0.20431134738E+02  0.93998242547E+01  0.22603825907E+02  0.31886061349E+02  0.00000000000E+00 0.  1.
         11    1    3    3    0    0 -0.27716530527E+02 -0.91239113807E+01  0.23714560440E+01  0.29275853999E+02  0.51100000000E-03 0.  1.
        -11    1    3    3    0    0  0.45422488302E+01  0.44557192769E+01 -0.23521443909E+02  0.24366858282E+02  0.51100000000E-03 0. -1.
         12    1    3    3    0    0  0.27431469594E+01 -0.47316321509E+01 -0.14538380421E+01  0.56592263698E+01  0.00000000000E+00 0. -1.
</event>
<event>
 7    1  0.1052674E-011  0.5930197E+02  0.7816164E-02  0.1266605E+00
        -11   -1    0    0    0    0  0.00000000000E+00  0.00000000000E+00  0.45593999997E+02  0.45594000000E+02  0.51100000000E-03 0. -1.
         11   -1    0    0    0    0 -0.00000000000E+00 -0.00000000000E+00 -0.45593999997E+02  0.45594000000E+02  0.51100000000E-03 0.  1.
    9900012    2    1    2    0    0 -0.22192960497E+02 -0.22486022460E+02 -0.43093038189E+01  0.59301971695E+02  0.50000050458E+02 0.  0.
        -12    1    1    2    0    0  0.22192960497E+02  0.22486022460E+02  0.43093038189E+01  0.31886028305E+02  0.00000000000E+00 0.  1.
         11    1    3    3    0    0 -0.30193919261E+02 -0.96177494942E+01  0.82649577532E+01  0.32748792231E+02  0.51100000000E-03 0. -1.
        -11    1    3    3    0    0  0.51119224548E+00 -0.15208362280E+02 -0.61529143584E+01  0.16413834290E+02  0.51100000000E-03 0.  1.
         12    1    3    3    0    0  0.74897665189E+01  0.23400893138E+01 -0.64213472137E+01  0.10139345173E+02  0.00000000000E+00 0. -1.
</event>
<event>
 7    1  0.1052674E-011  0.5930197E+02  0.7816164E-02  0.1266605E+00
        -11   -1    0    0    0    0  0.00000000000E+00  0.00000000000E+00  0.45593999997E+02  0.45594000000E+02  0.51100000000E-03 0. -1.
         11   -1    0    0    0    0 -0.00000000000E+00 -0.00000000000E+00 -0.45593999997E+02  0.45594000000E+02  0.51100000000E-03 0.  1.
    9900012    2    1    2    0    0  0.16902218513E+02 -0.17878052928E+02  0.20283223769E+02  0.59301969617E+02  0.50000046668E+02 0.  0.
        -12    1    1    2    0    0 -0.16902218513E+02  0.17878052928E+02 -0.20283223769E+02  0.31886030383E+02  0.00000000000E+00 0.  1.
         11    1    3    3    0    0  0.48494480986E+01 -0.69887862304E+01 -0.11200216478E+02  0.14064321144E+02  0.51100000000E-03 0.  1.
        -11    1    3    3    0    0  0.81872431532E+01  0.61681513239E+01  0.24219137097E+02  0.26299118677E+02  0.51100000000E-03 0. -1.
        -12    1    3    3    0    0  0.38655272611E+01 -0.17057418022E+02  0.72643031490E+01  0.18938529796E+02  0.00000000000E+00 0.  1.
</event>
<event>
 7    1  0.1052674E-011  0.5930196E+02  0.7816164E-02  0.1266605E+00
        -11   -1    0    0    0    0  0.00000000000E+00  0.00000000000E+00  0.45593999997E+02  0.45594000000E+02  0.51100000000E-03 0. -1.
         11   -1    0    0    0    0 -0.00000000000E+00 -0.00000000000E+00 -0.45593999997E+02  0.45594000000E+02  0.51100000000E-03 0.  1.
    9900012    2    1    2    0    0  0.29272138581E+02  0.68549585785E+01  0.10624076764E+02  0.59301959774E+02  0.50000028718E+02 0.  0.
        -12    1    1    2    0    0 -0.29272138581E+02 -0.68549585785E+01 -0.10624076764E+02  0.31886040226E+02  0.00000000000E+00 0.  1.
         11    1    3    3    0    0  0.19298588542E+02  0.58098314415E+01  0.29532999819E+02  0.35754548517E+02  0.51100000000E-03 0. -1.
        -11    1    3    3    0    0  0.10593187167E+02 -0.16266457580E+01 -0.11866975389E+02  0.15990206250E+02  0.51100000000E-03 0.  1.
        -12    1    3    3    0    0 -0.61963712868E+00  0.26717728950E+01 -0.70419476662E+01  0.75572050063E+01  0.00000000000E+00 0.  1.
</event>
<event>
 7    1  0.1052674E-011  0.5930196E+02  0.7816164E-02  0.1266605E+00
        -11   -1    0    0    0    0  0.00000000000E+00  0.00000000000E+00  0.45593999997E+02  0.45594000000E+02  0.51100000000E-03 0. -1.
         11   -1    0    0    0    0 -0.00000000000E+00 -0.00000000000E+00 -0.45593999997E+02  0.45594000000E+02  0.51100000000E-03 0.  1.
    9900012    2    1    2    0    0 -0.11936970386E+02  0.24098438232E+02  0.17131652235E+02  0.59301960806E+02  0.50000030599E+02 0.  0.
        -12    1    1    2    0    0  0.11936970386E+02 -0.24098438232E+02 -0.17131652235E+02  0.31886039194E+02  0.00000000000E+00 0.  1.
         11    1    3    3    0    0 -0.20341533267E+02  0.52398140826E+01  0.16808229743E+01  0.21072702565E+02  0.51100000000E-03 0. -1.
        -11    1    3    3    0    0  0.18640216899E+02  0.13598812961E+02  0.12926362325E+02  0.26447613185E+02  0.51100000000E-03 0.  1.
        -12    1    3    3    0    0 -0.10235654018E+02  0.52598111884E+01  0.25244669354E+01  0.11781645056E+02  0.00000000000E+00 0.  1.
</event>
<event>
 7    1  0.1052674E-011  0.5930192E+02  0.7816164E-02  0.1266605E+00
        -11   -1    0    0    0    0  0.00000000000E+00  0.00000000000E+00  0.45593999997E+02  0.45594000000E+02  0.51100000000E-03 0. -1.
         11   -1    0    0    0    0 -0.00000000000E+00 -0.00000000000E+00 -0.45593999997E+02  0.45594000000E+02  0.51100000000E-03 0.  1.
    9900012    2    1    2    0    0 -0.31556742208E+02 -0.44616028365E+01  0.99419735528E+00  0.59301916718E+02  0.49999950194E+02 0.  0.
        -12    1    1    2    0    0  0.31556742208E+02  0.44616028365E+01 -0.99419735528E+00  0.31886083282E+02  0.00000000000E+00 0.  1.
         11    1    3    3    0    0 -0.12129945857E+02  0.42831166481E+01 -0.12875824421E+01  0.12928207282E+02  0.51100000000E-03 0. -1.
        -11    1    3    3    0    0 -0.41345717014E+01 -0.75449312431E+01  0.20692765722E+02  0.22410069703E+02  0.51100000000E-03 0.  1.
        -12    1    3    3    0    0 -0.15292224650E+02 -0.11997882414E+01 -0.18410985925E+02  0.23963639734E+02  0.00000000000E+00 0.  1.
</event>
<event>
 7    1  0.1052674E-011  0.5930195E+02  0.7816164E-02  0.1266605E+00
        -11   -1    0    0    0    0  0.00000000000E+00  0.00000000000E+00  0.45593999997E+02  0.45594000000E+02  0.51100000000E-03 0.  1.
         11   -1    0    0    0    0 -0.00000000000E+00 -0.00000000000E+00 -0.45593999997E+02  0.45594000000E+02  0.51100000000E-03 0. -1.
    9900012    2    1    2    0    0 -0.28905730510E+02  0.12694881885E+02  0.44742665736E+01  0.59301947504E+02  0.50000006341E+02 0.  0.
        -12    1    1    2    0    0  0.28905730510E+02 -0.12694881885E+02 -0.44742665736E+01  0.31886052496E+02  0.00000000000E+00 0.  1.
         11    1    3    3    0    0 -0.52609115428E+01 -0.13126978441E+02  0.23433679446E+01  0.14334787296E+02  0.51100000000E-03 0. -1.
        -11    1    3    3    0    0 -0.95683728799E+01  0.27320353182E+02 -0.45688386003E+01  0.29305797106E+02  0.51100000000E-03 0.  1.
        -12    1    3    3    0    0 -0.14076446087E+02 -0.14984928566E+01  0.66997372293E+01  0.15661363102E+02  0.00000000000E+00 0.  1.
</event>
<event>
 7    1  0.1052674E-011  0.5930193E+02  0.7816164E-02  0.1266605E+00
        -11   -1    0    0    0    0  0.00000000000E+00  0.00000000000E+00  0.45593999997E+02  0.45594000000E+02  0.51100000000E-03 0.  1.
         11   -1    0    0    0    0 -0.00000000000E+00 -0.00000000000E+00 -0.45593999997E+02  0.45594000000E+02  0.51100000000E-03 0. -1.
    9900012    2    1    2    0    0  0.41092720635E+00  0.30785776041E+02 -0.82938968069E+01  0.59301927933E+02  0.49999970646E+02 0.  0.
        -12    1    1    2    0    0 -0.41092720635E+00 -0.30785776041E+02  0.82938968069E+01  0.31886072067E+02  0.00000000000E+00 0.  1.
         11    1    3    3    0    0  0.15747641606E+02  0.25270162196E+02 -0.17762193696E+01  0.29828246162E+02  0.51100000000E-03 0. -1.
        -11    1    3    3    0    0 -0.14180651890E+02  0.32856411638E+01 -0.14835967571E+02  0.20784423492E+02  0.51100000000E-03 0.  1.
         12    1    3    3    0    0 -0.11560625100E+01  0.22299726814E+01  0.83182901335E+01  0.86892582786E+01  0.00000000000E+00 0. -1.
</event>
<event>
 7    1  0.1052674E-011  0.5930193E+02  0.7816164E-02  0.1266605E+00
        -11   -1    0    0    0    0  0.00000000000E+00  0.00000000000E+00  0.45593999997E+02  0.45594000000E+02  0.51100000000E-03 0.  1.
         11   -1    0    0    0    0 -0.00000000000E+00 -0.00000000000E+00 -0.45593999997E+02  0.45594000000E+02  0.51100000000E-03 0. -1.
    9900012    2    1    2    0    0  0.24183280286E+02 -0.14495546877E+02  0.14891927962E+02  0.59301930266E+02  0.49999974902E+02 0.  0.
        -12    1    1    2    0    0 -0.24183280286E+02  0.14495546877E+02 -0.14891927962E+02  0.31886069734E+02  0.00000000000E+00 0.  1.
         11    1    3    3    0    0  0.77227129306E+01  0.72172592663E+00 -0.12492631724E+02  0.14704660179E+02  0.51100000000E-03 0. -1.
        -11    1    3    3    0    0  0.11450873809E+02  0.34235504265E+01  0.21185068634E+02  0.24323863628E+02  0.51100000000E-03 0.  1.
         12    1    3    3    0    0  0.50096935468E+01 -0.18640823230E+02  0.61994910526E+01  0.20273406459E+02  0.00000000000E+00 0. -1.
</event>
<event>
 7    1  0.1052674E-011  0.5930193E+02  0.7816164E-02  0.1266605E+00
        -11   -1    0    0    0    0  0.00000000000E+00  0.00000000000E+00  0.45593999997E+02  0.45594000000E+02  0.51100000000E-03 0. -1.
         11   -1    0    0    0    0 -0.00000000000E+00 -0.00000000000E+00 -0.45593999997E+02  0.45594000000E+02  0.51100000000E-03 0.  1.
    9900012    2    1    2    0    0 -0.12657734153E+02 -0.26515347325E+02  0.12387065839E+02  0.59301932858E+02  0.49999979630E+02 0.  0.
        -12    1    1    2    0    0  0.12657734153E+02  0.26515347325E+02 -0.12387065839E+02  0.31886067142E+02  0.00000000000E+00 0.  1.
         11    1    3    3    0    0  0.11612735260E+02 -0.14623669923E+02  0.12481289610E+02  0.22460853341E+02  0.51100000000E-03 0. -1.
        -11    1    3    3    0    0 -0.97286194323E+01  0.65262580114E+01 -0.52133450998E+01  0.12822521089E+02  0.51100000000E-03 0.  1.
        -12    1    3    3    0    0 -0.14541849981E+02 -0.18417935414E+02  0.51191213287E+01  0.24018558428E+02  0.00000000000E+00 0.  1.
</event>
<event>
 7    1  0.1052674E-011  0.5930195E+02  0.7816164E-02  0.1266605E+00
        -11   -1    0    0    0    0  0.00000000000E+00  0.00000000000E+00  0.45593999997E+02  0.45594000000E+02  0.51100000000E-03 0. -1.
         11   -1    0    0    0    0 -0.00000000000E+00 -0.00000000000E+00 -0.45593999997E+02  0.45594000000E+02  0.51100000000E-03 0.  1.
    9900012    2    1    2    0    0  0.68714172889E+01 -0.22322157232E+02 -0.21707721671E+02  0.59301948831E+02  0.50000008759E+02 0.  0.
        -12    1    1    2    0    0 -0.68714172889E+01  0.22322157232E+02  0.21707721671E+02  0.31886051169E+02  0.00000000000E+00 0.  1.
         11    1    3    3    0    0  0.44124952407E+01 -0.70985066064E+01 -0.52697538298E+01  0.98807497680E+01  0.51100000000E-03 0. -1.
        -11    1    3    3    0    0 -0.34530488950E+01  0.13204604437E+02  0.36319763899E+01  0.14123610649E+02  0.51100000000E-03 0.  1.
        -12    1    3    3    0    0  0.59119709432E+01 -0.28428255063E+02 -0.20069944231E+02  0.35297588413E+02  0.00000000000E+00 0.  1.
</event>
<event>
 7    1  0.1052674E-011  0.5930194E+02  0.7816164E-02  0.1266605E+00
        -11   -1    0    0    0    0  0.00000000000E+00  0.00000000000E+00  0.45593999997E+02  0.45594000000E+02  0.51100000000E-03 0.  1.
         11   -1    0    0    0    0 -0.00000000000E+00 -0.00000000000E+00 -0.45593999997E+02  0.45594000000E+02  0.51100000000E-03 0. -1.
    9900012    2    1    2    0    0 -0.30799428284E+02 -0.55365313283E+01 -0.61206973592E+01  0.59301938815E+02  0.49999990492E+02 0.  0.
        -12    1    1    2    0    0  0.30799428284E+02  0.55365313283E+01  0.61206973592E+01  0.31886061185E+02  0.00000000000E+00 0.  1.
         11    1    3    3    0    0 -0.28313644344E+02  0.13528260114E+02 -0.37903256712E+01  0.31607639056E+02  0.51100000000E-03 0. -1.
        -11    1    3    3    0    0 -0.74341303851E+01 -0.20403434416E+02 -0.44160093445E+01  0.22160044434E+02  0.51100000000E-03 0.  1.
         12    1    3    3    0    0  0.49483464456E+01  0.13386429738E+01  0.20856376564E+01  0.55342553239E+01  0.00000000000E+00 0. -1.
</event>
<event>
 7    1  0.1052674E-011  0.5930195E+02  0.7816164E-02  0.1266605E+00
        -11   -1    0    0    0    0  0.00000000000E+00  0.00000000000E+00  0.45593999997E+02  0.45594000000E+02  0.51100000000E-03 0.  1.
         11   -1    0    0    0    0 -0.00000000000E+00 -0.00000000000E+00 -0.45593999997E+02  0.45594000000E+02  0.51100000000E-03 0. -1.
    9900012    2    1    2    0    0 -0.18286587089E+02 -0.25348038030E+02 -0.63085585852E+01  0.59301949590E+02  0.50000010144E+02 0.  0.
        -12    1    1    2    0    0  0.18286587089E+02  0.25348038030E+02  0.63085585852E+01  0.31886050410E+02  0.00000000000E+00 0.  1.
         11    1    3    3    0    0  0.70001079916E+01 -0.44664478110E+01 -0.12746950263E+02  0.15213001322E+02  0.51100000000E-03 0. -1.
        -11    1    3    3    0    0 -0.17614478808E+02 -0.25733387473E+02  0.12033248628E+02  0.33425681254E+02  0.51100000000E-03 0.  1.
        -12    1    3    3    0    0 -0.76722162729E+01  0.48517972537E+01 -0.55948569499E+01  0.10663267014E+02  0.00000000000E+00 0.  1.
</event>
<event>
 7    1  0.1052674E-011  0.5930197E+02  0.7816164E-02  0.1266605E+00
        -11   -1    0    0    0    0  0.00000000000E+00  0.00000000000E+00  0.45593999997E+02  0.45594000000E+02  0.51100000000E-03 0.  1.
         11   -1    0    0    0    0 -0.00000000000E+00 -0.00000000000E+00 -0.45593999997E+02  0.45594000000E+02  0.51100000000E-03 0. -1.
    9900012    2    1    2    0    0 -0.29671081640E+02  0.11656412954E+02  0.68824033990E+00  0.59301972913E+02  0.50000052679E+02 0.  0.
        -12    1    1    2    0    0  0.29671081640E+02 -0.11656412954E+02 -0.68824033990E+00  0.31886027087E+02  0.00000000000E+00 0.  1.
         11    1    3    3    0    0  0.72376325842E+01  0.33513208369E+01 -0.41359533953E+01  0.89844748051E+01  0.51100000000E-03 0. -1.
        -11    1    3    3    0    0 -0.19498556746E+02  0.13940498226E+02  0.16052241049E+02  0.28847974780E+02  0.51100000000E-03 0.  1.
        -12    1    3    3    0    0 -0.17410157478E+02 -0.56354061083E+01 -0.11228047314E+02  0.21469523327E+02  0.00000000000E+00 0.  1.
</event>
<event>
 7    1  0.1052674E-011  0.5930194E+02  0.7816164E-02  0.1266605E+00
        -11   -1    0    0    0    0  0.00000000000E+00  0.00000000000E+00  0.45593999997E+02  0.45594000000E+02  0.51100000000E-03 0.  1.
         11   -1    0    0    0    0 -0.00000000000E+00 -0.00000000000E+00 -0.45593999997E+02  0.45594000000E+02  0.51100000000E-03 0. -1.
    9900012    2    1    2    0    0 -0.13175048126E+02 -0.12373047294E+02  0.26268733232E+02  0.59301944458E+02  0.50000000784E+02 0.  0.
        -12    1    1    2    0    0  0.13175048126E+02  0.12373047294E+02 -0.26268733232E+02  0.31886055542E+02  0.00000000000E+00 0.  1.
         11    1    3    3    0    0  0.21892338027E-01 -0.15086125040E+02 -0.50186795040E+01  0.15899018593E+02  0.51100000000E-03 0. -1.
        -11    1    3    3    0    0  0.11651667835E+01  0.83768763148E+00  0.28643665249E+02  0.28679590188E+02  0.51100000000E-03 0.  1.
         12    1    3    3    0    0 -0.14362107248E+02  0.18753901145E+01  0.26437474868E+01  0.14723335677E+02  0.00000000000E+00 0. -1.
</event>
<event>
 7    1  0.1052674E-011  0.5930195E+02  0.7816164E-02  0.1266605E+00
        -11   -1    0    0    0    0  0.00000000000E+00  0.00000000000E+00  0.45593999997E+02  0.45594000000E+02  0.51100000000E-03 0.  1.
         11   -1    0    0    0    0 -0.00000000000E+00 -0.00000000000E+00 -0.45593999997E+02  0.45594000000E+02  0.51100000000E-03 0. -1.
    9900012    2    1    2    0    0 -0.28973891205E+02 -0.27044894405E+01 -0.13035325175E+02  0.59301947609E+02  0.50000006531E+02 0.  0.
        -12    1    1    2    0    0  0.28973891205E+02  0.27044894405E+01  0.13035325175E+02  0.31886052391E+02  0.00000000000E+00 0.  1.
         11    1    3    3    0    0 -0.58940504888E+01 -0.12790952824E+02 -0.18027360063E+02  0.22876494845E+02  0.51100000000E-03 0. -1.
        -11    1    3    3    0    0 -0.65781526328E+01 -0.72598261087E+01  0.75207991280E+01  0.12350691761E+02  0.51100000000E-03 0.  1.
         12    1    3    3    0    0 -0.16501688083E+02  0.17346289493E+02 -0.25287642404E+01  0.24074761003E+02  0.00000000000E+00 0. -1.
</event>
<event>
 7    1  0.1052674E-011  0.5930201E+02  0.7816164E-02  0.1266605E+00
        -11   -1    0    0    0    0  0.00000000000E+00  0.00000000000E+00  0.45593999997E+02  0.45594000000E+02  0.51100000000E-03 0.  1.
         11   -1    0    0    0    0 -0.00000000000E+00 -0.00000000000E+00 -0.45593999997E+02  0.45594000000E+02  0.51100000000E-03 0. -1.
    9900012    2    1    2    0    0 -0.15266904403E+02 -0.26373036571E+02 -0.93861998509E+01  0.59302012863E+02  0.50000125540E+02 0.  0.
        -12    1    1    2    0    0  0.15266904403E+02  0.26373036571E+02  0.93861998509E+01  0.31885987137E+02  0.00000000000E+00 0.  1.
         11    1    3    3    0    0  0.95044854241E+01  0.51109484462E+01 -0.15003467068E+02  0.18481370662E+02  0.51100000000E-03 0.  1.
        -11    1    3    3    0    0 -0.21306306316E+02 -0.25357011620E+02  0.27976822942E+01  0.33237986605E+02  0.51100000000E-03 0. -1.
        -12    1    3    3    0    0 -0.34650835115E+01 -0.61269733974E+01  0.28195849234E+01  0.75826555965E+01  0.00000000000E+00 0.  1.
</event>
<event>
 7    1  0.1052674E-011  0.5930193E+02  0.7816164E-02  0.1266605E+00
        -11   -1    0    0    0    0  0.00000000000E+00  0.00000000000E+00  0.45593999997E+02  0.45594000000E+02  0.51100000000E-03 0. -1.
         11   -1    0    0    0    0 -0.00000000000E+00 -0.00000000000E+00 -0.45593999997E+02  0.45594000000E+02  0.51100000000E-03 0.  1.
    9900012    2    1    2    0    0 -0.20459202973E+02 -0.21900954995E+02 -0.10885341513E+02  0.59301929752E+02  0.49999973965E+02 0.  0.
        -12    1    1    2    0    0  0.20459202973E+02  0.21900954995E+02  0.10885341513E+02  0.31886070248E+02  0.00000000000E+00 0.  1.
         11    1    3    3    0    0 -0.13999606012E+02  0.74145515246E+01  0.25883836889E+01  0.16051924283E+02  0.51100000000E-03 0. -1.
        -11    1    3    3    0    0  0.95505164262E+01 -0.10166509293E+02 -0.11736447574E+02  0.18229494703E+02  0.51100000000E-03 0.  1.
        -12    1    3    3    0    0 -0.16010113388E+02 -0.19148997226E+02 -0.17372776285E+01  0.25020510767E+02  0.00000000000E+00 0.  1.
</event>
<event>
 7    1  0.1052674E-011  0.5930209E+02  0.7816164E-02  0.1266604E+00
        -11   -1    0    0    0    0  0.00000000000E+00  0.00000000000E+00  0.45593999997E+02  0.45594000000E+02  0.51100000000E-03 0.  1.
         11   -1    0    0    0    0 -0.00000000000E+00 -0.00000000000E+00 -0.45593999997E+02  0.45594000000E+02  0.51100000000E-03 0. -1.
    9900012    2    1    2    0    0  0.28296326331E+02  0.70805610662E+01 -0.12880019364E+02  0.59302088884E+02  0.50000264183E+02 0.  0.
        -12    1    1    2    0    0 -0.28296326331E+02 -0.70805610662E+01  0.12880019364E+02  0.31885911116E+02  0.00000000000E+00 0.  1.
         11    1    3    3    0    0  0.22312627241E+02  0.12521092629E+02  0.13624317327E+02  0.28987119862E+02  0.51100000000E-03 0. -1.
        -11    1    3    3    0    0 -0.34866370550E+01 -0.22781341252E+00 -0.99308249285E+01  0.10527574314E+02  0.51100000000E-03 0.  1.
         12    1    3    3    0    0  0.94703361454E+01 -0.52127181502E+01 -0.16573511762E+02  0.19787394709E+02  0.00000000000E+00 0. -1.
</event>
<event>
 7    1  0.1052674E-011  0.5930195E+02  0.7816164E-02  0.1266605E+00
        -11   -1    0    0    0    0  0.00000000000E+00  0.00000000000E+00  0.45593999997E+02  0.45594000000E+02  0.51100000000E-03 0. -1.
         11   -1    0    0    0    0 -0.00000000000E+00 -0.00000000000E+00 -0.45593999997E+02  0.45594000000E+02  0.51100000000E-03 0.  1.
    9900012    2    1    2    0    0  0.29830553458E+02 -0.10762493833E+02  0.33206649393E+01  0.59301952757E+02  0.50000015921E+02 0.  0.
        -12    1    1    2    0    0 -0.29830553458E+02  0.10762493833E+02 -0.33206649393E+01  0.31886047243E+02  0.00000000000E+00 0.  1.
         11    1    3    3    0    0 -0.20542587854E+01 -0.13626769911E+02 -0.62115283026E+01  0.15115949242E+02  0.51100000000E-03 0.  1.
        -11    1    3    3    0    0  0.34652334425E+02  0.67530220614E+01  0.21172112652E+01  0.35367643007E+02  0.51100000000E-03 0. -1.
         12    1    3    3    0    0 -0.27675221814E+01 -0.38887459839E+01  0.74149819767E+01  0.88183605090E+01  0.00000000000E+00 0. -1.
</event>
<event>
 7    1  0.1052674E-011  0.5930207E+02  0.7816164E-02  0.1266604E+00
        -11   -1    0    0    0    0  0.00000000000E+00  0.00000000000E+00  0.45593999997E+02  0.45594000000E+02  0.51100000000E-03 0.  1.
         11   -1    0    0    0    0 -0.00000000000E+00 -0.00000000000E+00 -0.45593999997E+02  0.45594000000E+02  0.51100000000E-03 0. -1.
    9900012    2    1    2    0    0 -0.19322787165E+02 -0.22846164748E+02 -0.11017942474E+02  0.59302072009E+02  0.50000233406E+02 0.  0.
        -12    1    1    2    0    0  0.19322787165E+02  0.22846164748E+02  0.11017942474E+02  0.31885927991E+02  0.00000000000E+00 0.  1.
         11    1    3    3    0    0  0.79915844602E+01 -0.13360869336E+02  0.29722828512E+01  0.15849691392E+02  0.51100000000E-03 0. -1.
        -11    1    3    3    0    0 -0.15527956208E+02 -0.13322510126E+02 -0.20911416223E+02  0.29255666610E+02  0.51100000000E-03 0.  1.
        -12    1    3    3    0    0 -0.11786415417E+02  0.38372147153E+01  0.69211908980E+01  0.14196714007E+02  0.00000000000E+00 0.  1.
</event>
<event>
 7    1  0.1052674E-011  0.5930194E+02  0.7816164E-02  0.1266605E+00
        -11   -1    0    0    0    0  0.00000000000E+00  0.00000000000E+00  0.45593999997E+02  0.45594000000E+02  0.51100000000E-03 0.  1.
         11   -1    0    0    0    0 -0.00000000000E+00 -0.00000000000E+00 -0.45593999997E+02  0.45594000000E+02  0.51100000000E-03 0. -1.
    9900012    2    1    2    0    0 -0.15595902941E+02  0.22097358427E+02 -0.16887736500E+02  0.59301935927E+02  0.49999985226E+02 0.  0.
        -12    1    1    2    0    0  0.15595902941E+02 -0.22097358427E+02  0.16887736500E+02  0.31886064073E+02  0.00000000000E+00 0.  1.
         11    1    3    3    0    0  0.87863774687E+01 -0.52740549846E+01 -0.10955439835E+02  0.15001258188E+02  0.51100000000E-03 0.  1.
        -11    1    3    3    0    0 -0.14336795605E+02  0.21640666561E+02 -0.14659522450E+02  0.29812141086E+02  0.51100000000E-03 0. -1.
        -12    1    3    3    0    0 -0.10045484805E+02  0.57307468504E+01  0.87272257849E+01  0.14488536652E+02  0.00000000000E+00 0.  1.
</event>
<event>
 7    1  0.1052674E-011  0.5930196E+02  0.7816164E-02  0.1266605E+00
        -11   -1    0    0    0    0  0.00000000000E+00  0.00000000000E+00  0.45593999997E+02  0.45594000000E+02  0.51100000000E-03 0.  1.
         11   -1    0    0    0    0 -0.00000000000E+00 -0.00000000000E+00 -0.45593999997E+02  0.45594000000E+02  0.51100000000E-03 0. -1.
    9900012    2    1    2    0    0  0.19107009306E+02 -0.25086592226E+02 -0.47227838990E+01  0.59301959137E+02  0.50000027556E+02 0.  0.
        -12    1    1    2    0    0 -0.19107009306E+02  0.25086592226E+02  0.47227838990E+01  0.31886040863E+02  0.00000000000E+00 0.  1.
         11    1    3    3    0    0 -0.13391248711E+01  0.28617949779E+01  0.80571040108E+01  0.86544815684E+01  0.51100000000E-03 0. -1.
        -11    1    3    3    0    0  0.10940076542E+02 -0.14434218893E+02 -0.24443856111E+02  0.30422591139E+02  0.51100000000E-03 0.  1.
        -12    1    3    3    0    0  0.95060576352E+01 -0.13514168311E+02  0.11663968201E+02  0.20224886429E+02  0.00000000000E+00 0.  1.
</event>
<event>
 7    1  0.1052674E-011  0.5930195E+02  0.7816164E-02  0.1266605E+00
        -11   -1    0    0    0    0  0.00000000000E+00  0.00000000000E+00  0.45593999997E+02  0.45594000000E+02  0.51100000000E-03 0. -1.
         11   -1    0    0    0    0 -0.00000000000E+00 -0.00000000000E+00 -0.45593999997E+02  0.45594000000E+02  0.51100000000E-03 0.  1.
    9900012    2    1    2    0    0 -0.55700992520E+01  0.22401438059E+02 -0.21997038523E+02  0.59301950753E+02  0.50000012265E+02 0.  0.
        -12    1    1    2    0    0  0.55700992520E+01 -0.22401438059E+02  0.21997038523E+02  0.31886049247E+02  0.00000000000E+00 0.  1.
         11    1    3    3    0    0  0.12561542887E+02  0.48518324324E-01 -0.87905552316E+00  0.12592356913E+02  0.51100000000E-03 0. -1.
        -11    1    3    3    0    0 -0.15781295346E+02  0.16060830744E+02 -0.28766188657E+02  0.36530715529E+02  0.51100000000E-03 0.  1.
         12    1    3    3    0    0 -0.23503467935E+01  0.62920889904E+01  0.76482056564E+01  0.10178878311E+02  0.00000000000E+00 0. -1.
</event>
<event>
 7    1  0.1052674E-011  0.5930203E+02  0.7816164E-02  0.1266604E+00
        -11   -1    0    0    0    0  0.00000000000E+00  0.00000000000E+00  0.45593999997E+02  0.45594000000E+02  0.51100000000E-03 0. -1.
         11   -1    0    0    0    0 -0.00000000000E+00 -0.00000000000E+00 -0.45593999997E+02  0.45594000000E+02  0.51100000000E-03 0.  1.
    9900012    2    1    2    0    0 -0.23940875595E+02 -0.12598632642E+02  0.16876729828E+02  0.59302030070E+02  0.50000156919E+02 0.  0.
        -12    1    1    2    0    0  0.23940875595E+02  0.12598632642E+02 -0.16876729828E+02  0.31885969930E+02  0.00000000000E+00 0.  1.
         11    1    3    3    0    0 -0.22283743815E+02  0.75452840502E+01  0.10960865031E+02  0.25954520074E+02  0.51100000000E-03 0. -1.
        -11    1    3    3    0    0  0.66565739835E+01  0.21849814459E+01  0.64388011553E+01  0.95153708123E+01  0.51100000000E-03 0.  1.
         12    1    3    3    0    0 -0.83137057641E+01 -0.22328898138E+02 -0.52293635847E+00  0.23832139183E+02  0.00000000000E+00 0. -1.
</event>
<event>
 7    1  0.1052674E-011  0.5930195E+02  0.7816164E-02  0.1266605E+00
        -11   -1    0    0    0    0  0.00000000000E+00  0.00000000000E+00  0.45593999997E+02  0.45594000000E+02  0.51100000000E-03 0.  1.
         11   -1    0    0    0    0 -0.00000000000E+00 -0.00000000000E+00 -0.45593999997E+02  0.45594000000E+02  0.51100000000E-03 0. -1.
    9900012    2    1    2    0    0 -0.16186424463E+02 -0.12730974279E+02 -0.24344242531E+02  0.59301949956E+02  0.50000010812E+02 0.  0.
        -12    1    1    2    0    0  0.16186424463E+02  0.12730974279E+02  0.24344242531E+02  0.31886050044E+02  0.00000000000E+00 0.  1.
         11    1    3    3    0    0 -0.27974138899E+02  0.70305431635E+01 -0.13595724881E+02  0.31887689154E+02  0.51100000000E-03 0. -1.
        -11    1    3    3    0    0  0.56747253381E+01 -0.94604516635E+01  0.41591967268E+00  0.11039730195E+02  0.51100000000E-03 0.  1.
         12    1    3    3    0    0  0.61129890973E+01 -0.10301065779E+02 -0.11164437322E+02  0.16374530607E+02  0.00000000000E+00 0. -1.
</event>
<event>
 7    1  0.1052674E-011  0.5930197E+02  0.7816164E-02  0.1266605E+00
        -11   -1    0    0    0    0  0.00000000000E+00  0.00000000000E+00  0.45593999997E+02  0.45594000000E+02  0.51100000000E-03 0.  1.
         11   -1    0    0    0    0 -0.00000000000E+00 -0.00000000000E+00 -0.45593999997E+02  0.45594000000E+02  0.51100000000E-03 0. -1.
    9900012    2    1    2    0    0 -0.82167276102E+01 -0.27342417618E+02  0.14198471095E+02  0.59301968650E+02  0.50000044905E+02 0.  0.
        -12    1    1    2    0    0  0.82167276102E+01  0.27342417618E+02 -0.14198471095E+02  0.31886031350E+02  0.00000000000E+00 0.  1.
         11    1    3    3    0    0 -0.11287725620E+02 -0.23617179512E+02  0.78645088087E+00  0.26187829674E+02  0.51100000000E-03 0. -1.
        -11    1    3    3    0    0  0.96012537656E+01  0.10730364972E+02  0.69111876928E+01  0.15971515955E+02  0.51100000000E-03 0.  1.
        -12    1    3    3    0    0 -0.65302557558E+01 -0.14455603077E+02  0.65008325217E+01  0.17142623021E+02  0.00000000000E+00 0.  1.
</event>
<event>
 7    1  0.1052674E-011  0.5930197E+02  0.7816164E-02  0.1266605E+00
        -11   -1    0    0    0    0  0.00000000000E+00  0.00000000000E+00  0.45593999997E+02  0.45594000000E+02  0.51100000000E-03 0.  1.
         11   -1    0    0    0    0 -0.00000000000E+00 -0.00000000000E+00 -0.45593999997E+02  0.45594000000E+02  0.51100000000E-03 0. -1.
    9900012    2    1    2    0    0  0.11390362219E+02  0.79093626720E+01 -0.28712727375E+02  0.59301967279E+02  0.50000042405E+02 0.  0.
        -12    1    1    2    0    0 -0.11390362219E+02 -0.79093626720E+01  0.28712727375E+02  0.31886032721E+02  0.00000000000E+00 0.  1.
         11    1    3    3    0    0  0.43367613438E+01  0.38970485455E+01 -0.34206672557E+02  0.34700013458E+02  0.51100000000E-03 0. -1.
        -11    1    3    3    0    0 -0.26317244667E+01 -0.76872438411E+01 -0.79301298030E+00  0.81638570167E+01  0.51100000000E-03 0.  1.
         12    1    3    3    0    0  0.96853253423E+01  0.11699557968E+02  0.62869581616E+01  0.16438096804E+02  0.00000000000E+00 0. -1.
</event>
<event>
 7    1  0.1052674E-011  0.5930199E+02  0.7816164E-02  0.1266605E+00
        -11   -1    0    0    0    0  0.00000000000E+00  0.00000000000E+00  0.45593999997E+02  0.45594000000E+02  0.51100000000E-03 0.  1.
         11   -1    0    0    0    0 -0.00000000000E+00 -0.00000000000E+00 -0.45593999997E+02  0.45594000000E+02  0.51100000000E-03 0. -1.
    9900012    2    1    2    0    0 -0.22806487930E+02  0.17325770874E+02 -0.14014261114E+02  0.59301988292E+02  0.50000080726E+02 0.  0.
        -12    1    1    2    0    0  0.22806487930E+02 -0.17325770874E+02  0.14014261114E+02  0.31886011708E+02  0.00000000000E+00 0.  1.
         11    1    3    3    0    0  0.96934668006E+01  0.40519123484E+01 -0.15462229916E+02  0.18693898644E+02  0.51100000000E-03 0. -1.
        -11    1    3    3    0    0 -0.76770510398E+01 -0.34301516822E+01  0.60193634411E+01  0.10340976246E+02  0.51100000000E-03 0.  1.
         12    1    3    3    0    0 -0.24822903691E+02  0.16704010208E+02 -0.45713946399E+01  0.30267113401E+02  0.00000000000E+00 0. -1.
</event>
<event>
 7    1  0.1052674E-011  0.5930195E+02  0.7816164E-02  0.1266605E+00
        -11   -1    0    0    0    0  0.00000000000E+00  0.00000000000E+00  0.45593999997E+02  0.45594000000E+02  0.51100000000E-03 0.  1.
         11   -1    0    0    0    0 -0.00000000000E+00 -0.00000000000E+00 -0.45593999997E+02  0.45594000000E+02  0.51100000000E-03 0. -1.
    9900012    2    1    2    0    0 -0.98950888688E+01  0.26270228706E+02 -0.15122251506E+02  0.59301949906E+02  0.50000010721E+02 0.  0.
        -12    1    1    2    0    0  0.98950888688E+01 -0.26270228706E+02  0.15122251506E+02  0.31886050094E+02  0.00000000000E+00 0.  1.
         11    1    3    3    0    0 -0.11477498515E+02  0.18893665416E+02 -0.29192903734E+02  0.36618700055E+02  0.51100000000E-03 0. -1.
        -11    1    3    3    0    0 -0.38600658601E+00 -0.15985327494E+01  0.13367166753E+02  0.13467941762E+02  0.51100000000E-03 0.  1.
         12    1    3    3    0    0  0.19684162321E+01  0.89750960392E+01  0.70348547559E+00  0.92153080898E+01  0.00000000000E+00 0. -1.
</event>
<event>
 7    1  0.1052674E-011  0.5930193E+02  0.7816164E-02  0.1266605E+00
        -11   -1    0    0    0    0  0.00000000000E+00  0.00000000000E+00  0.45593999997E+02  0.45594000000E+02  0.51100000000E-03 0.  1.
         11   -1    0    0    0    0 -0.00000000000E+00 -0.00000000000E+00 -0.45593999997E+02  0.45594000000E+02  0.51100000000E-03 0. -1.
    9900012    2    1    2    0    0  0.33659436277E+01 -0.25686421500E+02 -0.18590303233E+02  0.59301934073E+02  0.49999981846E+02 0.  0.
        -12    1    1    2    0    0 -0.33659436277E+01  0.25686421500E+02  0.18590303233E+02  0.31886065927E+02  0.00000000000E+00 0.  1.
         11    1    3    3    0    0  0.76748468908E+01 -0.14468023572E+02 -0.15813608837E+02  0.22766141649E+02  0.51100000000E-03 0. -1.
        -11    1    3    3    0    0  0.42313584931E+01  0.76264594214E+01  0.91612893376E+01  0.12648972314E+02  0.51100000000E-03 0.  1.
        -12    1    3    3    0    0 -0.85402617561E+01 -0.18844857349E+02 -0.11937983734E+02  0.23886820111E+02  0.00000000000E+00 0.  1.
</event>
<event>
 7    1  0.1052674E-011  0.5930193E+02  0.7816164E-02  0.1266605E+00
        -11   -1    0    0    0    0  0.00000000000E+00  0.00000000000E+00  0.45593999997E+02  0.45594000000E+02  0.51100000000E-03 0. -1.
         11   -1    0    0    0    0 -0.00000000000E+00 -0.00000000000E+00 -0.45593999997E+02  0.45594000000E+02  0.51100000000E-03 0.  1.
    9900012    2    1    2    0    0 -0.11765493276E+02 -0.10160023578E+02  0.27840049701E+02  0.59301932847E+02  0.49999979609E+02 0.  0.
        -12    1    1    2    0    0  0.11765493276E+02  0.10160023578E+02 -0.27840049701E+02  0.31886067153E+02  0.00000000000E+00 0.  1.
         11    1    3    3    0    0 -0.14529635124E+02 -0.13958197629E+01  0.15521820654E+02  0.21306936109E+02  0.51100000000E-03 0.  1.
        -11    1    3    3    0    0  0.10660372144E+01 -0.21379584905E+02  0.13343801295E+02  0.25224593541E+02  0.51100000000E-03 0. -1.
        -12    1    3    3    0    0  0.16981046334E+01  0.12615381089E+02 -0.10255722492E+01  0.12770403197E+02  0.00000000000E+00 0.  1.
</event>
<event>
 7    1  0.1052674E-011  0.5930192E+02  0.7816164E-02  0.1266605E+00
        -11   -1    0    0    0    0  0.00000000000E+00  0.00000000000E+00  0.45593999997E+02  0.45594000000E+02  0.51100000000E-03 0.  1.
         11   -1    0    0    0    0 -0.00000000000E+00 -0.00000000000E+00 -0.45593999997E+02  0.45594000000E+02  0.51100000000E-03 0. -1.
    9900012    2    1    2    0    0 -0.18006536923E+02  0.21237704736E+02 -0.15538555332E+02  0.59301918770E+02  0.49999953936E+02 0.  0.
        -12    1    1    2    0    0  0.18006536923E+02 -0.21237704736E+02  0.15538555332E+02  0.31886081230E+02  0.00000000000E+00 0.  1.
         11    1    3    3    0    0 -0.39736981902E+01 -0.85386419501E+01 -0.23090729646E+02  0.24937531544E+02  0.51100000000E-03 0. -1.
        -11    1    3    3    0    0 -0.40318593069E+01  0.32634956035E+01  0.12513153678E+01  0.53359238596E+01  0.51100000000E-03 0.  1.
         12    1    3    3    0    0 -0.10000979426E+02  0.26512851082E+02  0.63008589462E+01  0.29028463367E+02  0.00000000000E+00 0. -1.
</event>
<event>
 7    1  0.1052674E-011  0.5930194E+02  0.7816164E-02  0.1266605E+00
        -11   -1    0    0    0    0  0.00000000000E+00  0.00000000000E+00  0.45593999997E+02  0.45594000000E+02  0.51100000000E-03 0.  1.
         11   -1    0    0    0    0 -0.00000000000E+00 -0.00000000000E+00 -0.45593999997E+02  0.45594000000E+02  0.51100000000E-03 0. -1.
    9900012    2    1    2    0    0 -0.27422436990E+02  0.13833259341E+02 -0.85657266822E+01  0.59301940538E+02  0.49999993635E+02 0.  0.
        -12    1    1    2    0    0  0.27422436990E+02 -0.13833259341E+02  0.85657266822E+01  0.31886059462E+02  0.00000000000E+00 0.  1.
         11    1    3    3    0    0  0.21594163411E+00 -0.13292788799E+02 -0.22199543808E+01  0.13478615009E+02  0.51100000000E-03 0. -1.
        -11    1    3    3    0    0 -0.12695768757E+02  0.15199496421E+02 -0.14993588766E+02  0.24839785428E+02  0.51100000000E-03 0.  1.
         12    1    3    3    0    0 -0.14942609867E+02  0.11926551719E+02  0.86478164647E+01  0.20983540100E+02  0.00000000000E+00 0. -1.
</event>
<event>
 7    1  0.1052674E-011  0.5930194E+02  0.7816164E-02  0.1266605E+00
        -11   -1    0    0    0    0  0.00000000000E+00  0.00000000000E+00  0.45593999997E+02  0.45594000000E+02  0.51100000000E-03 0.  1.
         11   -1    0    0    0    0 -0.00000000000E+00 -0.00000000000E+00 -0.45593999997E+02  0.45594000000E+02  0.51100000000E-03 0. -1.
    9900012    2    1    2    0    0  0.26165221468E+02  0.17903532390E+02 -0.34008213010E+01  0.59301939221E+02  0.49999991233E+02 0.  0.
        -12    1    1    2    0    0 -0.26165221468E+02 -0.17903532390E+02  0.34008213010E+01  0.31886060779E+02  0.00000000000E+00 0.  1.
         11    1    3    3    0    0  0.40129393095E+02  0.64690688652E+01 -0.20565698730E+01  0.40699465869E+02  0.51100000000E-03 0. -1.
        -11    1    3    3    0    0 -0.11500798847E+02  0.71249210738E+01 -0.16497251838E+01  0.13629177080E+02  0.51100000000E-03 0.  1.
         12    1    3    3    0    0 -0.24633727796E+01  0.43095424509E+01  0.30547375578E+00  0.49732962714E+01  0.00000000000E+00 0. -1.
</event>
<event>
 7    1  0.1052674E-011  0.5930194E+02  0.7816164E-02  0.1266605E+00
        -11   -1    0    0    0    0  0.00000000000E+00  0.00000000000E+00  0.45593999997E+02  0.45594000000E+02  0.51100000000E-03 0. -1.
         11   -1    0    0    0    0 -0.00000000000E+00 -0.00000000000E+00 -0.45593999997E+02  0.45594000000E+02  0.51100000000E-03 0.  1.
    9900012    2    1    2    0    0  0.58954526788E+01  0.26282972492E+02  0.17063690772E+02  0.59301944301E+02  0.50000000499E+02 0.  0.
        -12    1    1    2    0    0 -0.58954526788E+01 -0.26282972492E+02 -0.17063690772E+02  0.31886055699E+02  0.00000000000E+00 0.  1.
         11    1    3    3    0    0  0.31506345210E+00 -0.54640736126E+00  0.15463497682E+02  0.15476355734E+02  0.51100000000E-03 0. -1.
        -11    1    3    3    0    0 -0.43583569325E+01  0.33877639288E+01 -0.13247189325E+02  0.14351315092E+02  0.51100000000E-03 0.  1.
        -12    1    3    3    0    0  0.99387461593E+01  0.23441615924E+02  0.14847382415E+02  0.29474273476E+02  0.00000000000E+00 0.  1.
</event>
<event>
 7    1  0.1052674E-011  0.5930192E+02  0.7816164E-02  0.1266605E+00
        -11   -1    0    0    0    0  0.00000000000E+00  0.00000000000E+00  0.45593999997E+02  0.45594000000E+02  0.51100000000E-03 0. -1.
         11   -1    0    0    0    0 -0.00000000000E+00 -0.00000000000E+00 -0.45593999997E+02  0.45594000000E+02  0.51100000000E-03 0.  1.
    9900012    2    1    2    0    0  0.17989831607E+02  0.93707287480E+00  0.26309883495E+02  0.59301919709E+02  0.49999955649E+02 0.  0.
        -12    1    1    2    0    0 -0.17989831607E+02 -0.93707287480E+00 -0.26309883495E+02  0.31886080291E+02  0.00000000000E+00 0.  1.
         11    1    3    3    0    0 -0.62976189399E+01 -0.49426711851E+00  0.49748462093E+01  0.80407337578E+01  0.51100000000E-03 0. -1.
        -11    1    3    3    0    0  0.30276615310E+02 -0.10807209262E+02  0.10392370695E+02  0.33785656359E+02  0.51100000000E-03 0.  1.
        -12    1    3    3    0    0 -0.59891647641E+01  0.12238549255E+02  0.10942666590E+02  0.17475529592E+02  0.00000000000E+00 0.  1.
</event>
<event>
 7    1  0.1052674E-011  0.5930195E+02  0.7816164E-02  0.1266605E+00
        -11   -1    0    0    0    0  0.00000000000E+00  0.00000000000E+00  0.45593999997E+02  0.45594000000E+02  0.51100000000E-03 0.  1.
         11   -1    0    0    0    0 -0.00000000000E+00 -0.00000000000E+00 -0.45593999997E+02  0.45594000000E+02  0.51100000000E-03 0. -1.
    9900012    2    1    2    0    0 -0.20133073348E+01  0.29754206380E+02  0.11285120774E+02  0.59301950470E+02  0.50000011749E+02 0.  0.
        -12    1    1    2    0    0  0.20133073348E+01 -0.29754206380E+02 -0.11285120774E+02  0.31886049530E+02  0.00000000000E+00 0.  1.
         11    1    3    3    0    0  0.67778030445E+01  0.54969809707E+01  0.20526937568E+02  0.22304945194E+02  0.51100000000E-03 0.  1.
        -11    1    3    3    0    0 -0.13532067445E+02  0.24685916620E+02 -0.12926262741E+02  0.30977404626E+02  0.51100000000E-03 0. -1.
         12    1    3    3    0    0  0.47409570652E+01 -0.42869120984E+00  0.36844459469E+01  0.60196006498E+01  0.00000000000E+00 0. -1.
</event>
<event>
 7    1  0.1052674E-011  0.5930193E+02  0.7816164E-02  0.1266605E+00
        -11   -1    0    0    0    0  0.00000000000E+00  0.00000000000E+00  0.45593999997E+02  0.45594000000E+02  0.51100000000E-03 0.  1.
         11   -1    0    0    0    0 -0.00000000000E+00 -0.00000000000E+00 -0.45593999997E+02  0.45594000000E+02  0.51100000000E-03 0. -1.
    9900012    2    1    2    0    0 -0.96439804096E+01 -0.24953392790E+02 -0.17350600015E+02  0.59301929519E+02  0.49999973539E+02 0.  0.
        -12    1    1    2    0    0  0.96439804096E+01  0.24953392790E+02  0.17350600015E+02  0.31886070481E+02  0.00000000000E+00 0.  1.
         11    1    3    3    0    0 -0.10444628568E+02  0.80898625243E+01 -0.12191931431E+02  0.17977189265E+02  0.51100000000E-03 0. -1.
        -11    1    3    3    0    0  0.51211675578E+01 -0.32599673594E+02  0.18810328118E+01  0.33053038594E+02  0.51100000000E-03 0.  1.
        -12    1    3    3    0    0 -0.43205193994E+01 -0.44358172045E+00 -0.70397013954E+01  0.82717016605E+01  0.00000000000E+00 0.  1.
</event>
<event>
 7    1  0.1052674E-011  0.5930195E+02  0.7816164E-02  0.1266605E+00
        -11   -1    0    0    0    0  0.00000000000E+00  0.00000000000E+00  0.45593999997E+02  0.45594000000E+02  0.51100000000E-03 0. -1.
         11   -1    0    0    0    0 -0.00000000000E+00 -0.00000000000E+00 -0.45593999997E+02  0.45594000000E+02  0.51100000000E-03 0.  1.
    9900012    2    1    2    0    0 -0.26890176194E+02  0.11505923826E+02 -0.12698527983E+02  0.59301945497E+02  0.50000002680E+02 0.  0.
        -12    1    1    2    0    0  0.26890176194E+02 -0.11505923826E+02  0.12698527983E+02  0.31886054503E+02  0.00000000000E+00 0.  1.
         11    1    3    3    0    0 -0.68990339121E+01  0.84002955094E+01 -0.87820416659E+01  0.13974472786E+02  0.51100000000E-03 0. -1.
        -11    1    3    3    0    0 -0.26563303357E+02 -0.48150805384E+01  0.93206063662E+01  0.28559898269E+02  0.51100000000E-03 0.  1.
        -12    1    3    3    0    0  0.65721610758E+01  0.79207088546E+01 -0.13237092684E+02  0.16767574442E+02  0.00000000000E+00 0.  1.
</event>
<event>
 7    1  0.1052674E-011  0.5930194E+02  0.7816164E-02  0.1266605E+00
        -11   -1    0    0    0    0  0.00000000000E+00  0.00000000000E+00  0.45593999997E+02  0.45594000000E+02  0.51100000000E-03 0. -1.
         11   -1    0    0    0    0 -0.00000000000E+00 -0.00000000000E+00 -0.45593999997E+02  0.45594000000E+02  0.51100000000E-03 0.  1.
    9900012    2    1    2    0    0 -0.17820521803E+02  0.25987219191E+02  0.48799582607E+01  0.59301944251E+02  0.50000000408E+02 0.  0.
        -12    1    1    2    0    0  0.17820521803E+02 -0.25987219191E+02 -0.48799582607E+01  0.31886055749E+02  0.00000000000E+00 0.  1.
         11    1    3    3    0    0 -0.81321232387E+01  0.19836985817E+02 -0.13778742784E+02  0.25485116983E+02  0.51100000000E-03 0. -1.
        -11    1    3    3    0    0 -0.52824526005E+01 -0.84553133001E+01  0.15193686895E+02  0.18172637404E+02  0.51100000000E-03 0.  1.
        -12    1    3    3    0    0 -0.44059459634E+01  0.14605546673E+02  0.34650141494E+01  0.15644189865E+02  0.00000000000E+00 0.  1.
</event>
<event>
 7    1  0.1052674E-011  0.5930194E+02  0.7816164E-02  0.1266605E+00
        -11   -1    0    0    0    0  0.00000000000E+00  0.00000000000E+00  0.45593999997E+02  0.45594000000E+02  0.51100000000E-03 0.  1.
         11   -1    0    0    0    0 -0.00000000000E+00 -0.00000000000E+00 -0.45593999997E+02  0.45594000000E+02  0.51100000000E-03 0. -1.
    9900012    2    1    2    0    0 -0.22602103395E+02 -0.22257003104E+00 -0.22490363384E+02  0.59301936266E+02  0.49999985845E+02 0.  0.
        -12    1    1    2    0    0  0.22602103395E+02  0.22257003104E+00  0.22490363384E+02  0.31886063734E+02  0.00000000000E+00 0.  1.
         11    1    3    3    0    0 -0.21309288478E+02 -0.37279295345E+01  0.90692235938E+01  0.23457068251E+02  0.51100000000E-03 0. -1.
        -11    1    3    3    0    0 -0.73531950549E+01  0.53345179892E+01 -0.10650828435E+02  0.13998810889E+02  0.51100000000E-03 0.  1.
         12    1    3    3    0    0  0.60603801380E+01 -0.18291584857E+01 -0.20908758543E+02  0.21846057127E+02  0.00000000000E+00 0. -1.
</event>
<event>
 7    1  0.1052674E-011  0.5930161E+02  0.7816164E-02  0.1266606E+00
        -11   -1    0    0    0    0  0.00000000000E+00  0.00000000000E+00  0.45593999997E+02  0.45594000000E+02  0.51100000000E-03 0. -1.
         11   -1    0    0    0    0 -0.00000000000E+00 -0.00000000000E+00 -0.45593999997E+02  0.45594000000E+02  0.51100000000E-03 0.  1.
    9900012    2    1    2    0    0  0.83114781712E+01  0.21312462251E+02  0.22213508894E+02  0.59301612717E+02  0.49999395765E+02 0.  0.
        -12    1    1    2    0    0 -0.83114781712E+01 -0.21312462251E+02 -0.22213508894E+02  0.31886387283E+02  0.00000000000E+00 0.  1.
         11    1    3    3    0    0  0.19698440263E+02  0.51268222165E+01  0.46152484447E+01  0.20871352934E+02  0.51100000000E-03 0. -1.
        -11    1    3    3    0    0 -0.19074256536E+02  0.16119255619E+02  0.81926277819E+01  0.26282633322E+02  0.51100000000E-03 0.  1.
        -12    1    3    3    0    0  0.76872944435E+01  0.66384415279E-01  0.94056326673E+01  0.12147626461E+02  0.00000000000E+00 0.  1.
</event>
<event>
 7    1  0.1052674E-011  0.5930195E+02  0.7816164E-02  0.1266605E+00
        -11   -1    0    0    0    0  0.00000000000E+00  0.00000000000E+00  0.45593999997E+02  0.45594000000E+02  0.51100000000E-03 0. -1.
         11   -1    0    0    0    0 -0.00000000000E+00 -0.00000000000E+00 -0.45593999997E+02  0.45594000000E+02  0.51100000000E-03 0.  1.
    9900012    2    1    2    0    0 -0.99910834288E+01  0.94333335413E+01  0.28773441058E+02  0.59301945993E+02  0.50000003585E+02 0.  0.
        -12    1    1    2    0    0  0.99910834288E+01 -0.94333335413E+01 -0.28773441058E+02  0.31886054007E+02  0.00000000000E+00 0.  1.
         11    1    3    3    0    0 -0.17341613059E+02  0.56218223086E+01  0.20237085694E+01  0.18342078023E+02  0.51100000000E-03 0. -1.
        -11    1    3    3    0    0  0.13197404495E+02  0.12370031686E+02  0.24327969448E+02  0.30315660425E+02  0.51100000000E-03 0.  1.
         12    1    3    3    0    0 -0.58468748644E+01 -0.85585204537E+01  0.24217630410E+01  0.10644207545E+02  0.00000000000E+00 0. -1.
</event>
<event>
 7    1  0.1052674E-011  0.5930195E+02  0.7816164E-02  0.1266605E+00
        -11   -1    0    0    0    0  0.00000000000E+00  0.00000000000E+00  0.45593999997E+02  0.45594000000E+02  0.51100000000E-03 0.  1.
         11   -1    0    0    0    0 -0.00000000000E+00 -0.00000000000E+00 -0.45593999997E+02  0.45594000000E+02  0.51100000000E-03 0. -1.
    9900012    2    1    2    0    0  0.20759535066E+02  0.17426384393E+02  0.16795318602E+02  0.59301954524E+02  0.50000019143E+02 0.  0.
        -12    1    1    2    0    0 -0.20759535066E+02 -0.17426384393E+02 -0.16795318602E+02  0.31886045476E+02  0.00000000000E+00 0.  1.
         11    1    3    3    0    0  0.21299596834E+02  0.83099663794E+01 -0.32281737500E+01  0.23090029722E+02  0.51100000000E-03 0. -1.
        -11    1    3    3    0    0 -0.11982462787E+02 -0.29320935949E+01  0.13694232074E+02  0.18431184977E+02  0.51100000000E-03 0.  1.
        -12    1    3    3    0    0  0.11442401019E+02  0.12048511608E+02  0.63292602774E+01  0.17780739825E+02  0.00000000000E+00 0.  1.
</event>
<event>
 7    1  0.1052674E-011  0.5930193E+02  0.7816164E-02  0.1266605E+00
        -11   -1    0    0    0    0  0.00000000000E+00  0.00000000000E+00  0.45593999997E+02  0.45594000000E+02  0.51100000000E-03 0.  1.
         11   -1    0    0    0    0 -0.00000000000E+00 -0.00000000000E+00 -0.45593999997E+02  0.45594000000E+02  0.51100000000E-03 0. -1.
    9900012    2    1    2    0    0 -0.11196038381E+02  0.36519065682E+01 -0.29631630090E+02  0.59301934096E+02  0.49999981887E+02 0.  0.
        -12    1    1    2    0    0  0.11196038381E+02 -0.36519065682E+01  0.29631630090E+02  0.31886065904E+02  0.00000000000E+00 0.  1.
         11    1    3    3    0    0 -0.28929979779E+02  0.44681740263E+01 -0.10506967378E+02  0.31101522034E+02  0.51100000000E-03 0. -1.
        -11    1    3    3    0    0  0.42500167303E+01  0.13006791130E+00 -0.12388418841E+02  0.13097804454E+02  0.51100000000E-03 0.  1.
         12    1    3    3    0    0  0.13483924667E+02 -0.94633536944E+00 -0.67362438716E+01  0.15102607608E+02  0.00000000000E+00 0. -1.
</event>
<event>
 7    1  0.1052674E-011  0.5930180E+02  0.7816164E-02  0.1266605E+00
        -11   -1    0    0    0    0  0.00000000000E+00  0.00000000000E+00  0.45593999997E+02  0.45594000000E+02  0.51100000000E-03 0.  1.
         11   -1    0    0    0    0 -0.00000000000E+00 -0.00000000000E+00 -0.45593999997E+02  0.45594000000E+02  0.51100000000E-03 0. -1.
    9900012    2    1    2    0    0  0.18588140450E+02  0.77775886064E+01 -0.24712742906E+02  0.59301803741E+02  0.49999744150E+02 0.  0.
        -12    1    1    2    0    0 -0.18588140450E+02 -0.77775886064E+01  0.24712742906E+02  0.31886196259E+02  0.00000000000E+00 0.  1.
         11    1    3    3    0    0  0.12159222308E+02  0.36398661362E+01 -0.41380415248E+01  0.13349857697E+02  0.51100000000E-03 0. -1.
        -11    1    3    3    0    0 -0.31330347870E+01  0.15848146163E+02 -0.25382617905E+02  0.30087488026E+02  0.51100000000E-03 0.  1.
        -12    1    3    3    0    0  0.95619529292E+01 -0.11710423693E+02  0.48079165236E+01  0.15864458017E+02  0.00000000000E+00 0.  1.
</event>
<event>
 7    1  0.1052674E-011  0.5930197E+02  0.7816164E-02  0.1266605E+00
        -11   -1    0    0    0    0  0.00000000000E+00  0.00000000000E+00  0.45593999997E+02  0.45594000000E+02  0.51100000000E-03 0.  1.
         11   -1    0    0    0    0 -0.00000000000E+00 -0.00000000000E+00 -0.45593999997E+02  0.45594000000E+02  0.51100000000E-03 0. -1.
    9900012    2    1    2    0    0  0.12469039912E+02 -0.21416669751E+02 -0.20064095734E+02  0.59301974265E+02  0.50000055146E+02 0.  0.
        -12    1    1    2    0    0 -0.12469039912E+02  0.21416669751E+02  0.20064095734E+02  0.31886025735E+02  0.00000000000E+00 0.  1.
         11    1    3    3    0    0 -0.10290890171E+02  0.10248700530E+02 -0.88380969035E+01  0.17001477589E+02  0.51100000000E-03 0. -1.
        -11    1    3    3    0    0  0.21182794834E+02 -0.27558677849E+02 -0.13572198534E+02  0.37314824066E+02  0.51100000000E-03 0.  1.
        -12    1    3    3    0    0  0.15771352483E+01 -0.41066924324E+01  0.23461997035E+01  0.49856726100E+01  0.00000000000E+00 0.  1.
</event>
<event>
 7    1  0.1052674E-011  0.5930196E+02  0.7816164E-02  0.1266605E+00
        -11   -1    0    0    0    0  0.00000000000E+00  0.00000000000E+00  0.45593999997E+02  0.45594000000E+02  0.51100000000E-03 0.  1.
         11   -1    0    0    0    0 -0.00000000000E+00 -0.00000000000E+00 -0.45593999997E+02  0.45594000000E+02  0.51100000000E-03 0. -1.
    9900012    2    1    2    0    0  0.29349210606E+02  0.25718877644E+00  0.12461031271E+02  0.59301959016E+02  0.50000027335E+02 0.  0.
        -12    1    1    2    0    0 -0.29349210606E+02 -0.25718877644E+00 -0.12461031271E+02  0.31886040984E+02  0.00000000000E+00 0.  1.
         11    1    3    3    0    0  0.18349383598E+02  0.13316016916E+02 -0.13334006391E+02  0.26302317609E+02  0.51100000000E-03 0. -1.
        -11    1    3    3    0    0  0.78302625029E+01 -0.14917642601E+02  0.22089262643E+02  0.27781011429E+02  0.51100000000E-03 0.  1.
        -12    1    3    3    0    0  0.31695645057E+01  0.18588144619E+01  0.37057750191E+01  0.52186299784E+01  0.00000000000E+00 0.  1.
</event>
<event>
 7    1  0.1052674E-011  0.5930188E+02  0.7816164E-02  0.1266605E+00
        -11   -1    0    0    0    0  0.00000000000E+00  0.00000000000E+00  0.45593999997E+02  0.45594000000E+02  0.51100000000E-03 0.  1.
         11   -1    0    0    0    0 -0.00000000000E+00 -0.00000000000E+00 -0.45593999997E+02  0.45594000000E+02  0.51100000000E-03 0. -1.
    9900012    2    1    2    0    0 -0.59749521764E+01 -0.14330066783E+02 -0.27850915234E+02  0.59301884732E+02  0.49999891859E+02 0.  0.
        -12    1    1    2    0    0  0.59749521764E+01  0.14330066783E+02  0.27850915234E+02  0.31886115268E+02  0.00000000000E+00 0.  1.
         11    1    3    3    0    0  0.12884001908E+02 -0.63808494028E-01 -0.12963072912E+02  0.18276838793E+02  0.51100000000E-03 0. -1.
        -11    1    3    3    0    0 -0.19107996846E+02 -0.22556548583E+02 -0.91719395779E+01  0.30952187376E+02  0.51100000000E-03 0.  1.
        -12    1    3    3    0    0  0.24904276190E+00  0.82902902939E+01 -0.57159027445E+01  0.10072858563E+02  0.00000000000E+00 0.  1.
</event>
<event>
 7    1  0.1052674E-011  0.5930194E+02  0.7816164E-02  0.1266605E+00
        -11   -1    0    0    0    0  0.00000000000E+00  0.00000000000E+00  0.45593999997E+02  0.45594000000E+02  0.51100000000E-03 0. -1.
         11   -1    0    0    0    0 -0.00000000000E+00 -0.00000000000E+00 -0.45593999997E+02  0.45594000000E+02  0.51100000000E-03 0.  1.
    9900012    2    1    2    0    0  0.84631145265E+01  0.24783597456E+02  0.18189821318E+02  0.59301943330E+02  0.49999998728E+02 0.  0.
        -12    1    1    2    0    0 -0.84631145265E+01 -0.24783597456E+02 -0.18189821318E+02  0.31886056670E+02  0.00000000000E+00 0.  1.
         11    1    3    3    0    0  0.16530022244E+02 -0.35593520235E+01  0.18618342488E+02  0.25150612308E+02  0.51100000000E-03 0. -1.
        -11    1    3    3    0    0 -0.93970182908E+01  0.96951916486E+01  0.54402385375E+01  0.14556678518E+02  0.51100000000E-03 0.  1.
         12    1    3    3    0    0  0.13301105737E+01  0.18647757831E+02 -0.58687597073E+01  0.19594652504E+02  0.00000000000E+00 0. -1.
</event>
<event>
 7    1  0.1052674E-011  0.5930193E+02  0.7816164E-02  0.1266605E+00
        -11   -1    0    0    0    0  0.00000000000E+00  0.00000000000E+00  0.45593999997E+02  0.45594000000E+02  0.51100000000E-03 0. -1.
         11   -1    0    0    0    0 -0.00000000000E+00 -0.00000000000E+00 -0.45593999997E+02  0.45594000000E+02  0.51100000000E-03 0.  1.
    9900012    2    1    2    0    0 -0.26625287275E+02 -0.16063134997E+02  0.70563009493E+01  0.59301927625E+02  0.49999970085E+02 0.  0.
        -12    1    1    2    0    0  0.26625287275E+02  0.16063134997E+02 -0.70563009493E+01  0.31886072375E+02  0.00000000000E+00 0.  1.
         11    1    3    3    0    0  0.55895962060E+01  0.90327797351E+01  0.18998922481E+01  0.10790935377E+02  0.51100000000E-03 0. -1.
        -11    1    3    3    0    0 -0.19984180407E+02 -0.11504092132E+02 -0.96367071730E+01  0.24991553127E+02  0.51100000000E-03 0.  1.
         12    1    3    3    0    0 -0.12230703074E+02 -0.13591822601E+02  0.14793115874E+02  0.23519439121E+02  0.00000000000E+00 0. -1.
</event>
<event>
 7    1  0.1052674E-011  0.5930194E+02  0.7816164E-02  0.1266605E+00
        -11   -1    0    0    0    0  0.00000000000E+00  0.00000000000E+00  0.45593999997E+02  0.45594000000E+02  0.51100000000E-03 0.  1.
         11   -1    0    0    0    0 -0.00000000000E+00 -0.00000000000E+00 -0.45593999997E+02  0.45594000000E+02  0.51100000000E-03 0. -1.
    9900012    2    1    2    0    0  0.11287912326E+01  0.15473252983E+02 -0.27857229603E+02  0.59301937705E+02  0.49999988468E+02 0.  0.
        -12    1    1    2    0    0 -0.11287912326E+01 -0.15473252983E+02  0.27857229603E+02  0.31886062295E+02  0.00000000000E+00 0.  1.
         11    1    3    3    0    0 -0.94553519373E+00  0.71995654587E+01 -0.35971090917E+02  0.36696691426E+02  0.51100000000E-03 0. -1.
        -11    1    3    3    0    0  0.33341585783E+01 -0.47239842960E+01  0.75828876546E+01  0.95358705160E+01  0.51100000000E-03 0.  1.
         12    1    3    3    0    0 -0.12598321520E+01  0.12997671820E+02  0.53097365909E+00  0.13069375763E+02  0.00000000000E+00 0. -1.
</event>
<event>
 7    1  0.1052674E-011  0.5930196E+02  0.7816164E-02  0.1266605E+00
        -11   -1    0    0    0    0  0.00000000000E+00  0.00000000000E+00  0.45593999997E+02  0.45594000000E+02  0.51100000000E-03 0. -1.
         11   -1    0    0    0    0 -0.00000000000E+00 -0.00000000000E+00 -0.45593999997E+02  0.45594000000E+02  0.51100000000E-03 0.  1.
    9900012    2    1    2    0    0  0.10409420465E+02 -0.28741857311E+02  0.90702231392E+01  0.59301963183E+02  0.50000034934E+02 0.  0.
        -12    1    1    2    0    0 -0.10409420465E+02  0.28741857311E+02 -0.90702231392E+01  0.31886036817E+02  0.00000000000E+00 0.  1.
         11    1    3    3    0    0  0.78531286343E+01 -0.14427744021E+02  0.25262832106E+02  0.30133737126E+02  0.51100000000E-03 0. -1.
        -11    1    3    3    0    0  0.64011705416E+01 -0.17207758713E+02 -0.15998382447E+02  0.24352211099E+02  0.51100000000E-03 0.  1.
        -12    1    3    3    0    0 -0.38448787104E+01  0.28936454227E+01 -0.19422651970E+00  0.48160149575E+01  0.00000000000E+00 0.  1.
</event>
<event>
 7    1  0.1052674E-011  0.5930200E+02  0.7816164E-02  0.1266605E+00
        -11   -1    0    0    0    0  0.00000000000E+00  0.00000000000E+00  0.45593999997E+02  0.45594000000E+02  0.51100000000E-03 0. -1.
         11   -1    0    0    0    0 -0.00000000000E+00 -0.00000000000E+00 -0.45593999997E+02  0.45594000000E+02  0.51100000000E-03 0.  1.
    9900012    2    1    2    0    0 -0.24638724889E+02 -0.16387713186E+02  0.11878250227E+02  0.59302004076E+02  0.50000109513E+02 0.  0.
        -12    1    1    2    0    0  0.24638724889E+02  0.16387713186E+02 -0.11878250227E+02  0.31885995924E+02  0.00000000000E+00 0.  1.
         11    1    3    3    0    0 -0.12110655594E+02  0.10784311398E+02  0.12870442850E+02  0.20703083119E+02  0.51100000000E-03 0. -1.
        -11    1    3    3    0    0  0.45094161645E+01 -0.19296661999E+02 -0.53146623656E+00  0.19823684195E+02  0.51100000000E-03 0.  1.
        -12    1    3    3    0    0 -0.17037485460E+02 -0.78753625842E+01 -0.46072638630E+00  0.18775236761E+02  0.00000000000E+00 0.  1.
</event>
<event>
 7    1  0.1052674E-011  0.5930199E+02  0.7816164E-02  0.1266605E+00
        -11   -1    0    0    0    0  0.00000000000E+00  0.00000000000E+00  0.45593999997E+02  0.45594000000E+02  0.51100000000E-03 0.  1.
         11   -1    0    0    0    0 -0.00000000000E+00 -0.00000000000E+00 -0.45593999997E+02  0.45594000000E+02  0.51100000000E-03 0. -1.
    9900012    2    1    2    0    0  0.30052607739E+02 -0.75540494733E+01 -0.75162997432E+01  0.59301989632E+02  0.50000083172E+02 0.  0.
        -12    1    1    2    0    0 -0.30052607739E+02  0.75540494733E+01  0.75162997432E+01  0.31886010368E+02  0.00000000000E+00 0.  1.
         11    1    3    3    0    0  0.12640989478E+02 -0.32491387840E+01 -0.19270684378E+02  0.23274681404E+02  0.51100000000E-03 0. -1.
        -11    1    3    3    0    0  0.24313501762E+02 -0.68264736886E+01  0.13265005423E+02  0.28525558366E+02  0.51100000000E-03 0.  1.
         12    1    3    3    0    0 -0.69018835017E+01  0.25215629993E+01 -0.15106207881E+01  0.75017498623E+01  0.00000000000E+00 0. -1.
</event>
<event>
 7    1  0.1052674E-011  0.5930195E+02  0.7816164E-02  0.1266605E+00
        -11   -1    0    0    0    0  0.00000000000E+00  0.00000000000E+00  0.45593999997E+02  0.45594000000E+02  0.51100000000E-03 0. -1.
         11   -1    0    0    0    0 -0.00000000000E+00 -0.00000000000E+00 -0.45593999997E+02  0.45594000000E+02  0.51100000000E-03 0.  1.
    9900012    2    1    2    0    0 -0.17885602266E+02 -0.66096370867E+01  0.25556572766E+02  0.59301945331E+02  0.50000002376E+02 0.  0.
        -12    1    1    2    0    0  0.17885602266E+02  0.66096370867E+01 -0.25556572766E+02  0.31886054669E+02  0.00000000000E+00 0.  1.
         11    1    3    3    0    0  0.39143000665E+01 -0.55011197302E+01  0.84638741519E+01  0.10826875321E+02  0.51100000000E-03 0. -1.
        -11    1    3    3    0    0 -0.29801661832E+02  0.16671266931E+01  0.23389912028E+02  0.37921054103E+02  0.51100000000E-03 0.  1.
        -12    1    3    3    0    0  0.80017594988E+01 -0.27756440496E+01 -0.62972134143E+01  0.10554015906E+02  0.00000000000E+00 0.  1.
</event>
<event>
 7    1  0.1052674E-011  0.5930215E+02  0.7816164E-02  0.1266604E+00
        -11   -1    0    0    0    0  0.00000000000E+00  0.00000000000E+00  0.45593999997E+02  0.45594000000E+02  0.51100000000E-03 0. -1.
         11   -1    0    0    0    0 -0.00000000000E+00 -0.00000000000E+00 -0.45593999997E+02  0.45594000000E+02  0.51100000000E-03 0.  1.
    9900012    2    1    2    0    0  0.22135553272E+02  0.20174142066E+02 -0.10942049793E+02  0.59302153917E+02  0.50000382786E+02 0.  0.
        -12    1    1    2    0    0 -0.22135553272E+02 -0.20174142066E+02  0.10942049793E+02  0.31885846083E+02  0.00000000000E+00 0.  1.
         11    1    3    3    0    0  0.28755342401E+02  0.11444527916E+02  0.90587248937E+01  0.32247595768E+02  0.51100000000E-03 0. -1.
        -11    1    3    3    0    0 -0.10147300623E+02  0.99059491756E+01 -0.17706946576E+02  0.22685490877E+02  0.51100000000E-03 0.  1.
         12    1    3    3    0    0  0.35275114940E+01 -0.11763350257E+01 -0.22938281109E+01  0.43690672729E+01  0.00000000000E+00 0. -1.
</event>
<event>
 7    1  0.1052674E-011  0.5930191E+02  0.7816164E-02  0.1266605E+00
        -11   -1    0    0    0    0  0.00000000000E+00  0.00000000000E+00  0.45593999997E+02  0.45594000000E+02  0.51100000000E-03 0.  1.
         11   -1    0    0    0    0 -0.00000000000E+00 -0.00000000000E+00 -0.45593999997E+02  0.45594000000E+02  0.51100000000E-03 0. -1.
    9900012    2    1    2    0    0  0.18733870263E+02  0.20613208400E+02  0.15519684025E+02  0.59301908239E+02  0.49999934729E+02 0.  0.
        -12    1    1    2    0    0 -0.18733870263E+02 -0.20613208400E+02 -0.15519684025E+02  0.31886091761E+02  0.00000000000E+00 0.  1.
         11    1    3    3    0    0 -0.73244460848E+01  0.95801996194E+01 -0.96782947597E+01  0.15462765759E+02  0.51100000000E-03 0. -1.
        -11    1    3    3    0    0  0.20924708742E+02  0.15812140977E+02  0.11891107771E+02  0.28796973496E+02  0.51100000000E-03 0.  1.
        -12    1    3    3    0    0  0.51336076054E+01 -0.47791321959E+01  0.13306871013E+02  0.15042168984E+02  0.00000000000E+00 0.  1.
</event>
<event>
 7    1  0.1052674E-011  0.5930193E+02  0.7816164E-02  0.1266605E+00
        -11   -1    0    0    0    0  0.00000000000E+00  0.00000000000E+00  0.45593999997E+02  0.45594000000E+02  0.51100000000E-03 0.  1.
         11   -1    0    0    0    0 -0.00000000000E+00 -0.00000000000E+00 -0.45593999997E+02  0.45594000000E+02  0.51100000000E-03 0. -1.
    9900012    2    1    2    0    0 -0.17867900585E+02  0.22925702627E+02 -0.13109977455E+02  0.59301933746E+02  0.49999981249E+02 0.  0.
        -12    1    1    2    0    0  0.17867900585E+02 -0.22925702627E+02  0.13109977455E+02  0.31886066254E+02  0.00000000000E+00 0.  1.
         11    1    3    3    0    0  0.13776506271E+01 -0.19366359973E+01 -0.76498822272E+01  0.80105666833E+01  0.51100000000E-03 0. -1.
        -11    1    3    3    0    0 -0.12127101493E+02  0.78846545840E+01  0.16953964774E+02  0.22286123269E+02  0.51100000000E-03 0.  1.
        -12    1    3    3    0    0 -0.71184497187E+01  0.16977684040E+02 -0.22414060002E+02  0.29005243794E+02  0.00000000000E+00 0.  1.
</event>
<event>
 7    1  0.1052674E-011  0.5930199E+02  0.7816164E-02  0.1266605E+00
        -11   -1    0    0    0    0  0.00000000000E+00  0.00000000000E+00  0.45593999997E+02  0.45594000000E+02  0.51100000000E-03 0.  1.
         11   -1    0    0    0    0 -0.00000000000E+00 -0.00000000000E+00 -0.45593999997E+02  0.45594000000E+02  0.51100000000E-03 0. -1.
    9900012    2    1    2    0    0 -0.30706211015E+02 -0.29108921735E+01  0.80853449331E+01  0.59301992240E+02  0.50000087928E+02 0.  0.
        -12    1    1    2    0    0  0.30706211015E+02  0.29108921735E+01 -0.80853449331E+01  0.31886007760E+02  0.00000000000E+00 0.  1.
         11    1    3    3    0    0 -0.34873784895E+02 -0.18900316105E+02  0.83726948203E+01  0.40540163303E+02  0.51100000000E-03 0. -1.
        -11    1    3    3    0    0 -0.16408131668E+01  0.77873074838E+01  0.24827843392E+01  0.83365846743E+01  0.51100000000E-03 0.  1.
         12    1    3    3    0    0  0.58083870467E+01  0.82021164480E+01 -0.27701342265E+01  0.10425244263E+02  0.00000000000E+00 0. -1.
</event>
<event>
 7    1  0.1052674E-011  0.5930196E+02  0.7816164E-02  0.1266605E+00
        -11   -1    0    0    0    0  0.00000000000E+00  0.00000000000E+00  0.45593999997E+02  0.45594000000E+02  0.51100000000E-03 0.  1.
         11   -1    0    0    0    0 -0.00000000000E+00 -0.00000000000E+00 -0.45593999997E+02  0.45594000000E+02  0.51100000000E-03 0. -1.
    9900012    2    1    2    0    0  0.25276225142E+01  0.31005903231E+02 -0.69974575489E+01  0.59301963512E+02  0.50000035535E+02 0.  0.
        -12    1    1    2    0    0 -0.25276225142E+01 -0.31005903231E+02  0.69974575489E+01  0.31886036488E+02  0.00000000000E+00 0.  1.
         11    1    3    3    0    0 -0.20268081409E+01 -0.51690114980E+01 -0.58151431637E+01  0.80400572997E+01  0.51100000000E-03 0. -1.
        -11    1    3    3    0    0  0.20017706114E+02  0.25642870376E+02 -0.31428283537E+00  0.32532508866E+02  0.51100000000E-03 0.  1.
        -12    1    3    3    0    0 -0.15463275459E+02  0.10532044353E+02 -0.86803154985E+00  0.18729397346E+02  0.00000000000E+00 0.  1.
</event>
<event>
 7    1  0.1052674E-011  0.5930192E+02  0.7816164E-02  0.1266605E+00
        -11   -1    0    0    0    0  0.00000000000E+00  0.00000000000E+00  0.45593999997E+02  0.45594000000E+02  0.51100000000E-03 0.  1.
         11   -1    0    0    0    0 -0.00000000000E+00 -0.00000000000E+00 -0.45593999997E+02  0.45594000000E+02  0.51100000000E-03 0. -1.
    9900012    2    1    2    0    0 -0.80885624658E+01 -0.11478393747E+01 -0.30821746004E+02  0.59301915187E+02  0.49999947401E+02 0.  0.
        -12    1    1    2    0    0  0.80885624658E+01  0.11478393747E+01  0.30821746004E+02  0.31886084813E+02  0.00000000000E+00 0.  1.
         11    1    3    3    0    0  0.73704219046E+01  0.11310735024E+02 -0.32713034464E+02  0.35389242291E+02  0.51100000000E-03 0. -1.
        -11    1    3    3    0    0 -0.16914219246E+02 -0.13453461916E+02  0.41954574659E+00  0.21616254743E+02  0.51100000000E-03 0.  1.
        -12    1    3    3    0    0  0.14552348754E+01  0.99488751735E+00  0.14717427139E+01  0.22964181524E+01  0.00000000000E+00 0.  1.
</event>
<event>
 7    1  0.1052674E-011  0.5930195E+02  0.7816164E-02  0.1266605E+00
        -11   -1    0    0    0    0  0.00000000000E+00  0.00000000000E+00  0.45593999997E+02  0.45594000000E+02  0.51100000000E-03 0.  1.
         11   -1    0    0    0    0 -0.00000000000E+00 -0.00000000000E+00 -0.45593999997E+02  0.45594000000E+02  0.51100000000E-03 0. -1.
    9900012    2    1    2    0    0 -0.90305654331E+01 -0.24433109842E+02 -0.18390009625E+02  0.59301946268E+02  0.50000004086E+02 0.  0.
        -12    1    1    2    0    0  0.90305654331E+01  0.24433109842E+02  0.18390009625E+02  0.31886053732E+02  0.00000000000E+00 0.  1.
         11    1    3    3    0    0 -0.42653272534E+00 -0.28555598344E+02 -0.33677771329E+01  0.28756669661E+02  0.51100000000E-03 0. -1.
        -11    1    3    3    0    0 -0.16516132997E+02  0.23770201983E+01 -0.45328496085E+01  0.17291026576E+02  0.51100000000E-03 0.  1.
        -12    1    3    3    0    0  0.79121002897E+01  0.17454683036E+01 -0.10489382884E+02  0.13254250031E+02  0.00000000000E+00 0.  1.
</event>
<event>
 7    1  0.1052674E-011  0.5930189E+02  0.7816164E-02  0.1266605E+00
        -11   -1    0    0    0    0  0.00000000000E+00  0.00000000000E+00  0.45593999997E+02  0.45594000000E+02  0.51100000000E-03 0.  1.
         11   -1    0    0    0    0 -0.00000000000E+00 -0.00000000000E+00 -0.45593999997E+02  0.45594000000E+02  0.51100000000E-03 0. -1.
    9900012    2    1    2    0    0 -0.10131398126E+02 -0.19590486538E+02 -0.23028058286E+02  0.59301892380E+02  0.49999905806E+02 0.  0.
        -12    1    1    2    0    0  0.10131398126E+02  0.19590486538E+02  0.23028058286E+02  0.31886107620E+02  0.00000000000E+00 0.  1.
         11    1    3    3    0    0  0.98943595913E+01 -0.88383460652E+01 -0.11951646147E+02  0.17856555065E+02  0.51100000000E-03 0. -1.
        -11    1    3    3    0    0 -0.23193121673E+02 -0.13385096868E+02  0.28434194273E+01  0.26928920242E+02  0.51100000000E-03 0.  1.
        -12    1    3    3    0    0  0.31673639558E+01  0.26329563957E+01 -0.13919831566E+02  0.14516417073E+02  0.00000000000E+00 0.  1.
</event>
<event>
 7    1  0.1052674E-011  0.5930192E+02  0.7816164E-02  0.1266605E+00
        -11   -1    0    0    0    0  0.00000000000E+00  0.00000000000E+00  0.45593999997E+02  0.45594000000E+02  0.51100000000E-03 0.  1.
         11   -1    0    0    0    0 -0.00000000000E+00 -0.00000000000E+00 -0.45593999997E+02  0.45594000000E+02  0.51100000000E-03 0. -1.
    9900012    2    1    2    0    0 -0.20306580797E+01 -0.18816278499E+02 -0.25662150942E+02  0.59301923105E+02  0.49999961842E+02 0.  0.
        -12    1    1    2    0    0  0.20306580797E+01  0.18816278499E+02  0.25662150942E+02  0.31886076895E+02  0.00000000000E+00 0.  1.
         11    1    3    3    0    0  0.42608446803E+01 -0.21506526439E+02 -0.30420489813E+02  0.37497888975E+02  0.51100000000E-03 0. -1.
        -11    1    3    3    0    0 -0.56717893983E+01 -0.50553946893E+01  0.99052832494E+01  0.12483623150E+02  0.51100000000E-03 0.  1.
         12    1    3    3    0    0 -0.61971336173E+00  0.77456426300E+01 -0.51469443787E+01  0.93204109802E+01  0.00000000000E+00 0. -1.
</event>
<event>
 7    1  0.1052674E-011  0.5930197E+02  0.7816164E-02  0.1266605E+00
        -11   -1    0    0    0    0  0.00000000000E+00  0.00000000000E+00  0.45593999997E+02  0.45594000000E+02  0.51100000000E-03 0.  1.
         11   -1    0    0    0    0 -0.00000000000E+00 -0.00000000000E+00 -0.45593999997E+02  0.45594000000E+02  0.51100000000E-03 0. -1.
    9900012    2    1    2    0    0 -0.83104379346E+01  0.23217068075E+02 -0.20214435332E+02  0.59301968192E+02  0.50000044070E+02 0.  0.
        -12    1    1    2    0    0  0.83104379346E+01 -0.23217068075E+02  0.20214435332E+02  0.31886031808E+02  0.00000000000E+00 0.  1.
         11    1    3    3    0    0 -0.20134279055E+02  0.17305296812E+01 -0.10645550673E+02  0.22841008634E+02  0.51100000000E-03 0. -1.
        -11    1    3    3    0    0  0.12820263195E+02 -0.79273037789E+00 -0.43008827000E+01  0.13545669496E+02  0.51100000000E-03 0.  1.
         12    1    3    3    0    0 -0.99642207462E+00  0.22279268772E+02 -0.52680019589E+01  0.22915290062E+02  0.00000000000E+00 0. -1.
</event>
<event>
 7    1  0.1052674E-011  0.5930193E+02  0.7816164E-02  0.1266605E+00
        -11   -1    0    0    0    0  0.00000000000E+00  0.00000000000E+00  0.45593999997E+02  0.45594000000E+02  0.51100000000E-03 0.  1.
         11   -1    0    0    0    0 -0.00000000000E+00 -0.00000000000E+00 -0.45593999997E+02  0.45594000000E+02  0.51100000000E-03 0. -1.
    9900012    2    1    2    0    0  0.19933733921E+02 -0.10902316878E+02 -0.22372021958E+02  0.59301927369E+02  0.49999969619E+02 0.  0.
        -12    1    1    2    0    0 -0.19933733921E+02  0.10902316878E+02  0.22372021958E+02  0.31886072631E+02  0.00000000000E+00 0.  1.
         11    1    3    3    0    0  0.20221014840E+02 -0.28169938112E+02 -0.22511179950E+02  0.41342327915E+02  0.51100000000E-03 0. -1.
        -11    1    3    3    0    0  0.29963180215E+00  0.55346065715E+01  0.23244607627E+01  0.60103882750E+01  0.51100000000E-03 0.  1.
         12    1    3    3    0    0 -0.58691272156E+00  0.11733014663E+02 -0.21853027705E+01  0.11949211180E+02  0.00000000000E+00 0. -1.
</event>
<event>
 7    1  0.1052674E-011  0.5930200E+02  0.7816164E-02  0.1266605E+00
        -11   -1    0    0    0    0  0.00000000000E+00  0.00000000000E+00  0.45593999997E+02  0.45594000000E+02  0.51100000000E-03 0.  1.
         11   -1    0    0    0    0 -0.00000000000E+00 -0.00000000000E+00 -0.45593999997E+02  0.45594000000E+02  0.51100000000E-03 0. -1.
    9900012    2    1    2    0    0  0.42258823056E+01 -0.31193840286E+02  0.50797166959E+01  0.59301995629E+02  0.50000094107E+02 0.  0.
        -12    1    1    2    0    0 -0.42258823056E+01  0.31193840286E+02 -0.50797166959E+01  0.31886004371E+02  0.00000000000E+00 0.  1.
         11    1    3    3    0    0  0.92148551291E+01 -0.27058176207E+02  0.25895328989E+01  0.28701291531E+02  0.51100000000E-03 0. -1.
        -11    1    3    3    0    0 -0.11622544336E+02  0.33013570144E+01  0.11853856780E+02  0.16926205002E+02  0.51100000000E-03 0.  1.
         12    1    3    3    0    0  0.66335715124E+01 -0.74370210942E+01 -0.93636729826E+01  0.13674499095E+02  0.00000000000E+00 0. -1.
</event>
<event>
 7    1  0.1052674E-011  0.5930195E+02  0.7816164E-02  0.1266605E+00
        -11   -1    0    0    0    0  0.00000000000E+00  0.00000000000E+00  0.45593999997E+02  0.45594000000E+02  0.51100000000E-03 0.  1.
         11   -1    0    0    0    0 -0.00000000000E+00 -0.00000000000E+00 -0.45593999997E+02  0.45594000000E+02  0.51100000000E-03 0. -1.
    9900012    2    1    2    0    0  0.73645443833E-01 -0.28385382194E+02 -0.14525324842E+02  0.59301946501E+02  0.50000004511E+02 0.  0.
        -12    1    1    2    0    0 -0.73645443833E-01  0.28385382194E+02  0.14525324842E+02  0.31886053499E+02  0.00000000000E+00 0.  1.
         11    1    3    3    0    0 -0.15283172611E+02 -0.25803884801E+02 -0.25892299115E+02  0.39621042258E+02  0.51100000000E-03 0. -1.
        -11    1    3    3    0    0  0.94180084252E+01 -0.21764410763E+01  0.47164644104E+01  0.10755501627E+02  0.51100000000E-03 0.  1.
         12    1    3    3    0    0  0.59388096301E+01 -0.40505631660E+00  0.66505098619E+01  0.89254026164E+01  0.00000000000E+00 0. -1.
</event>
<event>
 7    1  0.1052674E-011  0.5930193E+02  0.7816164E-02  0.1266605E+00
        -11   -1    0    0    0    0  0.00000000000E+00  0.00000000000E+00  0.45593999997E+02  0.45594000000E+02  0.51100000000E-03 0. -1.
         11   -1    0    0    0    0 -0.00000000000E+00 -0.00000000000E+00 -0.45593999997E+02  0.45594000000E+02  0.51100000000E-03 0.  1.
    9900012    2    1    2    0    0  0.22448348647E+02 -0.50438519903E+01  0.22076067892E+02  0.59301928222E+02  0.49999971174E+02 0.  0.
        -12    1    1    2    0    0 -0.22448348647E+02  0.50438519903E+01 -0.22076067892E+02  0.31886071778E+02  0.00000000000E+00 0.  1.
         11    1    3    3    0    0  0.56907163061E+01  0.14733540505E+02 -0.15947937604E+01  0.15874660163E+02  0.51100000000E-03 0. -1.
        -11    1    3    3    0    0  0.15693264920E+02 -0.45904810413E+01  0.22959239536E+02  0.28186481873E+02  0.51100000000E-03 0.  1.
        -12    1    3    3    0    0  0.10643674211E+01 -0.15186911454E+02  0.71162211564E+00  0.15240786186E+02  0.00000000000E+00 0.  1.
</event>
<event>
 7    1  0.1052674E-011  0.5930184E+02  0.7816164E-02  0.1266605E+00
        -11   -1    0    0    0    0  0.00000000000E+00  0.00000000000E+00  0.45593999997E+02  0.45594000000E+02  0.51100000000E-03 0.  1.
         11   -1    0    0    0    0 -0.00000000000E+00 -0.00000000000E+00 -0.45593999997E+02  0.45594000000E+02  0.51100000000E-03 0. -1.
    9900012    2    1    2    0    0  0.28850477627E+02  0.13419850455E+02 -0.20698969939E+01  0.59301844398E+02  0.49999818298E+02 0.  0.
        -12    1    1    2    0    0 -0.28850477627E+02 -0.13419850455E+02  0.20698969939E+01  0.31886155602E+02  0.00000000000E+00 0.  1.
         11    1    3    3    0    0 -0.11861843391E+02 -0.23352232098E+01 -0.15319069644E+01  0.12186194454E+02  0.51100000000E-03 0. -1.
        -11    1    3    3    0    0  0.24335224209E+02  0.90150729582E+01  0.84015780069E+01  0.27277485056E+02  0.51100000000E-03 0.  1.
         12    1    3    3    0    0  0.16377096809E+02  0.67400007064E+01 -0.89395680363E+01  0.19838164887E+02  0.00000000000E+00 0. -1.
</event>
<event>
 7    1  0.1052674E-011  0.5930193E+02  0.7816164E-02  0.1266605E+00
        -11   -1    0    0    0    0  0.00000000000E+00  0.00000000000E+00  0.45593999997E+02  0.45594000000E+02  0.51100000000E-03 0.  1.
         11   -1    0    0    0    0 -0.00000000000E+00 -0.00000000000E+00 -0.45593999997E+02  0.45594000000E+02  0.51100000000E-03 0. -1.
    9900012    2    1    2    0    0 -0.65894536981E+01 -0.24921520945E+02 -0.18767489463E+02  0.59301925187E+02  0.49999965639E+02 0.  0.
        -12    1    1    2    0    0  0.65894536981E+01  0.24921520945E+02  0.18767489463E+02  0.31886074813E+02  0.00000000000E+00 0.  1.
         11    1    3    3    0    0 -0.41269245248E+01 -0.23824809174E+02  0.11123257214E+02  0.26615406995E+02  0.51100000000E-03 0. -1.
        -11    1    3    3    0    0 -0.15643041897E+00  0.53070743375E+01 -0.19910795371E+02  0.20606534911E+02  0.51100000000E-03 0.  1.
         12    1    3    3    0    0 -0.23060987544E+01 -0.64037861088E+01 -0.99799513060E+01  0.12079983281E+02  0.00000000000E+00 0. -1.
</event>
<event>
 7    1  0.1052674E-011  0.5930193E+02  0.7816164E-02  0.1266605E+00
        -11   -1    0    0    0    0  0.00000000000E+00  0.00000000000E+00  0.45593999997E+02  0.45594000000E+02  0.51100000000E-03 0. -1.
         11   -1    0    0    0    0 -0.00000000000E+00 -0.00000000000E+00 -0.45593999997E+02  0.45594000000E+02  0.51100000000E-03 0.  1.
    9900012    2    1    2    0    0  0.59591592496E+00  0.31560057078E+02  0.45087636353E+01  0.59301933010E+02  0.49999979906E+02 0.  0.
        -12    1    1    2    0    0 -0.59591592496E+00 -0.31560057078E+02 -0.45087636353E+01  0.31886066990E+02  0.00000000000E+00 0.  1.
         11    1    3    3    0    0  0.22827954730E+01  0.28671876056E+02  0.13907165413E+02  0.31948347091E+02  0.51100000000E-03 0. -1.
        -11    1    3    3    0    0  0.76601695705E+01 -0.70251356554E+01  0.66505729276E+00  0.10415038660E+02  0.51100000000E-03 0.  1.
        -12    1    3    3    0    0 -0.93470491185E+01  0.99133166777E+01 -0.10063459071E+02  0.16938547259E+02  0.00000000000E+00 0.  1.
</event>
<event>
 7    1  0.1052674E-011  0.5930194E+02  0.7816164E-02  0.1266605E+00
        -11   -1    0    0    0    0  0.00000000000E+00  0.00000000000E+00  0.45593999997E+02  0.45594000000E+02  0.51100000000E-03 0. -1.
         11   -1    0    0    0    0 -0.00000000000E+00 -0.00000000000E+00 -0.45593999997E+02  0.45594000000E+02  0.51100000000E-03 0.  1.
    9900012    2    1    2    0    0  0.79399203290E+01  0.21499517893E+02  0.22168658489E+02  0.59301936843E+02  0.49999986896E+02 0.  0.
        -12    1    1    2    0    0 -0.79399203290E+01 -0.21499517893E+02 -0.22168658489E+02  0.31886063157E+02  0.00000000000E+00 0.  1.
         11    1    3    3    0    0  0.55882174108E+01  0.28454939532E+02  0.29776171760E+02  0.41563591790E+02  0.51100000000E-03 0. -1.
        -11    1    3    3    0    0  0.51979450012E+01 -0.88878334066E+01 -0.10709918006E+01  0.10351774659E+02  0.51100000000E-03 0.  1.
        -12    1    3    3    0    0 -0.28462420830E+01  0.19324117681E+01 -0.65365214705E+01  0.73865703930E+01  0.00000000000E+00 0.  1.
</event>
<event>
 7    1  0.1052674E-011  0.5930198E+02  0.7816164E-02  0.1266605E+00
        -11   -1    0    0    0    0  0.00000000000E+00  0.00000000000E+00  0.45593999997E+02  0.45594000000E+02  0.51100000000E-03 0.  1.
         11   -1    0    0    0    0 -0.00000000000E+00 -0.00000000000E+00 -0.45593999997E+02  0.45594000000E+02  0.51100000000E-03 0. -1.
    9900012    2    1    2    0    0  0.24977666231E+02 -0.87255121411E+01 -0.17796071755E+02  0.59301975751E+02  0.50000057856E+02 0.  0.
        -12    1    1    2    0    0 -0.24977666231E+02  0.87255121411E+01  0.17796071755E+02  0.31886024249E+02  0.00000000000E+00 0.  1.
         11    1    3    3    0    0  0.44793025098E+01  0.13041073861E+02  0.54458665027E+01  0.14825357353E+02  0.51100000000E-03 0.  1.
        -11    1    3    3    0    0  0.96309774302E+01 -0.23263702377E+02 -0.95421903499E+01  0.26925990632E+02  0.51100000000E-03 0. -1.
         12    1    3    3    0    0  0.10867386291E+02  0.14971163757E+01 -0.13699747908E+02  0.17550627766E+02  0.00000000000E+00 0. -1.
</event>
<event>
 7    1  0.1052674E-011  0.5930179E+02  0.7816164E-02  0.1266605E+00
        -11   -1    0    0    0    0  0.00000000000E+00  0.00000000000E+00  0.45593999997E+02  0.45594000000E+02  0.51100000000E-03 0.  1.
         11   -1    0    0    0    0 -0.00000000000E+00 -0.00000000000E+00 -0.45593999997E+02  0.45594000000E+02  0.51100000000E-03 0. -1.
    9900012    2    1    2    0    0 -0.23636048786E+02 -0.16865789701E+02 -0.13176217181E+02  0.59301790384E+02  0.49999719790E+02 0.  0.
        -12    1    1    2    0    0  0.23636048786E+02  0.16865789701E+02  0.13176217181E+02  0.31886209616E+02  0.00000000000E+00 0.  1.
         11    1    3    3    0    0 -0.31320593934E+02 -0.12739675776E+02 -0.99933514009E+01  0.35258275847E+02  0.51100000000E-03 0. -1.
        -11    1    3    3    0    0  0.10820931577E+02 -0.11516981837E+02 -0.20715534999E+01  0.15938154378E+02  0.51100000000E-03 0.  1.
         12    1    3    3    0    0 -0.31363864291E+01  0.73908679117E+01 -0.11113122802E+01  0.81053601588E+01  0.00000000000E+00 0. -1.
</event>
<event>
 7    1  0.1052674E-011  0.5930191E+02  0.7816164E-02  0.1266605E+00
        -11   -1    0    0    0    0  0.00000000000E+00  0.00000000000E+00  0.45593999997E+02  0.45594000000E+02  0.51100000000E-03 0.  1.
         11   -1    0    0    0    0 -0.00000000000E+00 -0.00000000000E+00 -0.45593999997E+02  0.45594000000E+02  0.51100000000E-03 0. -1.
    9900012    2    1    2    0    0  0.17357327418E+02  0.26334656263E+02 -0.46831170492E+01  0.59301913365E+02  0.49999944079E+02 0.  0.
        -12    1    1    2    0    0 -0.17357327418E+02 -0.26334656263E+02  0.46831170492E+01  0.31886086635E+02  0.00000000000E+00 0.  1.
         11    1    3    3    0    0  0.16029043954E+02  0.15619825825E+02  0.13183649111E+02  0.25975330854E+02  0.51100000000E-03 0. -1.
        -11    1    3    3    0    0 -0.28933187402E+01  0.18745671930E+02 -0.13326048184E+02  0.23180920385E+02  0.51100000000E-03 0.  1.
         12    1    3    3    0    0  0.42216022044E+01 -0.80308414918E+01 -0.45407179760E+01  0.10145662126E+02  0.00000000000E+00 0. -1.
</event>
<event>
 7    1  0.1052674E-011  0.5930196E+02  0.7816164E-02  0.1266605E+00
        -11   -1    0    0    0    0  0.00000000000E+00  0.00000000000E+00  0.45593999997E+02  0.45594000000E+02  0.51100000000E-03 0.  1.
         11   -1    0    0    0    0 -0.00000000000E+00 -0.00000000000E+00 -0.45593999997E+02  0.45594000000E+02  0.51100000000E-03 0. -1.
    9900012    2    1    2    0    0 -0.13553662203E+02  0.22476966911E+02 -0.18105349475E+02  0.59301961045E+02  0.50000031036E+02 0.  0.
        -12    1    1    2    0    0  0.13553662203E+02 -0.22476966911E+02  0.18105349475E+02  0.31886038955E+02  0.00000000000E+00 0.  1.
         11    1    3    3    0    0 -0.10669373082E+02  0.14495617724E+01 -0.16925506823E+02  0.20060147875E+02  0.51100000000E-03 0. -1.
        -11    1    3    3    0    0 -0.80584596603E+01 -0.98114740988E+00  0.10913785893E+02  0.13601916965E+02  0.51100000000E-03 0.  1.
        -12    1    3    3    0    0  0.51741705395E+01  0.22008552549E+02 -0.12093628544E+02  0.25639896205E+02  0.00000000000E+00 0.  1.
</event>
<event>
 7    1  0.1052674E-011  0.5930156E+02  0.7816164E-02  0.1266606E+00
        -11   -1    0    0    0    0  0.00000000000E+00  0.00000000000E+00  0.45593999997E+02  0.45594000000E+02  0.51100000000E-03 0. -1.
         11   -1    0    0    0    0 -0.00000000000E+00 -0.00000000000E+00 -0.45593999997E+02  0.45594000000E+02  0.51100000000E-03 0.  1.
    9900012    2    1    2    0    0 -0.24366440923E+02  0.11379558742E+02 -0.17132635352E+02  0.59301560962E+02  0.49999301375E+02 0.  0.
        -12    1    1    2    0    0  0.24366440923E+02 -0.11379558742E+02  0.17132635352E+02  0.31886439038E+02  0.00000000000E+00 0.  1.
         11    1    3    3    0    0 -0.15545246335E+02 -0.12255495041E+02 -0.21063212915E+02  0.28905203353E+02  0.51100000000E-03 0. -1.
        -11    1    3    3    0    0  0.12227777439E+01  0.11516414650E+02  0.80769903849E+01  0.14119517192E+02  0.51100000000E-03 0.  1.
         12    1    3    3    0    0 -0.10043972332E+02  0.12118639134E+02 -0.41464128225E+01  0.16276840417E+02  0.00000000000E+00 0. -1.
</event>
<event>
 7    1  0.1052674E-011  0.5930198E+02  0.7816164E-02  0.1266605E+00
        -11   -1    0    0    0    0  0.00000000000E+00  0.00000000000E+00  0.45593999997E+02  0.45594000000E+02  0.51100000000E-03 0. -1.
         11   -1    0    0    0    0 -0.00000000000E+00 -0.00000000000E+00 -0.45593999997E+02  0.45594000000E+02  0.51100000000E-03 0.  1.
    9900012    2    1    2    0    0  0.27138575485E+02 -0.76758431697E+00  0.16722050795E+02  0.59301977234E+02  0.50000060561E+02 0.  0.
        -12    1    1    2    0    0 -0.27138575485E+02  0.76758431697E+00 -0.16722050795E+02  0.31886022766E+02  0.00000000000E+00 0.  1.
         11    1    3    3    0    0  0.35132167162E+02  0.62814075299E+01  0.56046731648E+01  0.36126688356E+02  0.51100000000E-03 0. -1.
        -11    1    3    3    0    0 -0.10198827317E+02  0.83352700207E+00  0.11795353468E+01  0.10300589780E+02  0.51100000000E-03 0.  1.
        -12    1    3    3    0    0  0.22052356406E+01 -0.78825188489E+01  0.99378422831E+01  0.12874699099E+02  0.00000000000E+00 0.  1.
</event>
<event>
 7    1  0.1052674E-011  0.5930191E+02  0.7816164E-02  0.1266605E+00
        -11   -1    0    0    0    0  0.00000000000E+00  0.00000000000E+00  0.45593999997E+02  0.45594000000E+02  0.51100000000E-03 0. -1.
         11   -1    0    0    0    0 -0.00000000000E+00 -0.00000000000E+00 -0.45593999997E+02  0.45594000000E+02  0.51100000000E-03 0.  1.
    9900012    2    1    2    0    0 -0.85666813885E+01 -0.13556077488E+02  0.27560248488E+02  0.59301912696E+02  0.49999942858E+02 0.  0.
        -12    1    1    2    0    0  0.85666813885E+01  0.13556077488E+02 -0.27560248488E+02  0.31886087304E+02  0.00000000000E+00 0.  1.
         11    1    3    3    0    0  0.33126993169E+01  0.12778728784E+02  0.21600173629E+02  0.25314766189E+02  0.51100000000E-03 0. -1.
        -11    1    3    3    0    0  0.22736141747E+00 -0.19395111979E+02  0.21084997142E+01  0.19510710731E+02  0.51100000000E-03 0.  1.
         12    1    3    3    0    0 -0.12106742123E+02 -0.69396942928E+01  0.38515751440E+01  0.14476435777E+02  0.00000000000E+00 0. -1.
</event>
<event>
 7    1  0.1052674E-011  0.5930195E+02  0.7816164E-02  0.1266605E+00
        -11   -1    0    0    0    0  0.00000000000E+00  0.00000000000E+00  0.45593999997E+02  0.45594000000E+02  0.51100000000E-03 0.  1.
         11   -1    0    0    0    0 -0.00000000000E+00 -0.00000000000E+00 -0.45593999997E+02  0.45594000000E+02  0.51100000000E-03 0. -1.
    9900012    2    1    2    0    0  0.40922823504E+01  0.27898312716E+02 -0.14888174952E+02  0.59301946925E+02  0.50000005285E+02 0.  0.
        -12    1    1    2    0    0 -0.40922823504E+01 -0.27898312716E+02  0.14888174952E+02  0.31886053075E+02  0.00000000000E+00 0.  1.
         11    1    3    3    0    0  0.12824963434E+02 -0.30144657566E+01 -0.19952431973E+02  0.23909542714E+02  0.51100000000E-03 0. -1.
        -11    1    3    3    0    0 -0.10252369564E+02  0.12262716345E+02 -0.88030861510E-01  0.15984149759E+02  0.51100000000E-03 0.  1.
         12    1    3    3    0    0  0.15196884800E+01  0.18650062128E+02  0.51522878825E+01  0.19408254452E+02  0.00000000000E+00 0. -1.
</event>
<event>
 7    1  0.1052674E-011  0.5930189E+02  0.7816164E-02  0.1266605E+00
        -11   -1    0    0    0    0  0.00000000000E+00  0.00000000000E+00  0.45593999997E+02  0.45594000000E+02  0.51100000000E-03 0.  1.
         11   -1    0    0    0    0 -0.00000000000E+00 -0.00000000000E+00 -0.45593999997E+02  0.45594000000E+02  0.51100000000E-03 0. -1.
    9900012    2    1    2    0    0  0.27809377140E+02 -0.44870736523E+01 -0.14940844857E+02  0.59301888102E+02  0.49999898005E+02 0.  0.
        -12    1    1    2    0    0 -0.27809377140E+02  0.44870736523E+01  0.14940844857E+02  0.31886111898E+02  0.00000000000E+00 0.  1.
         11    1    3    3    0    0  0.19617518252E+02 -0.17186542106E+02 -0.22440949117E+02  0.34406691929E+02  0.51100000000E-03 0. -1.
        -11    1    3    3    0    0 -0.39271026180E+00  0.14866300839E+02  0.42977343581E+01  0.15480040144E+02  0.51100000000E-03 0.  1.
         12    1    3    3    0    0  0.85845691498E+01 -0.21668323856E+01  0.32023699018E+01  0.94151560297E+01  0.00000000000E+00 0. -1.
</event>
<event>
 7    1  0.1052674E-011  0.5930191E+02  0.7816164E-02  0.1266605E+00
        -11   -1    0    0    0    0  0.00000000000E+00  0.00000000000E+00  0.45593999997E+02  0.45594000000E+02  0.51100000000E-03 0.  1.
         11   -1    0    0    0    0 -0.00000000000E+00 -0.00000000000E+00 -0.45593999997E+02  0.45594000000E+02  0.51100000000E-03 0. -1.
    9900012    2    1    2    0    0 -0.29099092723E+02  0.12423563494E+02  0.39523286160E+01  0.59301905403E+02  0.49999929557E+02 0.  0.
        -12    1    1    2    0    0  0.29099092723E+02 -0.12423563494E+02 -0.39523286160E+01  0.31886094597E+02  0.00000000000E+00 0.  1.
         11    1    3    3    0    0 -0.24686149301E+02 -0.12573068386E+02  0.36812307407E+01  0.27947083496E+02  0.51100000000E-03 0. -1.
        -11    1    3    3    0    0 -0.23827622830E+01  0.15622246222E+02  0.91700392970E+01  0.18270789640E+02  0.51100000000E-03 0.  1.
         12    1    3    3    0    0 -0.20301811394E+01  0.93743856576E+01 -0.88989414217E+01  0.13084032266E+02  0.00000000000E+00 0. -1.
</event>
<event>
 7    1  0.1136245E-011  0.5930195E+02  0.7816164E-02  0.1266605E+00
        -11   -1    0    0    0    0  0.00000000000E+00  0.00000000000E+00  0.45593999997E+02  0.45594000000E+02  0.51100000000E-03 0.  1.
         11   -1    0    0    0    0 -0.00000000000E+00 -0.00000000000E+00 -0.45593999997E+02  0.45594000000E+02  0.51100000000E-03 0. -1.
    9900012    2    1    2    0    0  0.12722257688E+02 -0.23995894939E+02 -0.16705134093E+02  0.59301947882E+02  0.50000007030E+02 0.  0.
        -12    1    1    2    0    0 -0.12722257688E+02  0.23995894939E+02  0.16705134093E+02  0.31886052118E+02  0.00000000000E+00 0.  1.
         11    1    3    3    0    0 -0.44451500915E+01 -0.29863599118E+01 -0.20348451426E+02  0.21041320789E+02  0.51100000000E-03 0. -1.
        -11    1    3    3    0    0  0.17299201631E+02 -0.25595317243E+02 -0.20356954062E+01  0.30960082330E+02  0.51100000000E-03 0.  1.
         12    1    3    3    0    0 -0.13179385083E+00  0.45857822161E+01  0.56790127388E+01  0.73005447632E+01  0.00000000000E+00 0. -1.
</event>
<event>
 7    1  0.1052674E-011  0.5930191E+02  0.7816164E-02  0.1266605E+00
        -11   -1    0    0    0    0  0.00000000000E+00  0.00000000000E+00  0.45593999997E+02  0.45594000000E+02  0.51100000000E-03 0. -1.
         11   -1    0    0    0    0 -0.00000000000E+00 -0.00000000000E+00 -0.45593999997E+02  0.45594000000E+02  0.51100000000E-03 0.  1.
    9900012    2    1    2    0    0 -0.28951027909E+02  0.12288715408E+02 -0.52486416342E+01  0.59301909265E+02  0.49999936601E+02 0.  0.
        -12    1    1    2    0    0  0.28951027909E+02 -0.12288715408E+02  0.52486416342E+01  0.31886090735E+02  0.00000000000E+00 0.  1.
         11    1    3    3    0    0 -0.36291269157E+02  0.13204535680E+02 -0.45309306833E+01  0.38883740981E+02  0.51100000000E-03 0. -1.
        -11    1    3    3    0    0  0.10761245174E+02 -0.31437712191E+01 -0.67856568782E+01  0.13104687509E+02  0.51100000000E-03 0.  1.
        -12    1    3    3    0    0 -0.34210039258E+01  0.22279509475E+01  0.60679459273E+01  0.73134807760E+01  0.00000000000E+00 0.  1.
</event>
<event>
 7    1  0.1052674E-011  0.5930191E+02  0.7816164E-02  0.1266605E+00
        -11   -1    0    0    0    0  0.00000000000E+00  0.00000000000E+00  0.45593999997E+02  0.45594000000E+02  0.51100000000E-03 0. -1.
         11   -1    0    0    0    0 -0.00000000000E+00 -0.00000000000E+00 -0.45593999997E+02  0.45594000000E+02  0.51100000000E-03 0.  1.
    9900012    2    1    2    0    0 -0.69375014280E+01  0.15213188727E+02  0.27150550296E+02  0.59301914968E+02  0.49999947002E+02 0.  0.
        -12    1    1    2    0    0  0.69375014280E+01 -0.15213188727E+02 -0.27150550296E+02  0.31886085032E+02  0.00000000000E+00 0.  1.
         11    1    3    3    0    0 -0.11538389970E+02  0.61844843234E+01  0.39740439666E+02  0.41841185865E+02  0.51100000000E-03 0. -1.
        -11    1    3    3    0    0  0.32941829234E+01  0.46507338605E+01 -0.11391072732E+02  0.12737248715E+02  0.51100000000E-03 0.  1.
         12    1    3    3    0    0  0.13067056191E+01  0.43779705429E+01 -0.11988166381E+01  0.47234803886E+01  0.00000000000E+00 0. -1.
</event>
<event>
 7    1  0.1052674E-011  0.5930194E+02  0.7816164E-02  0.1266605E+00
        -11   -1    0    0    0    0  0.00000000000E+00  0.00000000000E+00  0.45593999997E+02  0.45594000000E+02  0.51100000000E-03 0.  1.
         11   -1    0    0    0    0 -0.00000000000E+00 -0.00000000000E+00 -0.45593999997E+02  0.45594000000E+02  0.51100000000E-03 0. -1.
    9900012    2    1    2    0    0  0.33197889693E+01  0.20374836456E+00 -0.31712116239E+02  0.59301939903E+02  0.49999992477E+02 0.  0.
        -12    1    1    2    0    0 -0.33197889693E+01 -0.20374836456E+00  0.31712116239E+02  0.31886060097E+02  0.00000000000E+00 0.  1.
         11    1    3    3    0    0 -0.42978877895E+01  0.13708162145E+02 -0.13239252116E+02  0.19536206021E+02  0.51100000000E-03 0. -1.
        -11    1    3    3    0    0  0.20020879357E+02 -0.93142313182E+01 -0.10661201035E+02  0.24520434805E+02  0.51100000000E-03 0.  1.
         12    1    3    3    0    0 -0.12403202598E+02 -0.41901824619E+01 -0.78116630876E+01  0.15245299077E+02  0.00000000000E+00 0. -1.
</event>
<event>
 7    1  0.1052674E-011  0.5930193E+02  0.7816164E-02  0.1266605E+00
        -11   -1    0    0    0    0  0.00000000000E+00  0.00000000000E+00  0.45593999997E+02  0.45594000000E+02  0.51100000000E-03 0.  1.
         11   -1    0    0    0    0 -0.00000000000E+00 -0.00000000000E+00 -0.45593999997E+02  0.45594000000E+02  0.51100000000E-03 0. -1.
    9900012    2    1    2    0    0  0.30758485391E+02  0.20573134483E+00 -0.84020616559E+01  0.59301931114E+02  0.49999976448E+02 0.  0.
        -12    1    1    2    0    0 -0.30758485391E+02 -0.20573134483E+00  0.84020616559E+01  0.31886068886E+02  0.00000000000E+00 0.  1.
         11    1    3    3    0    0  0.62289508485E+01  0.11268550085E+02  0.16579526485E+02  0.20991921028E+02  0.51100000000E-03 0. -1.
        -11    1    3    3    0    0  0.16628242838E+01 -0.43228878412E+01 -0.72344330471E+01  0.85900736702E+01  0.51100000000E-03 0.  1.
         12    1    3    3    0    0  0.22866710259E+02 -0.67399308991E+01 -0.17747155094E+02  0.29719936416E+02  0.00000000000E+00 0. -1.
</event>
<event>
 7    1  0.1052674E-011  0.5930195E+02  0.7816164E-02  0.1266605E+00
        -11   -1    0    0    0    0  0.00000000000E+00  0.00000000000E+00  0.45593999997E+02  0.45594000000E+02  0.51100000000E-03 0.  1.
         11   -1    0    0    0    0 -0.00000000000E+00 -0.00000000000E+00 -0.45593999997E+02  0.45594000000E+02  0.51100000000E-03 0. -1.
    9900012    2    1    2    0    0  0.18678040402E+02  0.24631163459E+02 -0.78202909286E+01  0.59301947300E+02  0.50000005968E+02 0.  0.
        -12    1    1    2    0    0 -0.18678040402E+02 -0.24631163459E+02  0.78202909286E+01  0.31886052700E+02  0.00000000000E+00 0.  1.
         11    1    3    3    0    0  0.28421367985E+01  0.27295575752E+02  0.13894298488E+02  0.30760002080E+02  0.51100000000E-03 0.  1.
        -11    1    3    3    0    0  0.79889513647E+01  0.13981722429E+00 -0.17425229028E+02  0.19169806982E+02  0.51100000000E-03 0. -1.
        -12    1    3    3    0    0  0.78469522385E+01 -0.28042295177E+01 -0.42893603884E+01  0.93721382385E+01  0.00000000000E+00 0.  1.
</event>
<event>
 7    1  0.1052674E-011  0.5930216E+02  0.7816164E-02  0.1266604E+00
        -11   -1    0    0    0    0  0.00000000000E+00  0.00000000000E+00  0.45593999997E+02  0.45594000000E+02  0.51100000000E-03 0.  1.
         11   -1    0    0    0    0 -0.00000000000E+00 -0.00000000000E+00 -0.45593999997E+02  0.45594000000E+02  0.51100000000E-03 0. -1.
    9900012    2    1    2    0    0  0.29894161109E+01  0.31181420212E+01 -0.31591892602E+02  0.59302155232E+02  0.50000385185E+02 0.  0.
        -12    1    1    2    0    0 -0.29894161109E+01 -0.31181420212E+01  0.31591892602E+02  0.31885844768E+02  0.00000000000E+00 0.  1.
         11    1    3    3    0    0 -0.15444383600E+02  0.11399892784E+02 -0.29938300813E+02  0.35563863627E+02  0.51100000000E-03 0. -1.
        -11    1    3    3    0    0  0.46303172211E+01  0.14060429034E+01  0.36487036768E+01  0.60605142518E+01  0.51100000000E-03 0.  1.
         12    1    3    3    0    0  0.13803482490E+02 -0.96877936661E+01 -0.53022954665E+01  0.17677777354E+02  0.00000000000E+00 0. -1.
</event>
<event>
 7    1  0.1052674E-011  0.5930197E+02  0.7816164E-02  0.1266605E+00
        -11   -1    0    0    0    0  0.00000000000E+00  0.00000000000E+00  0.45593999997E+02  0.45594000000E+02  0.51100000000E-03 0. -1.
         11   -1    0    0    0    0 -0.00000000000E+00 -0.00000000000E+00 -0.45593999997E+02  0.45594000000E+02  0.51100000000E-03 0.  1.
    9900012    2    1    2    0    0 -0.26835024999E+02 -0.44884998975E+01 -0.16626899172E+02  0.59301968981E+02  0.50000045509E+02 0.  0.
        -12    1    1    2    0    0  0.26835024999E+02  0.44884998975E+01  0.16626899172E+02  0.31886031019E+02  0.00000000000E+00 0.  1.
         11    1    3    3    0    0  0.55902054950E+01  0.75101938613E+01 -0.10935356789E+02  0.14395674269E+02  0.51100000000E-03 0.  1.
        -11    1    3    3    0    0 -0.34109065322E+02 -0.16161352260E+02 -0.11197949655E+00  0.37744273521E+02  0.51100000000E-03 0. -1.
         12    1    3    3    0    0  0.16838348272E+01  0.41626585010E+01 -0.55795628868E+01  0.71620211903E+01  0.00000000000E+00 0. -1.
</event>
<event>
 7    1  0.1052674E-011  0.5930195E+02  0.7816164E-02  0.1266605E+00
        -11   -1    0    0    0    0  0.00000000000E+00  0.00000000000E+00  0.45593999997E+02  0.45594000000E+02  0.51100000000E-03 0.  1.
         11   -1    0    0    0    0 -0.00000000000E+00 -0.00000000000E+00 -0.45593999997E+02  0.45594000000E+02  0.51100000000E-03 0. -1.
    9900012    2    1    2    0    0  0.18676479536E+01 -0.11246824433E+02 -0.29778193453E+02  0.59301953302E+02  0.50000016915E+02 0.  0.
        -12    1    1    2    0    0 -0.18676479536E+01  0.11246824433E+02  0.29778193453E+02  0.31886046698E+02  0.00000000000E+00 0.  1.
         11    1    3    3    0    0  0.19749637753E+02 -0.66231833881E+01 -0.30974194516E+02  0.37327141275E+02  0.51100000000E-03 0. -1.
        -11    1    3    3    0    0 -0.69671785641E+01  0.12304646496E+01  0.53944440422E+01  0.88969459470E+01  0.51100000000E-03 0.  1.
         12    1    3    3    0    0 -0.10914811235E+02 -0.58541056944E+01 -0.41984429786E+01  0.13077866081E+02  0.00000000000E+00 0. -1.
</event>
<event>
 7    1  0.1052674E-011  0.5930192E+02  0.7816164E-02  0.1266605E+00
        -11   -1    0    0    0    0  0.00000000000E+00  0.00000000000E+00  0.45593999997E+02  0.45594000000E+02  0.51100000000E-03 0.  1.
         11   -1    0    0    0    0 -0.00000000000E+00 -0.00000000000E+00 -0.45593999997E+02  0.45594000000E+02  0.51100000000E-03 0. -1.
    9900012    2    1    2    0    0 -0.19194686353E+02  0.23924539928E+02 -0.87122181277E+01  0.59301916207E+02  0.49999949262E+02 0.  0.
        -12    1    1    2    0    0  0.19194686353E+02 -0.23924539928E+02  0.87122181277E+01  0.31886083793E+02  0.00000000000E+00 0.  1.
         11    1    3    3    0    0 -0.12242093000E+02  0.32596874638E+02 -0.64619377489E+01  0.35414428089E+02  0.51100000000E-03 0. -1.
        -11    1    3    3    0    0 -0.11514100626E+02  0.19623929798E+01  0.13759344054E+01  0.11760896870E+02  0.51100000000E-03 0.  1.
         12    1    3    3    0    0  0.45615072730E+01 -0.10634727690E+02 -0.36262147841E+01  0.12126591248E+02  0.00000000000E+00 0. -1.
</event>
<event>
 7    1  0.1052674E-011  0.5930194E+02  0.7816164E-02  0.1266605E+00
        -11   -1    0    0    0    0  0.00000000000E+00  0.00000000000E+00  0.45593999997E+02  0.45594000000E+02  0.51100000000E-03 0. -1.
         11   -1    0    0    0    0 -0.00000000000E+00 -0.00000000000E+00 -0.45593999997E+02  0.45594000000E+02  0.51100000000E-03 0.  1.
    9900012    2    1    2    0    0 -0.20988656892E+02 -0.22567991045E+02  0.81781852881E+01  0.59301942662E+02  0.49999997510E+02 0.  0.
        -12    1    1    2    0    0  0.20988656892E+02  0.22567991045E+02 -0.81781852881E+01  0.31886057338E+02  0.00000000000E+00 0.  1.
         11    1    3    3    0    0  0.30725302825E+01 -0.28000899870E+02  0.16516373025E+02  0.32653964752E+02  0.51100000000E-03 0. -1.
        -11    1    3    3    0    0 -0.53999668451E+01  0.40146498762E+00 -0.42722693120E+01  0.68973256701E+01  0.51100000000E-03 0.  1.
         12    1    3    3    0    0 -0.18661220330E+02  0.50314438374E+01 -0.40659184250E+01  0.19750652240E+02  0.00000000000E+00 0. -1.
</event>
<event>
 7    1  0.1052674E-011  0.5930195E+02  0.7816164E-02  0.1266605E+00
        -11   -1    0    0    0    0  0.00000000000E+00  0.00000000000E+00  0.45593999997E+02  0.45594000000E+02  0.51100000000E-03 0.  1.
         11   -1    0    0    0    0 -0.00000000000E+00 -0.00000000000E+00 -0.45593999997E+02  0.45594000000E+02  0.51100000000E-03 0. -1.
    9900012    2    1    2    0    0 -0.51338711505E+01 -0.77683223366E+01 -0.30496175729E+02  0.59301949774E+02  0.50000010480E+02 0.  0.
        -12    1    1    2    0    0  0.51338711505E+01  0.77683223366E+01  0.30496175729E+02  0.31886050226E+02  0.00000000000E+00 0.  1.
         11    1    3    3    0    0 -0.21418532831E+02  0.95308285882E+00 -0.25993789315E+02  0.33694791864E+02  0.51100000000E-03 0. -1.
        -11    1    3    3    0    0  0.11793249644E+02  0.27130895644E+01  0.10074691348E+01  0.12143170363E+02  0.51100000000E-03 0.  1.
        -12    1    3    3    0    0  0.44914120362E+01 -0.11434494760E+02 -0.55098555492E+01  0.13463987547E+02  0.00000000000E+00 0.  1.
</event>
<event>
 7    1  0.1137359E-011  0.5930205E+02  0.7816164E-02  0.1266604E+00
        -11   -1    0    0    0    0  0.00000000000E+00  0.00000000000E+00  0.45593999997E+02  0.45594000000E+02  0.51100000000E-03 0. -1.
         11   -1    0    0    0    0 -0.00000000000E+00 -0.00000000000E+00 -0.45593999997E+02  0.45594000000E+02  0.51100000000E-03 0.  1.
    9900012    2    1    2    0    0  0.11938167972E+01  0.17777380008E+02  0.26443401448E+02  0.59302048256E+02  0.50000190086E+02 0.  0.
        -12    1    1    2    0    0 -0.11938167972E+01 -0.17777380008E+02 -0.26443401448E+02  0.31885951744E+02  0.00000000000E+00 0.  1.
         11    1    3    3    0    0  0.92592470731E+01  0.35371720715E+01  0.27799876034E+02  0.29514036497E+02  0.51100000000E-03 0.  1.
        -11    1    3    3    0    0 -0.45478295338E+01  0.21317385792E+02 -0.18080305849E+01  0.21871960710E+02  0.51100000000E-03 0. -1.
         12    1    3    3    0    0 -0.35176007421E+01 -0.70771778549E+01  0.45155599931E+00  0.79160510478E+01  0.00000000000E+00 0. -1.
</event>
<event>
 7    1  0.1052674E-011  0.5930194E+02  0.7816164E-02  0.1266605E+00
        -11   -1    0    0    0    0  0.00000000000E+00  0.00000000000E+00  0.45593999997E+02  0.45594000000E+02  0.51100000000E-03 0.  1.
         11   -1    0    0    0    0 -0.00000000000E+00 -0.00000000000E+00 -0.45593999997E+02  0.45594000000E+02  0.51100000000E-03 0. -1.
    9900012    2    1    2    0    0 -0.25346756585E+02 -0.15437527899E+02  0.11659576673E+02  0.59301936191E+02  0.49999985708E+02 0.  0.
        -12    1    1    2    0    0  0.25346756585E+02  0.15437527899E+02 -0.11659576673E+02  0.31886063809E+02  0.00000000000E+00 0.  1.
         11    1    3    3    0    0 -0.16451272596E+02  0.11976991539E+02  0.90356149712E+01  0.22265108006E+02  0.51100000000E-03 0. -1.
        -11    1    3    3    0    0  0.58606366769E+01 -0.63919114604E+01 -0.52931996726E+01  0.10159801052E+02  0.51100000000E-03 0.  1.
         12    1    3    3    0    0 -0.14756120666E+02 -0.21022607978E+02  0.79171613742E+01  0.26877027134E+02  0.00000000000E+00 0. -1.
</event>
<event>
 7    1  0.1052674E-011  0.5930189E+02  0.7816164E-02  0.1266605E+00
        -11   -1    0    0    0    0  0.00000000000E+00  0.00000000000E+00  0.45593999997E+02  0.45594000000E+02  0.51100000000E-03 0. -1.
         11   -1    0    0    0    0 -0.00000000000E+00 -0.00000000000E+00 -0.45593999997E+02  0.45594000000E+02  0.51100000000E-03 0.  1.
    9900012    2    1    2    0    0  0.15629794777E+02  0.14560488250E+02  0.23673311498E+02  0.59301890483E+02  0.49999902346E+02 0.  0.
        -12    1    1    2    0    0 -0.15629794777E+02 -0.14560488250E+02 -0.23673311498E+02  0.31886109517E+02  0.00000000000E+00 0.  1.
         11    1    3    3    0    0  0.20606301682E+00  0.41380697201E+01 -0.61369105543E+01  0.74045765840E+01  0.51100000000E-03 0. -1.
        -11    1    3    3    0    0  0.61218969437E+01  0.88418657864E+01  0.37944966030E+02  0.39439531692E+02  0.51100000000E-03 0.  1.
        -12    1    3    3    0    0  0.93018348165E+01  0.15805527438E+01 -0.81347439776E+01  0.12457782207E+02  0.00000000000E+00 0.  1.
</event>
<event>
 7    1  0.1052674E-011  0.5930195E+02  0.7816164E-02  0.1266605E+00
        -11   -1    0    0    0    0  0.00000000000E+00  0.00000000000E+00  0.45593999997E+02  0.45594000000E+02  0.51100000000E-03 0.  1.
         11   -1    0    0    0    0 -0.00000000000E+00 -0.00000000000E+00 -0.45593999997E+02  0.45594000000E+02  0.51100000000E-03 0. -1.
    9900012    2    1    2    0    0  0.82242139477E+01 -0.52442025343E+01 -0.30357545302E+02  0.59301954274E+02  0.50000018686E+02 0.  0.
        -12    1    1    2    0    0 -0.82242139477E+01  0.52442025343E+01  0.30357545302E+02  0.31886045726E+02  0.00000000000E+00 0.  1.
         11    1    3    3    0    0  0.11072041939E+02  0.83324451901E+01  0.35457162217E+01  0.14303561071E+02  0.51100000000E-03 0. -1.
        -11    1    3    3    0    0 -0.10459488777E+02 -0.12852495167E+02 -0.88120443231E+01  0.18768048991E+02  0.51100000000E-03 0.  1.
         12    1    3    3    0    0  0.76116607864E+01 -0.72415255717E+00 -0.25091217201E+02  0.26230344212E+02  0.00000000000E+00 0. -1.
</event>
<event>
 7    1  0.1052674E-011  0.5930194E+02  0.7816164E-02  0.1266605E+00
        -11   -1    0    0    0    0  0.00000000000E+00  0.00000000000E+00  0.45593999997E+02  0.45594000000E+02  0.51100000000E-03 0.  1.
         11   -1    0    0    0    0 -0.00000000000E+00 -0.00000000000E+00 -0.45593999997E+02  0.45594000000E+02  0.51100000000E-03 0. -1.
    9900012    2    1    2    0    0  0.29943308190E+02 -0.10921054449E+02 -0.92163621020E+00  0.59301944287E+02  0.50000000472E+02 0.  0.
        -12    1    1    2    0    0 -0.29943308190E+02  0.10921054449E+02  0.92163621020E+00  0.31886055713E+02  0.00000000000E+00 0.  1.
         11    1    3    3    0    0  0.11828004389E+02  0.12527029416E+01 -0.64610459875E+00  0.11911691899E+02  0.51100000000E-03 0. -1.
        -11    1    3    3    0    0 -0.74465308827E+01 -0.17920775792E+02 -0.64911470565E+01  0.20463138018E+02  0.51100000000E-03 0.  1.
        -12    1    3    3    0    0  0.25561834683E+02  0.57470184013E+01  0.62156154451E+01  0.26927114369E+02  0.00000000000E+00 0.  1.
</event>
<event>
 7    1  0.1052674E-011  0.5930202E+02  0.7816164E-02  0.1266605E+00
        -11   -1    0    0    0    0  0.00000000000E+00  0.00000000000E+00  0.45593999997E+02  0.45594000000E+02  0.51100000000E-03 0. -1.
         11   -1    0    0    0    0 -0.00000000000E+00 -0.00000000000E+00 -0.45593999997E+02  0.45594000000E+02  0.51100000000E-03 0.  1.
    9900012    2    1    2    0    0  0.27435820682E+02  0.93126456697E+01  0.13314141071E+02  0.59302015958E+02  0.50000131184E+02 0.  0.
        -12    1    1    2    0    0 -0.27435820682E+02 -0.93126456697E+01 -0.13314141071E+02  0.31885984042E+02  0.00000000000E+00 0.  1.
         11    1    3    3    0    0  0.26894557174E+02  0.10972235300E+02  0.18540278446E+02  0.34459383021E+02  0.51100000000E-03 0. -1.
        -11    1    3    3    0    0  0.71254645351E+01  0.23294987295E+01 -0.12289087698E+02  0.14395154945E+02  0.51100000000E-03 0.  1.
         12    1    3    3    0    0 -0.65842010280E+01 -0.39890883597E+01  0.70629503241E+01  0.10447477992E+02  0.00000000000E+00 0. -1.
</event>
<event>
 7    1  0.1052674E-011  0.5930196E+02  0.7816164E-02  0.1266605E+00
        -11   -1    0    0    0    0  0.00000000000E+00  0.00000000000E+00  0.45593999997E+02  0.45594000000E+02  0.51100000000E-03 0. -1.
         11   -1    0    0    0    0 -0.00000000000E+00 -0.00000000000E+00 -0.45593999997E+02  0.45594000000E+02  0.51100000000E-03 0.  1.
    9900012    2    1    2    0    0 -0.10256890683E+02  0.29008866323E+02 -0.83666731539E+01  0.59301963064E+02  0.50000034717E+02 0.  0.
        -12    1    1    2    0    0  0.10256890683E+02 -0.29008866323E+02  0.83666731539E+01  0.31886036936E+02  0.00000000000E+00 0.  1.
         11    1    3    3    0    0 -0.11839285663E+02  0.33473501521E+02  0.60999459931E+01  0.36025731505E+02  0.51100000000E-03 0. -1.
        -11    1    3    3    0    0 -0.31866718827E+01  0.23848354902E+01 -0.14389318615E+02  0.14929662034E+02  0.51100000000E-03 0.  1.
         12    1    3    3    0    0  0.47690668636E+01 -0.68494706878E+01 -0.77300532250E-01  0.83465695244E+01  0.00000000000E+00 0. -1.
</event>
<event>
 7    1  0.1052674E-011  0.5930193E+02  0.7816164E-02  0.1266605E+00
        -11   -1    0    0    0    0  0.00000000000E+00  0.00000000000E+00  0.45593999997E+02  0.45594000000E+02  0.51100000000E-03 0. -1.
         11   -1    0    0    0    0 -0.00000000000E+00 -0.00000000000E+00 -0.45593999997E+02  0.45594000000E+02  0.51100000000E-03 0.  1.
    9900012    2    1    2    0    0  0.13552098294E+02 -0.17053511231E+02 -0.23286038783E+02  0.59301933832E+02  0.49999981405E+02 0.  0.
        -12    1    1    2    0    0 -0.13552098294E+02  0.17053511231E+02  0.23286038783E+02  0.31886066168E+02  0.00000000000E+00 0.  1.
         11    1    3    3    0    0  0.15627722139E+02 -0.23766485255E+02  0.35434144424E+01  0.28664042053E+02  0.51100000000E-03 0. -1.
        -11    1    3    3    0    0  0.46268804555E+01 -0.67544957917E+00 -0.10635287107E+02  0.11617813349E+02  0.51100000000E-03 0.  1.
         12    1    3    3    0    0 -0.67025043005E+01  0.73884236028E+01 -0.16194166118E+02  0.19020078430E+02  0.00000000000E+00 0. -1.
</event>
<event>
 7    1  0.1052674E-011  0.5930188E+02  0.7816164E-02  0.1266605E+00
        -11   -1    0    0    0    0  0.00000000000E+00  0.00000000000E+00  0.45593999997E+02  0.45594000000E+02  0.51100000000E-03 0.  1.
         11   -1    0    0    0    0 -0.00000000000E+00 -0.00000000000E+00 -0.45593999997E+02  0.45594000000E+02  0.51100000000E-03 0. -1.
    9900012    2    1    2    0    0 -0.25671699885E+02 -0.12359817256E+02 -0.14315141747E+02  0.59301881691E+02  0.49999886313E+02 0.  0.
        -12    1    1    2    0    0  0.25671699885E+02  0.12359817256E+02  0.14315141747E+02  0.31886118309E+02  0.00000000000E+00 0.  1.
         11    1    3    3    0    0  0.66969126471E+01 -0.78579831079E+01 -0.18294726673E+02  0.21006988405E+02  0.51100000000E-03 0. -1.
        -11    1    3    3    0    0 -0.14048145615E+02  0.27407795968E+00  0.11264736695E+02  0.18008881337E+02  0.51100000000E-03 0.  1.
         12    1    3    3    0    0 -0.18320466917E+02 -0.47759121079E+01 -0.72851517679E+01  0.20286011949E+02  0.00000000000E+00 0. -1.
</event>
<event>
 7    1  0.1052674E-011  0.5930191E+02  0.7816164E-02  0.1266605E+00
        -11   -1    0    0    0    0  0.00000000000E+00  0.00000000000E+00  0.45593999997E+02  0.45594000000E+02  0.51100000000E-03 0.  1.
         11   -1    0    0    0    0 -0.00000000000E+00 -0.00000000000E+00 -0.45593999997E+02  0.45594000000E+02  0.51100000000E-03 0. -1.
    9900012    2    1    2    0    0  0.39913501389E+01  0.31072845028E+02 -0.59388609706E+01  0.59301911439E+02  0.49999940567E+02 0.  0.
        -12    1    1    2    0    0 -0.39913501389E+01 -0.31072845028E+02  0.59388609706E+01  0.31886088561E+02  0.00000000000E+00 0.  1.
         11    1    3    3    0    0  0.16177846040E+01  0.71001617980E+01 -0.16685788196E+02  0.18205632440E+02  0.51100000000E-03 0. -1.
        -11    1    3    3    0    0 -0.44528000703E+01  0.29751884356E+02  0.11298753295E+02  0.32135087949E+02  0.51100000000E-03 0.  1.
        -12    1    3    3    0    0  0.68263656052E+01 -0.57792011256E+01 -0.55182607010E+00  0.89611910502E+01  0.00000000000E+00 0.  1.
</event>
<event>
 7    1  0.1052674E-011  0.5930195E+02  0.7816164E-02  0.1266605E+00
        -11   -1    0    0    0    0  0.00000000000E+00  0.00000000000E+00  0.45593999997E+02  0.45594000000E+02  0.51100000000E-03 0. -1.
         11   -1    0    0    0    0 -0.00000000000E+00 -0.00000000000E+00 -0.45593999997E+02  0.45594000000E+02  0.51100000000E-03 0.  1.
    9900012    2    1    2    0    0 -0.31373919267E+02 -0.40121620947E+00  0.56777096436E+01  0.59301950207E+02  0.50000011270E+02 0.  0.
        -12    1    1    2    0    0  0.31373919267E+02  0.40121620947E+00 -0.56777096436E+01  0.31886049793E+02  0.00000000000E+00 0.  1.
         11    1    3    3    0    0 -0.18816275428E+02 -0.66943149171E+01  0.43949908665E+01  0.20449499216E+02  0.51100000000E-03 0. -1.
        -11    1    3    3    0    0 -0.24687271284E+01  0.90402548974E+01 -0.16064212971E+02  0.18597842909E+02  0.51100000000E-03 0.  1.
        -12    1    3    3    0    0 -0.10088916710E+02 -0.27471561897E+01  0.17346931748E+02  0.20254608082E+02  0.00000000000E+00 0.  1.
</event>
<event>
 7    1  0.1052674E-011  0.5930195E+02  0.7816164E-02  0.1266605E+00
        -11   -1    0    0    0    0  0.00000000000E+00  0.00000000000E+00  0.45593999997E+02  0.45594000000E+02  0.51100000000E-03 0.  1.
         11   -1    0    0    0    0 -0.00000000000E+00 -0.00000000000E+00 -0.45593999997E+02  0.45594000000E+02  0.51100000000E-03 0. -1.
    9900012    2    1    2    0    0  0.21021283629E+02 -0.21544425910E+02  0.10519659477E+02  0.59301954640E+02  0.50000019355E+02 0.  0.
        -12    1    1    2    0    0 -0.21021283629E+02  0.21544425910E+02 -0.10519659477E+02  0.31886045360E+02  0.00000000000E+00 0.  1.
         11    1    3    3    0    0  0.76982503981E+01  0.80203846654E+01  0.18014538124E+02  0.21168684736E+02  0.51100000000E-03 0. -1.
        -11    1    3    3    0    0  0.96745712976E+01 -0.16113981027E+02 -0.13311218744E+02  0.23031418954E+02  0.51100000000E-03 0.  1.
        -12    1    3    3    0    0  0.36484619330E+01 -0.13450829548E+02  0.58163400968E+01  0.15101850951E+02  0.00000000000E+00 0.  1.
</event>
<event>
 7    1  0.1052674E-011  0.5930197E+02  0.7816164E-02  0.1266605E+00
        -11   -1    0    0    0    0  0.00000000000E+00  0.00000000000E+00  0.45593999997E+02  0.45594000000E+02  0.51100000000E-03 0.  1.
         11   -1    0    0    0    0 -0.00000000000E+00 -0.00000000000E+00 -0.45593999997E+02  0.45594000000E+02  0.51100000000E-03 0. -1.
    9900012    2    1    2    0    0  0.23326713088E+02 -0.14443136068E+02 -0.16247440805E+02  0.59301967703E+02  0.50000043178E+02 0.  0.
        -12    1    1    2    0    0 -0.23326713088E+02  0.14443136068E+02  0.16247440805E+02  0.31886032297E+02  0.00000000000E+00 0.  1.
         11    1    3    3    0    0  0.26112766469E+02  0.10911771777E+02 -0.28375843867E+01  0.28442841303E+02  0.51100000000E-03 0. -1.
        -11    1    3    3    0    0 -0.27810039634E+01 -0.10644194043E+02 -0.11682683749E+02  0.16047365819E+02  0.51100000000E-03 0.  1.
         12    1    3    3    0    0 -0.50494181228E-02 -0.14710713803E+02 -0.17271726688E+01  0.14811760581E+02  0.00000000000E+00 0. -1.
</event>
<event>
 7    1  0.1052674E-011  0.5930191E+02  0.7816164E-02  0.1266605E+00
        -11   -1    0    0    0    0  0.00000000000E+00  0.00000000000E+00  0.45593999997E+02  0.45594000000E+02  0.51100000000E-03 0.  1.
         11   -1    0    0    0    0 -0.00000000000E+00 -0.00000000000E+00 -0.45593999997E+02  0.45594000000E+02  0.51100000000E-03 0. -1.
    9900012    2    1    2    0    0  0.43310158053E+01 -0.31313109095E+02  0.41778047183E+01  0.59301912887E+02  0.49999943207E+02 0.  0.
        -12    1    1    2    0    0 -0.43310158053E+01  0.31313109095E+02 -0.41778047183E+01  0.31886087113E+02  0.00000000000E+00 0.  1.
         11    1    3    3    0    0  0.21707112235E+02 -0.17237983564E+02 -0.77151910956E+01  0.28772747051E+02  0.51100000000E-03 0. -1.
        -11    1    3    3    0    0 -0.11638685113E+02 -0.29092378815E+01 -0.15958440564E+01  0.12102453252E+02  0.51100000000E-03 0.  1.
        -12    1    3    3    0    0 -0.57374113165E+01 -0.11165887649E+02  0.13488839870E+02  0.18426712584E+02  0.00000000000E+00 0.  1.
</event>
<event>
 7    1  0.1052674E-011  0.5930194E+02  0.7816164E-02  0.1266605E+00
        -11   -1    0    0    0    0  0.00000000000E+00  0.00000000000E+00  0.45593999997E+02  0.45594000000E+02  0.51100000000E-03 0. -1.
         11   -1    0    0    0    0 -0.00000000000E+00 -0.00000000000E+00 -0.45593999997E+02  0.45594000000E+02  0.51100000000E-03 0.  1.
    9900012    2    1    2    0    0  0.81132960990E+01  0.15290941826E+02  0.26778396782E+02  0.59301937061E+02  0.49999987295E+02 0.  0.
        -12    1    1    2    0    0 -0.81132960990E+01 -0.15290941826E+02 -0.26778396782E+02  0.31886062939E+02  0.00000000000E+00 0.  1.
         11    1    3    3    0    0  0.82916904049E+00  0.80901302555E+01  0.10241199479E+02  0.13077457546E+02  0.51100000000E-03 0. -1.
        -11    1    3    3    0    0  0.24259780660E+02  0.49809204300E+01  0.15186106508E+02  0.29051064647E+02  0.51100000000E-03 0.  1.
        -12    1    3    3    0    0 -0.16975653602E+02  0.22198911405E+01  0.13510907947E+01  0.17173414867E+02  0.00000000000E+00 0.  1.
</event>
<event>
 7    1  0.1052674E-011  0.5930195E+02  0.7816164E-02  0.1266605E+00
        -11   -1    0    0    0    0  0.00000000000E+00  0.00000000000E+00  0.45593999997E+02  0.45594000000E+02  0.51100000000E-03 0.  1.
         11   -1    0    0    0    0 -0.00000000000E+00 -0.00000000000E+00 -0.45593999997E+02  0.45594000000E+02  0.51100000000E-03 0. -1.
    9900012    2    1    2    0    0 -0.27725764783E+01 -0.25191299555E+02 -0.19350237254E+02  0.59301946068E+02  0.50000003720E+02 0.  0.
        -12    1    1    2    0    0  0.27725764783E+01  0.25191299555E+02  0.19350237254E+02  0.31886053932E+02  0.00000000000E+00 0.  1.
         11    1    3    3    0    0  0.85456724913E+01  0.33967444078E+01  0.56835503664E+01  0.10810602940E+02  0.51100000000E-03 0. -1.
        -11    1    3    3    0    0 -0.15265845321E+02 -0.35349447662E+01 -0.59913653365E+01  0.16776123709E+02  0.51100000000E-03 0.  1.
         12    1    3    3    0    0  0.39475963509E+01 -0.25053099197E+02 -0.19042422284E+02  0.31715219418E+02  0.00000000000E+00 0. -1.
</event>
<event>
 7    1  0.1052674E-011  0.5930193E+02  0.7816164E-02  0.1266605E+00
        -11   -1    0    0    0    0  0.00000000000E+00  0.00000000000E+00  0.45593999997E+02  0.45594000000E+02  0.51100000000E-03 0.  1.
         11   -1    0    0    0    0 -0.00000000000E+00 -0.00000000000E+00 -0.45593999997E+02  0.45594000000E+02  0.51100000000E-03 0. -1.
    9900012    2    1    2    0    0  0.11684545936E+02 -0.12545293247E+02 -0.26885095949E+02  0.59301931247E+02  0.49999976690E+02 0.  0.
        -12    1    1    2    0    0 -0.11684545936E+02  0.12545293247E+02  0.26885095949E+02  0.31886068753E+02  0.00000000000E+00 0.  1.
         11    1    3    3    0    0  0.23411065622E+02 -0.72165059433E+01 -0.33408324627E+02  0.41427914577E+02  0.51100000000E-03 0. -1.
        -11    1    3    3    0    0 -0.38066428648E+01 -0.51608718224E+01 -0.15138963390E+01  0.65891585391E+01  0.51100000000E-03 0.  1.
         12    1    3    3    0    0 -0.79198768216E+01 -0.16791548098E+00  0.80371250171E+01  0.11284858130E+02  0.00000000000E+00 0. -1.
</event>
<event>
 7    1  0.1052674E-011  0.5930196E+02  0.7816164E-02  0.1266605E+00
        -11   -1    0    0    0    0  0.00000000000E+00  0.00000000000E+00  0.45593999997E+02  0.45594000000E+02  0.51100000000E-03 0. -1.
         11   -1    0    0    0    0 -0.00000000000E+00 -0.00000000000E+00 -0.45593999997E+02  0.45594000000E+02  0.51100000000E-03 0.  1.
    9900012    2    1    2    0    0  0.10509019566E+02 -0.27225896444E+02 -0.12846436286E+02  0.59301955173E+02  0.50000020327E+02 0.  0.
        -12    1    1    2    0    0 -0.10509019566E+02  0.27225896444E+02  0.12846436286E+02  0.31886044827E+02  0.00000000000E+00 0.  1.
         11    1    3    3    0    0  0.23707724409E+02 -0.17800508906E+02 -0.89110979302E+01  0.30956776004E+02  0.51100000000E-03 0. -1.
        -11    1    3    3    0    0 -0.15718349335E+02 -0.13770671864E+02 -0.74819207576E+01  0.22196329604E+02  0.51100000000E-03 0.  1.
        -12    1    3    3    0    0  0.25196444933E+01  0.43452843264E+01  0.35465824013E+01  0.61488495655E+01  0.00000000000E+00 0.  1.
</event>
<event>
 7    1  0.1052674E-011  0.5930197E+02  0.7816164E-02  0.1266605E+00
        -11   -1    0    0    0    0  0.00000000000E+00  0.00000000000E+00  0.45593999997E+02  0.45594000000E+02  0.51100000000E-03 0.  1.
         11   -1    0    0    0    0 -0.00000000000E+00 -0.00000000000E+00 -0.45593999997E+02  0.45594000000E+02  0.51100000000E-03 0. -1.
    9900012    2    1    2    0    0  0.27700252163E+02 -0.13612711761E+02  0.80068178042E+01  0.59301968219E+02  0.50000044119E+02 0.  0.
        -12    1    1    2    0    0 -0.27700252163E+02  0.13612711761E+02 -0.80068178042E+01  0.31886031781E+02  0.00000000000E+00 0.  1.
         11    1    3    3    0    0  0.10311704183E+02 -0.24072458968E+02  0.18394665768E+02  0.32002785080E+02  0.51100000000E-03 0. -1.
        -11    1    3    3    0    0  0.76068683275E+01  0.28095293681E+01  0.33560641488E+01  0.87761647577E+01  0.51100000000E-03 0.  1.
         12    1    3    3    0    0  0.97816796527E+01  0.76502178387E+01 -0.13743912112E+02  0.18523018381E+02  0.00000000000E+00 0. -1.
</event>
<event>
 7    1  0.1052674E-011  0.5930195E+02  0.7816164E-02  0.1266605E+00
        -11   -1    0    0    0    0  0.00000000000E+00  0.00000000000E+00  0.45593999997E+02  0.45594000000E+02  0.51100000000E-03 0.  1.
         11   -1    0    0    0    0 -0.00000000000E+00 -0.00000000000E+00 -0.45593999997E+02  0.45594000000E+02  0.51100000000E-03 0. -1.
    9900012    2    1    2    0    0  0.20089140230E+02 -0.23923968757E+02 -0.63867263952E+01  0.59301951164E+02  0.50000013016E+02 0.  0.
        -12    1    1    2    0    0 -0.20089140230E+02  0.23923968757E+02  0.63867263952E+01  0.31886048836E+02  0.00000000000E+00 0.  1.
         11    1    3    3    0    0  0.20231790946E+02  0.34494358294E+00 -0.95492448455E+01  0.22374816834E+02  0.51100000000E-03 0. -1.
        -11    1    3    3    0    0  0.69942009637E+01 -0.20038728937E+02  0.12343789039E+02  0.24552772402E+02  0.51100000000E-03 0.  1.
        -12    1    3    3    0    0 -0.71368516793E+01 -0.42301834033E+01 -0.91812705886E+01  0.12374361929E+02  0.00000000000E+00 0.  1.
</event>
<event>
 7    1  0.1052674E-011  0.5930195E+02  0.7816164E-02  0.1266605E+00
        -11   -1    0    0    0    0  0.00000000000E+00  0.00000000000E+00  0.45593999997E+02  0.45594000000E+02  0.51100000000E-03 0. -1.
         11   -1    0    0    0    0 -0.00000000000E+00 -0.00000000000E+00 -0.45593999997E+02  0.45594000000E+02  0.51100000000E-03 0.  1.
    9900012    2    1    2    0    0  0.21217337163E+02 -0.18179150702E+02 -0.15364350471E+02  0.59301950042E+02  0.50000010968E+02 0.  0.
        -12    1    1    2    0    0 -0.21217337163E+02  0.18179150702E+02  0.15364350471E+02  0.31886049958E+02  0.00000000000E+00 0.  1.
         11    1    3    3    0    0 -0.89084022375E+01 -0.97942788633E+01 -0.23028561914E+01  0.13438403022E+02  0.51100000000E-03 0. -1.
        -11    1    3    3    0    0  0.18772933940E+02  0.59451334434E+01  0.48384702640E+01  0.20277535727E+02  0.51100000000E-03 0.  1.
        -12    1    3    3    0    0  0.11352805460E+02 -0.14330005282E+02 -0.17899964544E+02  0.25586011293E+02  0.00000000000E+00 0.  1.
</event>
<event>
 7    1  0.1052674E-011  0.5930194E+02  0.7816164E-02  0.1266605E+00
        -11   -1    0    0    0    0  0.00000000000E+00  0.00000000000E+00  0.45593999997E+02  0.45594000000E+02  0.51100000000E-03 0.  1.
         11   -1    0    0    0    0 -0.00000000000E+00 -0.00000000000E+00 -0.45593999997E+02  0.45594000000E+02  0.51100000000E-03 0. -1.
    9900012    2    1    2    0    0  0.19953339976E+02 -0.54139714530E+00 -0.24865477053E+02  0.59301939783E+02  0.49999992259E+02 0.  0.
        -12    1    1    2    0    0 -0.19953339976E+02  0.54139714530E+00  0.24865477053E+02  0.31886060217E+02  0.00000000000E+00 0.  1.
         11    1    3    3    0    0  0.23264139299E+02 -0.17266396436E+02 -0.27334056276E+02  0.39830883194E+02  0.51100000000E-03 0. -1.
        -11    1    3    3    0    0 -0.52979860001E+01  0.50081309137E+01  0.20766716217E+01  0.75804087087E+01  0.51100000000E-03 0.  1.
         12    1    3    3    0    0  0.19871866768E+01  0.11716868377E+02  0.39190760111E+00  0.11890647881E+02  0.00000000000E+00 0. -1.
</event>
<event>
 7    1  0.1052674E-011  0.5930194E+02  0.7816164E-02  0.1266605E+00
        -11   -1    0    0    0    0  0.00000000000E+00  0.00000000000E+00  0.45593999997E+02  0.45594000000E+02  0.51100000000E-03 0.  1.
         11   -1    0    0    0    0 -0.00000000000E+00 -0.00000000000E+00 -0.45593999997E+02  0.45594000000E+02  0.51100000000E-03 0. -1.
    9900012    2    1    2    0    0 -0.13272145787E+02  0.10978179107E+02  0.26833753031E+02  0.59301943924E+02  0.49999999812E+02 0.  0.
        -12    1    1    2    0    0  0.13272145787E+02 -0.10978179107E+02 -0.26833753031E+02  0.31886056076E+02  0.00000000000E+00 0.  1.
         11    1    3    3    0    0 -0.18740930336E+02 -0.97849506922E+01  0.57752765805E+00  0.21149498064E+02  0.51100000000E-03 0. -1.
        -11    1    3    3    0    0  0.51632359373E+01  0.19267089573E+02  0.10920024408E+02  0.22740419506E+02  0.51100000000E-03 0.  1.
        -12    1    3    3    0    0  0.30554861141E+00  0.14960402261E+01  0.15336200965E+02  0.15412026355E+02  0.00000000000E+00 0.  1.
</event>
<event>
 7    1  0.1052674E-011  0.5930195E+02  0.7816164E-02  0.1266605E+00
        -11   -1    0    0    0    0  0.00000000000E+00  0.00000000000E+00  0.45593999997E+02  0.45594000000E+02  0.51100000000E-03 0.  1.
         11   -1    0    0    0    0 -0.00000000000E+00 -0.00000000000E+00 -0.45593999997E+02  0.45594000000E+02  0.51100000000E-03 0. -1.
    9900012    2    1    2    0    0  0.47251136369E+01 -0.30904573642E+02 -0.62690152018E+01  0.59301954110E+02  0.50000018388E+02 0.  0.
        -12    1    1    2    0    0 -0.47251136369E+01  0.30904573642E+02  0.62690152018E+01  0.31886045890E+02  0.00000000000E+00 0.  1.
         11    1    3    3    0    0 -0.70220940894E+01 -0.14467818747E+02 -0.11697942313E+02  0.19886413435E+02  0.51100000000E-03 0. -1.
        -11    1    3    3    0    0  0.20934389715E+02 -0.10751324801E+01  0.48037345688E+01  0.21505358604E+02  0.51100000000E-03 0.  1.
        -12    1    3    3    0    0 -0.91871819889E+01 -0.15361622415E+02  0.62519254259E+00  0.17910182071E+02  0.00000000000E+00 0.  1.
</event>
<event>
 7    1  0.1052674E-011  0.5930195E+02  0.7816164E-02  0.1266605E+00
        -11   -1    0    0    0    0  0.00000000000E+00  0.00000000000E+00  0.45593999997E+02  0.45594000000E+02  0.51100000000E-03 0.  1.
         11   -1    0    0    0    0 -0.00000000000E+00 -0.00000000000E+00 -0.45593999997E+02  0.45594000000E+02  0.51100000000E-03 0. -1.
    9900012    2    1    2    0    0  0.30971740676E+02 -0.64842677870E+01  0.39275798232E+01  0.59301947681E+02  0.50000006662E+02 0.  0.
        -12    1    1    2    0    0 -0.30971740676E+02  0.64842677870E+01 -0.39275798232E+01  0.31886052319E+02  0.00000000000E+00 0.  1.
         11    1    3    3    0    0  0.12147413897E+01 -0.12946261674E+02  0.65312192045E+01  0.14551223747E+02  0.51100000000E-03 0. -1.
        -11    1    3    3    0    0  0.94560014637E+01  0.15660157206E+02 -0.10515438286E+02  0.21100495966E+02  0.51100000000E-03 0.  1.
        -12    1    3    3    0    0  0.20300997823E+02 -0.91981633186E+01  0.79117989045E+01  0.23650227968E+02  0.00000000000E+00 0.  1.
</event>
<event>
 7    1  0.1052674E-011  0.5930196E+02  0.7816164E-02  0.1266605E+00
        -11   -1    0    0    0    0  0.00000000000E+00  0.00000000000E+00  0.45593999997E+02  0.45594000000E+02  0.51100000000E-03 0.  1.
         11   -1    0    0    0    0 -0.00000000000E+00 -0.00000000000E+00 -0.45593999997E+02  0.45594000000E+02  0.51100000000E-03 0. -1.
    9900012    2    1    2    0    0 -0.15741007695E+02  0.10396157085E+02 -0.25707200154E+02  0.59301960027E+02  0.50000029180E+02 0.  0.
        -12    1    1    2    0    0  0.15741007695E+02 -0.10396157085E+02  0.25707200154E+02  0.31886039973E+02  0.00000000000E+00 0.  1.
         11    1    3    3    0    0  0.32211797286E+00  0.59292727984E+01 -0.32008006515E+02  0.32554147466E+02  0.51100000000E-03 0. -1.
        -11    1    3    3    0    0 -0.11814256628E+01 -0.53416657473E+01  0.70320039549E+01  0.89094466402E+01  0.51100000000E-03 0.  1.
         12    1    3    3    0    0 -0.14881700005E+02  0.98085500335E+01 -0.73119759315E+00  0.17838365921E+02  0.00000000000E+00 0. -1.
</event>
<event>
 7    1  0.1052674E-011  0.5930190E+02  0.7816164E-02  0.1266605E+00
        -11   -1    0    0    0    0  0.00000000000E+00  0.00000000000E+00  0.45593999997E+02  0.45594000000E+02  0.51100000000E-03 0.  1.
         11   -1    0    0    0    0 -0.00000000000E+00 -0.00000000000E+00 -0.45593999997E+02  0.45594000000E+02  0.51100000000E-03 0. -1.
    9900012    2    1    2    0    0  0.99484134923E+01 -0.10572021865E+02 -0.28389875138E+02  0.59301896636E+02  0.49999913570E+02 0.  0.
        -12    1    1    2    0    0 -0.99484134923E+01  0.10572021865E+02  0.28389875138E+02  0.31886103364E+02  0.00000000000E+00 0.  1.
         11    1    3    3    0    0  0.45602743483E+01 -0.76508984760E+00 -0.39150413420E+02  0.39422535888E+02  0.51100000000E-03 0. -1.
        -11    1    3    3    0    0 -0.26103172309E+01 -0.50568856521E+01  0.86274922613E+01  0.10335350576E+02  0.51100000000E-03 0.  1.
         12    1    3    3    0    0  0.79984563750E+01 -0.47500463656E+01  0.21330460202E+01  0.95440101730E+01  0.00000000000E+00 0. -1.
</event>
<event>
 7    1  0.1052674E-011  0.5930195E+02  0.7816164E-02  0.1266605E+00
        -11   -1    0    0    0    0  0.00000000000E+00  0.00000000000E+00  0.45593999997E+02  0.45594000000E+02  0.51100000000E-03 0. -1.
         11   -1    0    0    0    0 -0.00000000000E+00 -0.00000000000E+00 -0.45593999997E+02  0.45594000000E+02  0.51100000000E-03 0.  1.
    9900012    2    1    2    0    0 -0.20681438098E+02  0.23601749124E+02  0.56529312852E+01  0.59301951708E+02  0.50000014008E+02 0.  0.
        -12    1    1    2    0    0  0.20681438098E+02 -0.23601749124E+02 -0.56529312852E+01  0.31886048292E+02  0.00000000000E+00 0.  1.
         11    1    3    3    0    0  0.65948584697E+00  0.20731718906E+02  0.10514781922E+02  0.23255101151E+02  0.51100000000E-03 0. -1.
        -11    1    3    3    0    0 -0.27142594829E+02  0.76254517557E+01 -0.33168531148E+01  0.28387840414E+02  0.51100000000E-03 0.  1.
        -12    1    3    3    0    0  0.58016708835E+01 -0.47554215377E+01 -0.15449975223E+01  0.76590101440E+01  0.00000000000E+00 0.  1.
</event>
<event>
 7    1  0.1052674E-011  0.5930194E+02  0.7816164E-02  0.1266605E+00
        -11   -1    0    0    0    0  0.00000000000E+00  0.00000000000E+00  0.45593999997E+02  0.45594000000E+02  0.51100000000E-03 0. -1.
         11   -1    0    0    0    0 -0.00000000000E+00 -0.00000000000E+00 -0.45593999997E+02  0.45594000000E+02  0.51100000000E-03 0.  1.
    9900012    2    1    2    0    0  0.19498335019E+02 -0.18423930792E+02  0.17236429589E+02  0.59301940360E+02  0.49999993312E+02 0.  0.
        -12    1    1    2    0    0 -0.19498335019E+02  0.18423930792E+02 -0.17236429589E+02  0.31886059640E+02  0.00000000000E+00 0.  1.
         11    1    3    3    0    0  0.42233619361E+01 -0.22103103859E+02  0.30041956122E+01  0.22702624910E+02  0.51100000000E-03 0. -1.
        -11    1    3    3    0    0  0.12525827212E+02  0.69735348767E+01 -0.62740274985E+01  0.15648960263E+02  0.51100000000E-03 0.  1.
        -12    1    3    3    0    0  0.27491458716E+01 -0.32943618091E+01  0.20506261476E+02  0.20950355187E+02  0.00000000000E+00 0.  1.
</event>
<event>
 7    1  0.1052674E-011  0.5930195E+02  0.7816164E-02  0.1266605E+00
        -11   -1    0    0    0    0  0.00000000000E+00  0.00000000000E+00  0.45593999997E+02  0.45594000000E+02  0.51100000000E-03 0. -1.
         11   -1    0    0    0    0 -0.00000000000E+00 -0.00000000000E+00 -0.45593999997E+02  0.45594000000E+02  0.51100000000E-03 0.  1.
    9900012    2    1    2    0    0  0.82271014461E+01  0.17215277139E+02  0.25547391384E+02  0.59301950202E+02  0.50000011261E+02 0.  0.
        -12    1    1    2    0    0 -0.82271014461E+01 -0.17215277139E+02 -0.25547391384E+02  0.31886049798E+02  0.00000000000E+00 0.  1.
         11    1    3    3    0    0  0.38303268862E+01  0.20036528403E+02  0.14980391180E+02  0.25309010148E+02  0.51100000000E-03 0. -1.
        -11    1    3    3    0    0 -0.44531708691E+01 -0.94327195552E+01 -0.74783213795E+01  0.12834805020E+02  0.51100000000E-03 0.  1.
        -12    1    3    3    0    0  0.88499454289E+01  0.66114682916E+01  0.18045321584E+02  0.21158135034E+02  0.00000000000E+00 0.  1.
</event>
<event>
 7    1  0.1052674E-011  0.5930165E+02  0.7816164E-02  0.1266606E+00
        -11   -1    0    0    0    0  0.00000000000E+00  0.00000000000E+00  0.45593999997E+02  0.45594000000E+02  0.51100000000E-03 0.  1.
         11   -1    0    0    0    0 -0.00000000000E+00 -0.00000000000E+00 -0.45593999997E+02  0.45594000000E+02  0.51100000000E-03 0. -1.
    9900012    2    1    2    0    0 -0.12703593982E+02 -0.28245123827E+02 -0.75875596829E+01  0.59301648970E+02  0.49999461882E+02 0.  0.
        -12    1    1    2    0    0  0.12703593982E+02  0.28245123827E+02  0.75875596829E+01  0.31886351030E+02  0.00000000000E+00 0.  1.
         11    1    3    3    0    0 -0.15715424969E+02 -0.65304789090E+01 -0.17926823657E+02  0.24718267403E+02  0.51100000000E-03 0. -1.
        -11    1    3    3    0    0 -0.44180754079E+01 -0.12591082831E+02  0.16565534335E+02  0.21271381837E+02  0.51100000000E-03 0.  1.
         12    1    3    3    0    0  0.74299063946E+01 -0.91235620873E+01 -0.62262703608E+01  0.13311999730E+02  0.00000000000E+00 0. -1.
</event>
<event>
 7    1  0.1052674E-011  0.5930194E+02  0.7816164E-02  0.1266605E+00
        -11   -1    0    0    0    0  0.00000000000E+00  0.00000000000E+00  0.45593999997E+02  0.45594000000E+02  0.51100000000E-03 0. -1.
         11   -1    0    0    0    0 -0.00000000000E+00 -0.00000000000E+00 -0.45593999997E+02  0.45594000000E+02  0.51100000000E-03 0.  1.
    9900012    2    1    2    0    0 -0.21868991967E+01  0.16627549433E+02  0.27119419327E+02  0.59301939834E+02  0.49999992352E+02 0.  0.
        -12    1    1    2    0    0  0.21868991967E+01 -0.16627549433E+02 -0.27119419327E+02  0.31886060166E+02  0.00000000000E+00 0.  1.
         11    1    3    3    0    0  0.15235542390E+02  0.34521489176E+01  0.23655465164E+02  0.28348194236E+02  0.51100000000E-03 0. -1.
        -11    1    3    3    0    0 -0.38792866499E+01 -0.50606728353E+01 -0.33974156179E+01  0.72250749200E+01  0.51100000000E-03 0.  1.
         12    1    3    3    0    0 -0.13543154937E+02  0.18236073350E+02  0.68613697814E+01  0.23728670678E+02  0.00000000000E+00 0. -1.
</event>
<event>
 7    1  0.1052674E-011  0.5930193E+02  0.7816164E-02  0.1266605E+00
        -11   -1    0    0    0    0  0.00000000000E+00  0.00000000000E+00  0.45593999997E+02  0.45594000000E+02  0.51100000000E-03 0.  1.
         11   -1    0    0    0    0 -0.00000000000E+00 -0.00000000000E+00 -0.45593999997E+02  0.45594000000E+02  0.51100000000E-03 0. -1.
    9900012    2    1    2    0    0  0.23311438543E+02  0.15870698710E+02 -0.14880167652E+02  0.59301927275E+02  0.49999969448E+02 0.  0.
        -12    1    1    2    0    0 -0.23311438543E+02 -0.15870698710E+02  0.14880167652E+02  0.31886072725E+02  0.00000000000E+00 0.  1.
         11    1    3    3    0    0  0.58876745261E+01  0.13936914935E+02 -0.10029575210E+02  0.18151988552E+02  0.51100000000E-03 0. -1.
        -11    1    3    3    0    0 -0.63374287134E+00 -0.69807458454E+01  0.12655175504E+02  0.14466717315E+02  0.51100000000E-03 0.  1.
        -12    1    3    3    0    0  0.18057506888E+02  0.89145296202E+01 -0.17505767946E+02  0.26683221408E+02  0.00000000000E+00 0.  1.
</event>
<event>
 7    1  0.1052674E-011  0.5930194E+02  0.7816164E-02  0.1266605E+00
        -11   -1    0    0    0    0  0.00000000000E+00  0.00000000000E+00  0.45593999997E+02  0.45594000000E+02  0.51100000000E-03 0.  1.
         11   -1    0    0    0    0 -0.00000000000E+00 -0.00000000000E+00 -0.45593999997E+02  0.45594000000E+02  0.51100000000E-03 0. -1.
    9900012    2    1    2    0    0  0.10333787620E+02 -0.62723664216E+01 -0.29505780863E+02  0.59301939543E+02  0.49999991821E+02 0.  0.
        -12    1    1    2    0    0 -0.10333787620E+02  0.62723664216E+01  0.29505780863E+02  0.31886060457E+02  0.00000000000E+00 0.  1.
         11    1    3    3    0    0 -0.50748895006E+01 -0.23011817404E+01 -0.56595464535E+01  0.79423174934E+01  0.51100000000E-03 0. -1.
        -11    1    3    3    0    0  0.27945158856E+02 -0.10966602158E+02 -0.21226681223E+02  0.36766428469E+02  0.51100000000E-03 0.  1.
        -12    1    3    3    0    0 -0.12536481735E+02  0.69954174770E+01 -0.26195531865E+01  0.14593193580E+02  0.00000000000E+00 0.  1.
</event>
<event>
 7    1  0.1052674E-011  0.5930160E+02  0.7816164E-02  0.1266606E+00
        -11   -1    0    0    0    0  0.00000000000E+00  0.00000000000E+00  0.45593999997E+02  0.45594000000E+02  0.51100000000E-03 0.  1.
         11   -1    0    0    0    0 -0.00000000000E+00 -0.00000000000E+00 -0.45593999997E+02  0.45594000000E+02  0.51100000000E-03 0. -1.
    9900012    2    1    2    0    0  0.60186472984E+00 -0.18342498871E+02 -0.26075525590E+02  0.59301599438E+02  0.49999371548E+02 0.  0.
        -12    1    1    2    0    0 -0.60186472984E+00  0.18342498871E+02  0.26075525590E+02  0.31886400562E+02  0.00000000000E+00 0.  1.
         11    1    3    3    0    0 -0.13610595141E+01 -0.19686435580E+02 -0.62057942681E+01  0.20686229999E+02  0.51100000000E-03 0. -1.
        -11    1    3    3    0    0  0.79847171094E+01  0.40738132080E+01 -0.27261903331E+02  0.28697787979E+02  0.51100000000E-03 0.  1.
        -12    1    3    3    0    0 -0.60217928654E+01 -0.27298764991E+01  0.73921720088E+01  0.99175814604E+01  0.00000000000E+00 0.  1.
</event>
<event>
 7    1  0.1052674E-011  0.5930195E+02  0.7816164E-02  0.1266605E+00
        -11   -1    0    0    0    0  0.00000000000E+00  0.00000000000E+00  0.45593999997E+02  0.45594000000E+02  0.51100000000E-03 0. -1.
         11   -1    0    0    0    0 -0.00000000000E+00 -0.00000000000E+00 -0.45593999997E+02  0.45594000000E+02  0.51100000000E-03 0.  1.
    9900012    2    1    2    0    0  0.11225932904E+02 -0.10972753678E+02  0.27754234034E+02  0.59301946627E+02  0.50000004741E+02 0.  0.
        -12    1    1    2    0    0 -0.11225932904E+02  0.10972753678E+02 -0.27754234034E+02  0.31886053373E+02  0.00000000000E+00 0.  1.
         11    1    3    3    0    0  0.23603332593E+02  0.61474660188E+01  0.28683737576E+01  0.24558831736E+02  0.51100000000E-03 0. -1.
        -11    1    3    3    0    0 -0.47877001946E+01 -0.65830184253E+01  0.18626213687E+02  0.20327174947E+02  0.51100000000E-03 0.  1.
         12    1    3    3    0    0 -0.75896994942E+01 -0.10537201271E+02  0.62596465894E+01  0.14415939944E+02  0.00000000000E+00 0. -1.
</event>
<event>
 7    1  0.1052674E-011  0.5930194E+02  0.7816164E-02  0.1266605E+00
        -11   -1    0    0    0    0  0.00000000000E+00  0.00000000000E+00  0.45593999997E+02  0.45594000000E+02  0.51100000000E-03 0. -1.
         11   -1    0    0    0    0 -0.00000000000E+00 -0.00000000000E+00 -0.45593999997E+02  0.45594000000E+02  0.51100000000E-03 0.  1.
    9900012    2    1    2    0    0  0.15433451282E+01 -0.25681073956E+02  0.18836707470E+02  0.59301936869E+02  0.49999986943E+02 0.  0.
        -12    1    1    2    0    0 -0.15433451282E+01  0.25681073956E+02 -0.18836707470E+02  0.31886063131E+02  0.00000000000E+00 0.  1.
         11    1    3    3    0    0 -0.12870927390E+02 -0.43106885862E+01 -0.18428275109E+01  0.13698132043E+02  0.51100000000E-03 0. -1.
        -11    1    3    3    0    0  0.11923350994E+02 -0.29670536892E+02  0.16040129927E+02  0.35774192188E+02  0.51100000000E-03 0.  1.
        -12    1    3    3    0    0  0.24909215247E+01  0.83001515228E+01  0.46394050539E+01  0.98296126372E+01  0.00000000000E+00 0.  1.
</event>
<event>
 7    1  0.1052674E-011  0.5930195E+02  0.7816164E-02  0.1266605E+00
        -11   -1    0    0    0    0  0.00000000000E+00  0.00000000000E+00  0.45593999997E+02  0.45594000000E+02  0.51100000000E-03 0.  1.
         11   -1    0    0    0    0 -0.00000000000E+00 -0.00000000000E+00 -0.45593999997E+02  0.45594000000E+02  0.51100000000E-03 0. -1.
    9900012    2    1    2    0    0 -0.10605290517E+02  0.17699910490E+02 -0.24309698864E+02  0.59301945412E+02  0.50000002525E+02 0.  0.
        -12    1    1    2    0    0  0.10605290517E+02 -0.17699910490E+02  0.24309698864E+02  0.31886054588E+02  0.00000000000E+00 0.  1.
         11    1    3    3    0    0 -0.71993331256E+01  0.25986312863E+02 -0.30713673223E+02  0.40871121550E+02  0.51100000000E-03 0. -1.
        -11    1    3    3    0    0  0.26377433611E+01  0.28122324468E+01  0.40205212280E+01  0.55705414979E+01  0.51100000000E-03 0.  1.
         12    1    3    3    0    0 -0.60437007525E+01 -0.11098634820E+02  0.23834531305E+01  0.12860282364E+02  0.00000000000E+00 0. -1.
</event>
<event>
 7    1  0.1052674E-011  0.5930191E+02  0.7816164E-02  0.1266605E+00
        -11   -1    0    0    0    0  0.00000000000E+00  0.00000000000E+00  0.45593999997E+02  0.45594000000E+02  0.51100000000E-03 0. -1.
         11   -1    0    0    0    0 -0.00000000000E+00 -0.00000000000E+00 -0.45593999997E+02  0.45594000000E+02  0.51100000000E-03 0.  1.
    9900012    2    1    2    0    0 -0.96398133789E+01 -0.44955408493E+01  0.30059723963E+02  0.59301907510E+02  0.49999933401E+02 0.  0.
        -12    1    1    2    0    0  0.96398133789E+01  0.44955408493E+01 -0.30059723963E+02  0.31886092490E+02  0.00000000000E+00 0.  1.
         11    1    3    3    0    0 -0.57475555346E+01 -0.15362689322E+02  0.98552284911E+01  0.19135625067E+02  0.51100000000E-03 0. -1.
        -11    1    3    3    0    0  0.48201012924E+01  0.12802155794E+02  0.26101811655E+02  0.29469189697E+02  0.51100000000E-03 0.  1.
        -12    1    3    3    0    0 -0.87123591367E+01 -0.19350073213E+01 -0.58973161830E+01  0.10697092746E+02  0.00000000000E+00 0.  1.
</event>
<event>
 7    1  0.1052674E-011  0.5930192E+02  0.7816164E-02  0.1266605E+00
        -11   -1    0    0    0    0  0.00000000000E+00  0.00000000000E+00  0.45593999997E+02  0.45594000000E+02  0.51100000000E-03 0. -1.
         11   -1    0    0    0    0 -0.00000000000E+00 -0.00000000000E+00 -0.45593999997E+02  0.45594000000E+02  0.51100000000E-03 0.  1.
    9900012    2    1    2    0    0 -0.11972566453E+02  0.27186027936E+02  0.11588764207E+02  0.59301922815E+02  0.49999961313E+02 0.  0.
        -12    1    1    2    0    0  0.11972566453E+02 -0.27186027936E+02 -0.11588764207E+02  0.31886077185E+02  0.00000000000E+00 0.  1.
         11    1    3    3    0    0  0.50484175020E+01 -0.68422734724E+01 -0.36914550374E+00  0.85111394190E+01  0.51100000000E-03 0. -1.
        -11    1    3    3    0    0  0.20448916226E+01  0.28933862293E+02  0.31396769520E+01  0.29175461274E+02  0.51100000000E-03 0.  1.
        -12    1    3    3    0    0 -0.19065875578E+02  0.50944391159E+01  0.88182327583E+01  0.21615322122E+02  0.00000000000E+00 0.  1.
</event>
<event>
 7    1  0.1052674E-011  0.5930184E+02  0.7816164E-02  0.1266605E+00
        -11   -1    0    0    0    0  0.00000000000E+00  0.00000000000E+00  0.45593999997E+02  0.45594000000E+02  0.51100000000E-03 0.  1.
         11   -1    0    0    0    0 -0.00000000000E+00 -0.00000000000E+00 -0.45593999997E+02  0.45594000000E+02  0.51100000000E-03 0. -1.
    9900012    2    1    2    0    0 -0.26003051070E+02 -0.20987397271E+00 -0.18453311709E+02  0.59301836463E+02  0.49999803828E+02 0.  0.
        -12    1    1    2    0    0  0.26003051070E+02  0.20987397271E+00  0.18453311709E+02  0.31886163537E+02  0.00000000000E+00 0.  1.
         11    1    3    3    0    0 -0.83976769202E+01  0.19927729103E+02 -0.62613956426E+00  0.21633941293E+02  0.51100000000E-03 0. -1.
        -11    1    3    3    0    0 -0.20854471348E+02 -0.15985255663E+02 -0.97593318810E+01  0.28030018424E+02  0.51100000000E-03 0.  1.
         12    1    3    3    0    0  0.32490971979E+01 -0.41523474131E+01 -0.80678402641E+01  0.96378767458E+01  0.00000000000E+00 0. -1.
</event>
<event>
 7    1  0.1052674E-011  0.5930195E+02  0.7816164E-02  0.1266605E+00
        -11   -1    0    0    0    0  0.00000000000E+00  0.00000000000E+00  0.45593999997E+02  0.45594000000E+02  0.51100000000E-03 0. -1.
         11   -1    0    0    0    0 -0.00000000000E+00 -0.00000000000E+00 -0.45593999997E+02  0.45594000000E+02  0.51100000000E-03 0.  1.
    9900012    2    1    2    0    0 -0.17265458725E+02  0.15256224545E+02  0.22042492899E+02  0.59301953748E+02  0.50000017728E+02 0.  0.
        -12    1    1    2    0    0  0.17265458725E+02 -0.15256224545E+02 -0.22042492899E+02  0.31886046252E+02  0.00000000000E+00 0.  1.
         11    1    3    3    0    0 -0.68847317399E+01  0.33382047449E+01  0.49703708167E+01  0.91240193098E+01  0.51100000000E-03 0. -1.
        -11    1    3    3    0    0  0.14952913278E+02  0.19050196137E+01 -0.41632992223E+01  0.15638151294E+02  0.51100000000E-03 0.  1.
        -12    1    3    3    0    0 -0.25333640263E+02  0.10013000186E+02  0.21235421305E+02  0.34539783145E+02  0.00000000000E+00 0.  1.
</event>
<event>
 7    1  0.1052674E-011  0.5930194E+02  0.7816164E-02  0.1266605E+00
        -11   -1    0    0    0    0  0.00000000000E+00  0.00000000000E+00  0.45593999997E+02  0.45594000000E+02  0.51100000000E-03 0.  1.
         11   -1    0    0    0    0 -0.00000000000E+00 -0.00000000000E+00 -0.45593999997E+02  0.45594000000E+02  0.51100000000E-03 0. -1.
    9900012    2    1    2    0    0  0.23568904595E+02  0.20825914520E+02 -0.52449042602E+01  0.59301937212E+02  0.49999987570E+02 0.  0.
        -12    1    1    2    0    0 -0.23568904595E+02 -0.20825914520E+02  0.52449042602E+01  0.31886062788E+02  0.00000000000E+00 0.  1.
         11    1    3    3    0    0  0.47270621952E+01  0.51590419204E+01 -0.72915137312E+01  0.10105790582E+02  0.51100000000E-03 0. -1.
        -11    1    3    3    0    0 -0.11464746230E+02 -0.16918980767E+01  0.75614291688E+01  0.13837562522E+02  0.51100000000E-03 0.  1.
        -12    1    3    3    0    0  0.30306588630E+02  0.17358770676E+02 -0.55148196978E+01  0.35358584108E+02  0.00000000000E+00 0.  1.
</event>
<event>
 7    1  0.1052674E-011  0.5930195E+02  0.7816164E-02  0.1266605E+00
        -11   -1    0    0    0    0  0.00000000000E+00  0.00000000000E+00  0.45593999997E+02  0.45594000000E+02  0.51100000000E-03 0.  1.
         11   -1    0    0    0    0 -0.00000000000E+00 -0.00000000000E+00 -0.45593999997E+02  0.45594000000E+02  0.51100000000E-03 0. -1.
    9900012    2    1    2    0    0 -0.34671969203E+01  0.25829509061E+02  0.18372134800E+02  0.59301947721E+02  0.50000006736E+02 0.  0.
        -12    1    1    2    0    0  0.34671969203E+01 -0.25829509061E+02 -0.18372134800E+02  0.31886052279E+02  0.00000000000E+00 0.  1.
         11    1    3    3    0    0 -0.21956548258E+02  0.16112705366E+02  0.10010640169E+01  0.27252732249E+02  0.51100000000E-03 0. -1.
        -11    1    3    3    0    0  0.17874478919E+02  0.28666239254E+01  0.65978057285E+01  0.19267733911E+02  0.51100000000E-03 0.  1.
        -12    1    3    3    0    0  0.61487241862E+00  0.68501797695E+01  0.10773265054E+02  0.12781481561E+02  0.00000000000E+00 0.  1.
</event>
<event>
 7    1  0.1052674E-011  0.5930189E+02  0.7816164E-02  0.1266605E+00
        -11   -1    0    0    0    0  0.00000000000E+00  0.00000000000E+00  0.45593999997E+02  0.45594000000E+02  0.51100000000E-03 0.  1.
         11   -1    0    0    0    0 -0.00000000000E+00 -0.00000000000E+00 -0.45593999997E+02  0.45594000000E+02  0.51100000000E-03 0. -1.
    9900012    2    1    2    0    0  0.28416813984E+02  0.11740738449E+02 -0.84477120900E+01  0.59301888668E+02  0.49999899037E+02 0.  0.
        -12    1    1    2    0    0 -0.28416813984E+02 -0.11740738449E+02  0.84477120900E+01  0.31886111332E+02  0.00000000000E+00 0.  1.
         11    1    3    3    0    0  0.14594033125E+02 -0.11186049059E+02 -0.42954313471E+01  0.18882908334E+02  0.51100000000E-03 0. -1.
        -11    1    3    3    0    0  0.91350568898E+00  0.26730997557E+02 -0.26779381635E+01  0.26880328794E+02  0.51100000000E-03 0.  1.
        -12    1    3    3    0    0  0.12909275169E+02 -0.38042100479E+01 -0.14743425794E+01  0.13538651540E+02  0.00000000000E+00 0.  1.
</event>
<event>
 7    1  0.1052674E-011  0.5930191E+02  0.7816164E-02  0.1266605E+00
        -11   -1    0    0    0    0  0.00000000000E+00  0.00000000000E+00  0.45593999997E+02  0.45594000000E+02  0.51100000000E-03 0.  1.
         11   -1    0    0    0    0 -0.00000000000E+00 -0.00000000000E+00 -0.45593999997E+02  0.45594000000E+02  0.51100000000E-03 0. -1.
    9900012    2    1    2    0    0  0.15266084931E+02 -0.27635741646E+02 -0.44648543623E+01  0.59301913851E+02  0.49999944964E+02 0.  0.
        -12    1    1    2    0    0 -0.15266084931E+02  0.27635741646E+02  0.44648543623E+01  0.31886086149E+02  0.00000000000E+00 0.  1.
         11    1    3    3    0    0  0.16669956143E+02 -0.23451625865E+02 -0.40450516169E+01  0.29055612820E+02  0.51100000000E-03 0. -1.
        -11    1    3    3    0    0 -0.12166741582E+02  0.63442089290E+01  0.44455408759E+01  0.14423641066E+02  0.51100000000E-03 0.  1.
        -12    1    3    3    0    0  0.10762870370E+02 -0.10528324710E+02 -0.48653436213E+01  0.15822659964E+02  0.00000000000E+00 0.  1.
</event>
<event>
 7    1  0.1052674E-011  0.5930193E+02  0.7816164E-02  0.1266605E+00
        -11   -1    0    0    0    0  0.00000000000E+00  0.00000000000E+00  0.45593999997E+02  0.45594000000E+02  0.51100000000E-03 0. -1.
         11   -1    0    0    0    0 -0.00000000000E+00 -0.00000000000E+00 -0.45593999997E+02  0.45594000000E+02  0.51100000000E-03 0.  1.
    9900012    2    1    2    0    0  0.29809568216E+00  0.13575327611E+02  0.28850353700E+02  0.59301932676E+02  0.49999979296E+02 0.  0.
        -12    1    1    2    0    0 -0.29809568216E+00 -0.13575327611E+02 -0.28850353700E+02  0.31886067324E+02  0.00000000000E+00 0.  1.
         11    1    3    3    0    0  0.39364189561E+01  0.14677978475E+02  0.18559649043E+02  0.23987476299E+02  0.51100000000E-03 0. -1.
        -11    1    3    3    0    0 -0.11299273831E+02 -0.75194161655E+01 -0.70544939925E+01  0.15296440577E+02  0.51100000000E-03 0.  1.
        -12    1    3    3    0    0  0.76609505569E+01  0.64167653016E+01  0.17345198649E+02  0.20018015800E+02  0.00000000000E+00 0.  1.
</event>
<event>
 7    1  0.1052674E-011  0.5930195E+02  0.7816164E-02  0.1266605E+00
        -11   -1    0    0    0    0  0.00000000000E+00  0.00000000000E+00  0.45593999997E+02  0.45594000000E+02  0.51100000000E-03 0.  1.
         11   -1    0    0    0    0 -0.00000000000E+00 -0.00000000000E+00 -0.45593999997E+02  0.45594000000E+02  0.51100000000E-03 0. -1.
    9900012    2    1    2    0    0 -0.10099706371E+02  0.29468070851E+02 -0.68079967149E+01  0.59301951519E+02  0.50000013661E+02 0.  0.
        -12    1    1    2    0    0  0.10099706371E+02 -0.29468070851E+02  0.68079967149E+01  0.31886048481E+02  0.00000000000E+00 0.  1.
         11    1    3    3    0    0 -0.43288390341E+01  0.30719806121E+02 -0.64868630724E+01  0.31694238093E+02  0.51100000000E-03 0. -1.
        -11    1    3    3    0    0 -0.16645273183E+02 -0.55360489156E+00 -0.10424750898E+01  0.16687071411E+02  0.51100000000E-03 0.  1.
        -12    1    3    3    0    0  0.10874405846E+02 -0.69813037794E+00  0.72134144722E+00  0.10920642015E+02  0.00000000000E+00 0.  1.
</event>
<event>
 7    1  0.1052674E-011  0.5930196E+02  0.7816164E-02  0.1266605E+00
        -11   -1    0    0    0    0  0.00000000000E+00  0.00000000000E+00  0.45593999997E+02  0.45594000000E+02  0.51100000000E-03 0. -1.
         11   -1    0    0    0    0 -0.00000000000E+00 -0.00000000000E+00 -0.45593999997E+02  0.45594000000E+02  0.51100000000E-03 0.  1.
    9900012    2    1    2    0    0 -0.17105335030E+02  0.24566801595E+02  0.10981785832E+02  0.59301955291E+02  0.50000020542E+02 0.  0.
        -12    1    1    2    0    0  0.17105335030E+02 -0.24566801595E+02 -0.10981785832E+02  0.31886044709E+02  0.00000000000E+00 0.  1.
         11    1    3    3    0    0 -0.24813828262E+02  0.18490149163E+02  0.15986223063E+01  0.30986566164E+02  0.51100000000E-03 0. -1.
        -11    1    3    3    0    0  0.14934963060E+02  0.92054649223E+01  0.22453729304E+01  0.17687153697E+02  0.51100000000E-03 0.  1.
         12    1    3    3    0    0 -0.72264698283E+01 -0.31288124902E+01  0.71377905955E+01  0.10628235430E+02  0.00000000000E+00 0. -1.
</event>
<event>
 7    1  0.1052674E-011  0.5930195E+02  0.7816164E-02  0.1266605E+00
        -11   -1    0    0    0    0  0.00000000000E+00  0.00000000000E+00  0.45593999997E+02  0.45594000000E+02  0.51100000000E-03 0.  1.
         11   -1    0    0    0    0 -0.00000000000E+00 -0.00000000000E+00 -0.45593999997E+02  0.45594000000E+02  0.51100000000E-03 0. -1.
    9900012    2    1    2    0    0 -0.25304222930E+02  0.18980763148E+02  0.40183797436E+01  0.59301945940E+02  0.50000003487E+02 0.  0.
        -12    1    1    2    0    0  0.25304222930E+02 -0.18980763148E+02 -0.40183797436E+01  0.31886054060E+02  0.00000000000E+00 0.  1.
         11    1    3    3    0    0 -0.14295300154E+01 -0.31891128112E+01 -0.13040677093E+02  0.13500861302E+02  0.51100000000E-03 0. -1.
        -11    1    3    3    0    0 -0.81901618959E+01  0.55967342515E+01  0.20453143865E+02  0.22731768087E+02  0.51100000000E-03 0.  1.
         12    1    3    3    0    0 -0.15684531019E+02  0.16573141708E+02 -0.33940870280E+01  0.23069316550E+02  0.00000000000E+00 0. -1.
</event>
<event>
 7    1  0.1052674E-011  0.5930193E+02  0.7816164E-02  0.1266605E+00
        -11   -1    0    0    0    0  0.00000000000E+00  0.00000000000E+00  0.45593999997E+02  0.45594000000E+02  0.51100000000E-03 0.  1.
         11   -1    0    0    0    0 -0.00000000000E+00 -0.00000000000E+00 -0.45593999997E+02  0.45594000000E+02  0.51100000000E-03 0. -1.
    9900012    2    1    2    0    0  0.19773113021E+02  0.77322382665E+01 -0.23789867846E+02  0.59301932207E+02  0.49999978442E+02 0.  0.
        -12    1    1    2    0    0 -0.19773113021E+02 -0.77322382665E+01  0.23789867846E+02  0.31886067793E+02  0.00000000000E+00 0.  1.
         11    1    3    3    0    0  0.18962326269E+02  0.17193430916E+02 -0.28439068032E+02  0.38261788706E+02  0.51100000000E-03 0. -1.
        -11    1    3    3    0    0 -0.52310691869E+01 -0.98818310873E+01 -0.27144414875E+01  0.11505775216E+02  0.51100000000E-03 0.  1.
        -12    1    3    3    0    0  0.60418559389E+01  0.42063843808E+00  0.73636416738E+01  0.95343682844E+01  0.00000000000E+00 0.  1.
</event>
<event>
 7    1  0.1052674E-011  0.5930194E+02  0.7816164E-02  0.1266605E+00
        -11   -1    0    0    0    0  0.00000000000E+00  0.00000000000E+00  0.45593999997E+02  0.45594000000E+02  0.51100000000E-03 0.  1.
         11   -1    0    0    0    0 -0.00000000000E+00 -0.00000000000E+00 -0.45593999997E+02  0.45594000000E+02  0.51100000000E-03 0. -1.
    9900012    2    1    2    0    0 -0.17482442054E+02  0.25781614114E+02  0.68112809169E+01  0.59301937932E+02  0.49999988883E+02 0.  0.
        -12    1    1    2    0    0  0.17482442054E+02 -0.25781614114E+02 -0.68112809169E+01  0.31886062068E+02  0.00000000000E+00 0.  1.
         11    1    3    3    0    0 -0.45705924205E+01  0.18449933907E+00  0.23721070169E+01  0.51527902190E+01  0.51100000000E-03 0. -1.
        -11    1    3    3    0    0  0.17209328273E+02  0.11460510182E+02  0.23653802323E+01  0.20811037868E+02  0.51100000000E-03 0.  1.
        -12    1    3    3    0    0 -0.30121177906E+02  0.14136604592E+02  0.20737936676E+01  0.33338109845E+02  0.00000000000E+00 0.  1.
</event>
<event>
 7    1  0.1052674E-011  0.5930195E+02  0.7816164E-02  0.1266605E+00
        -11   -1    0    0    0    0  0.00000000000E+00  0.00000000000E+00  0.45593999997E+02  0.45594000000E+02  0.51100000000E-03 0.  1.
         11   -1    0    0    0    0 -0.00000000000E+00 -0.00000000000E+00 -0.45593999997E+02  0.45594000000E+02  0.51100000000E-03 0. -1.
    9900012    2    1    2    0    0  0.14125830873E+02 -0.45750580287E+01 -0.28217896324E+02  0.59301954043E+02  0.50000018266E+02 0.  0.
        -12    1    1    2    0    0 -0.14125830873E+02  0.45750580287E+01  0.28217896324E+02  0.31886045957E+02  0.00000000000E+00 0.  1.
         11    1    3    3    0    0  0.99193216156E+01 -0.21598821442E+01 -0.95039408182E+01  0.13906218880E+02  0.51100000000E-03 0. -1.
        -11    1    3    3    0    0 -0.94313247104E+01 -0.16936025982E+02 -0.16303422282E+02  0.25329438213E+02  0.51100000000E-03 0.  1.
        -12    1    3    3    0    0  0.13637833968E+02  0.14520850097E+02 -0.24105332238E+01  0.20066296950E+02  0.00000000000E+00 0.  1.
</event>
<event>
 7    1  0.1052674E-011  0.5930196E+02  0.7816164E-02  0.1266605E+00
        -11   -1    0    0    0    0  0.00000000000E+00  0.00000000000E+00  0.45593999997E+02  0.45594000000E+02  0.51100000000E-03 0. -1.
         11   -1    0    0    0    0 -0.00000000000E+00 -0.00000000000E+00 -0.45593999997E+02  0.45594000000E+02  0.51100000000E-03 0.  1.
    9900012    2    1    2    0    0 -0.29664369663E+02 -0.11222154804E+02 -0.32875489804E+01  0.59301959728E+02  0.50000028633E+02 0.  0.
        -12    1    1    2    0    0  0.29664369663E+02  0.11222154804E+02  0.32875489804E+01  0.31886040272E+02  0.00000000000E+00 0.  1.
         11    1    3    3    0    0 -0.43991013687E+00  0.59262330881E+01  0.14303526075E+02  0.15488854637E+02  0.51100000000E-03 0. -1.
        -11    1    3    3    0    0 -0.30067358157E+02 -0.97740615735E+01 -0.99125020337E+01  0.33133608361E+02  0.51100000000E-03 0.  1.
         12    1    3    3    0    0  0.84289863113E+00 -0.73743263182E+01 -0.76785730213E+01  0.10679496729E+02  0.00000000000E+00 0. -1.
</event>
<event>
 7    1  0.1052674E-011  0.5930194E+02  0.7816164E-02  0.1266605E+00
        -11   -1    0    0    0    0  0.00000000000E+00  0.00000000000E+00  0.45593999997E+02  0.45594000000E+02  0.51100000000E-03 0. -1.
         11   -1    0    0    0    0 -0.00000000000E+00 -0.00000000000E+00 -0.45593999997E+02  0.45594000000E+02  0.51100000000E-03 0.  1.
    9900012    2    1    2    0    0  0.16322234129E+02  0.23749474477E+02  0.13648005203E+02  0.59301938611E+02  0.49999990121E+02 0.  0.
        -12    1    1    2    0    0 -0.16322234129E+02 -0.23749474477E+02 -0.13648005203E+02  0.31886061389E+02  0.00000000000E+00 0.  1.
         11    1    3    3    0    0  0.16851889548E+02  0.26504015192E+02  0.23883297237E+02  0.39457076549E+02  0.51100000000E-03 0. -1.
        -11    1    3    3    0    0  0.75511488147E+01 -0.43479781475E+01 -0.60344373545E+01  0.10599018673E+02  0.51100000000E-03 0.  1.
         12    1    3    3    0    0 -0.80808042339E+01  0.15934374331E+01 -0.42008546802E+01  0.92458433885E+01  0.00000000000E+00 0. -1.
</event>
<event>
 7    1  0.1052674E-011  0.5930194E+02  0.7816164E-02  0.1266605E+00
        -11   -1    0    0    0    0  0.00000000000E+00  0.00000000000E+00  0.45593999997E+02  0.45594000000E+02  0.51100000000E-03 0. -1.
         11   -1    0    0    0    0 -0.00000000000E+00 -0.00000000000E+00 -0.45593999997E+02  0.45594000000E+02  0.51100000000E-03 0.  1.
    9900012    2    1    2    0    0  0.13659750542E+02 -0.76752213994E+01  0.27770902560E+02  0.59301939764E+02  0.49999992223E+02 0.  0.
        -12    1    1    2    0    0 -0.13659750542E+02  0.76752213994E+01 -0.27770902560E+02  0.31886060236E+02  0.00000000000E+00 0.  1.
         11    1    3    3    0    0 -0.73810713032E+01  0.96770513880E+01  0.11905360432E+02  0.17025367674E+02  0.51100000000E-03 0. -1.
        -11    1    3    3    0    0  0.70099911892E+01 -0.20972438672E+02  0.19703678778E+01  0.22200574546E+02  0.51100000000E-03 0.  1.
         12    1    3    3    0    0  0.14030830656E+02  0.36201658849E+01  0.13895174250E+02  0.20075997544E+02  0.00000000000E+00 0. -1.
</event>
<event>
 7    1  0.1052674E-011  0.5930194E+02  0.7816164E-02  0.1266605E+00
        -11   -1    0    0    0    0  0.00000000000E+00  0.00000000000E+00  0.45593999997E+02  0.45594000000E+02  0.51100000000E-03 0.  1.
         11   -1    0    0    0    0 -0.00000000000E+00 -0.00000000000E+00 -0.45593999997E+02  0.45594000000E+02  0.51100000000E-03 0. -1.
    9900012    2    1    2    0    0 -0.13848459239E+02 -0.28720098520E+02 -0.31138454504E+00  0.59301939682E+02  0.49999992074E+02 0.  0.
        -12    1    1    2    0    0  0.13848459239E+02  0.28720098520E+02  0.31138454504E+00  0.31886060318E+02  0.00000000000E+00 0.  1.
         11    1    3    3    0    0  0.13897349567E+02 -0.13833624465E+02 -0.13705208919E+02  0.23923591758E+02  0.51100000000E-03 0. -1.
        -11    1    3    3    0    0 -0.25774826296E+02 -0.11033927422E+02  0.13343554430E+02  0.31050598545E+02  0.51100000000E-03 0.  1.
         12    1    3    3    0    0 -0.19709825108E+01 -0.38525466329E+01  0.50269944446E-01  0.43277493786E+01  0.00000000000E+00 0. -1.
</event>
<event>
 7    1  0.1052674E-011  0.5930191E+02  0.7816164E-02  0.1266605E+00
        -11   -1    0    0    0    0  0.00000000000E+00  0.00000000000E+00  0.45593999997E+02  0.45594000000E+02  0.51100000000E-03 0.  1.
         11   -1    0    0    0    0 -0.00000000000E+00 -0.00000000000E+00 -0.45593999997E+02  0.45594000000E+02  0.51100000000E-03 0. -1.
    9900012    2    1    2    0    0 -0.92754172845E+01 -0.30467497056E+02  0.15559143016E+01  0.59301911937E+02  0.49999941474E+02 0.  0.
        -12    1    1    2    0    0  0.92754172845E+01  0.30467497056E+02 -0.15559143016E+01  0.31886088063E+02  0.00000000000E+00 0.  1.
         11    1    3    3    0    0 -0.43773261171E+01 -0.30949667935E+02 -0.11057164527E+02  0.33155750887E+02  0.51100000000E-03 0. -1.
        -11    1    3    3    0    0 -0.12973858321E+02  0.24746907462E+00  0.12570986909E+02  0.18066874461E+02  0.51100000000E-03 0.  1.
        -12    1    3    3    0    0  0.80757671535E+01  0.23470180427E+00  0.42091920171E-01  0.80792865888E+01  0.00000000000E+00 0.  1.
</event>
<event>
 7    1  0.1052674E-011  0.5930226E+02  0.7816164E-02  0.1266604E+00
        -11   -1    0    0    0    0  0.00000000000E+00  0.00000000000E+00  0.45593999997E+02  0.45594000000E+02  0.51100000000E-03 0.  1.
         11   -1    0    0    0    0 -0.00000000000E+00 -0.00000000000E+00 -0.45593999997E+02  0.45594000000E+02  0.51100000000E-03 0. -1.
    9900012    2    1    2    0    0  0.11982305582E+02  0.28275276515E+02  0.85809783160E+01  0.59302264978E+02  0.50000585332E+02 0.  0.
        -12    1    1    2    0    0 -0.11982305582E+02 -0.28275276515E+02 -0.85809783160E+01  0.31885735022E+02  0.00000000000E+00 0.  1.
         11    1    3    3    0    0  0.52290692410E+01  0.22953823268E+02  0.22930703808E+02  0.32863936848E+02  0.51100000000E-03 0. -1.
        -11    1    3    3    0    0  0.20999004240E+01  0.11994273573E+02 -0.13621521787E+02  0.18270687902E+02  0.51100000000E-03 0.  1.
         12    1    3    3    0    0  0.46533359166E+01 -0.66728203263E+01 -0.72820370538E+00  0.81676402281E+01  0.00000000000E+00 0. -1.
</event>
<event>
 7    1  0.1052674E-011  0.5930192E+02  0.7816164E-02  0.1266605E+00
        -11   -1    0    0    0    0  0.00000000000E+00  0.00000000000E+00  0.45593999997E+02  0.45594000000E+02  0.51100000000E-03 0.  1.
         11   -1    0    0    0    0 -0.00000000000E+00 -0.00000000000E+00 -0.45593999997E+02  0.45594000000E+02  0.51100000000E-03 0. -1.
    9900012    2    1    2    0    0 -0.30084433765E+02 -0.23515001351E+00 -0.10563781968E+02  0.59301922475E+02  0.49999960693E+02 0.  0.
        -12    1    1    2    0    0  0.30084433765E+02  0.23515001351E+00  0.10563781968E+02  0.31886077525E+02  0.00000000000E+00 0.  1.
         11    1    3    3    0    0 -0.26888748258E+02 -0.21488355518E+02 -0.13600716155E+02  0.37009913347E+02  0.51100000000E-03 0.  1.
        -11    1    3    3    0    0 -0.22105567592E+01  0.19811614553E+02  0.15431945503E+01  0.19994201211E+02  0.51100000000E-03 0. -1.
        -12    1    3    3    0    0 -0.98512874744E+00  0.14415909521E+01  0.14937396367E+01  0.22978079172E+01  0.00000000000E+00 0.  1.
</event>
<event>
 7    1  0.1052674E-011  0.5930195E+02  0.7816164E-02  0.1266605E+00
        -11   -1    0    0    0    0  0.00000000000E+00  0.00000000000E+00  0.45593999997E+02  0.45594000000E+02  0.51100000000E-03 0. -1.
         11   -1    0    0    0    0 -0.00000000000E+00 -0.00000000000E+00 -0.45593999997E+02  0.45594000000E+02  0.51100000000E-03 0.  1.
    9900012    2    1    2    0    0 -0.70517370253E+01  0.31050306495E+02  0.16946094617E+01  0.59301949292E+02  0.50000009601E+02 0.  0.
        -12    1    1    2    0    0  0.70517370253E+01 -0.31050306495E+02 -0.16946094617E+01  0.31886050708E+02  0.00000000000E+00 0.  1.
         11    1    3    3    0    0  0.67347110099E+01 -0.62932871452E+01 -0.12160852167E+02  0.15259361755E+02  0.51100000000E-03 0. -1.
        -11    1    3    3    0    0 -0.13827613695E+02  0.21751944045E+02  0.55078978543E+01  0.26356913880E+02  0.51100000000E-03 0.  1.
         12    1    3    3    0    0  0.41165660186E-01  0.15591649596E+02  0.83475637746E+01  0.17685673657E+02  0.00000000000E+00 0. -1.
</event>
<event>
 7    1  0.1052674E-011  0.5930191E+02  0.7816164E-02  0.1266605E+00
        -11   -1    0    0    0    0  0.00000000000E+00  0.00000000000E+00  0.45593999997E+02  0.45594000000E+02  0.51100000000E-03 0. -1.
         11   -1    0    0    0    0 -0.00000000000E+00 -0.00000000000E+00 -0.45593999997E+02  0.45594000000E+02  0.51100000000E-03 0.  1.
    9900012    2    1    2    0    0 -0.28485514938E+02 -0.31025354540E+01 -0.13988295388E+02  0.59301910628E+02  0.49999939088E+02 0.  0.
        -12    1    1    2    0    0  0.28485514938E+02  0.31025354540E+01  0.13988295388E+02  0.31886089372E+02  0.00000000000E+00 0.  1.
         11    1    3    3    0    0 -0.12252000052E+02 -0.37978477139E+01  0.56258537273E+01  0.14006619255E+02  0.51100000000E-03 0. -1.
        -11    1    3    3    0    0 -0.21459692755E+01  0.15064176886E+02 -0.20047194571E+02  0.25167928398E+02  0.51100000000E-03 0.  1.
        -12    1    3    3    0    0 -0.14087545611E+02 -0.14368864627E+02  0.43304545571E+00  0.20127362976E+02  0.00000000000E+00 0.  1.
</event>
<event>
 7    1  0.1052674E-011  0.5930195E+02  0.7816164E-02  0.1266605E+00
        -11   -1    0    0    0    0  0.00000000000E+00  0.00000000000E+00  0.45593999997E+02  0.45594000000E+02  0.51100000000E-03 0. -1.
         11   -1    0    0    0    0 -0.00000000000E+00 -0.00000000000E+00 -0.45593999997E+02  0.45594000000E+02  0.51100000000E-03 0.  1.
    9900012    2    1    2    0    0 -0.25699447156E+02  0.11871800212E+02  0.14673748220E+02  0.59301951151E+02  0.50000012991E+02 0.  0.
        -12    1    1    2    0    0  0.25699447156E+02 -0.11871800212E+02 -0.14673748220E+02  0.31886048849E+02  0.00000000000E+00 0.  1.
         11    1    3    3    0    0 -0.27597589129E+02  0.12574549989E+02  0.17989500627E+02  0.35261428874E+02  0.51100000000E-03 0. -1.
        -11    1    3    3    0    0 -0.35129062456E+01 -0.30108950227E+01 -0.12390319839E+02  0.13225960271E+02  0.51100000000E-03 0.  1.
        -12    1    3    3    0    0  0.54110482185E+01  0.23081452460E+01  0.90745674321E+01  0.10814562006E+02  0.00000000000E+00 0.  1.
</event>
<event>
 7    1  0.1052674E-011  0.5930193E+02  0.7816164E-02  0.1266605E+00
        -11   -1    0    0    0    0  0.00000000000E+00  0.00000000000E+00  0.45593999997E+02  0.45594000000E+02  0.51100000000E-03 0.  1.
         11   -1    0    0    0    0 -0.00000000000E+00 -0.00000000000E+00 -0.45593999997E+02  0.45594000000E+02  0.51100000000E-03 0. -1.
    9900012    2    1    2    0    0  0.23703828867E+02 -0.11562982070E+02 -0.17920578905E+02  0.59301933990E+02  0.49999981694E+02 0.  0.
        -12    1    1    2    0    0 -0.23703828867E+02  0.11562982070E+02  0.17920578905E+02  0.31886066010E+02  0.00000000000E+00 0.  1.
         11    1    3    3    0    0  0.26615110435E+02  0.41836444038E+01 -0.16378554373E+02  0.31529732438E+02  0.51100000000E-03 0. -1.
        -11    1    3    3    0    0 -0.70545757475E+01 -0.16957835712E+01  0.75978773168E+01  0.10505734666E+02  0.51100000000E-03 0.  1.
         12    1    3    3    0    0  0.41432941788E+01 -0.14050842902E+02 -0.91399018492E+01  0.17266466886E+02  0.00000000000E+00 0. -1.
</event>
<event>
 7    1  0.1052674E-011  0.5930195E+02  0.7816164E-02  0.1266605E+00
        -11   -1    0    0    0    0  0.00000000000E+00  0.00000000000E+00  0.45593999997E+02  0.45594000000E+02  0.51100000000E-03 0.  1.
         11   -1    0    0    0    0 -0.00000000000E+00 -0.00000000000E+00 -0.45593999997E+02  0.45594000000E+02  0.51100000000E-03 0. -1.
    9900012    2    1    2    0    0  0.25792730186E+02  0.98212567469E+01 -0.15968671723E+02  0.59301945194E+02  0.50000002126E+02 0.  0.
        -12    1    1    2    0    0 -0.25792730186E+02 -0.98212567469E+01  0.15968671723E+02  0.31886054806E+02  0.00000000000E+00 0.  1.
         11    1    3    3    0    0 -0.33934800915E+01  0.17410468041E+02 -0.38262712795E+01  0.18146086540E+02  0.51100000000E-03 0. -1.
        -11    1    3    3    0    0  0.17907319195E+02 -0.16227641117E+02 -0.11922522709E+02  0.26947262662E+02  0.51100000000E-03 0.  1.
         12    1    3    3    0    0  0.11278891082E+02  0.86384298228E+01 -0.21987773413E+00  0.14208595992E+02  0.00000000000E+00 0. -1.
</event>
<event>
 7    1  0.1052674E-011  0.5930194E+02  0.7816164E-02  0.1266605E+00
        -11   -1    0    0    0    0  0.00000000000E+00  0.00000000000E+00  0.45593999997E+02  0.45594000000E+02  0.51100000000E-03 0.  1.
         11   -1    0    0    0    0 -0.00000000000E+00 -0.00000000000E+00 -0.45593999997E+02  0.45594000000E+02  0.51100000000E-03 0. -1.
    9900012    2    1    2    0    0  0.35217336092E+01 -0.31659561002E+02 -0.14107478964E+01  0.59301943172E+02  0.49999998439E+02 0.  0.
        -12    1    1    2    0    0 -0.35217336092E+01  0.31659561002E+02  0.14107478964E+01  0.31886056828E+02  0.00000000000E+00 0.  1.
         11    1    3    3    0    0  0.84314668245E+01 -0.15728892954E+02  0.74384668147E+01  0.19334386341E+02  0.51100000000E-03 0. -1.
        -11    1    3    3    0    0 -0.88452809906E+01 -0.24508014082E+02 -0.13611930295E+02  0.29396707242E+02  0.51100000000E-03 0.  1.
        -12    1    3    3    0    0  0.39355477753E+01  0.85773460345E+01  0.47627155841E+01  0.10570849588E+02  0.00000000000E+00 0.  1.
</event>
<event>
 7    1  0.1052674E-011  0.5930210E+02  0.7816164E-02  0.1266604E+00
        -11   -1    0    0    0    0  0.00000000000E+00  0.00000000000E+00  0.45593999997E+02  0.45594000000E+02  0.51100000000E-03 0.  1.
         11   -1    0    0    0    0 -0.00000000000E+00 -0.00000000000E+00 -0.45593999997E+02  0.45594000000E+02  0.51100000000E-03 0. -1.
    9900012    2    1    2    0    0 -0.47451423148E+01  0.18249176443E+02 -0.25713071204E+02  0.59302096419E+02  0.50000277924E+02 0.  0.
        -12    1    1    2    0    0  0.47451423148E+01 -0.18249176443E+02  0.25713071204E+02  0.31885903581E+02  0.00000000000E+00 0.  1.
         11    1    3    3    0    0 -0.11492718410E+02  0.48286468973E+00 -0.18471516898E+02  0.21760346310E+02  0.51100000000E-03 0. -1.
        -11    1    3    3    0    0  0.33968055324E+01  0.24128386558E+02  0.34992023985E+01  0.24616290204E+02  0.51100000000E-03 0.  1.
        -12    1    3    3    0    0  0.33507705631E+01 -0.63620748041E+01 -0.10740756704E+02  0.12925459905E+02  0.00000000000E+00 0.  1.
</event>
<event>
 7    1  0.1052674E-011  0.5930194E+02  0.7816164E-02  0.1266605E+00
        -11   -1    0    0    0    0  0.00000000000E+00  0.00000000000E+00  0.45593999997E+02  0.45594000000E+02  0.51100000000E-03 0. -1.
         11   -1    0    0    0    0 -0.00000000000E+00 -0.00000000000E+00 -0.45593999997E+02  0.45594000000E+02  0.51100000000E-03 0.  1.
    9900012    2    1    2    0    0 -0.20652410293E+02  0.18841280829E+02  0.15336398944E+02  0.59301936481E+02  0.49999986236E+02 0.  0.
        -12    1    1    2    0    0  0.20652410293E+02 -0.18841280829E+02 -0.15336398944E+02  0.31886063519E+02  0.00000000000E+00 0.  1.
         11    1    3    3    0    0  0.13218952928E+02  0.93277459705E+01  0.53065522405E+01  0.17026657286E+02  0.51100000000E-03 0. -1.
        -11    1    3    3    0    0 -0.22628454681E+02  0.34391070327E+01  0.16242794356E+02  0.28066043312E+02  0.51100000000E-03 0.  1.
        -12    1    3    3    0    0 -0.11242908540E+02  0.60744278253E+01 -0.62129476526E+01  0.14209235883E+02  0.00000000000E+00 0.  1.
</event>
<event>
 7    1  0.1052674E-011  0.5930196E+02  0.7816164E-02  0.1266605E+00
        -11   -1    0    0    0    0  0.00000000000E+00  0.00000000000E+00  0.45593999997E+02  0.45594000000E+02  0.51100000000E-03 0.  1.
         11   -1    0    0    0    0 -0.00000000000E+00 -0.00000000000E+00 -0.45593999997E+02  0.45594000000E+02  0.51100000000E-03 0. -1.
    9900012    2    1    2    0    0 -0.17757253876E+01 -0.57726270267E+01 -0.31308838726E+02  0.59301955940E+02  0.50000021725E+02 0.  0.
        -12    1    1    2    0    0  0.17757253876E+01  0.57726270267E+01  0.31308838726E+02  0.31886044060E+02  0.00000000000E+00 0.  1.
         11    1    3    3    0    0  0.14626976563E+02  0.54465916462E+01  0.26157674160E+01  0.15825803088E+02  0.51100000000E-03 0.  1.
        -11    1    3    3    0    0 -0.89781199918E+01 -0.41574050332E+01 -0.31401674557E+02  0.32923484331E+02  0.51100000000E-03 0. -1.
         12    1    3    3    0    0 -0.74245819590E+01 -0.70618136397E+01 -0.25229315841E+01  0.10552668522E+02  0.00000000000E+00 0. -1.
</event>
<event>
 7    1  0.1052674E-011  0.5930195E+02  0.7816164E-02  0.1266605E+00
        -11   -1    0    0    0    0  0.00000000000E+00  0.00000000000E+00  0.45593999997E+02  0.45594000000E+02  0.51100000000E-03 0.  1.
         11   -1    0    0    0    0 -0.00000000000E+00 -0.00000000000E+00 -0.45593999997E+02  0.45594000000E+02  0.51100000000E-03 0. -1.
    9900012    2    1    2    0    0 -0.27661187608E+02  0.11002652032E+02 -0.11424566439E+02  0.59301947093E+02  0.50000005591E+02 0.  0.
        -12    1    1    2    0    0  0.27661187608E+02 -0.11002652032E+02  0.11424566439E+02  0.31886052907E+02  0.00000000000E+00 0.  1.
         11    1    3    3    0    0 -0.41265254092E+01  0.46410235950E+01 -0.15510423908E+01  0.64010190377E+01  0.51100000000E-03 0. -1.
        -11    1    3    3    0    0 -0.17777754244E+02 -0.16632487988E+02  0.50867387352E+01  0.24870929091E+02  0.51100000000E-03 0.  1.
        -12    1    3    3    0    0 -0.57569079548E+01  0.22994116426E+02 -0.14960262784E+02  0.28029998964E+02  0.00000000000E+00 0.  1.
</event>
<event>
 7    1  0.1052674E-011  0.5930187E+02  0.7816164E-02  0.1266605E+00
        -11   -1    0    0    0    0  0.00000000000E+00  0.00000000000E+00  0.45593999997E+02  0.45594000000E+02  0.51100000000E-03 0. -1.
         11   -1    0    0    0    0 -0.00000000000E+00 -0.00000000000E+00 -0.45593999997E+02  0.45594000000E+02  0.51100000000E-03 0.  1.
    9900012    2    1    2    0    0  0.39424483810E+01  0.47088420445E+01  0.31289125462E+02  0.59301867202E+02  0.49999859888E+02 0.  0.
        -12    1    1    2    0    0 -0.39424483810E+01 -0.47088420445E+01 -0.31289125462E+02  0.31886132798E+02  0.00000000000E+00 0.  1.
         11    1    3    3    0    0  0.17934877620E+01  0.16469668759E+01  0.70872322273E+01  0.74938614310E+01  0.51100000000E-03 0. -1.
        -11    1    3    3    0    0 -0.11947821121E+02  0.97259418168E+01 -0.70040123636E+01  0.16923373281E+02  0.51100000000E-03 0.  1.
        -12    1    3    3    0    0  0.14096781740E+02 -0.66640666481E+01  0.31205905598E+02  0.34884632490E+02  0.00000000000E+00 0.  1.
</event>
<event>
 7    1  0.1052674E-011  0.5930194E+02  0.7816164E-02  0.1266605E+00
        -11   -1    0    0    0    0  0.00000000000E+00  0.00000000000E+00  0.45593999997E+02  0.45594000000E+02  0.51100000000E-03 0.  1.
         11   -1    0    0    0    0 -0.00000000000E+00 -0.00000000000E+00 -0.45593999997E+02  0.45594000000E+02  0.51100000000E-03 0. -1.
    9900012    2    1    2    0    0  0.10587841752E+02  0.16893987039E+02 -0.24883968368E+02  0.59301936073E+02  0.49999985493E+02 0.  0.
        -12    1    1    2    0    0 -0.10587841752E+02 -0.16893987039E+02  0.24883968368E+02  0.31886063927E+02  0.00000000000E+00 0.  1.
         11    1    3    3    0    0 -0.27222118335E+00 -0.57152450113E+01 -0.32487437795E+02  0.32987448289E+02  0.51100000000E-03 0. -1.
        -11    1    3    3    0    0  0.80582439100E+01  0.15813441095E+02  0.63943696934E+01  0.18864998760E+02  0.51100000000E-03 0.  1.
         12    1    3    3    0    0  0.28018190249E+01  0.67957909547E+01  0.12090997336E+01  0.74494890237E+01  0.00000000000E+00 0. -1.
</event>
<event>
 7    1  0.1052674E-011  0.5930194E+02  0.7816164E-02  0.1266605E+00
        -11   -1    0    0    0    0  0.00000000000E+00  0.00000000000E+00  0.45593999997E+02  0.45594000000E+02  0.51100000000E-03 0.  1.
         11   -1    0    0    0    0 -0.00000000000E+00 -0.00000000000E+00 -0.45593999997E+02  0.45594000000E+02  0.51100000000E-03 0. -1.
    9900012    2    1    2    0    0  0.31456363677E+02  0.63046286314E+00  0.51788506897E+01  0.59301940450E+02  0.49999993474E+02 0.  0.
        -12    1    1    2    0    0 -0.31456363677E+02 -0.63046286314E+00 -0.51788506897E+01  0.31886059550E+02  0.00000000000E+00 0.  1.
         11    1    3    3    0    0 -0.16021713089E+00  0.14182439083E+01 -0.11732587642E+01  0.18475989016E+01  0.51100000000E-03 0. -1.
        -11    1    3    3    0    0  0.39750278841E+02  0.12356781344E+02  0.39912284950E+01  0.41817515687E+02  0.51100000000E-03 0.  1.
        -12    1    3    3    0    0 -0.81336980329E+01 -0.13144562389E+02  0.23608809590E+01  0.15636825861E+02  0.00000000000E+00 0.  1.
</event>
<event>
 7    1  0.1052674E-011  0.5930191E+02  0.7816164E-02  0.1266605E+00
        -11   -1    0    0    0    0  0.00000000000E+00  0.00000000000E+00  0.45593999997E+02  0.45594000000E+02  0.51100000000E-03 0. -1.
         11   -1    0    0    0    0 -0.00000000000E+00 -0.00000000000E+00 -0.45593999997E+02  0.45594000000E+02  0.51100000000E-03 0.  1.
    9900012    2    1    2    0    0  0.15601663570E+02 -0.11397474313E+01  0.27785106005E+02  0.59301905130E+02  0.49999929060E+02 0.  0.
        -12    1    1    2    0    0 -0.15601663570E+02  0.11397474313E+01 -0.27785106005E+02  0.31886094870E+02  0.00000000000E+00 0.  1.
         11    1    3    3    0    0 -0.96554295180E+01 -0.12207051954E+02  0.14691340452E+02  0.21402684904E+02  0.51100000000E-03 0. -1.
        -11    1    3    3    0    0  0.17859870625E+02 -0.42237342694E+01  0.89311773799E+01  0.20410312089E+02  0.51100000000E-03 0.  1.
         12    1    3    3    0    0  0.73972224628E+01  0.15291038792E+02  0.41625881732E+01  0.17488908136E+02  0.00000000000E+00 0. -1.
</event>
<event>
 7    1  0.1052674E-011  0.5930195E+02  0.7816164E-02  0.1266605E+00
        -11   -1    0    0    0    0  0.00000000000E+00  0.00000000000E+00  0.45593999997E+02  0.45594000000E+02  0.51100000000E-03 0.  1.
         11   -1    0    0    0    0 -0.00000000000E+00 -0.00000000000E+00 -0.45593999997E+02  0.45594000000E+02  0.51100000000E-03 0. -1.
    9900012    2    1    2    0    0  0.15760063616E+02  0.22382045389E+02 -0.16351898397E+02  0.59301950665E+02  0.50000012106E+02 0.  0.
        -12    1    1    2    0    0 -0.15760063616E+02 -0.22382045389E+02  0.16351898397E+02  0.31886049335E+02  0.00000000000E+00 0.  1.
         11    1    3    3    0    0 -0.10390352432E+02 -0.55920228023E+01  0.35157487535E+01  0.12312214758E+02  0.51100000000E-03 0. -1.
        -11    1    3    3    0    0  0.19904716718E+02  0.21902391928E+02 -0.53736853199E+01  0.30079711002E+02  0.51100000000E-03 0.  1.
         12    1    3    3    0    0  0.62456993301E+01  0.60716762635E+01 -0.14493961830E+02  0.16910024906E+02  0.00000000000E+00 0. -1.
</event>
<event>
 7    1  0.1052674E-011  0.5930195E+02  0.7816164E-02  0.1266605E+00
        -11   -1    0    0    0    0  0.00000000000E+00  0.00000000000E+00  0.45593999997E+02  0.45594000000E+02  0.51100000000E-03 0. -1.
         11   -1    0    0    0    0 -0.00000000000E+00 -0.00000000000E+00 -0.45593999997E+02  0.45594000000E+02  0.51100000000E-03 0.  1.
    9900012    2    1    2    0    0  0.24585778492E+01 -0.11853151671E+02  0.29498784122E+02  0.59301951731E+02  0.50000014048E+02 0.  0.
        -12    1    1    2    0    0 -0.24585778492E+01  0.11853151671E+02 -0.29498784122E+02  0.31886048269E+02  0.00000000000E+00 0.  1.
         11    1    3    3    0    0 -0.16045446690E+02 -0.19970529281E+02  0.20553713273E+02  0.32844079052E+02  0.51100000000E-03 0. -1.
        -11    1    3    3    0    0  0.88863096217E+01  0.83355104631E+01 -0.14786671630E+01  0.12273291743E+02  0.51100000000E-03 0.  1.
         12    1    3    3    0    0  0.96177149171E+01 -0.21813285312E+00  0.10423738012E+02  0.14184580935E+02  0.00000000000E+00 0. -1.
</event>
<event>
 7    1  0.1229554E-011  0.5930194E+02  0.7816164E-02  0.1266605E+00
        -11   -1    0    0    0    0  0.00000000000E+00  0.00000000000E+00  0.45593999997E+02  0.45594000000E+02  0.51100000000E-03 0. -1.
         11   -1    0    0    0    0 -0.00000000000E+00 -0.00000000000E+00 -0.45593999997E+02  0.45594000000E+02  0.51100000000E-03 0.  1.
    9900012    2    1    2    0    0  0.21546753471E+01  0.26850143859E+02 -0.17063052252E+02  0.59301943435E+02  0.49999998919E+02 0.  0.
        -12    1    1    2    0    0 -0.21546753471E+01 -0.26850143859E+02  0.17063052252E+02  0.31886056565E+02  0.00000000000E+00 0.  1.
         11    1    3    3    0    0 -0.90647483279E+01  0.24027301163E+02 -0.23534264262E+02  0.34833065585E+02  0.51100000000E-03 0. -1.
        -11    1    3    3    0    0  0.33522418720E+00 -0.73016030953E+01  0.62264526428E+01  0.96017964877E+01  0.51100000000E-03 0.  1.
         12    1    3    3    0    0  0.10884199488E+02  0.10124445791E+02  0.24475936765E+00  0.14867081362E+02  0.00000000000E+00 0. -1.
</event>
<event>
 7    1  0.1052674E-011  0.5930193E+02  0.7816164E-02  0.1266605E+00
        -11   -1    0    0    0    0  0.00000000000E+00  0.00000000000E+00  0.45593999997E+02  0.45594000000E+02  0.51100000000E-03 0.  1.
         11   -1    0    0    0    0 -0.00000000000E+00 -0.00000000000E+00 -0.45593999997E+02  0.45594000000E+02  0.51100000000E-03 0. -1.
    9900012    2    1    2    0    0 -0.14971164274E+02  0.16583275436E+02 -0.22750395084E+02  0.59301933131E+02  0.49999980127E+02 0.  0.
        -12    1    1    2    0    0  0.14971164274E+02 -0.16583275436E+02  0.22750395084E+02  0.31886066869E+02  0.00000000000E+00 0.  1.
         11    1    3    3    0    0  0.62690994684E+01 -0.75024765689E+01 -0.36762456117E+01  0.10445264232E+02  0.51100000000E-03 0. -1.
        -11    1    3    3    0    0 -0.18984134081E+02  0.10764815451E+02  0.39334550949E+01  0.22175451917E+02  0.51100000000E-03 0.  1.
        -12    1    3    3    0    0 -0.22561296616E+01  0.13320936554E+02 -0.23007604567E+02  0.26681216982E+02  0.00000000000E+00 0.  1.
</event>
<event>
 7    1  0.1052674E-011  0.5930193E+02  0.7816164E-02  0.1266605E+00
        -11   -1    0    0    0    0  0.00000000000E+00  0.00000000000E+00  0.45593999997E+02  0.45594000000E+02  0.51100000000E-03 0.  1.
         11   -1    0    0    0    0 -0.00000000000E+00 -0.00000000000E+00 -0.45593999997E+02  0.45594000000E+02  0.51100000000E-03 0. -1.
    9900012    2    1    2    0    0 -0.15964649581E+02 -0.23575114567E+02 -0.14354972024E+02  0.59301932746E+02  0.49999979425E+02 0.  0.
        -12    1    1    2    0    0  0.15964649581E+02  0.23575114567E+02  0.14354972024E+02  0.31886067254E+02  0.00000000000E+00 0.  1.
         11    1    3    3    0    0 -0.22285784705E+02 -0.15307744608E+02  0.86123843262E+01  0.28375278130E+02  0.51100000000E-03 0. -1.
        -11    1    3    3    0    0  0.11968125717E+01 -0.12527498830E+02 -0.20004756998E+02  0.23633892825E+02  0.51100000000E-03 0.  1.
        -12    1    3    3    0    0  0.51243225526E+01  0.42601288709E+01 -0.29625993524E+01  0.72927617912E+01  0.00000000000E+00 0.  1.
</event>
<event>
 7    1  0.1052674E-011  0.5930194E+02  0.7816164E-02  0.1266605E+00
        -11   -1    0    0    0    0  0.00000000000E+00  0.00000000000E+00  0.45593999997E+02  0.45594000000E+02  0.51100000000E-03 0. -1.
         11   -1    0    0    0    0 -0.00000000000E+00 -0.00000000000E+00 -0.45593999997E+02  0.45594000000E+02  0.51100000000E-03 0.  1.
    9900012    2    1    2    0    0  0.22981635368E+01 -0.23667850155E+01  0.31714943547E+02  0.59301939235E+02  0.49999991259E+02 0.  0.
        -12    1    1    2    0    0 -0.22981635368E+01  0.23667850155E+01 -0.31714943547E+02  0.31886060765E+02  0.00000000000E+00 0.  1.
         11    1    3    3    0    0 -0.23703868331E+02 -0.15480965708E+00  0.15551621932E+02  0.28350490028E+02  0.51100000000E-03 0. -1.
        -11    1    3    3    0    0  0.72392820638E+01 -0.20948997052E+01  0.58528398689E+01  0.95420932906E+01  0.51100000000E-03 0.  1.
         12    1    3    3    0    0  0.18762749804E+02 -0.11707565320E+00  0.10310481746E+02  0.21409355916E+02  0.00000000000E+00 0. -1.
</event>
<event>
 7    1  0.1052674E-011  0.5930195E+02  0.7816164E-02  0.1266605E+00
        -11   -1    0    0    0    0  0.00000000000E+00  0.00000000000E+00  0.45593999997E+02  0.45594000000E+02  0.51100000000E-03 0. -1.
         11   -1    0    0    0    0 -0.00000000000E+00 -0.00000000000E+00 -0.45593999997E+02  0.45594000000E+02  0.51100000000E-03 0.  1.
    9900012    2    1    2    0    0  0.15912946212E+02 -0.11641226504E+02  0.25059535425E+02  0.59301947761E+02  0.50000006809E+02 0.  0.
        -12    1    1    2    0    0 -0.15912946212E+02  0.11641226504E+02 -0.25059535425E+02  0.31886052239E+02  0.00000000000E+00 0.  1.
         11    1    3    3    0    0  0.15919495278E+01  0.46637275158E+01  0.27656005735E+02  0.28091623504E+02  0.51100000000E-03 0. -1.
        -11    1    3    3    0    0  0.19570020908E+02 -0.78070439864E+01 -0.25356537921E+01  0.21221809408E+02  0.51100000000E-03 0.  1.
        -12    1    3    3    0    0 -0.52490242239E+01 -0.84979100331E+01 -0.60816517695E-01  0.99885148487E+01  0.00000000000E+00 0.  1.
</event>
<event>
 7    1  0.1052674E-011  0.5930211E+02  0.7816164E-02  0.1266604E+00
        -11   -1    0    0    0    0  0.00000000000E+00  0.00000000000E+00  0.45593999997E+02  0.45594000000E+02  0.51100000000E-03 0.  1.
         11   -1    0    0    0    0 -0.00000000000E+00 -0.00000000000E+00 -0.45593999997E+02  0.45594000000E+02  0.51100000000E-03 0. -1.
    9900012    2    1    2    0    0  0.20535934352E+01 -0.13958093113E+02 -0.28594834160E+02  0.59302107351E+02  0.50000297862E+02 0.  0.
        -12    1    1    2    0    0 -0.20535934352E+01  0.13958093113E+02  0.28594834160E+02  0.31885892649E+02  0.00000000000E+00 0.  1.
         11    1    3    3    0    0 -0.76557806765E+01 -0.34289406217E+01  0.46065361907E+01  0.95702031061E+01  0.51100000000E-03 0. -1.
        -11    1    3    3    0    0  0.14468691427E+02 -0.55903291403E+00 -0.35595372501E+02  0.38427673533E+02  0.51100000000E-03 0.  1.
        -12    1    3    3    0    0 -0.47593173154E+01 -0.99701195777E+01  0.23940021499E+01  0.11304230712E+02  0.00000000000E+00 0.  1.
</event>
<event>
 7    1  0.1052674E-011  0.5930189E+02  0.7816164E-02  0.1266605E+00
        -11   -1    0    0    0    0  0.00000000000E+00  0.00000000000E+00  0.45593999997E+02  0.45594000000E+02  0.51100000000E-03 0.  1.
         11   -1    0    0    0    0 -0.00000000000E+00 -0.00000000000E+00 -0.45593999997E+02  0.45594000000E+02  0.51100000000E-03 0. -1.
    9900012    2    1    2    0    0  0.28165072026E+02 -0.13079202796E+02  0.72379025236E+01  0.59301889216E+02  0.49999900036E+02 0.  0.
        -12    1    1    2    0    0 -0.28165072026E+02  0.13079202796E+02 -0.72379025236E+01  0.31886110784E+02  0.00000000000E+00 0.  1.
         11    1    3    3    0    0  0.99417595569E+01  0.19616905920E+01  0.20720882954E+01  0.10343131210E+02  0.51100000000E-03 0. -1.
        -11    1    3    3    0    0  0.29090064368E+01 -0.26088152100E+02  0.12018962763E+02  0.28870563982E+02  0.51100000000E-03 0.  1.
        -12    1    3    3    0    0  0.15314306032E+02  0.11047258712E+02 -0.68531485353E+01  0.20088194024E+02  0.00000000000E+00 0.  1.
</event>
<event>
 7    1  0.1052674E-011  0.5930179E+02  0.7816164E-02  0.1266605E+00
        -11   -1    0    0    0    0  0.00000000000E+00  0.00000000000E+00  0.45593999997E+02  0.45594000000E+02  0.51100000000E-03 0. -1.
         11   -1    0    0    0    0 -0.00000000000E+00 -0.00000000000E+00 -0.45593999997E+02  0.45594000000E+02  0.51100000000E-03 0.  1.
    9900012    2    1    2    0    0  0.27648376903E+02 -0.14359446726E+02  0.67899864804E+01  0.59301790253E+02  0.49999719551E+02 0.  0.
        -12    1    1    2    0    0 -0.27648376903E+02  0.14359446726E+02 -0.67899864804E+01  0.31886209747E+02  0.00000000000E+00 0.  1.
         11    1    3    3    0    0  0.32693957387E+01 -0.53675940084E+01 -0.15008333614E+02  0.16271142924E+02  0.51100000000E-03 0. -1.
        -11    1    3    3    0    0  0.63514831210E+01 -0.15419762397E+02  0.15801790702E+02  0.22974050576E+02  0.51100000000E-03 0.  1.
         12    1    3    3    0    0  0.18027498043E+02  0.64279096790E+01  0.59965293923E+01  0.20056596752E+02  0.00000000000E+00 0. -1.
</event>
<event>
 7    1  0.1052674E-011  0.5930194E+02  0.7816164E-02  0.1266605E+00
        -11   -1    0    0    0    0  0.00000000000E+00  0.00000000000E+00  0.45593999997E+02  0.45594000000E+02  0.51100000000E-03 0.  1.
         11   -1    0    0    0    0 -0.00000000000E+00 -0.00000000000E+00 -0.45593999997E+02  0.45594000000E+02  0.51100000000E-03 0. -1.
    9900012    2    1    2    0    0 -0.20423873235E+02 -0.16617628281E+01 -0.24429993814E+02  0.59301942681E+02  0.49999997543E+02 0.  0.
        -12    1    1    2    0    0  0.20423873235E+02  0.16617628281E+01  0.24429993814E+02  0.31886057319E+02  0.00000000000E+00 0.  1.
         11    1    3    3    0    0  0.70702898669E+01 -0.22694716919E+01 -0.26100167536E+02  0.27135921695E+02  0.51100000000E-03 0. -1.
        -11    1    3    3    0    0 -0.13613997292E+02  0.65298934217E+01  0.63299602374E+01  0.16372196775E+02  0.51100000000E-03 0.  1.
         12    1    3    3    0    0 -0.13880165810E+02 -0.59221845578E+01 -0.46597865158E+01  0.15793824211E+02  0.00000000000E+00 0. -1.
</event>
<event>
 7    1  0.1052674E-011  0.5930194E+02  0.7816164E-02  0.1266605E+00
        -11   -1    0    0    0    0  0.00000000000E+00  0.00000000000E+00  0.45593999997E+02  0.45594000000E+02  0.51100000000E-03 0.  1.
         11   -1    0    0    0    0 -0.00000000000E+00 -0.00000000000E+00 -0.45593999997E+02  0.45594000000E+02  0.51100000000E-03 0. -1.
    9900012    2    1    2    0    0  0.21783358341E+02  0.16643604801E+02 -0.16284852442E+02  0.59301941911E+02  0.49999996139E+02 0.  0.
        -12    1    1    2    0    0 -0.21783358341E+02 -0.16643604801E+02  0.16284852442E+02  0.31886058089E+02  0.00000000000E+00 0.  1.
         11    1    3    3    0    0 -0.41832651984E+01  0.19832472097E+02  0.91590782410E+01  0.22242197996E+02  0.51100000000E-03 0.  1.
        -11    1    3    3    0    0  0.19843613119E+02 -0.31463729434E+01 -0.15474187576E+02  0.25359793487E+02  0.51100000000E-03 0. -1.
        -12    1    3    3    0    0  0.61230104211E+01 -0.42494352839E-01 -0.99697431073E+01  0.11699950428E+02  0.00000000000E+00 0.  1.
</event>
<event>
 7    1  0.1052674E-011  0.5930196E+02  0.7816164E-02  0.1266605E+00
        -11   -1    0    0    0    0  0.00000000000E+00  0.00000000000E+00  0.45593999997E+02  0.45594000000E+02  0.51100000000E-03 0. -1.
         11   -1    0    0    0    0 -0.00000000000E+00 -0.00000000000E+00 -0.45593999997E+02  0.45594000000E+02  0.51100000000E-03 0.  1.
    9900012    2    1    2    0    0  0.11450668390E+02  0.12035217535E+01  0.29734719696E+02  0.59301955614E+02  0.50000021131E+02 0.  0.
        -12    1    1    2    0    0 -0.11450668390E+02 -0.12035217535E+01 -0.29734719696E+02  0.31886044386E+02  0.00000000000E+00 0.  1.
         11    1    3    3    0    0 -0.88486217508E+01  0.11645121438E+02  0.71501868991E+01  0.16279807528E+02  0.51100000000E-03 0. -1.
        -11    1    3    3    0    0  0.49356181663E+01 -0.17289622408E+02  0.18319797972E+02  0.25669171543E+02  0.51100000000E-03 0.  1.
        -12    1    3    3    0    0  0.15363671975E+02  0.68480227236E+01  0.42647348245E+01  0.17352976543E+02  0.00000000000E+00 0.  1.
</event>
<event>
 7    1  0.1052674E-011  0.5930194E+02  0.7816164E-02  0.1266605E+00
        -11   -1    0    0    0    0  0.00000000000E+00  0.00000000000E+00  0.45593999997E+02  0.45594000000E+02  0.51100000000E-03 0.  1.
         11   -1    0    0    0    0 -0.00000000000E+00 -0.00000000000E+00 -0.45593999997E+02  0.45594000000E+02  0.51100000000E-03 0. -1.
    9900012    2    1    2    0    0 -0.28790529738E+02 -0.13532755273E+02  0.21657707509E+01  0.59301943003E+02  0.49999998131E+02 0.  0.
        -12    1    1    2    0    0  0.28790529738E+02  0.13532755273E+02 -0.21657707509E+01  0.31886056997E+02  0.00000000000E+00 0.  1.
         11    1    3    3    0    0  0.37835812715E+01 -0.11284815453E+02  0.10769854196E+02  0.16051551536E+02  0.51100000000E-03 0. -1.
        -11    1    3    3    0    0 -0.24710175914E+02 -0.11833555180E+02  0.12301730115E+01  0.27425155384E+02  0.51100000000E-03 0.  1.
         12    1    3    3    0    0 -0.78639350953E+01  0.95856153604E+01 -0.98342564568E+01  0.15825236083E+02  0.00000000000E+00 0. -1.
</event>
<event>
 7    1  0.1052674E-011  0.5930194E+02  0.7816164E-02  0.1266605E+00
        -11   -1    0    0    0    0  0.00000000000E+00  0.00000000000E+00  0.45593999997E+02  0.45594000000E+02  0.51100000000E-03 0.  1.
         11   -1    0    0    0    0 -0.00000000000E+00 -0.00000000000E+00 -0.45593999997E+02  0.45594000000E+02  0.51100000000E-03 0. -1.
    9900012    2    1    2    0    0  0.84540291387E+01 -0.26581929676E+02 -0.15448342104E+02  0.59301939287E+02  0.49999991355E+02 0.  0.
        -12    1    1    2    0    0 -0.84540291387E+01  0.26581929676E+02  0.15448342104E+02  0.31886060713E+02  0.00000000000E+00 0.  1.
         11    1    3    3    0    0  0.15888751807E+02 -0.95186647336E+01 -0.23684200969E+02  0.30066572604E+02  0.51100000000E-03 0. -1.
        -11    1    3    3    0    0 -0.13042021644E+01  0.34397142028E+01  0.68687984379E+01  0.77918527530E+01  0.51100000000E-03 0.  1.
         12    1    3    3    0    0 -0.61305205044E+01 -0.20502979145E+02  0.13670604270E+01  0.21443513931E+02  0.00000000000E+00 0. -1.
</event>
<event>
 7    1  0.1052674E-011  0.5930196E+02  0.7816164E-02  0.1266605E+00
        -11   -1    0    0    0    0  0.00000000000E+00  0.00000000000E+00  0.45593999997E+02  0.45594000000E+02  0.51100000000E-03 0.  1.
         11   -1    0    0    0    0 -0.00000000000E+00 -0.00000000000E+00 -0.45593999997E+02  0.45594000000E+02  0.51100000000E-03 0. -1.
    9900012    2    1    2    0    0  0.38243923367E+01 -0.31650024496E+02 -0.60777968920E+00  0.59301961935E+02  0.50000032658E+02 0.  0.
        -12    1    1    2    0    0 -0.38243923367E+01  0.31650024496E+02  0.60777968920E+00  0.31886038065E+02  0.00000000000E+00 0.  1.
         11    1    3    3    0    0 -0.11688098810E+01 -0.21610688312E+02 -0.44950645322E+01  0.22104152806E+02  0.51100000000E-03 0. -1.
        -11    1    3    3    0    0  0.41968823884E+01  0.87068652423E+01  0.13112148785E+02  0.16289621547E+02  0.51100000000E-03 0.  1.
        -12    1    3    3    0    0  0.79631982935E+00 -0.18746201426E+02 -0.92248639421E+01  0.20908187581E+02  0.00000000000E+00 0.  1.
</event>
<event>
 7    1  0.1052674E-011  0.5930196E+02  0.7816164E-02  0.1266605E+00
        -11   -1    0    0    0    0  0.00000000000E+00  0.00000000000E+00  0.45593999997E+02  0.45594000000E+02  0.51100000000E-03 0.  1.
         11   -1    0    0    0    0 -0.00000000000E+00 -0.00000000000E+00 -0.45593999997E+02  0.45594000000E+02  0.51100000000E-03 0. -1.
    9900012    2    1    2    0    0  0.21639785691E+01 -0.20702859382E+02 -0.24154258466E+02  0.59301962430E+02  0.50000033562E+02 0.  0.
        -12    1    1    2    0    0 -0.21639785691E+01  0.20702859382E+02  0.24154258466E+02  0.31886037570E+02  0.00000000000E+00 0.  1.
         11    1    3    3    0    0  0.18166376498E+02 -0.51478860729E+01  0.42723307554E+01  0.19358997299E+02  0.51100000000E-03 0. -1.
        -11    1    3    3    0    0 -0.11576985585E+02 -0.10571886249E+02 -0.29290857135E+02  0.33222668257E+02  0.51100000000E-03 0.  1.
         12    1    3    3    0    0 -0.44254123433E+01 -0.49830870601E+01  0.86426791366E+00  0.67202968747E+01  0.00000000000E+00 0. -1.
</event>
<event>
 7    1  0.1052674E-011  0.5930194E+02  0.7816164E-02  0.1266605E+00
        -11   -1    0    0    0    0  0.00000000000E+00  0.00000000000E+00  0.45593999997E+02  0.45594000000E+02  0.51100000000E-03 0. -1.
         11   -1    0    0    0    0 -0.00000000000E+00 -0.00000000000E+00 -0.45593999997E+02  0.45594000000E+02  0.51100000000E-03 0.  1.
    9900012    2    1    2    0    0 -0.90989703634E+01  0.20052598259E+02  0.23061279524E+02  0.59301943927E+02  0.49999999817E+02 0.  0.
        -12    1    1    2    0    0  0.90989703634E+01 -0.20052598259E+02 -0.23061279524E+02  0.31886056073E+02  0.00000000000E+00 0.  1.
         11    1    3    3    0    0  0.69651614526E+01  0.15761507405E+02  0.76169307097E+01  0.18840281936E+02  0.51100000000E-03 0. -1.
        -11    1    3    3    0    0 -0.17240037900E+02 -0.11909870689E+02  0.66132567332E+01  0.21972689673E+02  0.51100000000E-03 0.  1.
        -12    1    3    3    0    0  0.11759060839E+01  0.16200961543E+02  0.88310920806E+01  0.18488972318E+02  0.00000000000E+00 0.  1.
</event>
<event>
 7    1  0.1052674E-011  0.5930199E+02  0.7816164E-02  0.1266605E+00
        -11   -1    0    0    0    0  0.00000000000E+00  0.00000000000E+00  0.45593999997E+02  0.45594000000E+02  0.51100000000E-03 0. -1.
         11   -1    0    0    0    0 -0.00000000000E+00 -0.00000000000E+00 -0.45593999997E+02  0.45594000000E+02  0.51100000000E-03 0.  1.
    9900012    2    1    2    0    0  0.17960923869E+02  0.14894276243E+02  0.21732081873E+02  0.59301990002E+02  0.50000083847E+02 0.  0.
        -12    1    1    2    0    0 -0.17960923869E+02 -0.14894276243E+02 -0.21732081873E+02  0.31886009998E+02  0.00000000000E+00 0.  1.
         11    1    3    3    0    0 -0.42677276631E+01  0.69090943383E+01  0.20684049917E+02  0.22221138702E+02  0.51100000000E-03 0. -1.
        -11    1    3    3    0    0  0.27753696214E+02  0.11245687283E+02 -0.19306887085E+01  0.30007677271E+02  0.51100000000E-03 0.  1.
        -12    1    3    3    0    0 -0.55250446820E+01 -0.32605053785E+01  0.29787206643E+01  0.70731740299E+01  0.00000000000E+00 0.  1.
</event>
<event>
 7    1  0.1052674E-011  0.5930195E+02  0.7816164E-02  0.1266605E+00
        -11   -1    0    0    0    0  0.00000000000E+00  0.00000000000E+00  0.45593999997E+02  0.45594000000E+02  0.51100000000E-03 0.  1.
         11   -1    0    0    0    0 -0.00000000000E+00 -0.00000000000E+00 -0.45593999997E+02  0.45594000000E+02  0.51100000000E-03 0. -1.
    9900012    2    1    2    0    0  0.38877841522E+01  0.20092972560E+02 -0.24451538857E+02  0.59301950317E+02  0.50000011471E+02 0.  0.
        -12    1    1    2    0    0 -0.38877841522E+01 -0.20092972560E+02  0.24451538857E+02  0.31886049683E+02  0.00000000000E+00 0.  1.
         11    1    3    3    0    0 -0.77354177522E+01  0.33174841877E+02 -0.15568132206E+02  0.37453618811E+02  0.51100000000E-03 0. -1.
        -11    1    3    3    0    0  0.60116854180E+01 -0.34581088913E+01 -0.81247473443E+01  0.10682246877E+02  0.51100000000E-03 0.  1.
         12    1    3    3    0    0  0.56115164864E+01 -0.96237604263E+01 -0.75865930670E+00  0.11166084630E+02  0.00000000000E+00 0. -1.
</event>
<event>
 7    1  0.1052674E-011  0.5930191E+02  0.7816164E-02  0.1266605E+00
        -11   -1    0    0    0    0  0.00000000000E+00  0.00000000000E+00  0.45593999997E+02  0.45594000000E+02  0.51100000000E-03 0.  1.
         11   -1    0    0    0    0 -0.00000000000E+00 -0.00000000000E+00 -0.45593999997E+02  0.45594000000E+02  0.51100000000E-03 0. -1.
    9900012    2    1    2    0    0 -0.83041283911E+01  0.20896419391E+02 -0.22607611146E+02  0.59301906269E+02  0.49999931137E+02 0.  0.
        -12    1    1    2    0    0  0.83041283911E+01 -0.20896419391E+02  0.22607611146E+02  0.31886093731E+02  0.00000000000E+00 0.  1.
         11    1    3    3    0    0  0.13122726548E+02  0.16711084965E+02 -0.58555248540E+01  0.22039815887E+02  0.51100000000E-03 0. -1.
        -11    1    3    3    0    0 -0.23788340888E+02  0.10714084307E+02 -0.11287753765E+02  0.28426926497E+02  0.51100000000E-03 0.  1.
        -12    1    3    3    0    0  0.23614859482E+01 -0.65287498815E+01 -0.54643325271E+01  0.88351638845E+01  0.00000000000E+00 0.  1.
</event>
<event>
 7    1  0.1052674E-011  0.5930192E+02  0.7816164E-02  0.1266605E+00
        -11   -1    0    0    0    0  0.00000000000E+00  0.00000000000E+00  0.45593999997E+02  0.45594000000E+02  0.51100000000E-03 0. -1.
         11   -1    0    0    0    0 -0.00000000000E+00 -0.00000000000E+00 -0.45593999997E+02  0.45594000000E+02  0.51100000000E-03 0.  1.
    9900012    2    1    2    0    0 -0.13375307429E+02 -0.62814465159E+01  0.28255378944E+02  0.59301923753E+02  0.49999963023E+02 0.  0.
        -12    1    1    2    0    0  0.13375307429E+02  0.62814465159E+01 -0.28255378944E+02  0.31886076247E+02  0.00000000000E+00 0.  1.
         11    1    3    3    0    0 -0.89949157691E+00 -0.53999946001E+01  0.45769617783E+01  0.71356573740E+01  0.51100000000E-03 0.  1.
        -11    1    3    3    0    0  0.76412443153E+01  0.38582032461E+01 -0.96813708733E+01  0.12922975247E+02  0.51100000000E-03 0. -1.
        -12    1    3    3    0    0 -0.20117060168E+02 -0.47396551620E+01  0.33359788039E+02  0.39243291132E+02  0.00000000000E+00 0.  1.
</event>
<event>
 7    1  0.1052674E-011  0.5930193E+02  0.7816164E-02  0.1266605E+00
        -11   -1    0    0    0    0  0.00000000000E+00  0.00000000000E+00  0.45593999997E+02  0.45594000000E+02  0.51100000000E-03 0. -1.
         11   -1    0    0    0    0 -0.00000000000E+00 -0.00000000000E+00 -0.45593999997E+02  0.45594000000E+02  0.51100000000E-03 0.  1.
    9900012    2    1    2    0    0  0.55021642778E+01  0.11573926411E+02  0.29197462438E+02  0.59301930987E+02  0.49999976217E+02 0.  0.
        -12    1    1    2    0    0 -0.55021642778E+01 -0.11573926411E+02 -0.29197462438E+02  0.31886069013E+02  0.00000000000E+00 0.  1.
         11    1    3    3    0    0 -0.72535663925E+01 -0.58037120529E-01 -0.10818886154E+02  0.13025586036E+02  0.51100000000E-03 0. -1.
        -11    1    3    3    0    0  0.64665463885E+01 -0.31193659732E+01  0.11374091435E+02  0.13450524990E+02  0.51100000000E-03 0.  1.
         12    1    3    3    0    0  0.62891842819E+01  0.14751329505E+02  0.28642257157E+02  0.32825819961E+02  0.00000000000E+00 0. -1.
</event>
<event>
 7    1  0.1052674E-011  0.5930194E+02  0.7816164E-02  0.1266605E+00
        -11   -1    0    0    0    0  0.00000000000E+00  0.00000000000E+00  0.45593999997E+02  0.45594000000E+02  0.51100000000E-03 0. -1.
         11   -1    0    0    0    0 -0.00000000000E+00 -0.00000000000E+00 -0.45593999997E+02  0.45594000000E+02  0.51100000000E-03 0.  1.
    9900012    2    1    2    0    0  0.22444385167E+02 -0.74256444511E+01  0.21396971256E+02  0.59301937214E+02  0.49999987574E+02 0.  0.
        -12    1    1    2    0    0 -0.22444385167E+02  0.74256444511E+01 -0.21396971256E+02  0.31886062786E+02  0.00000000000E+00 0.  1.
         11    1    3    3    0    0  0.30839643329E+02 -0.37645223885E+00  0.19892930547E+02  0.36700871965E+02  0.51100000000E-03 0. -1.
        -11    1    3    3    0    0 -0.73713314312E+01  0.55958738775E+01  0.32203728365E+01  0.97990373501E+01  0.51100000000E-03 0.  1.
         12    1    3    3    0    0 -0.10239267308E+01 -0.12645066090E+02 -0.17163321278E+01  0.12802027899E+02  0.00000000000E+00 0. -1.
</event>
<event>
 7    1  0.1052674E-011  0.5930192E+02  0.7816164E-02  0.1266605E+00
        -11   -1    0    0    0    0  0.00000000000E+00  0.00000000000E+00  0.45593999997E+02  0.45594000000E+02  0.51100000000E-03 0. -1.
         11   -1    0    0    0    0 -0.00000000000E+00 -0.00000000000E+00 -0.45593999997E+02  0.45594000000E+02  0.51100000000E-03 0.  1.
    9900012    2    1    2    0    0  0.27292532838E+01  0.88037493964E+01  0.30524862417E+02  0.59301920710E+02  0.49999957473E+02 0.  0.
        -12    1    1    2    0    0 -0.27292532838E+01 -0.88037493964E+01 -0.30524862417E+02  0.31886079290E+02  0.00000000000E+00 0.  1.
         11    1    3    3    0    0 -0.60609242010E+01 -0.75958250216E+01 -0.94141517341E+00  0.97630744501E+01  0.51100000000E-03 0. -1.
        -11    1    3    3    0    0  0.55277251172E+01  0.23406992273E+02  0.88321909773E+01  0.25621292512E+02  0.51100000000E-03 0.  1.
        -12    1    3    3    0    0  0.32624523676E+01 -0.70074178554E+01  0.22634086613E+02  0.23917553748E+02  0.00000000000E+00 0.  1.
</event>
<event>
 7    1  0.1052674E-011  0.5930193E+02  0.7816164E-02  0.1266605E+00
        -11   -1    0    0    0    0  0.00000000000E+00  0.00000000000E+00  0.45593999997E+02  0.45594000000E+02  0.51100000000E-03 0. -1.
         11   -1    0    0    0    0 -0.00000000000E+00 -0.00000000000E+00 -0.45593999997E+02  0.45594000000E+02  0.51100000000E-03 0.  1.
    9900012    2    1    2    0    0 -0.27115709406E+02 -0.95632814430E+01  0.13784180873E+02  0.59301926380E+02  0.49999967815E+02 0.  0.
        -12    1    1    2    0    0  0.27115709406E+02  0.95632814430E+01 -0.13784180873E+02  0.31886073620E+02  0.00000000000E+00 0.  1.
         11    1    3    3    0    0 -0.18593425703E+02 -0.90222939550E+01  0.33366746144E+01  0.20934437306E+02  0.51100000000E-03 0. -1.
        -11    1    3    3    0    0 -0.64425049703E+01  0.12265597282E+02 -0.78598418630E+01  0.15928837414E+02  0.51100000000E-03 0.  1.
        -12    1    3    3    0    0 -0.20797787330E+01 -0.12806584771E+02  0.18307348121E+02  0.22438651660E+02  0.00000000000E+00 0.  1.
</event>
<event>
 7    1  0.1052674E-011  0.5930194E+02  0.7816164E-02  0.1266605E+00
        -11   -1    0    0    0    0  0.00000000000E+00  0.00000000000E+00  0.45593999997E+02  0.45594000000E+02  0.51100000000E-03 0. -1.
         11   -1    0    0    0    0 -0.00000000000E+00 -0.00000000000E+00 -0.45593999997E+02  0.45594000000E+02  0.51100000000E-03 0.  1.
    9900012    2    1    2    0    0  0.12992135652E+02  0.28162970492E+02  0.74008360484E+01  0.59301939254E+02  0.49999991293E+02 0.  0.
        -12    1    1    2    0    0 -0.12992135652E+02 -0.28162970492E+02 -0.74008360484E+01  0.31886060746E+02  0.00000000000E+00 0.  1.
         11    1    3    3    0    0  0.20358660947E+02  0.96650030884E+01 -0.15401214017E+02  0.27296240651E+02  0.51100000000E-03 0. -1.
        -11    1    3    3    0    0 -0.11594970585E+00  0.83612127745E+01  0.35782305831E+01  0.90954415924E+01  0.51100000000E-03 0.  1.
         12    1    3    3    0    0 -0.72505755892E+01  0.10136754629E+02  0.19223819482E+02  0.22910257010E+02  0.00000000000E+00 0. -1.
</event>
<event>
 7    1  0.1052674E-011  0.5930194E+02  0.7816164E-02  0.1266605E+00
        -11   -1    0    0    0    0  0.00000000000E+00  0.00000000000E+00  0.45593999997E+02  0.45594000000E+02  0.51100000000E-03 0.  1.
         11   -1    0    0    0    0 -0.00000000000E+00 -0.00000000000E+00 -0.45593999997E+02  0.45594000000E+02  0.51100000000E-03 0. -1.
    9900012    2    1    2    0    0  0.14956954478E+02  0.12288167077E+02 -0.25337939484E+02  0.59301941688E+02  0.49999995733E+02 0.  0.
        -12    1    1    2    0    0 -0.14956954478E+02 -0.12288167077E+02  0.25337939484E+02  0.31886058312E+02  0.00000000000E+00 0.  1.
         11    1    3    3    0    0 -0.19189783272E+01 -0.16126832840E+02 -0.87910925230E+01  0.18467282509E+02  0.51100000000E-03 0. -1.
        -11    1    3    3    0    0  0.18319251606E+01  0.12131580922E+02 -0.13848820600E+02  0.18501919839E+02  0.51100000000E-03 0.  1.
         12    1    3    3    0    0  0.15044007645E+02  0.16283418995E+02 -0.26980263610E+01  0.22332739340E+02  0.00000000000E+00 0. -1.
</event>
<event>
 7    1  0.1052674E-011  0.5930197E+02  0.7816164E-02  0.1266605E+00
        -11   -1    0    0    0    0  0.00000000000E+00  0.00000000000E+00  0.45593999997E+02  0.45594000000E+02  0.51100000000E-03 0.  1.
         11   -1    0    0    0    0 -0.00000000000E+00 -0.00000000000E+00 -0.45593999997E+02  0.45594000000E+02  0.51100000000E-03 0. -1.
    9900012    2    1    2    0    0 -0.95621938527E+01 -0.13821400457E+02 -0.27097090973E+02  0.59301968559E+02  0.50000044740E+02 0.  0.
        -12    1    1    2    0    0  0.95621938527E+01  0.13821400457E+02  0.27097090973E+02  0.31886031441E+02  0.00000000000E+00 0.  1.
         11    1    3    3    0    0 -0.19318447460E+02  0.13076964284E+01 -0.44448991718E+01  0.19866293342E+02  0.51100000000E-03 0. -1.
        -11    1    3    3    0    0  0.59853707655E+01 -0.12449622281E+02  0.23473867518E+01  0.14011708781E+02  0.51100000000E-03 0.  1.
         12    1    3    3    0    0  0.37708828420E+01 -0.26794746039E+01 -0.24999578553E+02  0.25423966437E+02  0.00000000000E+00 0. -1.
</event>
<event>
 7    1  0.1052674E-011  0.5930189E+02  0.7816164E-02  0.1266605E+00
        -11   -1    0    0    0    0  0.00000000000E+00  0.00000000000E+00  0.45593999997E+02  0.45594000000E+02  0.51100000000E-03 0.  1.
         11   -1    0    0    0    0 -0.00000000000E+00 -0.00000000000E+00 -0.45593999997E+02  0.45594000000E+02  0.51100000000E-03 0. -1.
    9900012    2    1    2    0    0  0.30101854909E+02 -0.95315384896E+01  0.44443051286E+01  0.59301894202E+02  0.49999909129E+02 0.  0.
        -12    1    1    2    0    0 -0.30101854909E+02  0.95315384896E+01 -0.44443051286E+01  0.31886105798E+02  0.00000000000E+00 0.  1.
         11    1    3    3    0    0  0.95294897142E+01 -0.40675348731E+01 -0.60257356615E+01  0.11986054592E+02  0.51100000000E-03 0. -1.
        -11    1    3    3    0    0 -0.94989105798E+01  0.40150708581E+01  0.11908465624E+02  0.15753147304E+02  0.51100000000E-03 0.  1.
        -12    1    3    3    0    0  0.30071275774E+02 -0.94790744746E+01 -0.14384248340E+01  0.31562692306E+02  0.00000000000E+00 0.  1.
</event>
<event>
 7    1  0.1052674E-011  0.5930195E+02  0.7816164E-02  0.1266605E+00
        -11   -1    0    0    0    0  0.00000000000E+00  0.00000000000E+00  0.45593999997E+02  0.45594000000E+02  0.51100000000E-03 0.  1.
         11   -1    0    0    0    0 -0.00000000000E+00 -0.00000000000E+00 -0.45593999997E+02  0.45594000000E+02  0.51100000000E-03 0. -1.
    9900012    2    1    2    0    0 -0.64661598751E+01 -0.16834277346E+02 -0.26296695487E+02  0.59301948020E+02  0.50000007282E+02 0.  0.
        -12    1    1    2    0    0  0.64661598751E+01  0.16834277346E+02  0.26296695487E+02  0.31886051980E+02  0.00000000000E+00 0.  1.
         11    1    3    3    0    0 -0.12363851607E+02 -0.92938995230E+01  0.87707194628E+01  0.17781083068E+02  0.51100000000E-03 0. -1.
        -11    1    3    3    0    0 -0.43009326238E+01  0.31215683938E+01 -0.18900719172E+02  0.19633629215E+02  0.51100000000E-03 0.  1.
         12    1    3    3    0    0  0.10198624355E+02 -0.10661946217E+02 -0.16166695778E+02  0.21887235738E+02  0.00000000000E+00 0. -1.
</event>
<event>
 7    1  0.1052674E-011  0.5930195E+02  0.7816164E-02  0.1266605E+00
        -11   -1    0    0    0    0  0.00000000000E+00  0.00000000000E+00  0.45593999997E+02  0.45594000000E+02  0.51100000000E-03 0. -1.
         11   -1    0    0    0    0 -0.00000000000E+00 -0.00000000000E+00 -0.45593999997E+02  0.45594000000E+02  0.51100000000E-03 0.  1.
    9900012    2    1    2    0    0 -0.14855846334E+02 -0.18135677330E+02  0.21612989177E+02  0.59301948760E+02  0.50000008631E+02 0.  0.
        -12    1    1    2    0    0  0.14855846334E+02  0.18135677330E+02 -0.21612989177E+02  0.31886051240E+02  0.00000000000E+00 0.  1.
         11    1    3    3    0    0 -0.25861615325E+02 -0.22933160071E+01 -0.32492269245E+01  0.26165624805E+02  0.51100000000E-03 0. -1.
        -11    1    3    3    0    0  0.62951216310E+01 -0.17298984400E+01  0.11054930650E+02  0.12838714768E+02  0.51100000000E-03 0.  1.
         12    1    3    3    0    0  0.47106473608E+01 -0.14112462883E+02  0.13807285452E+02  0.20297609188E+02  0.00000000000E+00 0. -1.
</event>
<event>
 7    1  0.1052674E-011  0.5930193E+02  0.7816164E-02  0.1266605E+00
        -11   -1    0    0    0    0  0.00000000000E+00  0.00000000000E+00  0.45593999997E+02  0.45594000000E+02  0.51100000000E-03 0. -1.
         11   -1    0    0    0    0 -0.00000000000E+00 -0.00000000000E+00 -0.45593999997E+02  0.45594000000E+02  0.51100000000E-03 0.  1.
    9900012    2    1    2    0    0 -0.15098888822E+02  0.27477201199E+02  0.58093335283E+01  0.59301931170E+02  0.49999976550E+02 0.  0.
        -12    1    1    2    0    0  0.15098888822E+02 -0.27477201199E+02 -0.58093335283E+01  0.31886068830E+02  0.00000000000E+00 0.  1.
         11    1    3    3    0    0  0.88827845830E+01 -0.24899691428E+01  0.13119023220E+02  0.16037848322E+02  0.51100000000E-03 0. -1.
        -11    1    3    3    0    0 -0.64179795608E+01  0.22682159989E+02 -0.29545279747E+01  0.23757105868E+02  0.51100000000E-03 0.  1.
         12    1    3    3    0    0 -0.17563693844E+02  0.72850103529E+01 -0.43551617170E+01  0.19506976980E+02  0.00000000000E+00 0. -1.
</event>
<event>
 7    1  0.1052674E-011  0.5930194E+02  0.7816164E-02  0.1266605E+00
        -11   -1    0    0    0    0  0.00000000000E+00  0.00000000000E+00  0.45593999997E+02  0.45594000000E+02  0.51100000000E-03 0.  1.
         11   -1    0    0    0    0 -0.00000000000E+00 -0.00000000000E+00 -0.45593999997E+02  0.45594000000E+02  0.51100000000E-03 0. -1.
    9900012    2    1    2    0    0  0.28417423735E+02 -0.33306741757E+01 -0.14073996845E+02  0.59301941144E+02  0.49999994740E+02 0.  0.
        -12    1    1    2    0    0 -0.28417423735E+02  0.33306741757E+01  0.14073996845E+02  0.31886058856E+02  0.00000000000E+00 0.  1.
         11    1    3    3    0    0  0.26711756994E+02  0.12872309867E+02 -0.11656145040E+02  0.31860320784E+02  0.51100000000E-03 0. -1.
        -11    1    3    3    0    0 -0.77441207690E+01  0.21229083675E+00 -0.34327349833E+01  0.84734965398E+01  0.51100000000E-03 0.  1.
         12    1    3    3    0    0  0.94497875104E+01 -0.16415274880E+02  0.10148831786E+01  0.18968123820E+02  0.00000000000E+00 0. -1.
</event>
<event>
 7    1  0.1052674E-011  0.5930200E+02  0.7816164E-02  0.1266605E+00
        -11   -1    0    0    0    0  0.00000000000E+00  0.00000000000E+00  0.45593999997E+02  0.45594000000E+02  0.51100000000E-03 0.  1.
         11   -1    0    0    0    0 -0.00000000000E+00 -0.00000000000E+00 -0.45593999997E+02  0.45594000000E+02  0.51100000000E-03 0. -1.
    9900012    2    1    2    0    0 -0.83914890283E+00 -0.30047676512E+02 -0.10637208536E+02  0.59301996173E+02  0.50000095100E+02 0.  0.
        -12    1    1    2    0    0  0.83914890283E+00  0.30047676512E+02  0.10637208536E+02  0.31886003827E+02  0.00000000000E+00 0.  1.
         11    1    3    3    0    0  0.55093540093E+01 -0.27868379237E+02 -0.12363950065E+02  0.30981717260E+02  0.51100000000E-03 0. -1.
        -11    1    3    3    0    0  0.59166992953E+00  0.10407970746E+02  0.74875192263E+01  0.12835064191E+02  0.51100000000E-03 0.  1.
         12    1    3    3    0    0 -0.69401728417E+01 -0.12587268021E+02 -0.57607776971E+01  0.15485214722E+02  0.00000000000E+00 0. -1.
</event>
<event>
 7    1  0.1052674E-011  0.5930171E+02  0.7816164E-02  0.1266606E+00
        -11   -1    0    0    0    0  0.00000000000E+00  0.00000000000E+00  0.45593999997E+02  0.45594000000E+02  0.51100000000E-03 0.  1.
         11   -1    0    0    0    0 -0.00000000000E+00 -0.00000000000E+00 -0.45593999997E+02  0.45594000000E+02  0.51100000000E-03 0. -1.
    9900012    2    1    2    0    0 -0.19988351299E+02 -0.95386223339E+01 -0.22939404047E+02  0.59301705739E+02  0.49999565416E+02 0.  0.
        -12    1    1    2    0    0  0.19988351299E+02  0.95386223339E+01  0.22939404047E+02  0.31886294261E+02  0.00000000000E+00 0.  1.
         11    1    3    3    0    0 -0.16139844432E+02  0.57933887925E+01 -0.23955592476E+02  0.29460623603E+02  0.51100000000E-03 0. -1.
        -11    1    3    3    0    0 -0.12934759237E+02 -0.96274480279E+01 -0.57937753035E+01  0.17133697341E+02  0.51100000000E-03 0.  1.
        -12    1    3    3    0    0  0.90862523699E+01 -0.57045630985E+01  0.68099637322E+01  0.12707384794E+02  0.00000000000E+00 0.  1.
</event>
<event>
 7    1  0.1052674E-011  0.5930201E+02  0.7816164E-02  0.1266605E+00
        -11   -1    0    0    0    0  0.00000000000E+00  0.00000000000E+00  0.45593999997E+02  0.45594000000E+02  0.51100000000E-03 0.  1.
         11   -1    0    0    0    0 -0.00000000000E+00 -0.00000000000E+00 -0.45593999997E+02  0.45594000000E+02  0.51100000000E-03 0. -1.
    9900012    2    1    2    0    0  0.15796132409E+02 -0.11793495338E+01 -0.27673227012E+02  0.59302013145E+02  0.50000126054E+02 0.  0.
        -12    1    1    2    0    0 -0.15796132409E+02  0.11793495338E+01  0.27673227012E+02  0.31885986855E+02  0.00000000000E+00 0.  1.
         11    1    3    3    0    0  0.17289389767E+02  0.16345897835E+02 -0.13037749471E+02  0.27131057592E+02  0.51100000000E-03 0. -1.
        -11    1    3    3    0    0 -0.14296774904E+01 -0.61723817275E+00  0.55935314968E+01  0.58062514202E+01  0.51100000000E-03 0.  1.
         12    1    3    3    0    0 -0.63579867414E-01 -0.16908009196E+02 -0.20229009038E+02  0.26364704133E+02  0.00000000000E+00 0. -1.
</event>
<event>
 7    1  0.1052674E-011  0.5930195E+02  0.7816164E-02  0.1266605E+00
        -11   -1    0    0    0    0  0.00000000000E+00  0.00000000000E+00  0.45593999997E+02  0.45594000000E+02  0.51100000000E-03 0. -1.
         11   -1    0    0    0    0 -0.00000000000E+00 -0.00000000000E+00 -0.45593999997E+02  0.45594000000E+02  0.51100000000E-03 0.  1.
    9900012    2    1    2    0    0  0.17252271022E+02  0.12225582155E+02  0.23866592196E+02  0.59301953875E+02  0.50000017959E+02 0.  0.
        -12    1    1    2    0    0 -0.17252271022E+02 -0.12225582155E+02 -0.23866592196E+02  0.31886046125E+02  0.00000000000E+00 0.  1.
         11    1    3    3    0    0  0.45110396923E+01  0.14853573416E+01 -0.23650533883E+01  0.53055860495E+01  0.51100000000E-03 0. -1.
        -11    1    3    3    0    0  0.26242643640E+01 -0.11109320129E+02  0.27612196313E+02  0.29878707179E+02  0.51100000000E-03 0.  1.
        -12    1    3    3    0    0  0.10116966965E+02  0.21849544942E+02 -0.13805507286E+01  0.24117660647E+02  0.00000000000E+00 0.  1.
</event>
<event>
 7    1  0.1052674E-011  0.5930195E+02  0.7816164E-02  0.1266605E+00
        -11   -1    0    0    0    0  0.00000000000E+00  0.00000000000E+00  0.45593999997E+02  0.45594000000E+02  0.51100000000E-03 0. -1.
         11   -1    0    0    0    0 -0.00000000000E+00 -0.00000000000E+00 -0.45593999997E+02  0.45594000000E+02  0.51100000000E-03 0.  1.
    9900012    2    1    2    0    0  0.10034172837E+02  0.14201658779E+02  0.26727295801E+02  0.59301951681E+02  0.50000013957E+02 0.  0.
        -12    1    1    2    0    0 -0.10034172837E+02 -0.14201658779E+02 -0.26727295801E+02  0.31886048319E+02  0.00000000000E+00 0.  1.
         11    1    3    3    0    0  0.15796801046E+02  0.13495274495E+02  0.35806906420E+02  0.41398018124E+02  0.51100000000E-03 0. -1.
        -11    1    3    3    0    0 -0.50269493196E+01 -0.48946328506E+01 -0.99635634923E+01  0.12186067780E+02  0.51100000000E-03 0.  1.
         12    1    3    3    0    0 -0.73567889007E+00  0.56010171337E+01  0.88395287376E+00  0.57178657771E+01  0.00000000000E+00 0. -1.
</event>
<event>
 7    1  0.1052674E-011  0.5930222E+02  0.7816164E-02  0.1266604E+00
        -11   -1    0    0    0    0  0.00000000000E+00  0.00000000000E+00  0.45593999997E+02  0.45594000000E+02  0.51100000000E-03 0.  1.
         11   -1    0    0    0    0 -0.00000000000E+00 -0.00000000000E+00 -0.45593999997E+02  0.45594000000E+02  0.51100000000E-03 0. -1.
    9900012    2    1    2    0    0 -0.28663994381E+02  0.42742580203E+01 -0.13296956160E+02  0.59302221060E+02  0.50000505238E+02 0.  0.
        -12    1    1    2    0    0  0.28663994381E+02 -0.42742580203E+01  0.13296956160E+02  0.31885778940E+02  0.00000000000E+00 0.  1.
         11    1    3    3    0    0 -0.35772700302E+02 -0.25274950087E+01 -0.34467545753E+01  0.36027134708E+02  0.51100000000E-03 0. -1.
        -11    1    3    3    0    0  0.12303803651E+02 -0.27264316298E+00 -0.59766599935E+01  0.13681315124E+02  0.51100000000E-03 0.  1.
         12    1    3    3    0    0 -0.51950977300E+01  0.70743961920E+01 -0.38735415914E+01  0.95937712275E+01  0.00000000000E+00 0. -1.
</event>
<event>
 7    1  0.1052674E-011  0.5930195E+02  0.7816164E-02  0.1266605E+00
        -11   -1    0    0    0    0  0.00000000000E+00  0.00000000000E+00  0.45593999997E+02  0.45594000000E+02  0.51100000000E-03 0.  1.
         11   -1    0    0    0    0 -0.00000000000E+00 -0.00000000000E+00 -0.45593999997E+02  0.45594000000E+02  0.51100000000E-03 0. -1.
    9900012    2    1    2    0    0 -0.29093107240E+02  0.81142526030E+01 -0.10221074667E+02  0.59301947382E+02  0.50000006118E+02 0.  0.
        -12    1    1    2    0    0  0.29093107240E+02 -0.81142526030E+01  0.10221074667E+02  0.31886052618E+02  0.00000000000E+00 0.  1.
         11    1    3    3    0    0 -0.87561411158E+01 -0.16829440755E+01 -0.46863905352E+01  0.10072962053E+02  0.51100000000E-03 0. -1.
        -11    1    3    3    0    0  0.46003563165E+01  0.14107553190E+02  0.11456806526E+02  0.18746859771E+02  0.51100000000E-03 0.  1.
        -12    1    3    3    0    0 -0.24937322441E+02 -0.43103565112E+01 -0.16991490658E+02  0.30482125558E+02  0.00000000000E+00 0.  1.
</event>
<event>
 7    1  0.1052674E-011  0.5930196E+02  0.7816164E-02  0.1266605E+00
        -11   -1    0    0    0    0  0.00000000000E+00  0.00000000000E+00  0.45593999997E+02  0.45594000000E+02  0.51100000000E-03 0.  1.
         11   -1    0    0    0    0 -0.00000000000E+00 -0.00000000000E+00 -0.45593999997E+02  0.45594000000E+02  0.51100000000E-03 0. -1.
    9900012    2    1    2    0    0  0.15446060053E+02 -0.25123784816E+02 -0.12121653295E+02  0.59301955823E+02  0.50000021512E+02 0.  0.
        -12    1    1    2    0    0 -0.15446060053E+02  0.25123784816E+02  0.12121653295E+02  0.31886044177E+02  0.00000000000E+00 0.  1.
         11    1    3    3    0    0  0.70409786127E+01 -0.22289524568E+02  0.56618704682E+01  0.24051092756E+02  0.51100000000E-03 0. -1.
        -11    1    3    3    0    0 -0.28390264224E+01  0.11651192700E+02 -0.56011997600E+01  0.13235701771E+02  0.51100000000E-03 0.  1.
         12    1    3    3    0    0  0.11244107863E+02 -0.14485452949E+02 -0.12182324003E+02  0.22015161296E+02  0.00000000000E+00 0. -1.
</event>
<event>
 7    1  0.1052674E-011  0.5930193E+02  0.7816164E-02  0.1266605E+00
        -11   -1    0    0    0    0  0.00000000000E+00  0.00000000000E+00  0.45593999997E+02  0.45594000000E+02  0.51100000000E-03 0. -1.
         11   -1    0    0    0    0 -0.00000000000E+00 -0.00000000000E+00 -0.45593999997E+02  0.45594000000E+02  0.51100000000E-03 0.  1.
    9900012    2    1    2    0    0  0.13650780682E+02  0.13228316720E+02  0.25600565991E+02  0.59301934775E+02  0.49999983125E+02 0.  0.
        -12    1    1    2    0    0 -0.13650780682E+02 -0.13228316720E+02 -0.25600565991E+02  0.31886065225E+02  0.00000000000E+00 0.  1.
         11    1    3    3    0    0  0.20676354811E+02  0.10602989053E+02  0.13909160205E+02  0.27081354527E+02  0.51100000000E-03 0. -1.
        -11    1    3    3    0    0 -0.12354647983E+02  0.12843343561E+02  0.37119522666E+01  0.18203499402E+02  0.51100000000E-03 0.  1.
        -12    1    3    3    0    0  0.53290738543E+01 -0.10218015894E+02  0.79794535190E+01  0.14017080845E+02  0.00000000000E+00 0.  1.
</event>
<event>
 7    1  0.1052674E-011  0.5930185E+02  0.7816164E-02  0.1266605E+00
        -11   -1    0    0    0    0  0.00000000000E+00  0.00000000000E+00  0.45593999997E+02  0.45594000000E+02  0.51100000000E-03 0. -1.
         11   -1    0    0    0    0 -0.00000000000E+00 -0.00000000000E+00 -0.45593999997E+02  0.45594000000E+02  0.51100000000E-03 0.  1.
    9900012    2    1    2    0    0 -0.17705343060E+02  0.22066970878E+02 -0.14707021779E+02  0.59301845227E+02  0.49999819811E+02 0.  0.
        -12    1    1    2    0    0  0.17705343060E+02 -0.22066970878E+02  0.14707021779E+02  0.31886154773E+02  0.00000000000E+00 0.  1.
         11    1    3    3    0    0 -0.24238706112E+01 -0.17817460679E+01  0.15050674939E+02  0.15348373991E+02  0.51100000000E-03 0. -1.
        -11    1    3    3    0    0  0.88626573697E+00  0.42083270555E+01 -0.12484356871E+02  0.13204342100E+02  0.51100000000E-03 0.  1.
         12    1    3    3    0    0 -0.16167738186E+02  0.19640389890E+02 -0.17273339848E+02  0.30749129135E+02  0.00000000000E+00 0. -1.
</event>
<event>
 7    1  0.1052674E-011  0.5930194E+02  0.7816164E-02  0.1266605E+00
        -11   -1    0    0    0    0  0.00000000000E+00  0.00000000000E+00  0.45593999997E+02  0.45594000000E+02  0.51100000000E-03 0.  1.
         11   -1    0    0    0    0 -0.00000000000E+00 -0.00000000000E+00 -0.45593999997E+02  0.45594000000E+02  0.51100000000E-03 0. -1.
    9900012    2    1    2    0    0  0.20124141474E+02  0.13154522232E+02 -0.20945120702E+02  0.59301943386E+02  0.49999998829E+02 0.  0.
        -12    1    1    2    0    0 -0.20124141474E+02 -0.13154522232E+02  0.20945120702E+02  0.31886056614E+02  0.00000000000E+00 0.  1.
         11    1    3    3    0    0  0.11041678307E+02  0.16566999780E+02 -0.14894336347E+02  0.24864138776E+02  0.51100000000E-03 0. -1.
        -11    1    3    3    0    0  0.17471365801E+02 -0.12295269419E+02 -0.61069680390E+01  0.22219750942E+02  0.51100000000E-03 0.  1.
        -12    1    3    3    0    0 -0.83889026339E+01  0.88827918712E+01  0.56183684794E-01  0.12218053668E+02  0.00000000000E+00 0.  1.
</event>
<event>
 7    1  0.1052674E-011  0.5930196E+02  0.7816164E-02  0.1266605E+00
        -11   -1    0    0    0    0  0.00000000000E+00  0.00000000000E+00  0.45593999997E+02  0.45594000000E+02  0.51100000000E-03 0.  1.
         11   -1    0    0    0    0 -0.00000000000E+00 -0.00000000000E+00 -0.45593999997E+02  0.45594000000E+02  0.51100000000E-03 0. -1.
    9900012    2    1    2    0    0  0.27115848497E+01  0.13497300394E+02 -0.28760908954E+02  0.59301957690E+02  0.50000024917E+02 0.  0.
        -12    1    1    2    0    0 -0.27115848497E+01 -0.13497300394E+02  0.28760908954E+02  0.31886042310E+02  0.00000000000E+00 0.  1.
         11    1    3    3    0    0  0.12748228695E+02 -0.13977538327E+02 -0.10086441046E+02  0.21438871373E+02  0.51100000000E-03 0. -1.
        -11    1    3    3    0    0 -0.12435477017E+02  0.17301423138E+02 -0.17042188363E+02  0.27283997429E+02  0.51100000000E-03 0.  1.
         12    1    3    3    0    0  0.23988331711E+01  0.10173415582E+02 -0.16322795456E+01  0.10579088888E+02  0.00000000000E+00 0. -1.
</event>
<event>
 7    1  0.1052674E-011  0.5930196E+02  0.7816164E-02  0.1266605E+00
        -11   -1    0    0    0    0  0.00000000000E+00  0.00000000000E+00  0.45593999997E+02  0.45594000000E+02  0.51100000000E-03 0.  1.
         11   -1    0    0    0    0 -0.00000000000E+00 -0.00000000000E+00 -0.45593999997E+02  0.45594000000E+02  0.51100000000E-03 0. -1.
    9900012    2    1    2    0    0 -0.15261030534E+02  0.57237482492E+01 -0.27405454146E+02  0.59301964437E+02  0.50000037221E+02 0.  0.
        -12    1    1    2    0    0  0.15261030534E+02 -0.57237482492E+01  0.27405454146E+02  0.31886035563E+02  0.00000000000E+00 0.  1.
         11    1    3    3    0    0 -0.26300765274E+02  0.32871948243E+01 -0.10990043308E+02  0.28693500239E+02  0.51100000000E-03 0. -1.
        -11    1    3    3    0    0  0.87140533820E+01  0.50029435907E+01 -0.21915252784E+02  0.24108970857E+02  0.51100000000E-03 0.  1.
         12    1    3    3    0    0  0.23256813578E+01 -0.25663901658E+01  0.54998419456E+01  0.64994933408E+01  0.00000000000E+00 0. -1.
</event>
<event>
 7    1  0.1052674E-011  0.5930194E+02  0.7816164E-02  0.1266605E+00
        -11   -1    0    0    0    0  0.00000000000E+00  0.00000000000E+00  0.45593999997E+02  0.45594000000E+02  0.51100000000E-03 0.  1.
         11   -1    0    0    0    0 -0.00000000000E+00 -0.00000000000E+00 -0.45593999997E+02  0.45594000000E+02  0.51100000000E-03 0. -1.
    9900012    2    1    2    0    0 -0.45248676329E+01 -0.30472635070E+02  0.82258633266E+01  0.59301941249E+02  0.49999994931E+02 0.  0.
        -12    1    1    2    0    0  0.45248676329E+01  0.30472635070E+02 -0.82258633266E+01  0.31886058751E+02  0.00000000000E+00 0.  1.
         11    1    3    3    0    0  0.16834100985E+02 -0.21981389164E+02  0.43114704199E+01  0.28020656719E+02  0.51100000000E-03 0. -1.
        -11    1    3    3    0    0 -0.65510944768E+01  0.22241484380E+00  0.10912093268E+02  0.12729496729E+02  0.51100000000E-03 0.  1.
         12    1    3    3    0    0 -0.14807874141E+02 -0.87136607507E+01 -0.69977003616E+01  0.18551787801E+02  0.00000000000E+00 0. -1.
</event>
<event>
 7    1  0.1052674E-011  0.5930194E+02  0.7816164E-02  0.1266605E+00
        -11   -1    0    0    0    0  0.00000000000E+00  0.00000000000E+00  0.45593999997E+02  0.45594000000E+02  0.51100000000E-03 0. -1.
         11   -1    0    0    0    0 -0.00000000000E+00 -0.00000000000E+00 -0.45593999997E+02  0.45594000000E+02  0.51100000000E-03 0.  1.
    9900012    2    1    2    0    0  0.56958833425E+01  0.27936934857E+02  0.14276035057E+02  0.59301943593E+02  0.49999999207E+02 0.  0.
        -12    1    1    2    0    0 -0.56958833425E+01 -0.27936934857E+02 -0.14276035057E+02  0.31886056407E+02  0.00000000000E+00 0.  1.
         11    1    3    3    0    0  0.80885148450E+01 -0.10578436827E+02  0.83124348262E+01  0.15697897028E+02  0.51100000000E-03 0. -1.
        -11    1    3    3    0    0 -0.10760063368E+02  0.25958370260E+02  0.41875152479E+01  0.28410407150E+02  0.51100000000E-03 0.  1.
        -12    1    3    3    0    0  0.83674318654E+01  0.12557001424E+02  0.17760849826E+01  0.15193639414E+02  0.00000000000E+00 0.  1.
</event>
<event>
 7    1  0.1052674E-011  0.5930193E+02  0.7816164E-02  0.1266605E+00
        -11   -1    0    0    0    0  0.00000000000E+00  0.00000000000E+00  0.45593999997E+02  0.45594000000E+02  0.51100000000E-03 0. -1.
         11   -1    0    0    0    0 -0.00000000000E+00 -0.00000000000E+00 -0.45593999997E+02  0.45594000000E+02  0.51100000000E-03 0.  1.
    9900012    2    1    2    0    0 -0.25987201662E+02  0.17871716337E+02 -0.46891860883E+01  0.59301931550E+02  0.49999977243E+02 0.  0.
        -12    1    1    2    0    0  0.25987201662E+02 -0.17871716337E+02  0.46891860883E+01  0.31886068450E+02  0.00000000000E+00 0.  1.
         11    1    3    3    0    0 -0.13675914283E+02 -0.81916617878E+01  0.49763919117E+01  0.16700252424E+02  0.51100000000E-03 0. -1.
        -11    1    3    3    0    0 -0.19922194524E+01  0.21415981520E+02 -0.18400647819E+02  0.28305424272E+02  0.51100000000E-03 0.  1.
        -12    1    3    3    0    0 -0.10319067927E+02  0.46473966050E+01  0.87350698190E+01  0.14296254853E+02  0.00000000000E+00 0.  1.
</event>
<event>
 7    1  0.1052674E-011  0.5930195E+02  0.7816164E-02  0.1266605E+00
        -11   -1    0    0    0    0  0.00000000000E+00  0.00000000000E+00  0.45593999997E+02  0.45594000000E+02  0.51100000000E-03 0. -1.
         11   -1    0    0    0    0 -0.00000000000E+00 -0.00000000000E+00 -0.45593999997E+02  0.45594000000E+02  0.51100000000E-03 0.  1.
    9900012    2    1    2    0    0  0.16503844915E+02 -0.24762293752E+02  0.11453048747E+02  0.59301946396E+02  0.50000004319E+02 0.  0.
        -12    1    1    2    0    0 -0.16503844915E+02  0.24762293752E+02 -0.11453048747E+02  0.31886053604E+02  0.00000000000E+00 0.  1.
         11    1    3    3    0    0 -0.15494118783E+02 -0.46805721144E+01  0.11533352660E+02  0.19874448320E+02  0.51100000000E-03 0. -1.
        -11    1    3    3    0    0  0.17852968939E+02 -0.15942472554E+02  0.36819591738E+01  0.24216683396E+02  0.51100000000E-03 0.  1.
         12    1    3    3    0    0  0.14144994759E+02 -0.41392490833E+01 -0.37622630870E+01  0.15210814680E+02  0.00000000000E+00 0. -1.
</event>
<event>
 7    1  0.1052674E-011  0.5930196E+02  0.7816164E-02  0.1266605E+00
        -11   -1    0    0    0    0  0.00000000000E+00  0.00000000000E+00  0.45593999997E+02  0.45594000000E+02  0.51100000000E-03 0.  1.
         11   -1    0    0    0    0 -0.00000000000E+00 -0.00000000000E+00 -0.45593999997E+02  0.45594000000E+02  0.51100000000E-03 0. -1.
    9900012    2    1    2    0    0  0.22891247770E+02  0.92874741903E+01  0.20160689354E+02  0.59301956085E+02  0.50000021990E+02 0.  0.
        -12    1    1    2    0    0 -0.22891247770E+02 -0.92874741903E+01 -0.20160689354E+02  0.31886043915E+02  0.00000000000E+00 0.  1.
         11    1    3    3    0    0 -0.28444706215E+01  0.10799606825E+02 -0.16111448843E+01  0.11283541500E+02  0.51100000000E-03 0. -1.
        -11    1    3    3    0    0  0.16131240373E+02 -0.50387235946E+01  0.30302953509E+02  0.34696896736E+02  0.51100000000E-03 0.  1.
        -12    1    3    3    0    0  0.96044780184E+01  0.35265909602E+01 -0.85311192706E+01  0.13321517850E+02  0.00000000000E+00 0.  1.
</event>
<event>
 7    1  0.1052674E-011  0.5930194E+02  0.7816164E-02  0.1266605E+00
        -11   -1    0    0    0    0  0.00000000000E+00  0.00000000000E+00  0.45593999997E+02  0.45594000000E+02  0.51100000000E-03 0. -1.
         11   -1    0    0    0    0 -0.00000000000E+00 -0.00000000000E+00 -0.45593999997E+02  0.45594000000E+02  0.51100000000E-03 0.  1.
    9900012    2    1    2    0    0  0.20137679578E+02 -0.18014712913E+02  0.16931178980E+02  0.59301939695E+02  0.49999992098E+02 0.  0.
        -12    1    1    2    0    0 -0.20137679578E+02  0.18014712913E+02 -0.16931178980E+02  0.31886060305E+02  0.00000000000E+00 0.  1.
         11    1    3    3    0    0 -0.96141479991E+01  0.69834941488E+01  0.11699751422E+02  0.16675887259E+02  0.51100000000E-03 0. -1.
        -11    1    3    3    0    0  0.10250214000E+02 -0.14419409157E+02 -0.47201309188E+01  0.18310267165E+02  0.51100000000E-03 0.  1.
         12    1    3    3    0    0  0.19501613577E+02 -0.10578797904E+02  0.99515584772E+01  0.24315785271E+02  0.00000000000E+00 0. -1.
</event>
<event>
 7    1  0.1052674E-011  0.5930192E+02  0.7816164E-02  0.1266605E+00
        -11   -1    0    0    0    0  0.00000000000E+00  0.00000000000E+00  0.45593999997E+02  0.45594000000E+02  0.51100000000E-03 0.  1.
         11   -1    0    0    0    0 -0.00000000000E+00 -0.00000000000E+00 -0.45593999997E+02  0.45594000000E+02  0.51100000000E-03 0. -1.
    9900012    2    1    2    0    0  0.16037536137E+02  0.14955011778E+02  0.23148800534E+02  0.59301922963E+02  0.49999961583E+02 0.  0.
        -12    1    1    2    0    0 -0.16037536137E+02 -0.14955011778E+02 -0.23148800534E+02  0.31886077037E+02  0.00000000000E+00 0.  1.
         11    1    3    3    0    0  0.27666092512E+01  0.17792422505E+02 -0.10340881719E+01  0.18035902083E+02  0.51100000000E-03 0. -1.
        -11    1    3    3    0    0  0.46908315064E+01 -0.11865207771E+02 -0.13772726330E+01  0.12832923900E+02  0.51100000000E-03 0.  1.
        -12    1    3    3    0    0  0.85800953795E+01  0.90277970439E+01  0.25560161339E+02  0.28433096980E+02  0.00000000000E+00 0.  1.
</event>
<event>
 7    1  0.1052674E-011  0.5930195E+02  0.7816164E-02  0.1266605E+00
        -11   -1    0    0    0    0  0.00000000000E+00  0.00000000000E+00  0.45593999997E+02  0.45594000000E+02  0.51100000000E-03 0.  1.
         11   -1    0    0    0    0 -0.00000000000E+00 -0.00000000000E+00 -0.45593999997E+02  0.45594000000E+02  0.51100000000E-03 0. -1.
    9900012    2    1    2    0    0 -0.29340093313E+02  0.90935916129E+01 -0.85548600013E+01  0.59301951112E+02  0.50000012920E+02 0.  0.
        -12    1    1    2    0    0  0.29340093313E+02 -0.90935916129E+01  0.85548600013E+01  0.31886048888E+02  0.00000000000E+00 0.  1.
         11    1    3    3    0    0 -0.28137916210E+02 -0.11701548220E+02 -0.13718758913E+02  0.33419648498E+02  0.51100000000E-03 0. -1.
        -11    1    3    3    0    0  0.53521915075E+01  0.45081675652E+01 -0.14046541167E+01  0.71374072447E+01  0.51100000000E-03 0.  1.
         12    1    3    3    0    0 -0.65543686107E+01  0.16286972267E+02  0.65685530285E+01  0.18744895369E+02  0.00000000000E+00 0. -1.
</event>
<event>
 7    1  0.1052674E-011  0.5930194E+02  0.7816164E-02  0.1266605E+00
        -11   -1    0    0    0    0  0.00000000000E+00  0.00000000000E+00  0.45593999997E+02  0.45594000000E+02  0.51100000000E-03 0. -1.
         11   -1    0    0    0    0 -0.00000000000E+00 -0.00000000000E+00 -0.45593999997E+02  0.45594000000E+02  0.51100000000E-03 0.  1.
    9900012    2    1    2    0    0 -0.15764268363E+02 -0.23042675947E+02  0.15402717295E+02  0.59301940791E+02  0.49999994097E+02 0.  0.
        -12    1    1    2    0    0  0.15764268363E+02  0.23042675947E+02 -0.15402717295E+02  0.31886059209E+02  0.00000000000E+00 0.  1.
         11    1    3    3    0    0 -0.87905371732E+01 -0.12582990356E+02  0.27740721594E+02  0.31704145233E+02  0.51100000000E-03 0. -1.
        -11    1    3    3    0    0 -0.67134248020E+01  0.54213583166E+01 -0.59322828904E+01  0.10471541392E+02  0.51100000000E-03 0.  1.
        -12    1    3    3    0    0 -0.26030638795E+00 -0.15881043907E+02 -0.64057214092E+01  0.17126254167E+02  0.00000000000E+00 0.  1.
</event>
<event>
 7    1  0.1052674E-011  0.5930194E+02  0.7816164E-02  0.1266605E+00
        -11   -1    0    0    0    0  0.00000000000E+00  0.00000000000E+00  0.45593999997E+02  0.45594000000E+02  0.51100000000E-03 0.  1.
         11   -1    0    0    0    0 -0.00000000000E+00 -0.00000000000E+00 -0.45593999997E+02  0.45594000000E+02  0.51100000000E-03 0. -1.
    9900012    2    1    2    0    0  0.12669479675E+02  0.52307010285E+01 -0.28789665480E+02  0.59301940555E+02  0.49999993666E+02 0.  0.
        -12    1    1    2    0    0 -0.12669479675E+02 -0.52307010285E+01  0.28789665480E+02  0.31886059445E+02  0.00000000000E+00 0.  1.
         11    1    3    3    0    0  0.24577148826E+01  0.45781254181E+01  0.82322870948E+01  0.97349959353E+01  0.51100000000E-03 0.  1.
        -11    1    3    3    0    0  0.21209678678E+02  0.23595250162E+01 -0.28202156231E+02  0.35366360347E+02  0.51100000000E-03 0. -1.
        -12    1    3    3    0    0 -0.10997913885E+02 -0.17069494057E+01 -0.88197963446E+01  0.14200584272E+02  0.00000000000E+00 0.  1.
</event>
<event>
 7    1  0.1052674E-011  0.5930195E+02  0.7816164E-02  0.1266605E+00
        -11   -1    0    0    0    0  0.00000000000E+00  0.00000000000E+00  0.45593999997E+02  0.45594000000E+02  0.51100000000E-03 0. -1.
         11   -1    0    0    0    0 -0.00000000000E+00 -0.00000000000E+00 -0.45593999997E+02  0.45594000000E+02  0.51100000000E-03 0.  1.
    9900012    2    1    2    0    0 -0.43643811242E-02 -0.25485650783E+02 -0.19162501927E+02  0.59301954542E+02  0.50000019175E+02 0.  0.
        -12    1    1    2    0    0  0.43643811242E-02  0.25485650783E+02  0.19162501927E+02  0.31886045458E+02  0.00000000000E+00 0.  1.
         11    1    3    3    0    0  0.16393269962E+02 -0.21099305213E+02 -0.29105423059E+01  0.26877336871E+02  0.51100000000E-03 0. -1.
        -11    1    3    3    0    0 -0.20668754822E+02 -0.48187079441E+00 -0.76231478699E+01  0.22035017791E+02  0.51100000000E-03 0.  1.
        -12    1    3    3    0    0  0.42711204796E+01 -0.39044747751E+01 -0.86288117510E+01  0.10389599879E+02  0.00000000000E+00 0.  1.
</event>
<event>
 7    1  0.1052674E-011  0.5930198E+02  0.7816164E-02  0.1266605E+00
        -11   -1    0    0    0    0  0.00000000000E+00  0.00000000000E+00  0.45593999997E+02  0.45594000000E+02  0.51100000000E-03 0.  1.
         11   -1    0    0    0    0 -0.00000000000E+00 -0.00000000000E+00 -0.45593999997E+02  0.45594000000E+02  0.51100000000E-03 0. -1.
    9900012    2    1    2    0    0 -0.28488126480E+01 -0.14297068647E+01 -0.31726306928E+02  0.59301978823E+02  0.50000063458E+02 0.  0.
        -12    1    1    2    0    0  0.28488126480E+01  0.14297068647E+01  0.31726306928E+02  0.31886021177E+02  0.00000000000E+00 0.  1.
         11    1    3    3    0    0 -0.13548339165E+02 -0.56163322322E+01 -0.31162768607E+02  0.34441527687E+02  0.51100000000E-03 0.  1.
        -11    1    3    3    0    0  0.15827619848E+02  0.19895828277E+01 -0.60261636583E+01  0.17052467228E+02  0.51100000000E-03 0. -1.
        -12    1    3    3    0    0 -0.51280933308E+01  0.21970425398E+01  0.54626253378E+01  0.78079839083E+01  0.00000000000E+00 0.  1.
</event>
<event>
 7    1  0.1052674E-011  0.5930198E+02  0.7816164E-02  0.1266605E+00
        -11   -1    0    0    0    0  0.00000000000E+00  0.00000000000E+00  0.45593999997E+02  0.45594000000E+02  0.51100000000E-03 0. -1.
         11   -1    0    0    0    0 -0.00000000000E+00 -0.00000000000E+00 -0.45593999997E+02  0.45594000000E+02  0.51100000000E-03 0.  1.
    9900012    2    1    2    0    0  0.21968898760E+02 -0.12043085977E+02  0.19724338271E+02  0.59301984997E+02  0.50000074717E+02 0.  0.
        -12    1    1    2    0    0 -0.21968898760E+02  0.12043085977E+02 -0.19724338271E+02  0.31886015003E+02  0.00000000000E+00 0.  1.
         11    1    3    3    0    0 -0.58966680533E+01 -0.38612282378E+01  0.21968228469E+02  0.23071255708E+02  0.51100000000E-03 0. -1.
        -11    1    3    3    0    0  0.20513809804E+02 -0.13208673836E+02 -0.79411894884E+01  0.25658291992E+02  0.51100000000E-03 0.  1.
        -12    1    3    3    0    0  0.73517570089E+01  0.50268160964E+01  0.56972992902E+01  0.10572437296E+02  0.00000000000E+00 0.  1.
</event>
<event>
 7    1  0.1052674E-011  0.5930195E+02  0.7816164E-02  0.1266605E+00
        -11   -1    0    0    0    0  0.00000000000E+00  0.00000000000E+00  0.45593999997E+02  0.45594000000E+02  0.51100000000E-03 0.  1.
         11   -1    0    0    0    0 -0.00000000000E+00 -0.00000000000E+00 -0.45593999997E+02  0.45594000000E+02  0.51100000000E-03 0. -1.
    9900012    2    1    2    0    0  0.28892510614E+02 -0.12755543675E+02 -0.43862528178E+01  0.59301948539E+02  0.50000008227E+02 0.  0.
        -12    1    1    2    0    0 -0.28892510614E+02  0.12755543675E+02  0.43862528178E+01  0.31886051461E+02  0.00000000000E+00 0.  1.
         11    1    3    3    0    0  0.50243064780E+01 -0.64237889115E+01  0.18139240067E+02  0.19888206305E+02  0.51100000000E-03 0. -1.
        -11    1    3    3    0    0  0.16660383934E+02  0.54025941884E+01 -0.17486790941E+02  0.24749631805E+02  0.51100000000E-03 0.  1.
        -12    1    3    3    0    0  0.72078202013E+01 -0.11734348952E+02 -0.50387019443E+01  0.14664110428E+02  0.00000000000E+00 0.  1.
</event>
<event>
 7    1  0.1052674E-011  0.5930193E+02  0.7816164E-02  0.1266605E+00
        -11   -1    0    0    0    0  0.00000000000E+00  0.00000000000E+00  0.45593999997E+02  0.45594000000E+02  0.51100000000E-03 0. -1.
         11   -1    0    0    0    0 -0.00000000000E+00 -0.00000000000E+00 -0.45593999997E+02  0.45594000000E+02  0.51100000000E-03 0.  1.
    9900012    2    1    2    0    0  0.18170650018E+02 -0.73241144253E+00 -0.26191844630E+02  0.59301926650E+02  0.49999968307E+02 0.  0.
        -12    1    1    2    0    0 -0.18170650018E+02  0.73241144253E+00  0.26191844630E+02  0.31886073350E+02  0.00000000000E+00 0.  1.
         11    1    3    3    0    0 -0.11281325318E+02  0.72767032673E+01  0.18330781601E+01  0.13549128650E+02  0.51100000000E-03 0. -1.
        -11    1    3    3    0    0  0.95220045362E+01 -0.17245162113E+00 -0.21257947490E+02  0.23293746837E+02  0.51100000000E-03 0.  1.
         12    1    3    3    0    0  0.19929970800E+02 -0.78366630887E+01 -0.67669752997E+01  0.22459051163E+02  0.00000000000E+00 0. -1.
</event>
<event>
 7    1  0.1052674E-011  0.5930190E+02  0.7816164E-02  0.1266605E+00
        -11   -1    0    0    0    0  0.00000000000E+00  0.00000000000E+00  0.45593999997E+02  0.45594000000E+02  0.51100000000E-03 0.  1.
         11   -1    0    0    0    0 -0.00000000000E+00 -0.00000000000E+00 -0.45593999997E+02  0.45594000000E+02  0.51100000000E-03 0. -1.
    9900012    2    1    2    0    0  0.17760140663E+02 -0.23847529812E+02 -0.11515030224E+02  0.59301902785E+02  0.49999924784E+02 0.  0.
        -12    1    1    2    0    0 -0.17760140663E+02  0.23847529812E+02  0.11515030224E+02  0.31886097215E+02  0.00000000000E+00 0.  1.
         11    1    3    3    0    0  0.21558259902E+02 -0.31932372679E+02 -0.23686043968E+01  0.38601104673E+02  0.51100000000E-03 0.  1.
        -11    1    3    3    0    0 -0.56606535641E+01 -0.34034205022E+01 -0.14933431190E+01  0.67717312277E+01  0.51100000000E-03 0. -1.
         12    1    3    3    0    0  0.18625343254E+01  0.11488263369E+02 -0.76530827083E+01  0.13929066885E+02  0.00000000000E+00 0. -1.
</event>
<event>
 7    1  0.1052674E-011  0.5930192E+02  0.7816164E-02  0.1266605E+00
        -11   -1    0    0    0    0  0.00000000000E+00  0.00000000000E+00  0.45593999997E+02  0.45594000000E+02  0.51100000000E-03 0.  1.
         11   -1    0    0    0    0 -0.00000000000E+00 -0.00000000000E+00 -0.45593999997E+02  0.45594000000E+02  0.51100000000E-03 0. -1.
    9900012    2    1    2    0    0 -0.10548673991E+02  0.49416511365E+01 -0.29682105593E+02  0.59301924177E+02  0.49999963798E+02 0.  0.
        -12    1    1    2    0    0  0.10548673991E+02 -0.49416511365E+01  0.29682105593E+02  0.31886075823E+02  0.00000000000E+00 0.  1.
         11    1    3    3    0    0 -0.13591917454E+01 -0.11658195957E+02 -0.31756007629E+02  0.33855648804E+02  0.51100000000E-03 0. -1.
        -11    1    3    3    0    0 -0.23213931703E+01  0.10305122223E+02  0.89678046095E+01  0.13856620441E+02  0.51100000000E-03 0.  1.
        -12    1    3    3    0    0 -0.68680890752E+01  0.62947248708E+01 -0.68939025741E+01  0.11589654932E+02  0.00000000000E+00 0.  1.
</event>
<event>
 7    1  0.1052674E-011  0.5930195E+02  0.7816164E-02  0.1266605E+00
        -11   -1    0    0    0    0  0.00000000000E+00  0.00000000000E+00  0.45593999997E+02  0.45594000000E+02  0.51100000000E-03 0.  1.
         11   -1    0    0    0    0 -0.00000000000E+00 -0.00000000000E+00 -0.45593999997E+02  0.45594000000E+02  0.51100000000E-03 0. -1.
    9900012    2    1    2    0    0  0.14824080812E+02 -0.61942380726E+01 -0.27542667369E+02  0.59301945320E+02  0.50000002357E+02 0.  0.
        -12    1    1    2    0    0 -0.14824080812E+02  0.61942380726E+01  0.27542667369E+02  0.31886054680E+02  0.00000000000E+00 0.  1.
         11    1    3    3    0    0  0.20289473580E+02  0.10819165972E+02 -0.17163067756E+02  0.28692995409E+02  0.51100000000E-03 0. -1.
        -11    1    3    3    0    0 -0.12547353168E+01 -0.17882847040E+02 -0.15657236580E+02  0.23801672978E+02  0.51100000000E-03 0.  1.
         12    1    3    3    0    0 -0.42106574505E+01  0.86944299606E+00  0.52776369671E+01  0.68072769333E+01  0.00000000000E+00 0. -1.
</event>
<event>
 7    1  0.1052674E-011  0.5930196E+02  0.7816164E-02  0.1266605E+00
        -11   -1    0    0    0    0  0.00000000000E+00  0.00000000000E+00  0.45593999997E+02  0.45594000000E+02  0.51100000000E-03 0.  1.
         11   -1    0    0    0    0 -0.00000000000E+00 -0.00000000000E+00 -0.45593999997E+02  0.45594000000E+02  0.51100000000E-03 0. -1.
    9900012    2    1    2    0    0 -0.35539727096E+01 -0.31677239689E+02  0.80085461838E+00  0.59301959098E+02  0.50000027484E+02 0.  0.
        -12    1    1    2    0    0  0.35539727096E+01  0.31677239689E+02 -0.80085461838E+00  0.31886040902E+02  0.00000000000E+00 0.  1.
         11    1    3    3    0    0 -0.13330828065E+01  0.71039395137E+01 -0.87015219918E+01  0.11311920775E+02  0.51100000000E-03 0. -1.
        -11    1    3    3    0    0  0.51574080343E+01 -0.10416828184E+02  0.14153736124E+02  0.18314950548E+02  0.51100000000E-03 0.  1.
         12    1    3    3    0    0 -0.73782979374E+01 -0.28364351018E+02 -0.46513595134E+01  0.29675087775E+02  0.00000000000E+00 0. -1.
</event>
<event>
 7    1  0.1052674E-011  0.5930177E+02  0.7816164E-02  0.1266605E+00
        -11   -1    0    0    0    0  0.00000000000E+00  0.00000000000E+00  0.45593999997E+02  0.45594000000E+02  0.51100000000E-03 0. -1.
         11   -1    0    0    0    0 -0.00000000000E+00 -0.00000000000E+00 -0.45593999997E+02  0.45594000000E+02  0.51100000000E-03 0.  1.
    9900012    2    1    2    0    0  0.31619391101E+02 -0.37942184672E+01  0.15968408664E+01  0.59301766480E+02  0.49999676194E+02 0.  0.
        -12    1    1    2    0    0 -0.31619391101E+02  0.37942184672E+01 -0.15968408664E+01  0.31886233520E+02  0.00000000000E+00 0.  1.
         11    1    3    3    0    0  0.10989282288E+01  0.93141762698E+01  0.11734675109E+02  0.15022121123E+02  0.51100000000E-03 0. -1.
        -11    1    3    3    0    0  0.29306448097E+02 -0.12081780029E+02 -0.17867626163E+02  0.36388038882E+02  0.51100000000E-03 0.  1.
        -12    1    3    3    0    0  0.12140147748E+01 -0.10266147075E+01  0.77297919199E+01  0.78916064750E+01  0.00000000000E+00 0.  1.
</event>
<event>
 7    1  0.1052674E-011  0.5930197E+02  0.7816164E-02  0.1266605E+00
        -11   -1    0    0    0    0  0.00000000000E+00  0.00000000000E+00  0.45593999997E+02  0.45594000000E+02  0.51100000000E-03 0.  1.
         11   -1    0    0    0    0 -0.00000000000E+00 -0.00000000000E+00 -0.45593999997E+02  0.45594000000E+02  0.51100000000E-03 0. -1.
    9900012    2    1    2    0    0  0.10369309713E+02  0.20613816611E+02 -0.22006062012E+02  0.59301971955E+02  0.50000050933E+02 0.  0.
        -12    1    1    2    0    0 -0.10369309713E+02 -0.20613816611E+02  0.22006062012E+02  0.31886028045E+02  0.00000000000E+00 0.  1.
         11    1    3    3    0    0 -0.13891154369E+02  0.15983441666E+02 -0.10372340140E+02  0.23580076706E+02  0.51100000000E-03 0. -1.
        -11    1    3    3    0    0  0.38703562433E+01 -0.50790883913E+01  0.46332364338E+01  0.78894661701E+01  0.51100000000E-03 0.  1.
         12    1    3    3    0    0  0.20390107839E+02  0.97094633360E+01 -0.16266958306E+02  0.27832429080E+02  0.00000000000E+00 0. -1.
</event>
<event>
 7    1  0.1052674E-011  0.5930195E+02  0.7816164E-02  0.1266605E+00
        -11   -1    0    0    0    0  0.00000000000E+00  0.00000000000E+00  0.45593999997E+02  0.45594000000E+02  0.51100000000E-03 0.  1.
         11   -1    0    0    0    0 -0.00000000000E+00 -0.00000000000E+00 -0.45593999997E+02  0.45594000000E+02  0.51100000000E-03 0. -1.
    9900012    2    1    2    0    0 -0.98973019705E+01 -0.26638059640E+02 -0.14462954790E+02  0.59301954950E+02  0.50000019920E+02 0.  0.
        -12    1    1    2    0    0  0.98973019705E+01  0.26638059640E+02  0.14462954790E+02  0.31886045050E+02  0.00000000000E+00 0.  1.
         11    1    3    3    0    0 -0.89702451963E+01  0.16084447807E+01  0.45247961986E+00  0.91245345943E+01  0.51100000000E-03 0. -1.
        -11    1    3    3    0    0  0.25940582254E+01 -0.37341643606E+02 -0.15249548346E+02  0.40418760624E+02  0.51100000000E-03 0.  1.
        -12    1    3    3    0    0 -0.35211149996E+01  0.90951391858E+01  0.33411393707E+00  0.97586597324E+01  0.00000000000E+00 0.  1.
</event>
<event>
 7    1  0.1052674E-011  0.5930194E+02  0.7816164E-02  0.1266605E+00
        -11   -1    0    0    0    0  0.00000000000E+00  0.00000000000E+00  0.45593999997E+02  0.45594000000E+02  0.51100000000E-03 0. -1.
         11   -1    0    0    0    0 -0.00000000000E+00 -0.00000000000E+00 -0.45593999997E+02  0.45594000000E+02  0.51100000000E-03 0.  1.
    9900012    2    1    2    0    0  0.14599578954E+02 -0.22586689062E+02 -0.17129346319E+02  0.59301941389E+02  0.49999995188E+02 0.  0.
        -12    1    1    2    0    0 -0.14599578954E+02  0.22586689062E+02  0.17129346319E+02  0.31886058611E+02  0.00000000000E+00 0.  1.
         11    1    3    3    0    0  0.16236389332E+02 -0.19204728763E+02 -0.65040897190E+01  0.25975856651E+02  0.51100000000E-03 0. -1.
        -11    1    3    3    0    0  0.74929963040E+00 -0.26273193868E+01 -0.21751222111E+02  0.21922133123E+02  0.51100000000E-03 0.  1.
        -12    1    3    3    0    0 -0.23861100081E+01 -0.75464091177E+00  0.11125965511E+02  0.11403951615E+02  0.00000000000E+00 0.  1.
</event>
<event>
 7    1  0.1052674E-011  0.5930196E+02  0.7816164E-02  0.1266605E+00
        -11   -1    0    0    0    0  0.00000000000E+00  0.00000000000E+00  0.45593999997E+02  0.45594000000E+02  0.51100000000E-03 0. -1.
         11   -1    0    0    0    0 -0.00000000000E+00 -0.00000000000E+00 -0.45593999997E+02  0.45594000000E+02  0.51100000000E-03 0.  1.
    9900012    2    1    2    0    0 -0.14481027610E+01  0.31333084598E+02  0.57324187676E+01  0.59301955765E+02  0.50000021407E+02 0.  0.
        -12    1    1    2    0    0  0.14481027610E+01 -0.31333084598E+02 -0.57324187676E+01  0.31886044235E+02  0.00000000000E+00 0.  1.
         11    1    3    3    0    0 -0.21136567141E+02  0.92834416518E+01 -0.68260699026E+01  0.24073470667E+02  0.51100000000E-03 0. -1.
        -11    1    3    3    0    0  0.13338160597E+02  0.18368317266E+02  0.25877399539E+01  0.22847275672E+02  0.51100000000E-03 0.  1.
        -12    1    3    3    0    0  0.63503037825E+01  0.36813256803E+01  0.99707487163E+01  0.12381209426E+02  0.00000000000E+00 0.  1.
</event>
<event>
 7    1  0.1052674E-011  0.5930194E+02  0.7816164E-02  0.1266605E+00
        -11   -1    0    0    0    0  0.00000000000E+00  0.00000000000E+00  0.45593999997E+02  0.45594000000E+02  0.51100000000E-03 0.  1.
         11   -1    0    0    0    0 -0.00000000000E+00 -0.00000000000E+00 -0.45593999997E+02  0.45594000000E+02  0.51100000000E-03 0. -1.
    9900012    2    1    2    0    0  0.11689676548E+02  0.11569247768E+02 -0.27317117862E+02  0.59301937841E+02  0.49999988717E+02 0.  0.
        -12    1    1    2    0    0 -0.11689676548E+02 -0.11569247768E+02  0.27317117862E+02  0.31886062159E+02  0.00000000000E+00 0.  1.
         11    1    3    3    0    0 -0.10508421904E+02  0.29206134479E+01 -0.44342805420E+01  0.11773689227E+02  0.51100000000E-03 0. -1.
        -11    1    3    3    0    0  0.14474785780E+02  0.21366703206E+02 -0.19291827787E+02  0.32221577380E+02  0.51100000000E-03 0.  1.
        -12    1    3    3    0    0  0.77233126716E+01 -0.12718068886E+02 -0.35910095331E+01  0.15306671234E+02  0.00000000000E+00 0.  1.
</event>
<event>
 7    1  0.1052674E-011  0.5930181E+02  0.7816164E-02  0.1266605E+00
        -11   -1    0    0    0    0  0.00000000000E+00  0.00000000000E+00  0.45593999997E+02  0.45594000000E+02  0.51100000000E-03 0.  1.
         11   -1    0    0    0    0 -0.00000000000E+00 -0.00000000000E+00 -0.45593999997E+02  0.45594000000E+02  0.51100000000E-03 0. -1.
    9900012    2    1    2    0    0 -0.29528966441E+02  0.76036909983E+01 -0.93248790227E+01  0.59301806363E+02  0.49999748932E+02 0.  0.
        -12    1    1    2    0    0  0.29528966441E+02 -0.76036909983E+01  0.93248790227E+01  0.31886193637E+02  0.00000000000E+00 0.  1.
         11    1    3    3    0    0 -0.26085993265E+02  0.19032803561E+02 -0.38216231327E+01  0.32516633584E+02  0.51100000000E-03 0. -1.
        -11    1    3    3    0    0 -0.32269899212E+01 -0.67757488802E+01  0.89031554357E+01  0.11644329685E+02  0.51100000000E-03 0.  1.
        -12    1    3    3    0    0 -0.21598325510E+00 -0.46533636822E+01 -0.14406411326E+02  0.15140843094E+02  0.00000000000E+00 0.  1.
</event>
<event>
 7    1  0.1052674E-011  0.5930194E+02  0.7816164E-02  0.1266605E+00
        -11   -1    0    0    0    0  0.00000000000E+00  0.00000000000E+00  0.45593999997E+02  0.45594000000E+02  0.51100000000E-03 0.  1.
         11   -1    0    0    0    0 -0.00000000000E+00 -0.00000000000E+00 -0.45593999997E+02  0.45594000000E+02  0.51100000000E-03 0. -1.
    9900012    2    1    2    0    0 -0.15630008302E+00 -0.24341915416E+02 -0.20595324938E+02  0.59301942151E+02  0.49999996577E+02 0.  0.
        -12    1    1    2    0    0  0.15630008302E+00  0.24341915416E+02  0.20595324938E+02  0.31886057849E+02  0.00000000000E+00 0.  1.
         11    1    3    3    0    0 -0.37988107270E+01 -0.69118862588E+01  0.29096582515E+01  0.84066191775E+01  0.51100000000E-03 0. -1.
        -11    1    3    3    0    0  0.29260375935E+01 -0.48727984203E+01 -0.34026015689E+02  0.34497472435E+02  0.51100000000E-03 0.  1.
        -12    1    3    3    0    0  0.71647305042E+00 -0.12557230737E+02  0.10521032500E+02  0.16397850539E+02  0.00000000000E+00 0.  1.
</event>
<event>
 7    1  0.1052674E-011  0.5930194E+02  0.7816164E-02  0.1266605E+00
        -11   -1    0    0    0    0  0.00000000000E+00  0.00000000000E+00  0.45593999997E+02  0.45594000000E+02  0.51100000000E-03 0.  1.
         11   -1    0    0    0    0 -0.00000000000E+00 -0.00000000000E+00 -0.45593999997E+02  0.45594000000E+02  0.51100000000E-03 0. -1.
    9900012    2    1    2    0    0 -0.27348539679E+02  0.11766828457E+02 -0.11415774273E+02  0.59301940715E+02  0.49999993958E+02 0.  0.
        -12    1    1    2    0    0  0.27348539679E+02 -0.11766828457E+02  0.11415774273E+02  0.31886059285E+02  0.00000000000E+00 0.  1.
         11    1    3    3    0    0 -0.14039171844E+02  0.25539710618E+02 -0.99686470513E+01  0.30801770871E+02  0.51100000000E-03 0. -1.
        -11    1    3    3    0    0 -0.15973899334E+02 -0.16789233907E+02  0.19187854832E+01  0.23253506685E+02  0.51100000000E-03 0.  1.
        -12    1    3    3    0    0  0.26645314991E+01  0.30163517466E+01 -0.33659127047E+01  0.52466631590E+01  0.00000000000E+00 0.  1.
</event>
<event>
 7    1  0.1052674E-011  0.5930197E+02  0.7816164E-02  0.1266605E+00
        -11   -1    0    0    0    0  0.00000000000E+00  0.00000000000E+00  0.45593999997E+02  0.45594000000E+02  0.51100000000E-03 0.  1.
         11   -1    0    0    0    0 -0.00000000000E+00 -0.00000000000E+00 -0.45593999997E+02  0.45594000000E+02  0.51100000000E-03 0. -1.
    9900012    2    1    2    0    0 -0.23739579112E+02  0.14836843616E+02 -0.15264977517E+02  0.59301967266E+02  0.50000042382E+02 0.  0.
        -12    1    1    2    0    0  0.23739579112E+02 -0.14836843616E+02  0.15264977517E+02  0.31886032734E+02  0.00000000000E+00 0.  1.
         11    1    3    3    0    0  0.42109422394E+01  0.81326961327E+01 -0.86367401875E+01  0.12588330400E+02  0.51100000000E-03 0. -1.
        -11    1    3    3    0    0 -0.29779094128E+02  0.69680746939E+01  0.82854772261E+01  0.31685921876E+02  0.51100000000E-03 0.  1.
        -12    1    3    3    0    0  0.18285727768E+01 -0.26392721068E+00 -0.14913714556E+02  0.15027714990E+02  0.00000000000E+00 0.  1.
</event>
<event>
 7    1  0.1052674E-011  0.5930191E+02  0.7816164E-02  0.1266605E+00
        -11   -1    0    0    0    0  0.00000000000E+00  0.00000000000E+00  0.45593999997E+02  0.45594000000E+02  0.51100000000E-03 0. -1.
         11   -1    0    0    0    0 -0.00000000000E+00 -0.00000000000E+00 -0.45593999997E+02  0.45594000000E+02  0.51100000000E-03 0.  1.
    9900012    2    1    2    0    0  0.13407297699E+02  0.71574229993E+01  0.28031023127E+02  0.59301912232E+02  0.49999942013E+02 0.  0.
        -12    1    1    2    0    0 -0.13407297699E+02 -0.71574229993E+01 -0.28031023127E+02  0.31886087768E+02  0.00000000000E+00 0.  1.
         11    1    3    3    0    0 -0.31972739155E+00 -0.10030386324E+02  0.38094065660E+01  0.10734172258E+02  0.51100000000E-03 0. -1.
        -11    1    3    3    0    0  0.24889426865E+02  0.71838113145E+01  0.95970026987E+01  0.27625951128E+02  0.51100000000E-03 0.  1.
        -12    1    3    3    0    0 -0.11162401774E+02  0.10003998009E+02  0.14624613862E+02  0.20941788847E+02  0.00000000000E+00 0.  1.
</event>
<event>
 7    1  0.1052674E-011  0.5930190E+02  0.7816164E-02  0.1266605E+00
        -11   -1    0    0    0    0  0.00000000000E+00  0.00000000000E+00  0.45593999997E+02  0.45594000000E+02  0.51100000000E-03 0.  1.
         11   -1    0    0    0    0 -0.00000000000E+00 -0.00000000000E+00 -0.45593999997E+02  0.45594000000E+02  0.51100000000E-03 0. -1.
    9900012    2    1    2    0    0 -0.28544902921E+02 -0.13044026903E+02 -0.56360411738E+01  0.59301904587E+02  0.49999928069E+02 0.  0.
        -12    1    1    2    0    0  0.28544902921E+02  0.13044026903E+02  0.56360411738E+01  0.31886095413E+02  0.00000000000E+00 0.  1.
         11    1    3    3    0    0  0.80817703020E+01 -0.90298664619E+01 -0.40796544165E+01  0.12786597669E+02  0.51100000000E-03 0. -1.
        -11    1    3    3    0    0 -0.95616947849E+01  0.47819961079E+01  0.11062879001E+02  0.15384433236E+02  0.51100000000E-03 0.  1.
         12    1    3    3    0    0 -0.27064978438E+02 -0.87961565493E+01 -0.12619265759E+02  0.31130873681E+02  0.00000000000E+00 0. -1.
</event>
<event>
 7    1  0.1052674E-011  0.5930192E+02  0.7816164E-02  0.1266605E+00
        -11   -1    0    0    0    0  0.00000000000E+00  0.00000000000E+00  0.45593999997E+02  0.45594000000E+02  0.51100000000E-03 0.  1.
         11   -1    0    0    0    0 -0.00000000000E+00 -0.00000000000E+00 -0.45593999997E+02  0.45594000000E+02  0.51100000000E-03 0. -1.
    9900012    2    1    2    0    0  0.14054349495E+02  0.10970612172E+02 -0.26435643515E+02  0.59301916528E+02  0.49999949846E+02 0.  0.
        -12    1    1    2    0    0 -0.14054349495E+02 -0.10970612172E+02  0.26435643515E+02  0.31886083472E+02  0.00000000000E+00 0.  1.
         11    1    3    3    0    0  0.62725178846E+01 -0.33141522559E+01 -0.10335888950E+02  0.12536294765E+02  0.51100000000E-03 0. -1.
        -11    1    3    3    0    0  0.50791386547E+01 -0.86763067220E+01  0.83843068952E+01  0.13090933893E+02  0.51100000000E-03 0.  1.
        -12    1    3    3    0    0  0.27026929560E+01  0.22961071150E+02 -0.24484061460E+02  0.33674687870E+02  0.00000000000E+00 0.  1.
</event>
<event>
 7    1  0.1052674E-011  0.5930198E+02  0.7816164E-02  0.1266605E+00
        -11   -1    0    0    0    0  0.00000000000E+00  0.00000000000E+00  0.45593999997E+02  0.45594000000E+02  0.51100000000E-03 0. -1.
         11   -1    0    0    0    0 -0.00000000000E+00 -0.00000000000E+00 -0.45593999997E+02  0.45594000000E+02  0.51100000000E-03 0.  1.
    9900012    2    1    2    0    0  0.28010661633E+02  0.15069214692E+02 -0.22450316839E+01  0.59301975415E+02  0.50000057244E+02 0.  0.
        -12    1    1    2    0    0 -0.28010661633E+02 -0.15069214692E+02  0.22450316839E+01  0.31886024585E+02  0.00000000000E+00 0.  1.
         11    1    3    3    0    0  0.18432943935E+02  0.23151116004E+02 -0.67565383209E+00  0.29600744968E+02  0.51100000000E-03 0. -1.
        -11    1    3    3    0    0  0.17363871151E+02 -0.53533889776E+01 -0.73780220059E+01  0.19611170385E+02  0.51100000000E-03 0.  1.
         12    1    3    3    0    0 -0.77861534528E+01 -0.27285123338E+01  0.58086441541E+01  0.10090060062E+02  0.00000000000E+00 0. -1.
</event>
<event>
 7    1  0.1052674E-011  0.5930199E+02  0.7816164E-02  0.1266605E+00
        -11   -1    0    0    0    0  0.00000000000E+00  0.00000000000E+00  0.45593999997E+02  0.45594000000E+02  0.51100000000E-03 0. -1.
         11   -1    0    0    0    0 -0.00000000000E+00 -0.00000000000E+00 -0.45593999997E+02  0.45594000000E+02  0.51100000000E-03 0.  1.
    9900012    2    1    2    0    0  0.16856031177E+02 -0.17234790190E+02  0.20869924325E+02  0.59301991763E+02  0.50000087058E+02 0.  0.
        -12    1    1    2    0    0 -0.16856031177E+02  0.17234790190E+02 -0.20869924325E+02  0.31886008237E+02  0.00000000000E+00 0.  1.
         11    1    3    3    0    0 -0.10073399171E+02 -0.24397807134E+02  0.69603756857E+01  0.27297860608E+02  0.51100000000E-03 0. -1.
        -11    1    3    3    0    0  0.73643984693E+01  0.28971821582E+01  0.55171375031E+00  0.79329954995E+01  0.51100000000E-03 0.  1.
         12    1    3    3    0    0  0.19565031879E+02  0.42658347864E+01  0.13357834889E+02  0.24071135656E+02  0.00000000000E+00 0. -1.
</event>
<event>
 7    1  0.1224644E-011  0.5930197E+02  0.7816164E-02  0.1266605E+00
        -11   -1    0    0    0    0  0.00000000000E+00  0.00000000000E+00  0.45593999997E+02  0.45594000000E+02  0.51100000000E-03 0.  1.
         11   -1    0    0    0    0 -0.00000000000E+00 -0.00000000000E+00 -0.45593999997E+02  0.45594000000E+02  0.51100000000E-03 0. -1.
    9900012    2    1    2    0    0 -0.11569969816E+02 -0.16801522409E+02 -0.24506396116E+02  0.59301971596E+02  0.50000050278E+02 0.  0.
        -12    1    1    2    0    0  0.11569969816E+02  0.16801522409E+02  0.24506396116E+02  0.31886028404E+02  0.00000000000E+00 0.  1.
         11    1    3    3    0    0 -0.15191589291E+02 -0.23396043565E+01 -0.21025558395E+02  0.26044812148E+02  0.51100000000E-03 0. -1.
        -11    1    3    3    0    0 -0.11599746153E+01 -0.21839311800E+02  0.33482998615E+01  0.22124922446E+02  0.51100000000E-03 0.  1.
         12    1    3    3    0    0  0.47815940904E+01  0.73773937480E+01 -0.68291375819E+01  0.11132237002E+02  0.00000000000E+00 0. -1.
</event>
<event>
 7    1  0.1052674E-011  0.5930194E+02  0.7816164E-02  0.1266605E+00
        -11   -1    0    0    0    0  0.00000000000E+00  0.00000000000E+00  0.45593999997E+02  0.45594000000E+02  0.51100000000E-03 0.  1.
         11   -1    0    0    0    0 -0.00000000000E+00 -0.00000000000E+00 -0.45593999997E+02  0.45594000000E+02  0.51100000000E-03 0. -1.
    9900012    2    1    2    0    0  0.20718398992E+02  0.19552210137E+02  0.14324105441E+02  0.59301937610E+02  0.49999988296E+02 0.  0.
        -12    1    1    2    0    0 -0.20718398992E+02 -0.19552210137E+02 -0.14324105441E+02  0.31886062390E+02  0.00000000000E+00 0.  1.
         11    1    3    3    0    0  0.90790637603E+01  0.10826650648E+02 -0.77804574562E+01  0.16130135818E+02  0.51100000000E-03 0. -1.
        -11    1    3    3    0    0  0.22130413092E+02 -0.16486928004E+01  0.15080780785E+02  0.26831014162E+02  0.51100000000E-03 0.  1.
        -12    1    3    3    0    0 -0.10491077861E+02  0.10374252289E+02  0.70237821120E+01  0.16340787631E+02  0.00000000000E+00 0.  1.
</event>
<event>
 7    1  0.1052674E-011  0.5930192E+02  0.7816164E-02  0.1266605E+00
        -11   -1    0    0    0    0  0.00000000000E+00  0.00000000000E+00  0.45593999997E+02  0.45594000000E+02  0.51100000000E-03 0.  1.
         11   -1    0    0    0    0 -0.00000000000E+00 -0.00000000000E+00 -0.45593999997E+02  0.45594000000E+02  0.51100000000E-03 0. -1.
    9900012    2    1    2    0    0 -0.14758735628E+02  0.21095434504E+02 -0.18811821048E+02  0.59301917685E+02  0.49999951957E+02 0.  0.
        -12    1    1    2    0    0  0.14758735628E+02 -0.21095434504E+02  0.18811821048E+02  0.31886082315E+02  0.00000000000E+00 0.  1.
         11    1    3    3    0    0  0.11352974192E+01  0.24223261613E+01 -0.11655029777E+02  0.11958105353E+02  0.51100000000E-03 0. -1.
        -11    1    3    3    0    0 -0.86554021838E+01  0.10788026168E+01  0.15483440158E+02  0.17771232974E+02  0.51100000000E-03 0.  1.
        -12    1    3    3    0    0 -0.72386308635E+01  0.17594305726E+02 -0.22640231428E+02  0.29572579358E+02  0.00000000000E+00 0.  1.
</event>
<event>
 7    1  0.1052674E-011  0.5930194E+02  0.7816164E-02  0.1266605E+00
        -11   -1    0    0    0    0  0.00000000000E+00  0.00000000000E+00  0.45593999997E+02  0.45594000000E+02  0.51100000000E-03 0.  1.
         11   -1    0    0    0    0 -0.00000000000E+00 -0.00000000000E+00 -0.45593999997E+02  0.45594000000E+02  0.51100000000E-03 0. -1.
    9900012    2    1    2    0    0 -0.47138093011E+01 -0.10777890785E+02 -0.29636761958E+02  0.59301943686E+02  0.49999999376E+02 0.  0.
        -12    1    1    2    0    0  0.47138093011E+01  0.10777890785E+02  0.29636761958E+02  0.31886056314E+02  0.00000000000E+00 0.  1.
         11    1    3    3    0    0 -0.18882775735E-01  0.86983985910E+01 -0.93570467717E+01  0.12775633806E+02  0.51100000000E-03 0. -1.
        -11    1    3    3    0    0 -0.61442874904E+01 -0.20832963095E+02  0.40679847332E+01  0.22097808039E+02  0.51100000000E-03 0.  1.
        -12    1    3    3    0    0  0.14493609650E+01  0.13566737185E+01 -0.24347699920E+02  0.24428501840E+02  0.00000000000E+00 0.  1.
</event>
<event>
 7    1  0.1052674E-011  0.5930194E+02  0.7816164E-02  0.1266605E+00
        -11   -1    0    0    0    0  0.00000000000E+00  0.00000000000E+00  0.45593999997E+02  0.45594000000E+02  0.51100000000E-03 0.  1.
         11   -1    0    0    0    0 -0.00000000000E+00 -0.00000000000E+00 -0.45593999997E+02  0.45594000000E+02  0.51100000000E-03 0. -1.
    9900012    2    1    2    0    0 -0.23092492937E+02 -0.19757233889E+02 -0.96493126380E+01  0.59301941050E+02  0.49999994569E+02 0.  0.
        -12    1    1    2    0    0  0.23092492937E+02  0.19757233889E+02  0.96493126380E+01  0.31886058950E+02  0.00000000000E+00 0.  1.
         11    1    3    3    0    0  0.93253228733E+01 -0.16809501857E+02 -0.14851540059E+02  0.24291752546E+02  0.51100000000E-03 0. -1.
        -11    1    3    3    0    0 -0.29815225086E+02 -0.61629261870E+01  0.40322272548E+01  0.30711368628E+02  0.51100000000E-03 0.  1.
        -12    1    3    3    0    0 -0.26025907249E+01  0.32151941555E+01  0.11700001660E+01  0.42988198761E+01  0.00000000000E+00 0.  1.
</event>
<event>
 7    1  0.1052674E-011  0.5930195E+02  0.7816164E-02  0.1266605E+00
        -11   -1    0    0    0    0  0.00000000000E+00  0.00000000000E+00  0.45593999997E+02  0.45594000000E+02  0.51100000000E-03 0.  1.
         11   -1    0    0    0    0 -0.00000000000E+00 -0.00000000000E+00 -0.45593999997E+02  0.45594000000E+02  0.51100000000E-03 0. -1.
    9900012    2    1    2    0    0 -0.16145789254E+02 -0.14000372840E+02 -0.23664815228E+02  0.59301946151E+02  0.50000003872E+02 0.  0.
        -12    1    1    2    0    0  0.16145789254E+02  0.14000372840E+02  0.23664815228E+02  0.31886053849E+02  0.00000000000E+00 0.  1.
         11    1    3    3    0    0 -0.54592178204E+01 -0.36741453590E+01  0.89056143367E+01  0.11073047020E+02  0.51100000000E-03 0.  1.
        -11    1    3    3    0    0  0.64588203838E+01  0.41334912199E+01 -0.22260079929E+02  0.23543858417E+02  0.51100000000E-03 0. -1.
         12    1    3    3    0    0 -0.17145391817E+02 -0.14459718700E+02 -0.10310349636E+02  0.24685040714E+02  0.00000000000E+00 0. -1.
</event>
<event>
 7    1  0.1052674E-011  0.5930196E+02  0.7816164E-02  0.1266605E+00
        -11   -1    0    0    0    0  0.00000000000E+00  0.00000000000E+00  0.45593999997E+02  0.45594000000E+02  0.51100000000E-03 0.  1.
         11   -1    0    0    0    0 -0.00000000000E+00 -0.00000000000E+00 -0.45593999997E+02  0.45594000000E+02  0.51100000000E-03 0. -1.
    9900012    2    1    2    0    0  0.25819971545E+02 -0.80972406532E+01 -0.16866640768E+02  0.59301955912E+02  0.50000021674E+02 0.  0.
        -12    1    1    2    0    0 -0.25819971545E+02  0.80972406532E+01  0.16866640768E+02  0.31886044088E+02  0.00000000000E+00 0.  1.
         11    1    3    3    0    0  0.28580878449E+02 -0.25405325570E+02 -0.11859271335E+02  0.40036726853E+02  0.51100000000E-03 0.  1.
        -11    1    3    3    0    0 -0.12859163308E+01  0.10942345345E+02 -0.61708604650E+01  0.12628064840E+02  0.51100000000E-03 0. -1.
        -12    1    3    3    0    0 -0.14749905732E+01  0.63657395720E+01  0.11634910318E+01  0.66371642190E+01  0.00000000000E+00 0.  1.
</event>
<event>
 7    1  0.1052674E-011  0.5930195E+02  0.7816164E-02  0.1266605E+00
        -11   -1    0    0    0    0  0.00000000000E+00  0.00000000000E+00  0.45593999997E+02  0.45594000000E+02  0.51100000000E-03 0.  1.
         11   -1    0    0    0    0 -0.00000000000E+00 -0.00000000000E+00 -0.45593999997E+02  0.45594000000E+02  0.51100000000E-03 0. -1.
    9900012    2    1    2    0    0  0.11402593126E+02  0.28128577651E+02 -0.97715924498E+01  0.59301952430E+02  0.50000015323E+02 0.  0.
        -12    1    1    2    0    0 -0.11402593126E+02 -0.28128577651E+02  0.97715924498E+01  0.31886047570E+02  0.00000000000E+00 0.  1.
         11    1    3    3    0    0  0.78127568770E+01  0.11661450034E+02 -0.24853026056E+02  0.28542976216E+02  0.51100000000E-03 0. -1.
        -11    1    3    3    0    0  0.10427579666E+02  0.16966009204E+02  0.10496672094E+02  0.22511330732E+02  0.51100000000E-03 0.  1.
         12    1    3    3    0    0 -0.68377434168E+01 -0.49888158708E+00  0.45847615116E+01  0.82476454816E+01  0.00000000000E+00 0. -1.
</event>
<event>
 7    1  0.1052674E-011  0.5930193E+02  0.7816164E-02  0.1266605E+00
        -11   -1    0    0    0    0  0.00000000000E+00  0.00000000000E+00  0.45593999997E+02  0.45594000000E+02  0.51100000000E-03 0. -1.
         11   -1    0    0    0    0 -0.00000000000E+00 -0.00000000000E+00 -0.45593999997E+02  0.45594000000E+02  0.51100000000E-03 0.  1.
    9900012    2    1    2    0    0  0.19895556973E+02  0.12710996109E+02  0.21431725287E+02  0.59301930030E+02  0.49999974472E+02 0.  0.
        -12    1    1    2    0    0 -0.19895556973E+02 -0.12710996109E+02 -0.21431725287E+02  0.31886069970E+02  0.00000000000E+00 0.  1.
         11    1    3    3    0    0  0.11520430211E+02  0.20042420857E+01  0.25185623081E+02  0.27767839470E+02  0.51100000000E-03 0. -1.
        -11    1    3    3    0    0  0.78463542363E+01  0.20046143032E+02 -0.49917289619E+01  0.22098200913E+02  0.51100000000E-03 0.  1.
         12    1    3    3    0    0  0.52877252496E+00 -0.93393890091E+01  0.12378311684E+01  0.94358896479E+01  0.00000000000E+00 0. -1.
</event>
<event>
 7    1  0.1052674E-011  0.5930196E+02  0.7816164E-02  0.1266605E+00
        -11   -1    0    0    0    0  0.00000000000E+00  0.00000000000E+00  0.45593999997E+02  0.45594000000E+02  0.51100000000E-03 0. -1.
         11   -1    0    0    0    0 -0.00000000000E+00 -0.00000000000E+00 -0.45593999997E+02  0.45594000000E+02  0.51100000000E-03 0.  1.
    9900012    2    1    2    0    0  0.22269923111E+01  0.26781932660E+02  0.17160661352E+02  0.59301957445E+02  0.50000024470E+02 0.  0.
        -12    1    1    2    0    0 -0.22269923111E+01 -0.26781932660E+02 -0.17160661352E+02  0.31886042555E+02  0.00000000000E+00 0.  1.
         11    1    3    3    0    0  0.24337812526E+01  0.35130008040E+02  0.13488586248E+02  0.37709186086E+02  0.51100000000E-03 0. -1.
        -11    1    3    3    0    0 -0.54810063795E+01 -0.10846208954E+02 -0.32101703431E+01  0.12569282935E+02  0.51100000000E-03 0.  1.
        -12    1    3    3    0    0  0.52742174381E+01  0.24981335740E+01  0.68822454477E+01  0.90234884241E+01  0.00000000000E+00 0.  1.
</event>
<event>
 7    1  0.1052674E-011  0.5930200E+02  0.7816164E-02  0.1266605E+00
        -11   -1    0    0    0    0  0.00000000000E+00  0.00000000000E+00  0.45593999997E+02  0.45594000000E+02  0.51100000000E-03 0. -1.
         11   -1    0    0    0    0 -0.00000000000E+00 -0.00000000000E+00 -0.45593999997E+02  0.45594000000E+02  0.51100000000E-03 0.  1.
    9900012    2    1    2    0    0  0.91954047074E+01 -0.30483835671E+02 -0.17021618829E+01  0.59301998996E+02  0.50000100249E+02 0.  0.
        -12    1    1    2    0    0 -0.91954047074E+01  0.30483835671E+02  0.17021618829E+01  0.31886001004E+02  0.00000000000E+00 0.  1.
         11    1    3    3    0    0  0.62237933138E+01 -0.51394607486E+01  0.12623940400E+02  0.14983775608E+02  0.51100000000E-03 0. -1.
        -11    1    3    3    0    0 -0.43300980663E+01 -0.83474624526E+00 -0.17954361670E+02  0.18487986743E+02  0.51100000000E-03 0.  1.
         12    1    3    3    0    0  0.73017094599E+01 -0.24509628677E+02  0.36282593875E+01  0.25830236645E+02  0.00000000000E+00 0. -1.
</event>
<event>
 7    1  0.1052674E-011  0.5930194E+02  0.7816164E-02  0.1266605E+00
        -11   -1    0    0    0    0  0.00000000000E+00  0.00000000000E+00  0.45593999997E+02  0.45594000000E+02  0.51100000000E-03 0.  1.
         11   -1    0    0    0    0 -0.00000000000E+00 -0.00000000000E+00 -0.45593999997E+02  0.45594000000E+02  0.51100000000E-03 0. -1.
    9900012    2    1    2    0    0 -0.66924575529E+01  0.27091864558E+02 -0.15426037261E+02  0.59301941308E+02  0.49999995040E+02 0.  0.
        -12    1    1    2    0    0  0.66924575529E+01 -0.27091864558E+02  0.15426037261E+02  0.31886058692E+02  0.00000000000E+00 0.  1.
         11    1    3    3    0    0  0.12847176832E+02  0.82699839048E+01 -0.20422788154E+02  0.25505545722E+02  0.51100000000E-03 0. -1.
        -11    1    3    3    0    0 -0.17625877204E+02  0.38674377001E+01  0.45563614718E+00  0.18050934218E+02  0.51100000000E-03 0.  1.
         12    1    3    3    0    0 -0.19137571808E+01  0.14954442953E+02  0.45411147453E+01  0.15745461368E+02  0.00000000000E+00 0. -1.
</event>
<event>
 7    1  0.1052674E-011  0.5930195E+02  0.7816164E-02  0.1266605E+00
        -11   -1    0    0    0    0  0.00000000000E+00  0.00000000000E+00  0.45593999997E+02  0.45594000000E+02  0.51100000000E-03 0.  1.
         11   -1    0    0    0    0 -0.00000000000E+00 -0.00000000000E+00 -0.45593999997E+02  0.45594000000E+02  0.51100000000E-03 0. -1.
    9900012    2    1    2    0    0 -0.21934015241E+02 -0.39055172011E+01  0.22811536884E+02  0.59301948124E+02  0.50000007471E+02 0.  0.
        -12    1    1    2    0    0  0.21934015241E+02  0.39055172011E+01 -0.22811536884E+02  0.31886051876E+02  0.00000000000E+00 0.  1.
         11    1    3    3    0    0 -0.23240189765E+02 -0.19235224857E+02 -0.83332204301E+00  0.30179375764E+02  0.51100000000E-03 0. -1.
        -11    1    3    3    0    0  0.15015417424E+01  0.10376590373E+02  0.21075147807E+02  0.23539118733E+02  0.51100000000E-03 0.  1.
        -12    1    3    3    0    0 -0.19536721804E+00  0.49531172826E+01  0.25697111202E+01  0.55834536271E+01  0.00000000000E+00 0.  1.
</event>
<event>
 7    1  0.1052674E-011  0.5930195E+02  0.7816164E-02  0.1266605E+00
        -11   -1    0    0    0    0  0.00000000000E+00  0.00000000000E+00  0.45593999997E+02  0.45594000000E+02  0.51100000000E-03 0.  1.
         11   -1    0    0    0    0 -0.00000000000E+00 -0.00000000000E+00 -0.45593999997E+02  0.45594000000E+02  0.51100000000E-03 0. -1.
    9900012    2    1    2    0    0  0.94056497412E+00  0.31575581862E+02 -0.43379546389E+01  0.59301954732E+02  0.50000019522E+02 0.  0.
        -12    1    1    2    0    0 -0.94056497412E+00 -0.31575581862E+02  0.43379546389E+01  0.31886045268E+02  0.00000000000E+00 0.  1.
         11    1    3    3    0    0 -0.30690268734E+01  0.30624794949E+02 -0.20053864314E+02  0.36734921611E+02  0.51100000000E-03 0. -1.
        -11    1    3    3    0    0  0.99988840751E+01  0.74051634615E+00  0.11399693033E+02  0.15181536441E+02  0.51100000000E-03 0.  1.
         12    1    3    3    0    0 -0.59892922276E+01  0.21027056669E+00  0.43162166417E+01  0.73854966791E+01  0.00000000000E+00 0. -1.
</event>
<event>
 7    1  0.1052674E-011  0.5930195E+02  0.7816164E-02  0.1266605E+00
        -11   -1    0    0    0    0  0.00000000000E+00  0.00000000000E+00  0.45593999997E+02  0.45594000000E+02  0.51100000000E-03 0. -1.
         11   -1    0    0    0    0 -0.00000000000E+00 -0.00000000000E+00 -0.45593999997E+02  0.45594000000E+02  0.51100000000E-03 0.  1.
    9900012    2    1    2    0    0  0.22667642191E+02 -0.21819189113E+02  0.51789136645E+01  0.59301950343E+02  0.50000011517E+02 0.  0.
        -12    1    1    2    0    0 -0.22667642191E+02  0.21819189113E+02 -0.51789136645E+01  0.31886049657E+02  0.00000000000E+00 0.  1.
         11    1    3    3    0    0 -0.34815108915E+01 -0.27659260793E+02 -0.48845352213E+01  0.28302196209E+02  0.51100000000E-03 0.  1.
        -11    1    3    3    0    0  0.22355318173E+02  0.92065596394E+01  0.74796051404E+01  0.25307419551E+02  0.51100000000E-03 0. -1.
         12    1    3    3    0    0  0.37938349096E+01 -0.33664879592E+01  0.25838437453E+01  0.56923345827E+01  0.00000000000E+00 0. -1.
</event>
<event>
 7    1  0.1052674E-011  0.5930194E+02  0.7816164E-02  0.1266605E+00
        -11   -1    0    0    0    0  0.00000000000E+00  0.00000000000E+00  0.45593999997E+02  0.45594000000E+02  0.51100000000E-03 0.  1.
         11   -1    0    0    0    0 -0.00000000000E+00 -0.00000000000E+00 -0.45593999997E+02  0.45594000000E+02  0.51100000000E-03 0. -1.
    9900012    2    1    2    0    0  0.36492416321E+01  0.27481341397E+02  0.15753727961E+02  0.59301936679E+02  0.49999986597E+02 0.  0.
        -12    1    1    2    0    0 -0.36492416321E+01 -0.27481341397E+02 -0.15753727961E+02  0.31886063321E+02  0.00000000000E+00 0.  1.
         11    1    3    3    0    0  0.28039240611E+01 -0.71824452767E+00 -0.11789385984E+01  0.31253418728E+01  0.51100000000E-03 0. -1.
        -11    1    3    3    0    0 -0.12737230182E+02  0.20725351948E+02  0.28027592196E+02  0.37112304841E+02  0.51100000000E-03 0.  1.
        -12    1    3    3    0    0  0.13582547753E+02  0.74742339768E+01 -0.11094925636E+02  0.19064289965E+02  0.00000000000E+00 0.  1.
</event>
<event>
 7    1  0.1052674E-011  0.5930191E+02  0.7816164E-02  0.1266605E+00
        -11   -1    0    0    0    0  0.00000000000E+00  0.00000000000E+00  0.45593999997E+02  0.45594000000E+02  0.51100000000E-03 0.  1.
         11   -1    0    0    0    0 -0.00000000000E+00 -0.00000000000E+00 -0.45593999997E+02  0.45594000000E+02  0.51100000000E-03 0. -1.
    9900012    2    1    2    0    0 -0.11676038002E+02 -0.85103300866E+01 -0.28424762222E+02  0.59301910729E+02  0.49999939271E+02 0.  0.
        -12    1    1    2    0    0  0.11676038002E+02  0.85103300866E+01  0.28424762222E+02  0.31886089271E+02  0.00000000000E+00 0.  1.
         11    1    3    3    0    0  0.76390115761E+01 -0.86932552807E+01 -0.29776505871E+02  0.31946321969E+02  0.51100000000E-03 0. -1.
        -11    1    3    3    0    0 -0.63594986871E+01 -0.19146578384E+01  0.97332857271E+01  0.11783292812E+02  0.51100000000E-03 0.  1.
         12    1    3    3    0    0 -0.12955550891E+02  0.20975830325E+01 -0.83815420784E+01  0.15572295948E+02  0.00000000000E+00 0. -1.
</event>
<event>
 7    1  0.1052674E-011  0.5930195E+02  0.7816164E-02  0.1266605E+00
        -11   -1    0    0    0    0  0.00000000000E+00  0.00000000000E+00  0.45593999997E+02  0.45594000000E+02  0.51100000000E-03 0. -1.
         11   -1    0    0    0    0 -0.00000000000E+00 -0.00000000000E+00 -0.45593999997E+02  0.45594000000E+02  0.51100000000E-03 0.  1.
    9900012    2    1    2    0    0  0.15873164743E+02 -0.21477709620E+02  0.17420410348E+02  0.59301951857E+02  0.50000014279E+02 0.  0.
        -12    1    1    2    0    0 -0.15873164743E+02  0.21477709620E+02 -0.17420410348E+02  0.31886048143E+02  0.00000000000E+00 0.  1.
         11    1    3    3    0    0 -0.12323138550E+02  0.46465153243E+01  0.50922381238E+01  0.14120224423E+02  0.51100000000E-03 0. -1.
        -11    1    3    3    0    0  0.14917021894E+02 -0.10690874705E+02 -0.43520901456E+01  0.18861416517E+02  0.51100000000E-03 0.  1.
        -12    1    3    3    0    0  0.13279281399E+02 -0.15433350239E+02  0.16680262370E+02  0.26320310918E+02  0.00000000000E+00 0.  1.
</event>
<event>
 7    1  0.1052674E-011  0.5930194E+02  0.7816164E-02  0.1266605E+00
        -11   -1    0    0    0    0  0.00000000000E+00  0.00000000000E+00  0.45593999997E+02  0.45594000000E+02  0.51100000000E-03 0. -1.
         11   -1    0    0    0    0 -0.00000000000E+00 -0.00000000000E+00 -0.45593999997E+02  0.45594000000E+02  0.51100000000E-03 0.  1.
    9900012    2    1    2    0    0  0.13514079741E+02  0.26903811091E+01  0.28755041155E+02  0.59301938883E+02  0.49999990616E+02 0.  0.
        -12    1    1    2    0    0 -0.13514079741E+02 -0.26903811091E+01 -0.28755041155E+02  0.31886061117E+02  0.00000000000E+00 0.  1.
         11    1    3    3    0    0  0.24757536273E+02  0.98241686653E+01  0.22807840302E+02  0.35066329603E+02  0.51100000000E-03 0. -1.
        -11    1    3    3    0    0 -0.26275257589E+00 -0.11623234381E+02  0.32027521324E+01  0.12059280155E+02  0.51100000000E-03 0.  1.
         12    1    3    3    0    0 -0.10980703956E+02  0.44894468246E+01  0.27444487205E+01  0.12176329124E+02  0.00000000000E+00 0. -1.
</event>
<event>
 7    1  0.1052674E-011  0.5930195E+02  0.7816164E-02  0.1266605E+00
        -11   -1    0    0    0    0  0.00000000000E+00  0.00000000000E+00  0.45593999997E+02  0.45594000000E+02  0.51100000000E-03 0.  1.
         11   -1    0    0    0    0 -0.00000000000E+00 -0.00000000000E+00 -0.45593999997E+02  0.45594000000E+02  0.51100000000E-03 0. -1.
    9900012    2    1    2    0    0  0.29864442731E+02  0.11115057900E+02  0.11362302150E+01  0.59301945511E+02  0.50000002706E+02 0.  0.
        -12    1    1    2    0    0 -0.29864442731E+02 -0.11115057900E+02 -0.11362302150E+01  0.31886054489E+02  0.00000000000E+00 0.  1.
         11    1    3    3    0    0  0.33275713266E+02  0.58996528278E+01 -0.83534231709E+01  0.34811760596E+02  0.51100000000E-03 0. -1.
        -11    1    3    3    0    0 -0.16792237112E+01  0.13730600286E+02  0.66504816401E+01  0.15348553117E+02  0.51100000000E-03 0.  1.
         12    1    3    3    0    0 -0.17320468241E+01 -0.85151952139E+01  0.28391717459E+01  0.91416317982E+01  0.00000000000E+00 0. -1.
</event>
<event>
 7    1  0.1052674E-011  0.5930195E+02  0.7816164E-02  0.1266605E+00
        -11   -1    0    0    0    0  0.00000000000E+00  0.00000000000E+00  0.45593999997E+02  0.45594000000E+02  0.51100000000E-03 0.  1.
         11   -1    0    0    0    0 -0.00000000000E+00 -0.00000000000E+00 -0.45593999997E+02  0.45594000000E+02  0.51100000000E-03 0. -1.
    9900012    2    1    2    0    0 -0.74773584895E+01  0.18038439568E+02 -0.25207612259E+02  0.59301954341E+02  0.50000018808E+02 0.  0.
        -12    1    1    2    0    0  0.74773584895E+01 -0.18038439568E+02  0.25207612259E+02  0.31886045659E+02  0.00000000000E+00 0.  1.
         11    1    3    3    0    0 -0.13229400907E+02 -0.37710533074E+01 -0.50536626359E+01  0.14655285658E+02  0.51100000000E-03 0. -1.
        -11    1    3    3    0    0 -0.31012945221E+01  0.28461090391E+02 -0.16155498550E+02  0.32873269196E+02  0.51100000000E-03 0.  1.
        -12    1    3    3    0    0  0.88533369399E+01 -0.66515975164E+01 -0.39984510723E+01  0.11773399487E+02  0.00000000000E+00 0.  1.
</event>
<event>
 7    1  0.1052674E-011  0.5930199E+02  0.7816164E-02  0.1266605E+00
        -11   -1    0    0    0    0  0.00000000000E+00  0.00000000000E+00  0.45593999997E+02  0.45594000000E+02  0.51100000000E-03 0. -1.
         11   -1    0    0    0    0 -0.00000000000E+00 -0.00000000000E+00 -0.45593999997E+02  0.45594000000E+02  0.51100000000E-03 0.  1.
    9900012    2    1    2    0    0 -0.27331727827E+02  0.14246356295E+02 -0.81691916533E+01  0.59301988867E+02  0.50000081776E+02 0.  0.
        -12    1    1    2    0    0  0.27331727827E+02 -0.14246356295E+02  0.81691916533E+01  0.31886011133E+02  0.00000000000E+00 0.  1.
         11    1    3    3    0    0  0.26859471571E+01  0.41438242864E+01 -0.10369233634E+02  0.11485059785E+02  0.51100000000E-03 0. -1.
        -11    1    3    3    0    0 -0.31272983566E+02  0.12046044573E+02  0.13612794501E+02  0.36172017712E+02  0.51100000000E-03 0.  1.
        -12    1    3    3    0    0  0.12553085823E+01 -0.19435125646E+01 -0.11412752520E+02  0.11644911370E+02  0.00000000000E+00 0.  1.
</event>
<event>
 7    1  0.1118667E-011  0.5930220E+02  0.7816164E-02  0.1266604E+00
        -11   -1    0    0    0    0  0.00000000000E+00  0.00000000000E+00  0.45593999997E+02  0.45594000000E+02  0.51100000000E-03 0. -1.
         11   -1    0    0    0    0 -0.00000000000E+00 -0.00000000000E+00 -0.45593999997E+02  0.45594000000E+02  0.51100000000E-03 0.  1.
    9900012    2    1    2    0    0 -0.93798799394E+01 -0.28749025234E+02  0.10110172001E+02  0.59302201006E+02  0.50000468665E+02 0.  0.
        -12    1    1    2    0    0  0.93798799394E+01  0.28749025234E+02 -0.10110172001E+02  0.31885798994E+02  0.00000000000E+00 0.  1.
         11    1    3    3    0    0  0.11850431014E+02  0.12987093519E+01  0.39014418201E+01  0.12543548530E+02  0.51100000000E-03 0.  1.
        -11    1    3    3    0    0 -0.23758135381E+02 -0.11437735151E+02 -0.16058289139E+01  0.26416840631E+02  0.51100000000E-03 0. -1.
         12    1    3    3    0    0  0.25278244282E+01 -0.18609999434E+02  0.78145590943E+01  0.20341811845E+02  0.00000000000E+00 0. -1.
</event>
<event>
 7    1  0.1052674E-011  0.5930191E+02  0.7816164E-02  0.1266605E+00
        -11   -1    0    0    0    0  0.00000000000E+00  0.00000000000E+00  0.45593999997E+02  0.45594000000E+02  0.51100000000E-03 0. -1.
         11   -1    0    0    0    0 -0.00000000000E+00 -0.00000000000E+00 -0.45593999997E+02  0.45594000000E+02  0.51100000000E-03 0.  1.
    9900012    2    1    2    0    0 -0.10869929455E+02 -0.23083754736E+02  0.19123482596E+02  0.59301910781E+02  0.49999939366E+02 0.  0.
        -12    1    1    2    0    0  0.10869929455E+02  0.23083754736E+02 -0.19123482596E+02  0.31886089219E+02  0.00000000000E+00 0.  1.
         11    1    3    3    0    0 -0.61187800498E+01 -0.58608493714E+01  0.25139626681E+02  0.26529037951E+02  0.51100000000E-03 0. -1.
        -11    1    3    3    0    0 -0.51701099266E+01 -0.34467921408E+01 -0.15057661438E+02  0.16289370183E+02  0.51100000000E-03 0.  1.
        -12    1    3    3    0    0  0.41896052170E+00 -0.13776113224E+02  0.90415173530E+01  0.16483502647E+02  0.00000000000E+00 0.  1.
</event>
<event>
 7    1  0.1052674E-011  0.5930186E+02  0.7816164E-02  0.1266605E+00
        -11   -1    0    0    0    0  0.00000000000E+00  0.00000000000E+00  0.45593999997E+02  0.45594000000E+02  0.51100000000E-03 0. -1.
         11   -1    0    0    0    0 -0.00000000000E+00 -0.00000000000E+00 -0.45593999997E+02  0.45594000000E+02  0.51100000000E-03 0.  1.
    9900012    2    1    2    0    0 -0.26262109459E+02  0.46268064299E+01  0.17481987563E+02  0.59301864766E+02  0.49999855446E+02 0.  0.
        -12    1    1    2    0    0  0.26262109459E+02 -0.46268064299E+01 -0.17481987563E+02  0.31886135234E+02  0.00000000000E+00 0.  1.
         11    1    3    3    0    0  0.77870709340E+00  0.32957841361E+01  0.10920534444E+02  0.11433575583E+02  0.51100000000E-03 0. -1.
        -11    1    3    3    0    0 -0.24315476261E+02  0.13293537506E+02 -0.79840824005E+01  0.28839315131E+02  0.51100000000E-03 0.  1.
        -12    1    3    3    0    0 -0.27253402918E+01 -0.11962515213E+02  0.14545535519E+02  0.19028974052E+02  0.00000000000E+00 0.  1.
</event>
<event>
 7    1  0.1052674E-011  0.5930196E+02  0.7816164E-02  0.1266605E+00
        -11   -1    0    0    0    0  0.00000000000E+00  0.00000000000E+00  0.45593999997E+02  0.45594000000E+02  0.51100000000E-03 0. -1.
         11   -1    0    0    0    0 -0.00000000000E+00 -0.00000000000E+00 -0.45593999997E+02  0.45594000000E+02  0.51100000000E-03 0.  1.
    9900012    2    1    2    0    0 -0.14769573901E+02 -0.12087829956E+02  0.25543367745E+02  0.59301959449E+02  0.50000028125E+02 0.  0.
        -12    1    1    2    0    0  0.14769573901E+02  0.12087829956E+02 -0.25543367745E+02  0.31886040551E+02  0.00000000000E+00 0.  1.
         11    1    3    3    0    0 -0.12567451300E+02 -0.29483557774E+01  0.38390648459E+01  0.13467444194E+02  0.51100000000E-03 0. -1.
        -11    1    3    3    0    0  0.13734001883E+02  0.40523733994E+01  0.20638142418E+02  0.25119264731E+02  0.51100000000E-03 0.  1.
        -12    1    3    3    0    0 -0.15936124484E+02 -0.13191847578E+02  0.10661604805E+01  0.20715250524E+02  0.00000000000E+00 0.  1.
</event>
<event>
 7    1  0.1052674E-011  0.5930194E+02  0.7816164E-02  0.1266605E+00
        -11   -1    0    0    0    0  0.00000000000E+00  0.00000000000E+00  0.45593999997E+02  0.45594000000E+02  0.51100000000E-03 0. -1.
         11   -1    0    0    0    0 -0.00000000000E+00 -0.00000000000E+00 -0.45593999997E+02  0.45594000000E+02  0.51100000000E-03 0.  1.
    9900012    2    1    2    0    0 -0.34897505490E+01 -0.29028817035E+02 -0.12722835933E+02  0.59301935151E+02  0.49999983812E+02 0.  0.
        -12    1    1    2    0    0  0.34897505490E+01  0.29028817035E+02  0.12722835933E+02  0.31886064849E+02  0.00000000000E+00 0.  1.
         11    1    3    3    0    0  0.11294402841E+01 -0.98951853961E+01  0.42508702062E+01  0.10828676149E+02  0.51100000000E-03 0. -1.
        -11    1    3    3    0    0  0.45357265195E+01  0.11454056924E+02 -0.98173570486E+01  0.15752737373E+02  0.51100000000E-03 0.  1.
        -12    1    3    3    0    0 -0.91549173525E+01 -0.30587688563E+02 -0.71563490910E+01  0.32720521629E+02  0.00000000000E+00 0.  1.
</event>
<event>
 7    1  0.1052674E-011  0.5930195E+02  0.7816164E-02  0.1266605E+00
        -11   -1    0    0    0    0  0.00000000000E+00  0.00000000000E+00  0.45593999997E+02  0.45594000000E+02  0.51100000000E-03 0. -1.
         11   -1    0    0    0    0 -0.00000000000E+00 -0.00000000000E+00 -0.45593999997E+02  0.45594000000E+02  0.51100000000E-03 0.  1.
    9900012    2    1    2    0    0  0.18480990414E+01  0.26502600973E+02  0.17632834467E+02  0.59301950076E+02  0.50000011031E+02 0.  0.
        -12    1    1    2    0    0 -0.18480990414E+01 -0.26502600973E+02 -0.17632834467E+02  0.31886049924E+02  0.00000000000E+00 0.  1.
         11    1    3    3    0    0  0.25971733699E+01  0.89619072399E+00  0.95596744146E+01  0.99466498129E+01  0.51100000000E-03 0. -1.
        -11    1    3    3    0    0  0.31388721353E+01 -0.15732001349E+01 -0.13807394601E+02  0.14246810972E+02  0.51100000000E-03 0.  1.
        -12    1    3    3    0    0 -0.38879464638E+01  0.27179610384E+02  0.21880554654E+02  0.35108489291E+02  0.00000000000E+00 0.  1.
</event>
<event>
 7    1  0.1052674E-011  0.5930194E+02  0.7816164E-02  0.1266605E+00
        -11   -1    0    0    0    0  0.00000000000E+00  0.00000000000E+00  0.45593999997E+02  0.45594000000E+02  0.51100000000E-03 0. -1.
         11   -1    0    0    0    0 -0.00000000000E+00 -0.00000000000E+00 -0.45593999997E+02  0.45594000000E+02  0.51100000000E-03 0.  1.
    9900012    2    1    2    0    0 -0.61975722117E+01  0.16967011297E+02  0.26276062236E+02  0.59301940032E+02  0.49999992712E+02 0.  0.
        -12    1    1    2    0    0  0.61975722117E+01 -0.16967011297E+02 -0.26276062236E+02  0.31886059968E+02  0.00000000000E+00 0.  1.
         11    1    3    3    0    0 -0.14319660275E+02 -0.38424986925E+00  0.21170359109E+02  0.25561385397E+02  0.51100000000E-03 0. -1.
        -11    1    3    3    0    0  0.90787300951E+01  0.18633114470E+02  0.13799627038E+02  0.24900722914E+02  0.51100000000E-03 0.  1.
        -12    1    3    3    0    0 -0.95664203193E+00 -0.12818533041E+01 -0.86939239113E+01  0.88398317205E+01  0.00000000000E+00 0.  1.
</event>
<event>
 7    1  0.1052674E-011  0.5930192E+02  0.7816164E-02  0.1266605E+00
        -11   -1    0    0    0    0  0.00000000000E+00  0.00000000000E+00  0.45593999997E+02  0.45594000000E+02  0.51100000000E-03 0.  1.
         11   -1    0    0    0    0 -0.00000000000E+00 -0.00000000000E+00 -0.45593999997E+02  0.45594000000E+02  0.51100000000E-03 0. -1.
    9900012    2    1    2    0    0  0.18489131168E+02 -0.49992004116E+01 -0.25492781014E+02  0.59301923730E+02  0.49999962982E+02 0.  0.
        -12    1    1    2    0    0 -0.18489131168E+02  0.49992004116E+01  0.25492781014E+02  0.31886076270E+02  0.00000000000E+00 0.  1.
         11    1    3    3    0    0 -0.12688914840E+02 -0.89153555417E+01 -0.96848481407E+01  0.18283555673E+02  0.51100000000E-03 0. -1.
        -11    1    3    3    0    0  0.22423217822E+02  0.12263844283E+02 -0.87554851218E+01  0.27015941481E+02  0.51100000000E-03 0.  1.
         12    1    3    3    0    0  0.87548281857E+01 -0.83476891527E+01 -0.70524477511E+01  0.14002426577E+02  0.00000000000E+00 0. -1.
</event>
<event>
 7    1  0.1052674E-011  0.5930196E+02  0.7816164E-02  0.1266605E+00
        -11   -1    0    0    0    0  0.00000000000E+00  0.00000000000E+00  0.45593999997E+02  0.45594000000E+02  0.51100000000E-03 0.  1.
         11   -1    0    0    0    0 -0.00000000000E+00 -0.00000000000E+00 -0.45593999997E+02  0.45594000000E+02  0.51100000000E-03 0. -1.
    9900012    2    1    2    0    0 -0.16650296188E+02 -0.72029318054E+01 -0.26222221319E+02  0.59301961039E+02  0.50000031024E+02 0.  0.
        -12    1    1    2    0    0  0.16650296188E+02  0.72029318054E+01  0.26222221319E+02  0.31886038961E+02  0.00000000000E+00 0.  1.
         11    1    3    3    0    0 -0.84178319961E+01  0.19229010693E+02 -0.18568893395E+01  0.21072797299E+02  0.51100000000E-03 0. -1.
        -11    1    3    3    0    0  0.86687451485E+00 -0.84556793361E+01 -0.11587818569E+02  0.14371065510E+02  0.51100000000E-03 0.  1.
         12    1    3    3    0    0 -0.90993387068E+01 -0.17976263162E+02 -0.12777513410E+02  0.23858098229E+02  0.00000000000E+00 0. -1.
</event>
<event>
 7    1  0.1052674E-011  0.5930195E+02  0.7816164E-02  0.1266605E+00
        -11   -1    0    0    0    0  0.00000000000E+00  0.00000000000E+00  0.45593999997E+02  0.45594000000E+02  0.51100000000E-03 0.  1.
         11   -1    0    0    0    0 -0.00000000000E+00 -0.00000000000E+00 -0.45593999997E+02  0.45594000000E+02  0.51100000000E-03 0. -1.
    9900012    2    1    2    0    0 -0.12838536664E+02  0.17610006031E+02 -0.23276170351E+02  0.59301945959E+02  0.50000003522E+02 0.  0.
        -12    1    1    2    0    0  0.12838536664E+02 -0.17610006031E+02  0.23276170351E+02  0.31886054041E+02  0.00000000000E+00 0.  1.
         11    1    3    3    0    0 -0.14627333636E+02  0.14477742110E+02 -0.18634835566E+02  0.27763663352E+02  0.51100000000E-03 0. -1.
        -11    1    3    3    0    0  0.13919922667E+02 -0.12460333971E+01  0.56138511790E+01  0.15060948563E+02  0.51100000000E-03 0.  1.
        -12    1    3    3    0    0 -0.12131125695E+02  0.43782973183E+01 -0.10255185964E+02  0.16477334044E+02  0.00000000000E+00 0.  1.
</event>
<event>
 7    1  0.1052674E-011  0.5930191E+02  0.7816164E-02  0.1266605E+00
        -11   -1    0    0    0    0  0.00000000000E+00  0.00000000000E+00  0.45593999997E+02  0.45594000000E+02  0.51100000000E-03 0. -1.
         11   -1    0    0    0    0 -0.00000000000E+00 -0.00000000000E+00 -0.45593999997E+02  0.45594000000E+02  0.51100000000E-03 0.  1.
    9900012    2    1    2    0    0  0.15119066062E+02 -0.91372998849E+01  0.26545176205E+02  0.59301909184E+02  0.49999936453E+02 0.  0.
        -12    1    1    2    0    0 -0.15119066062E+02  0.91372998849E+01 -0.26545176205E+02  0.31886090816E+02  0.00000000000E+00 0.  1.
         11    1    3    3    0    0  0.63222211430E+01 -0.20483182136E+02  0.35873078282E+01  0.21734764970E+02  0.51100000000E-03 0. -1.
        -11    1    3    3    0    0 -0.44521819197E+01  0.14404305594E+02  0.70610175646E+01  0.16648240532E+02  0.51100000000E-03 0.  1.
         12    1    3    3    0    0  0.13249026839E+02 -0.30584233433E+01  0.15896850812E+02  0.20918903682E+02  0.00000000000E+00 0. -1.
</event>
<event>
 7    1  0.1052674E-011  0.5930193E+02  0.7816164E-02  0.1266605E+00
        -11   -1    0    0    0    0  0.00000000000E+00  0.00000000000E+00  0.45593999997E+02  0.45594000000E+02  0.51100000000E-03 0.  1.
         11   -1    0    0    0    0 -0.00000000000E+00 -0.00000000000E+00 -0.45593999997E+02  0.45594000000E+02  0.51100000000E-03 0. -1.
    9900012    2    1    2    0    0 -0.22472454882E+02  0.10124619649E+02 -0.20228752665E+02  0.59301928027E+02  0.49999970819E+02 0.  0.
        -12    1    1    2    0    0  0.22472454882E+02 -0.10124619649E+02  0.20228752665E+02  0.31886071973E+02  0.00000000000E+00 0.  1.
         11    1    3    3    0    0 -0.13979210646E+02 -0.18361702630E+01 -0.12539133876E+02  0.18868485105E+02  0.51100000000E-03 0. -1.
        -11    1    3    3    0    0 -0.16436500700E+02  0.64070683988E+01  0.99885662772E+01  0.20272654914E+02  0.51100000000E-03 0.  1.
        -12    1    3    3    0    0  0.79432564639E+01  0.55537215136E+01 -0.17678185066E+02  0.20160788009E+02  0.00000000000E+00 0.  1.
</event>
<event>
 7    1  0.1052674E-011  0.5930196E+02  0.7816164E-02  0.1266605E+00
        -11   -1    0    0    0    0  0.00000000000E+00  0.00000000000E+00  0.45593999997E+02  0.45594000000E+02  0.51100000000E-03 0. -1.
         11   -1    0    0    0    0 -0.00000000000E+00 -0.00000000000E+00 -0.45593999997E+02  0.45594000000E+02  0.51100000000E-03 0.  1.
    9900012    2    1    2    0    0 -0.21945750971E+02 -0.92593035776E+01  0.21198320094E+02  0.59301961312E+02  0.50000031523E+02 0.  0.
        -12    1    1    2    0    0  0.21945750971E+02  0.92593035776E+01 -0.21198320094E+02  0.31886038688E+02  0.00000000000E+00 0.  1.
         11    1    3    3    0    0 -0.15883655004E+02 -0.55337935776E+01  0.92601300405E+01  0.19200608747E+02  0.51100000000E-03 0. -1.
        -11    1    3    3    0    0  0.13642403223E+02 -0.52607913622E+01 -0.34853408430E+01  0.15031257183E+02  0.51100000000E-03 0.  1.
        -12    1    3    3    0    0 -0.19704499189E+02  0.15352813622E+01  0.15423530896E+02  0.25070095382E+02  0.00000000000E+00 0.  1.
</event>
<event>
 7    1  0.1052674E-011  0.5930194E+02  0.7816164E-02  0.1266605E+00
        -11   -1    0    0    0    0  0.00000000000E+00  0.00000000000E+00  0.45593999997E+02  0.45594000000E+02  0.51100000000E-03 0. -1.
         11   -1    0    0    0    0 -0.00000000000E+00 -0.00000000000E+00 -0.45593999997E+02  0.45594000000E+02  0.51100000000E-03 0.  1.
    9900012    2    1    2    0    0 -0.30189535832E+00  0.24491285873E+02  0.20415834534E+02  0.59301944674E+02  0.50000001178E+02 0.  0.
        -12    1    1    2    0    0  0.30189535832E+00 -0.24491285873E+02 -0.20415834534E+02  0.31886055326E+02  0.00000000000E+00 0.  1.
         11    1    3    3    0    0 -0.11280838522E+02  0.29532216320E+02  0.31300864267E+01  0.31768011581E+02  0.51100000000E-03 0. -1.
        -11    1    3    3    0    0  0.89360300798E+01  0.97363446595E+00  0.18944483174E+02  0.20968882675E+02  0.51100000000E-03 0.  1.
         12    1    3    3    0    0  0.20429130839E+01 -0.60145649130E+01 -0.16587350661E+01  0.65650504172E+01  0.00000000000E+00 0. -1.
</event>
<event>
 7    1  0.1052674E-011  0.5930191E+02  0.7816164E-02  0.1266605E+00
        -11   -1    0    0    0    0  0.00000000000E+00  0.00000000000E+00  0.45593999997E+02  0.45594000000E+02  0.51100000000E-03 0.  1.
         11   -1    0    0    0    0 -0.00000000000E+00 -0.00000000000E+00 -0.45593999997E+02  0.45594000000E+02  0.51100000000E-03 0. -1.
    9900012    2    1    2    0    0  0.31285759189E+01 -0.23415834484E+02 -0.21415727608E+02  0.59301910857E+02  0.49999939505E+02 0.  0.
        -12    1    1    2    0    0 -0.31285759189E+01  0.23415834484E+02  0.21415727608E+02  0.31886089143E+02  0.00000000000E+00 0.  1.
         11    1    3    3    0    0  0.32155244743E+01  0.64453103629E+01 -0.63059040430E+01  0.95731943143E+01  0.51100000000E-03 0. -1.
        -11    1    3    3    0    0 -0.47060802190E+01 -0.10041383230E+02  0.11666728827E+02  0.16096245835E+02  0.51100000000E-03 0.  1.
         12    1    3    3    0    0  0.46191316637E+01 -0.19819761617E+02 -0.26776552392E+02  0.33632470708E+02  0.00000000000E+00 0. -1.
</event>
<event>
 7    1  0.1052674E-011  0.5930196E+02  0.7816164E-02  0.1266605E+00
        -11   -1    0    0    0    0  0.00000000000E+00  0.00000000000E+00  0.45593999997E+02  0.45594000000E+02  0.51100000000E-03 0. -1.
         11   -1    0    0    0    0 -0.00000000000E+00 -0.00000000000E+00 -0.45593999997E+02  0.45594000000E+02  0.51100000000E-03 0.  1.
    9900012    2    1    2    0    0 -0.29081848079E+02  0.41015370127E-01  0.13075328201E+02  0.59301956383E+02  0.50000022534E+02 0.  0.
        -12    1    1    2    0    0  0.29081848079E+02 -0.41015370127E-01 -0.13075328201E+02  0.31886043617E+02  0.00000000000E+00 0.  1.
         11    1    3    3    0    0 -0.32916964808E+02 -0.26664642767E+01  0.24480405883E+02  0.41108720199E+02  0.51100000000E-03 0. -1.
        -11    1    3    3    0    0 -0.46439039167E+01  0.28904728744E+01 -0.60828687370E+01  0.81805849032E+01  0.51100000000E-03 0.  1.
         12    1    3    3    0    0  0.84790206450E+01 -0.18299322758E+00 -0.53222089459E+01  0.10012651281E+02  0.00000000000E+00 0. -1.
</event>
<event>
 7    1  0.1052674E-011  0.5930198E+02  0.7816164E-02  0.1266605E+00
        -11   -1    0    0    0    0  0.00000000000E+00  0.00000000000E+00  0.45593999997E+02  0.45594000000E+02  0.51100000000E-03 0.  1.
         11   -1    0    0    0    0 -0.00000000000E+00 -0.00000000000E+00 -0.45593999997E+02  0.45594000000E+02  0.51100000000E-03 0. -1.
    9900012    2    1    2    0    0  0.11166193554E+02  0.15731773748E+01 -0.29825482045E+02  0.59301981986E+02  0.50000069228E+02 0.  0.
        -12    1    1    2    0    0 -0.11166193554E+02 -0.15731773748E+01  0.29825482045E+02  0.31886018014E+02  0.00000000000E+00 0.  1.
         11    1    3    3    0    0  0.20029977878E+02  0.13056850581E+02 -0.14202115529E+02  0.27809736544E+02  0.51100000000E-03 0. -1.
        -11    1    3    3    0    0  0.15683971465E+01 -0.12282897722E+02 -0.16901093307E+02  0.20951763680E+02  0.51100000000E-03 0.  1.
        -12    1    3    3    0    0 -0.10432181470E+02  0.79922451568E+00  0.12777267901E+01  0.10540481763E+02  0.00000000000E+00 0.  1.
</event>
<event>
 7    1  0.1052674E-011  0.5930196E+02  0.7816164E-02  0.1266605E+00
        -11   -1    0    0    0    0  0.00000000000E+00  0.00000000000E+00  0.45593999997E+02  0.45594000000E+02  0.51100000000E-03 0.  1.
         11   -1    0    0    0    0 -0.00000000000E+00 -0.00000000000E+00 -0.45593999997E+02  0.45594000000E+02  0.51100000000E-03 0. -1.
    9900012    2    1    2    0    0 -0.13245170983E+02 -0.19732766975E+02 -0.21258005078E+02  0.59301961884E+02  0.50000032565E+02 0.  0.
        -12    1    1    2    0    0  0.13245170983E+02  0.19732766975E+02  0.21258005078E+02  0.31886038116E+02  0.00000000000E+00 0.  1.
         11    1    3    3    0    0 -0.19736423852E+02  0.27224493914E+01  0.24294548025E+01  0.20070884586E+02  0.51100000000E-03 0. -1.
        -11    1    3    3    0    0  0.47689609683E+01 -0.24650736337E+02 -0.25592646231E+02  0.35852270947E+02  0.51100000000E-03 0.  1.
        -12    1    3    3    0    0  0.17222919002E+01  0.21955199710E+01  0.19051863499E+01  0.33788063514E+01  0.00000000000E+00 0.  1.
</event>
<event>
 7    1  0.1052674E-011  0.5930197E+02  0.7816164E-02  0.1266605E+00
        -11   -1    0    0    0    0  0.00000000000E+00  0.00000000000E+00  0.45593999997E+02  0.45594000000E+02  0.51100000000E-03 0.  1.
         11   -1    0    0    0    0 -0.00000000000E+00 -0.00000000000E+00 -0.45593999997E+02  0.45594000000E+02  0.51100000000E-03 0. -1.
    9900012    2    1    2    0    0  0.90236682649E+01 -0.21970765340E+02 -0.21273868767E+02  0.59301974677E+02  0.50000055898E+02 0.  0.
        -12    1    1    2    0    0 -0.90236682649E+01  0.21970765340E+02  0.21273868767E+02  0.31886025323E+02  0.00000000000E+00 0.  1.
         11    1    3    3    0    0  0.17457577108E+02 -0.10514536953E+02 -0.94397831006E+01  0.22459563465E+02  0.51100000000E-03 0. -1.
        -11    1    3    3    0    0 -0.15590006554E+02 -0.12095882882E+02  0.33778056074E+01  0.20019197237E+02  0.51100000000E-03 0.  1.
        -12    1    3    3    0    0  0.71560977115E+01  0.63965449499E+00 -0.15211891273E+02  0.16823213975E+02  0.00000000000E+00 0.  1.
</event>
<event>
 7    1  0.1052674E-011  0.5930190E+02  0.7816164E-02  0.1266605E+00
        -11   -1    0    0    0    0  0.00000000000E+00  0.00000000000E+00  0.45593999997E+02  0.45594000000E+02  0.51100000000E-03 0.  1.
         11   -1    0    0    0    0 -0.00000000000E+00 -0.00000000000E+00 -0.45593999997E+02  0.45594000000E+02  0.51100000000E-03 0. -1.
    9900012    2    1    2    0    0  0.17956008778E+02  0.18447674162E+02 -0.18814572450E+02  0.59301904759E+02  0.49999928383E+02 0.  0.
        -12    1    1    2    0    0 -0.17956008778E+02 -0.18447674162E+02  0.18814572450E+02  0.31886095241E+02  0.00000000000E+00 0.  1.
         11    1    3    3    0    0  0.43276942544E+01  0.15559288174E+02 -0.33975908241E+02  0.37618914486E+02  0.51100000000E-03 0. -1.
        -11    1    3    3    0    0  0.11983392798E+02  0.48405192489E+01  0.13095683929E+02  0.18399164856E+02  0.51100000000E-03 0.  1.
         12    1    3    3    0    0  0.16449217261E+01 -0.19521332611E+01  0.20656518618E+01  0.32838254168E+01  0.00000000000E+00 0. -1.
</event>
<event>
 7    1  0.1052674E-011  0.5930195E+02  0.7816164E-02  0.1266605E+00
        -11   -1    0    0    0    0  0.00000000000E+00  0.00000000000E+00  0.45593999997E+02  0.45594000000E+02  0.51100000000E-03 0. -1.
         11   -1    0    0    0    0 -0.00000000000E+00 -0.00000000000E+00 -0.45593999997E+02  0.45594000000E+02  0.51100000000E-03 0.  1.
    9900012    2    1    2    0    0  0.13769346705E+01 -0.30097067792E+02  0.10439862999E+02  0.59301950100E+02  0.50000011075E+02 0.  0.
        -12    1    1    2    0    0 -0.13769346705E+01  0.30097067792E+02 -0.10439862999E+02  0.31886049900E+02  0.00000000000E+00 0.  1.
         11    1    3    3    0    0 -0.11770718801E+02 -0.16813589198E+02  0.19868701354E+01  0.20620238990E+02  0.51100000000E-03 0. -1.
        -11    1    3    3    0    0  0.17609909347E+02  0.48132507341E+01  0.82709120859E+01  0.20042062689E+02  0.51100000000E-03 0.  1.
        -12    1    3    3    0    0 -0.44622558756E+01 -0.18096729328E+02  0.18208077784E+00  0.18639648422E+02  0.00000000000E+00 0.  1.
</event>
<event>
 7    1  0.1052674E-011  0.5930197E+02  0.7816164E-02  0.1266605E+00
        -11   -1    0    0    0    0  0.00000000000E+00  0.00000000000E+00  0.45593999997E+02  0.45594000000E+02  0.51100000000E-03 0. -1.
         11   -1    0    0    0    0 -0.00000000000E+00 -0.00000000000E+00 -0.45593999997E+02  0.45594000000E+02  0.51100000000E-03 0.  1.
    9900012    2    1    2    0    0  0.16006724320E+02  0.18222797530E+02  0.20698638168E+02  0.59301965513E+02  0.50000039185E+02 0.  0.
        -12    1    1    2    0    0 -0.16006724320E+02 -0.18222797530E+02 -0.20698638168E+02  0.31886034487E+02  0.00000000000E+00 0.  1.
         11    1    3    3    0    0 -0.16784130517E+01  0.10807312888E+02  0.26788512283E+02  0.28935090683E+02  0.51100000000E-03 0. -1.
        -11    1    3    3    0    0  0.19420969156E+01  0.12897829914E+02 -0.34196642623E+01  0.13484059510E+02  0.51100000000E-03 0.  1.
        -12    1    3    3    0    0  0.15743040456E+02 -0.54823452720E+01 -0.26702098534E+01  0.16882815320E+02  0.00000000000E+00 0.  1.
</event>
<event>
 7    1  0.1052674E-011  0.5930192E+02  0.7816164E-02  0.1266605E+00
        -11   -1    0    0    0    0  0.00000000000E+00  0.00000000000E+00  0.45593999997E+02  0.45594000000E+02  0.51100000000E-03 0. -1.
         11   -1    0    0    0    0 -0.00000000000E+00 -0.00000000000E+00 -0.45593999997E+02  0.45594000000E+02  0.51100000000E-03 0.  1.
    9900012    2    1    2    0    0 -0.15803123813E+02 -0.21516639189E+02  0.17436097916E+02  0.59301921615E+02  0.49999959124E+02 0.  0.
        -12    1    1    2    0    0  0.15803123813E+02  0.21516639189E+02 -0.17436097916E+02  0.31886078385E+02  0.00000000000E+00 0.  1.
         11    1    3    3    0    0  0.54296351240E+00  0.87109892109E+01  0.39610350864E+01  0.95846722232E+01  0.51100000000E-03 0. -1.
        -11    1    3    3    0    0 -0.61890253140E+01 -0.20009667701E+02 -0.91805500288E+01  0.22868610254E+02  0.51100000000E-03 0.  1.
         12    1    3    3    0    0 -0.10157062012E+02 -0.10217960699E+02  0.22655612858E+02  0.26848639138E+02  0.00000000000E+00 0. -1.
</event>
<event>
 7    1  0.1052674E-011  0.5930191E+02  0.7816164E-02  0.1266605E+00
        -11   -1    0    0    0    0  0.00000000000E+00  0.00000000000E+00  0.45593999997E+02  0.45594000000E+02  0.51100000000E-03 0.  1.
         11   -1    0    0    0    0 -0.00000000000E+00 -0.00000000000E+00 -0.45593999997E+02  0.45594000000E+02  0.51100000000E-03 0. -1.
    9900012    2    1    2    0    0 -0.18596356898E+01 -0.19150373970E+02 -0.25426904903E+02  0.59301912735E+02  0.49999942930E+02 0.  0.
        -12    1    1    2    0    0  0.18596356898E+01  0.19150373970E+02  0.25426904903E+02  0.31886087265E+02  0.00000000000E+00 0.  1.
         11    1    3    3    0    0  0.92237373453E+01  0.74336952888E+01 -0.22401606554E+02  0.25341056267E+02  0.51100000000E-03 0. -1.
        -11    1    3    3    0    0 -0.92875991749E+01 -0.21204557647E+02  0.54319122579E+01  0.23778108304E+02  0.51100000000E-03 0.  1.
         12    1    3    3    0    0 -0.17957738602E+01 -0.53795116113E+01 -0.84572106072E+01  0.10182748165E+02  0.00000000000E+00 0. -1.
</event>
<event>
 7    1  0.1052674E-011  0.5930193E+02  0.7816164E-02  0.1266605E+00
        -11   -1    0    0    0    0  0.00000000000E+00  0.00000000000E+00  0.45593999997E+02  0.45594000000E+02  0.51100000000E-03 0.  1.
         11   -1    0    0    0    0 -0.00000000000E+00 -0.00000000000E+00 -0.45593999997E+02  0.45594000000E+02  0.51100000000E-03 0. -1.
    9900012    2    1    2    0    0  0.16649078172E+02  0.24731386667E+02 -0.11308758500E+02  0.59301932364E+02  0.49999978729E+02 0.  0.
        -12    1    1    2    0    0 -0.16649078172E+02 -0.24731386667E+02  0.11308758500E+02  0.31886067636E+02  0.00000000000E+00 0.  1.
         11    1    3    3    0    0  0.10096938393E+01 -0.31213454779E+01 -0.74136972949E+01  0.81071071957E+01  0.51100000000E-03 0.  1.
        -11    1    3    3    0    0 -0.55894583750E+01  0.29215430543E+02 -0.31153514671E+01  0.29908006316E+02  0.51100000000E-03 0. -1.
        -12    1    3    3    0    0  0.21228842707E+02 -0.13626983981E+01 -0.77970973814E+00  0.21286818853E+02  0.00000000000E+00 0.  1.
</event>
<event>
 7    1  0.1052674E-011  0.5930198E+02  0.7816164E-02  0.1266605E+00
        -11   -1    0    0    0    0  0.00000000000E+00  0.00000000000E+00  0.45593999997E+02  0.45594000000E+02  0.51100000000E-03 0.  1.
         11   -1    0    0    0    0 -0.00000000000E+00 -0.00000000000E+00 -0.45593999997E+02  0.45594000000E+02  0.51100000000E-03 0. -1.
    9900012    2    1    2    0    0 -0.20948480299E+02 -0.17369670936E+02  0.16618491448E+02  0.59301975581E+02  0.50000057545E+02 0.  0.
        -12    1    1    2    0    0  0.20948480299E+02  0.17369670936E+02 -0.16618491448E+02  0.31886024419E+02  0.00000000000E+00 0.  1.
         11    1    3    3    0    0 -0.15520981366E+02 -0.77683115612E+01  0.15902725073E+02  0.23540267460E+02  0.51100000000E-03 0. -1.
        -11    1    3    3    0    0  0.14265351740E+02 -0.64940430978E+01  0.19076611856E+01  0.15789617712E+02  0.51100000000E-03 0.  1.
        -12    1    3    3    0    0 -0.19692850673E+02 -0.31073162767E+01 -0.11918948104E+01  0.19972090410E+02  0.00000000000E+00 0.  1.
</event>
<event>
 7    1  0.1052674E-011  0.5930193E+02  0.7816164E-02  0.1266605E+00
        -11   -1    0    0    0    0  0.00000000000E+00  0.00000000000E+00  0.45593999997E+02  0.45594000000E+02  0.51100000000E-03 0.  1.
         11   -1    0    0    0    0 -0.00000000000E+00 -0.00000000000E+00 -0.45593999997E+02  0.45594000000E+02  0.51100000000E-03 0. -1.
    9900012    2    1    2    0    0  0.20215452166E+02  0.20995393712E+02 -0.12932539403E+02  0.59301927197E+02  0.49999969305E+02 0.  0.
        -12    1    1    2    0    0 -0.20215452166E+02 -0.20995393712E+02  0.12932539403E+02  0.31886072803E+02  0.00000000000E+00 0.  1.
         11    1    3    3    0    0  0.19114908156E+02  0.40092224067E+01  0.20347288463E+01  0.19636539916E+02  0.51100000000E-03 0. -1.
        -11    1    3    3    0    0 -0.14640720365E+02  0.13686142960E+02 -0.11849787725E+02  0.23282583003E+02  0.51100000000E-03 0.  1.
        -12    1    3    3    0    0  0.15741264375E+02  0.33000283455E+01 -0.31174805245E+01  0.16382804278E+02  0.00000000000E+00 0.  1.
</event>
<event>
 7    1  0.1141259E-011  0.5930195E+02  0.7816164E-02  0.1266605E+00
        -11   -1    0    0    0    0  0.00000000000E+00  0.00000000000E+00  0.45593999997E+02  0.45594000000E+02  0.51100000000E-03 0. -1.
         11   -1    0    0    0    0 -0.00000000000E+00 -0.00000000000E+00 -0.45593999997E+02  0.45594000000E+02  0.51100000000E-03 0.  1.
    9900012    2    1    2    0    0 -0.61701861408E+01  0.27133679124E+02  0.15569601383E+02  0.59301949334E+02  0.50000009678E+02 0.  0.
        -12    1    1    2    0    0  0.61701861408E+01 -0.27133679124E+02 -0.15569601383E+02  0.31886050666E+02  0.00000000000E+00 0.  1.
         11    1    3    3    0    0  0.14472296431E+02  0.16117782213E+02  0.55487669836E+01  0.22361106474E+02  0.51100000000E-03 0. -1.
        -11    1    3    3    0    0 -0.18208525998E+02  0.26657053012E+01 -0.54500190215E+01  0.19192683798E+02  0.51100000000E-03 0.  1.
         12    1    3    3    0    0 -0.24339565745E+01  0.83501916106E+01  0.15470853421E+02  0.17748159062E+02  0.00000000000E+00 0. -1.
</event>
<event>
 7    1  0.1052674E-011  0.5930195E+02  0.7816164E-02  0.1266605E+00
        -11   -1    0    0    0    0  0.00000000000E+00  0.00000000000E+00  0.45593999997E+02  0.45594000000E+02  0.51100000000E-03 0.  1.
         11   -1    0    0    0    0 -0.00000000000E+00 -0.00000000000E+00 -0.45593999997E+02  0.45594000000E+02  0.51100000000E-03 0. -1.
    9900012    2    1    2    0    0  0.91235091007E+01  0.15301865768E+02 -0.26444941555E+02  0.59301945867E+02  0.50000003355E+02 0.  0.
        -12    1    1    2    0    0 -0.91235091007E+01 -0.15301865768E+02  0.26444941555E+02  0.31886054133E+02  0.00000000000E+00 0.  1.
         11    1    3    3    0    0  0.19595488421E+02  0.22802222396E+01 -0.18213019237E+02  0.26849518616E+02  0.51100000000E-03 0. -1.
        -11    1    3    3    0    0 -0.16486813305E+02  0.43802145581E+01 -0.12441113494E+02  0.21113564307E+02  0.51100000000E-03 0.  1.
        -12    1    3    3    0    0  0.60148339848E+01  0.86414289701E+01  0.42091911758E+01  0.11338862944E+02  0.00000000000E+00 0.  1.
</event>
<event>
 7    1  0.1052674E-011  0.5930195E+02  0.7816164E-02  0.1266605E+00
        -11   -1    0    0    0    0  0.00000000000E+00  0.00000000000E+00  0.45593999997E+02  0.45594000000E+02  0.51100000000E-03 0.  1.
         11   -1    0    0    0    0 -0.00000000000E+00 -0.00000000000E+00 -0.45593999997E+02  0.45594000000E+02  0.51100000000E-03 0. -1.
    9900012    2    1    2    0    0  0.22632829032E+01 -0.25878138384E+01 -0.31700170256E+02  0.59301952515E+02  0.50000015479E+02 0.  0.
        -12    1    1    2    0    0 -0.22632829032E+01  0.25878138384E+01  0.31700170256E+02  0.31886047485E+02  0.00000000000E+00 0.  1.
         11    1    3    3    0    0 -0.19608815246E+02 -0.14164591075E+02 -0.15084558264E+02  0.28507633609E+02  0.51100000000E-03 0. -1.
        -11    1    3    3    0    0  0.16962645226E+02  0.49604667309E+01 -0.10839023610E+02  0.20732148860E+02  0.51100000000E-03 0.  1.
        -12    1    3    3    0    0  0.49094529233E+01  0.66163105062E+01 -0.57765883816E+01  0.10062170047E+02  0.00000000000E+00 0.  1.
</event>
<event>
 7    1  0.1052674E-011  0.5930194E+02  0.7816164E-02  0.1266605E+00
        -11   -1    0    0    0    0  0.00000000000E+00  0.00000000000E+00  0.45593999997E+02  0.45594000000E+02  0.51100000000E-03 0.  1.
         11   -1    0    0    0    0 -0.00000000000E+00 -0.00000000000E+00 -0.45593999997E+02  0.45594000000E+02  0.51100000000E-03 0. -1.
    9900012    2    1    2    0    0 -0.20406892753E+02 -0.92585066750E+01 -0.22683906368E+02  0.59301939945E+02  0.49999992555E+02 0.  0.
        -12    1    1    2    0    0  0.20406892753E+02  0.92585066750E+01  0.22683906368E+02  0.31886060055E+02  0.00000000000E+00 0.  1.
         11    1    3    3    0    0 -0.20886807243E+02 -0.12906734210E+02  0.82114767222E+01  0.25889589703E+02  0.51100000000E-03 0. -1.
        -11    1    3    3    0    0 -0.29650771550E+01 -0.77243911024E+00 -0.25327792708E+02  0.25512456338E+02  0.51100000000E-03 0.  1.
        -12    1    3    3    0    0  0.34449916448E+01  0.44206666450E+01 -0.55675903827E+01  0.78998939036E+01  0.00000000000E+00 0.  1.
</event>
<event>
 7    1  0.1052674E-011  0.5930196E+02  0.7816164E-02  0.1266605E+00
        -11   -1    0    0    0    0  0.00000000000E+00  0.00000000000E+00  0.45593999997E+02  0.45594000000E+02  0.51100000000E-03 0.  1.
         11   -1    0    0    0    0 -0.00000000000E+00 -0.00000000000E+00 -0.45593999997E+02  0.45594000000E+02  0.51100000000E-03 0. -1.
    9900012    2    1    2    0    0 -0.10550038743E+02  0.60084032922E+01 -0.29484152107E+02  0.59301961471E+02  0.50000031812E+02 0.  0.
        -12    1    1    2    0    0  0.10550038743E+02 -0.60084032922E+01  0.29484152107E+02  0.31886038529E+02  0.00000000000E+00 0.  1.
         11    1    3    3    0    0 -0.25230908792E+02 -0.42421174639E+01 -0.11367220792E+01  0.25610280287E+02  0.51100000000E-03 0.  1.
        -11    1    3    3    0    0  0.14152637611E+02  0.92154002456E+01 -0.27425157953E+02  0.32208074174E+02  0.51100000000E-03 0. -1.
         12    1    3    3    0    0  0.52823243764E+00  0.10351205105E+01 -0.92227207507E+00  0.14836070099E+01  0.00000000000E+00 0. -1.
</event>
<event>
 7    1  0.1052674E-011  0.5930197E+02  0.7816164E-02  0.1266605E+00
        -11   -1    0    0    0    0  0.00000000000E+00  0.00000000000E+00  0.45593999997E+02  0.45594000000E+02  0.51100000000E-03 0. -1.
         11   -1    0    0    0    0 -0.00000000000E+00 -0.00000000000E+00 -0.45593999997E+02  0.45594000000E+02  0.51100000000E-03 0.  1.
    9900012    2    1    2    0    0 -0.50219801802E+00 -0.10825160513E+02  0.29988043806E+02  0.59301967411E+02  0.50000042645E+02 0.  0.
        -12    1    1    2    0    0  0.50219801802E+00  0.10825160513E+02 -0.29988043806E+02  0.31886032589E+02  0.00000000000E+00 0.  1.
         11    1    3    3    0    0  0.35365631590E+00  0.50018042417E+01  0.11010450617E+02  0.12098476826E+02  0.51100000000E-03 0. -1.
        -11    1    3    3    0    0 -0.13047210516E+02 -0.19391034298E+02  0.24041491195E+02  0.33529616946E+02  0.51100000000E-03 0.  1.
        -12    1    3    3    0    0  0.12191356182E+02  0.35640695433E+01 -0.50638980065E+01  0.13673873639E+02  0.00000000000E+00 0.  1.
</event>
<event>
 7    1  0.1433936E-011  0.5930191E+02  0.7816164E-02  0.1266605E+00
        -11   -1    0    0    0    0  0.00000000000E+00  0.00000000000E+00  0.45593999997E+02  0.45594000000E+02  0.51100000000E-03 0.  1.
         11   -1    0    0    0    0 -0.00000000000E+00 -0.00000000000E+00 -0.45593999997E+02  0.45594000000E+02  0.51100000000E-03 0. -1.
    9900012    2    1    2    0    0 -0.27660609977E+02 -0.11793243223E+01  0.15818417633E+02  0.59301913904E+02  0.49999945061E+02 0.  0.
        -12    1    1    2    0    0  0.27660609977E+02  0.11793243223E+01 -0.15818417633E+02  0.31886086096E+02  0.00000000000E+00 0.  1.
         11    1    3    3    0    0 -0.13841014187E+02 -0.40562524986E+01 -0.91107136351E+01  0.17059658884E+02  0.51100000000E-03 0. -1.
        -11    1    3    3    0    0  0.55474012207E+01 -0.14970798111E+01  0.21296348743E+02  0.22057864319E+02  0.51100000000E-03 0.  1.
         12    1    3    3    0    0 -0.19366997011E+02  0.43740079874E+01  0.36327825249E+01  0.20184390701E+02  0.00000000000E+00 0. -1.
</event>
<event>
 7    1  0.1052674E-011  0.5930196E+02  0.7816164E-02  0.1266605E+00
        -11   -1    0    0    0    0  0.00000000000E+00  0.00000000000E+00  0.45593999997E+02  0.45594000000E+02  0.51100000000E-03 0.  1.
         11   -1    0    0    0    0 -0.00000000000E+00 -0.00000000000E+00 -0.45593999997E+02  0.45594000000E+02  0.51100000000E-03 0. -1.
    9900012    2    1    2    0    0 -0.26528252531E+02 -0.12863210417E+02 -0.12145344326E+02  0.59301956762E+02  0.50000023224E+02 0.  0.
        -12    1    1    2    0    0  0.26528252531E+02  0.12863210417E+02  0.12145344326E+02  0.31886043238E+02  0.00000000000E+00 0.  1.
         11    1    3    3    0    0 -0.13024808837E+02 -0.36187253537E+01 -0.12454772085E+02  0.18381027348E+02  0.51100000000E-03 0. -1.
        -11    1    3    3    0    0  0.15339146271E+01 -0.52153342875E+01  0.17147697980E+02  0.17988778505E+02  0.51100000000E-03 0.  1.
        -12    1    3    3    0    0 -0.15037358321E+02 -0.40291507759E+01 -0.16838270222E+02  0.22932150909E+02  0.00000000000E+00 0.  1.
</event>
<event>
 7    1  0.1052674E-011  0.5930196E+02  0.7816164E-02  0.1266605E+00
        -11   -1    0    0    0    0  0.00000000000E+00  0.00000000000E+00  0.45593999997E+02  0.45594000000E+02  0.51100000000E-03 0. -1.
         11   -1    0    0    0    0 -0.00000000000E+00 -0.00000000000E+00 -0.45593999997E+02  0.45594000000E+02  0.51100000000E-03 0.  1.
    9900012    2    1    2    0    0 -0.24899588625E+02 -0.19547286000E+02  0.38253939016E+01  0.59301960074E+02  0.50000029265E+02 0.  0.
        -12    1    1    2    0    0  0.24899588625E+02  0.19547286000E+02 -0.38253939016E+01  0.31886039926E+02  0.00000000000E+00 0.  1.
         11    1    3    3    0    0 -0.23868862649E+02 -0.26621643200E+02  0.12241977438E+02  0.37792863119E+02  0.51100000000E-03 0. -1.
        -11    1    3    3    0    0 -0.13824882058E+01  0.13046662597E+02 -0.30441293846E+01  0.13468236801E+02  0.51100000000E-03 0.  1.
        -12    1    3    3    0    0  0.35176223015E+00 -0.59723053962E+01 -0.53724541520E+01  0.80408601547E+01  0.00000000000E+00 0.  1.
</event>
<event>
 7    1  0.1052674E-011  0.5930194E+02  0.7816164E-02  0.1266605E+00
        -11   -1    0    0    0    0  0.00000000000E+00  0.00000000000E+00  0.45593999997E+02  0.45594000000E+02  0.51100000000E-03 0.  1.
         11   -1    0    0    0    0 -0.00000000000E+00 -0.00000000000E+00 -0.45593999997E+02  0.45594000000E+02  0.51100000000E-03 0. -1.
    9900012    2    1    2    0    0  0.18043036817E+02  0.44426015035E+01 -0.25912023635E+02  0.59301939494E+02  0.49999991732E+02 0.  0.
        -12    1    1    2    0    0 -0.18043036817E+02 -0.44426015035E+01  0.25912023635E+02  0.31886060506E+02  0.00000000000E+00 0.  1.
         11    1    3    3    0    0 -0.69173847542E+00  0.12304191358E+00  0.10891901631E+02  0.10914539057E+02  0.51100000000E-03 0.  1.
        -11    1    3    3    0    0  0.99926521075E+01  0.94373761296E+01 -0.35630520123E+02  0.38189673066E+02  0.51100000000E-03 0. -1.
        -12    1    3    3    0    0  0.87421231846E+01 -0.51178165396E+01 -0.11734051430E+01  0.10197727371E+02  0.00000000000E+00 0.  1.
</event>
<event>
 7    1  0.1052674E-011  0.5930190E+02  0.7816164E-02  0.1266605E+00
        -11   -1    0    0    0    0  0.00000000000E+00  0.00000000000E+00  0.45593999997E+02  0.45594000000E+02  0.51100000000E-03 0. -1.
         11   -1    0    0    0    0 -0.00000000000E+00 -0.00000000000E+00 -0.45593999997E+02  0.45594000000E+02  0.51100000000E-03 0.  1.
    9900012    2    1    2    0    0 -0.23356593741E+01 -0.26013477376E+01  0.31693865056E+02  0.59301899628E+02  0.49999919025E+02 0.  0.
        -12    1    1    2    0    0  0.23356593741E+01  0.26013477376E+01 -0.31693865056E+02  0.31886100372E+02  0.00000000000E+00 0.  1.
         11    1    3    3    0    0  0.23265383008E+01  0.13484965521E+02  0.46238352905E+01  0.14444269750E+02  0.51100000000E-03 0. -1.
        -11    1    3    3    0    0 -0.56283148153E+01 -0.16589729298E+02  0.33783944181E+02  0.38055905330E+02  0.51100000000E-03 0.  1.
         12    1    3    3    0    0  0.96611714038E+00  0.50341603961E+00 -0.67139144155E+01  0.68017245473E+01  0.00000000000E+00 0. -1.
</event>
<event>
 7    1  0.1052674E-011  0.5930193E+02  0.7816164E-02  0.1266605E+00
        -11   -1    0    0    0    0  0.00000000000E+00  0.00000000000E+00  0.45593999997E+02  0.45594000000E+02  0.51100000000E-03 0. -1.
         11   -1    0    0    0    0 -0.00000000000E+00 -0.00000000000E+00 -0.45593999997E+02  0.45594000000E+02  0.51100000000E-03 0.  1.
    9900012    2    1    2    0    0  0.15043964165E+02  0.48571114074E+01  0.27691322364E+02  0.59301925872E+02  0.49999966888E+02 0.  0.
        -12    1    1    2    0    0 -0.15043964165E+02 -0.48571114074E+01 -0.27691322364E+02  0.31886074128E+02  0.00000000000E+00 0.  1.
         11    1    3    3    0    0 -0.41374216564E+01 -0.69320588159E+01  0.33722174133E+01  0.87489169577E+01  0.51100000000E-03 0. -1.
        -11    1    3    3    0    0  0.17805233933E+02  0.14138774590E+02 -0.31464480928E+01  0.22952808939E+02  0.51100000000E-03 0.  1.
        -12    1    3    3    0    0  0.13761518882E+01 -0.23496043664E+01  0.27465553043E+02  0.27600199975E+02  0.00000000000E+00 0.  1.
</event>
<event>
 7    1  0.1052674E-011  0.5930207E+02  0.7816164E-02  0.1266604E+00
        -11   -1    0    0    0    0  0.00000000000E+00  0.00000000000E+00  0.45593999997E+02  0.45594000000E+02  0.51100000000E-03 0.  1.
         11   -1    0    0    0    0 -0.00000000000E+00 -0.00000000000E+00 -0.45593999997E+02  0.45594000000E+02  0.51100000000E-03 0. -1.
    9900012    2    1    2    0    0 -0.15189447020E+02 -0.69038405479E+01 -0.27172233730E+02  0.59302068918E+02  0.50000227769E+02 0.  0.
        -12    1    1    2    0    0  0.15189447020E+02  0.69038405479E+01  0.27172233730E+02  0.31885931082E+02  0.00000000000E+00 0.  1.
         11    1    3    3    0    0  0.51570935432E+01  0.10380450109E+02  0.54549690084E+00  0.11603746180E+02  0.51100000000E-03 0. -1.
        -11    1    3    3    0    0 -0.11412573323E+02 -0.10860465539E+02 -0.32175938721E+02  0.35825794819E+02  0.51100000000E-03 0.  1.
        -12    1    3    3    0    0 -0.89339672405E+01 -0.64238251182E+01  0.44582080906E+01  0.11872527919E+02  0.00000000000E+00 0.  1.
</event>
<event>
 7    1  0.1052674E-011  0.5930192E+02  0.7816164E-02  0.1266605E+00
        -11   -1    0    0    0    0  0.00000000000E+00  0.00000000000E+00  0.45593999997E+02  0.45594000000E+02  0.51100000000E-03 0.  1.
         11   -1    0    0    0    0 -0.00000000000E+00 -0.00000000000E+00 -0.45593999997E+02  0.45594000000E+02  0.51100000000E-03 0. -1.
    9900012    2    1    2    0    0 -0.13712693027E+02  0.13526861229E+02 -0.25410786223E+02  0.59301921828E+02  0.49999959512E+02 0.  0.
        -12    1    1    2    0    0  0.13712693027E+02 -0.13526861229E+02  0.25410786223E+02  0.31886078172E+02  0.00000000000E+00 0.  1.
         11    1    3    3    0    0 -0.11910723891E+02 -0.79900936589E+01 -0.24718540989E+02  0.28578194645E+02  0.51100000000E-03 0. -1.
        -11    1    3    3    0    0 -0.57307785459E+01  0.15748543598E+02 -0.96728605765E+01  0.19350004656E+02  0.51100000000E-03 0.  1.
         12    1    3    3    0    0  0.39288094100E+01  0.57684112895E+01  0.89806153424E+01  0.11373722527E+02  0.00000000000E+00 0. -1.
</event>
<event>
 7    1  0.1052674E-011  0.5930191E+02  0.7816164E-02  0.1266605E+00
        -11   -1    0    0    0    0  0.00000000000E+00  0.00000000000E+00  0.45593999997E+02  0.45594000000E+02  0.51100000000E-03 0. -1.
         11   -1    0    0    0    0 -0.00000000000E+00 -0.00000000000E+00 -0.45593999997E+02  0.45594000000E+02  0.51100000000E-03 0.  1.
    9900012    2    1    2    0    0  0.24534176178E+02  0.20336491880E+02  0.11064413234E+01  0.59301907184E+02  0.49999932805E+02 0.  0.
        -12    1    1    2    0    0 -0.24534176178E+02 -0.20336491880E+02 -0.11064413234E+01  0.31886092816E+02  0.00000000000E+00 0.  1.
         11    1    3    3    0    0  0.13996986663E+02  0.31401321417E+02  0.22015757636E+01  0.34450044390E+02  0.51100000000E-03 0. -1.
        -11    1    3    3    0    0 -0.28665865036E+01 -0.15214132736E+01 -0.67202184849E+01  0.74627979523E+01  0.51100000000E-03 0.  1.
         12    1    3    3    0    0  0.13403776018E+02 -0.95434162638E+01  0.56250840447E+01  0.17389064841E+02  0.00000000000E+00 0. -1.
</event>
<event>
 7    1  0.1052674E-011  0.5930194E+02  0.7816164E-02  0.1266605E+00
        -11   -1    0    0    0    0  0.00000000000E+00  0.00000000000E+00  0.45593999997E+02  0.45594000000E+02  0.51100000000E-03 0. -1.
         11   -1    0    0    0    0 -0.00000000000E+00 -0.00000000000E+00 -0.45593999997E+02  0.45594000000E+02  0.51100000000E-03 0.  1.
    9900012    2    1    2    0    0  0.31520308996E+02 -0.27094136503E+01  0.39811808408E+01  0.59301943449E+02  0.49999998944E+02 0.  0.
        -12    1    1    2    0    0 -0.31520308996E+02  0.27094136503E+01 -0.39811808408E+01  0.31886056551E+02  0.00000000000E+00 0.  1.
         11    1    3    3    0    0 -0.39572011191E+01 -0.16518122285E+02  0.10130863169E+02  0.19777315119E+02  0.51100000000E-03 0. -1.
        -11    1    3    3    0    0  0.16764422872E+02  0.21176666467E+01 -0.14097215485E+01  0.16956346935E+02  0.51100000000E-03 0.  1.
         12    1    3    3    0    0  0.18713087243E+02  0.11691041988E+02 -0.47399607799E+01  0.22568281395E+02  0.00000000000E+00 0. -1.
</event>
<event>
 7    1  0.1052674E-011  0.5930195E+02  0.7816164E-02  0.1266605E+00
        -11   -1    0    0    0    0  0.00000000000E+00  0.00000000000E+00  0.45593999997E+02  0.45594000000E+02  0.51100000000E-03 0. -1.
         11   -1    0    0    0    0 -0.00000000000E+00 -0.00000000000E+00 -0.45593999997E+02  0.45594000000E+02  0.51100000000E-03 0.  1.
    9900012    2    1    2    0    0  0.20893720556E+02 -0.19371753035E+02 -0.14314601282E+02  0.59301950007E+02  0.50000010905E+02 0.  0.
        -12    1    1    2    0    0 -0.20893720556E+02  0.19371753035E+02  0.14314601282E+02  0.31886049993E+02  0.00000000000E+00 0.  1.
         11    1    3    3    0    0  0.20209719345E+02 -0.19929074954E+02 -0.21345268476E+02  0.35513677240E+02  0.51100000000E-03 0. -1.
        -11    1    3    3    0    0 -0.96784075465E+01 -0.22861669466E+01 -0.15143441494E+01  0.10059392149E+02  0.51100000000E-03 0.  1.
         12    1    3    3    0    0  0.10362408757E+02  0.28434888652E+01  0.85450113433E+01  0.13728880618E+02  0.00000000000E+00 0. -1.
</event>
<event>
 7    1  0.1052674E-011  0.5930194E+02  0.7816164E-02  0.1266605E+00
        -11   -1    0    0    0    0  0.00000000000E+00  0.00000000000E+00  0.45593999997E+02  0.45594000000E+02  0.51100000000E-03 0.  1.
         11   -1    0    0    0    0 -0.00000000000E+00 -0.00000000000E+00 -0.45593999997E+02  0.45594000000E+02  0.51100000000E-03 0. -1.
    9900012    2    1    2    0    0 -0.54346328253E+01  0.10410328189E+02 -0.29644738176E+02  0.59301942413E+02  0.49999997054E+02 0.  0.
        -12    1    1    2    0    0  0.54346328253E+01 -0.10410328189E+02  0.29644738176E+02  0.31886057587E+02  0.00000000000E+00 0.  1.
         11    1    3    3    0    0  0.76300554182E+01 -0.11939567265E+02 -0.94848048500E+01  0.17050880783E+02  0.51100000000E-03 0. -1.
        -11    1    3    3    0    0 -0.19014604760E+02  0.64278006022E+01 -0.96961309924E+01  0.22290957163E+02  0.51100000000E-03 0.  1.
         12    1    3    3    0    0  0.59499165166E+01  0.15922094852E+02 -0.10463802333E+02  0.19960104467E+02  0.00000000000E+00 0. -1.
</event>
<event>
 7    1  0.1052674E-011  0.5930193E+02  0.7816164E-02  0.1266605E+00
        -11   -1    0    0    0    0  0.00000000000E+00  0.00000000000E+00  0.45593999997E+02  0.45594000000E+02  0.51100000000E-03 0.  1.
         11   -1    0    0    0    0 -0.00000000000E+00 -0.00000000000E+00 -0.45593999997E+02  0.45594000000E+02  0.51100000000E-03 0. -1.
    9900012    2    1    2    0    0 -0.14647601040E+02  0.19819546343E+02 -0.20232515879E+02  0.59301932003E+02  0.49999978070E+02 0.  0.
        -12    1    1    2    0    0  0.14647601040E+02 -0.19819546343E+02  0.20232515879E+02  0.31886067997E+02  0.00000000000E+00 0.  1.
         11    1    3    3    0    0 -0.59913569569E+00 -0.68971872964E+01 -0.24646061737E+02  0.25599971008E+02  0.51100000000E-03 0. -1.
        -11    1    3    3    0    0 -0.64194080171E+01  0.16258085578E+02  0.93790136156E+01  0.19836835499E+02  0.51100000000E-03 0.  1.
         12    1    3    3    0    0 -0.76290573275E+01  0.10458648062E+02 -0.49654677579E+01  0.13865125497E+02  0.00000000000E+00 0. -1.
</event>
<event>
 7    1  0.1052674E-011  0.5930194E+02  0.7816164E-02  0.1266605E+00
        -11   -1    0    0    0    0  0.00000000000E+00  0.00000000000E+00  0.45593999997E+02  0.45594000000E+02  0.51100000000E-03 0. -1.
         11   -1    0    0    0    0 -0.00000000000E+00 -0.00000000000E+00 -0.45593999997E+02  0.45594000000E+02  0.51100000000E-03 0.  1.
    9900012    2    1    2    0    0 -0.14254681821E+02 -0.21495464565E+02  0.18747534007E+02  0.59301937495E+02  0.49999988087E+02 0.  0.
        -12    1    1    2    0    0  0.14254681821E+02  0.21495464565E+02 -0.18747534007E+02  0.31886062505E+02  0.00000000000E+00 0.  1.
         11    1    3    3    0    0  0.10841847044E+02 -0.13914937151E+02  0.36435046900E+01  0.18012391566E+02  0.51100000000E-03 0. -1.
        -11    1    3    3    0    0 -0.73172601586E+01  0.10417288117E+02  0.79108071492E+01  0.14988097209E+02  0.51100000000E-03 0.  1.
         12    1    3    3    0    0 -0.17779268706E+02 -0.17997815531E+02  0.71932221681E+01  0.26301448720E+02  0.00000000000E+00 0. -1.
</event>
<event>
 7    1  0.1052674E-011  0.5930195E+02  0.7816164E-02  0.1266605E+00
        -11   -1    0    0    0    0  0.00000000000E+00  0.00000000000E+00  0.45593999997E+02  0.45594000000E+02  0.51100000000E-03 0.  1.
         11   -1    0    0    0    0 -0.00000000000E+00 -0.00000000000E+00 -0.45593999997E+02  0.45594000000E+02  0.51100000000E-03 0. -1.
    9900012    2    1    2    0    0  0.93901841012E+01 -0.29786988330E+02 -0.64249499354E+01  0.59301949557E+02  0.50000010083E+02 0.  0.
        -12    1    1    2    0    0 -0.93901841012E+01  0.29786988330E+02  0.64249499354E+01  0.31886050443E+02  0.00000000000E+00 0.  1.
         11    1    3    3    0    0  0.14429517562E+02  0.44749835056E+01  0.69842790260E-01  0.15107658082E+02  0.51100000000E-03 0.  1.
        -11    1    3    3    0    0 -0.11551481666E+01 -0.26470216124E+02  0.76563382253E+01  0.27579452936E+02  0.51100000000E-03 0. -1.
         12    1    3    3    0    0 -0.38841852947E+01 -0.77917557113E+01 -0.14151130951E+02  0.16614838538E+02  0.00000000000E+00 0. -1.
</event>
<event>
 7    1  0.1052674E-011  0.5930192E+02  0.7816164E-02  0.1266605E+00
        -11   -1    0    0    0    0  0.00000000000E+00  0.00000000000E+00  0.45593999997E+02  0.45594000000E+02  0.51100000000E-03 0.  1.
         11   -1    0    0    0    0 -0.00000000000E+00 -0.00000000000E+00 -0.45593999997E+02  0.45594000000E+02  0.51100000000E-03 0. -1.
    9900012    2    1    2    0    0 -0.10782229878E+02  0.22975550382E+02 -0.19302581428E+02  0.59301920808E+02  0.49999957653E+02 0.  0.
        -12    1    1    2    0    0  0.10782229878E+02 -0.22975550382E+02  0.19302581428E+02  0.31886079192E+02  0.00000000000E+00 0.  1.
         11    1    3    3    0    0  0.59365873068E+01  0.80397289378E+00 -0.16814438943E+02  0.17849784270E+02  0.51100000000E-03 0. -1.
        -11    1    3    3    0    0 -0.11654950626E+02 -0.13888466206E+01  0.89659500252E+01  0.14770072076E+02  0.51100000000E-03 0.  1.
        -12    1    3    3    0    0 -0.50638665591E+01  0.23560424108E+02 -0.11454092510E+02  0.26682064461E+02  0.00000000000E+00 0.  1.
</event>
<event>
 7    1  0.1052674E-011  0.5930179E+02  0.7816164E-02  0.1266605E+00
        -11   -1    0    0    0    0  0.00000000000E+00  0.00000000000E+00  0.45593999997E+02  0.45594000000E+02  0.51100000000E-03 0. -1.
         11   -1    0    0    0    0 -0.00000000000E+00 -0.00000000000E+00 -0.45593999997E+02  0.45594000000E+02  0.51100000000E-03 0.  1.
    9900012    2    1    2    0    0  0.12368326020E+02  0.98781012284E+01  0.27679916223E+02  0.59301793977E+02  0.49999726342E+02 0.  0.
        -12    1    1    2    0    0 -0.12368326020E+02 -0.98781012284E+01 -0.27679916223E+02  0.31886206023E+02  0.00000000000E+00 0.  1.
         11    1    3    3    0    0 -0.67940230662E+01  0.75087555126E+01  0.34667889257E+02  0.36116515676E+02  0.51100000000E-03 0. -1.
        -11    1    3    3    0    0  0.16351077376E+02 -0.22097813852E+01 -0.37796940637E+01  0.16927107036E+02  0.51100000000E-03 0.  1.
         12    1    3    3    0    0  0.28112717105E+01  0.45791271010E+01 -0.32082789699E+01  0.62581712654E+01  0.00000000000E+00 0. -1.
</event>
<event>
 7    1  0.1310403E-011  0.5930192E+02  0.7816164E-02  0.1266605E+00
        -11   -1    0    0    0    0  0.00000000000E+00  0.00000000000E+00  0.45593999997E+02  0.45594000000E+02  0.51100000000E-03 0. -1.
         11   -1    0    0    0    0 -0.00000000000E+00 -0.00000000000E+00 -0.45593999997E+02  0.45594000000E+02  0.51100000000E-03 0.  1.
    9900012    2    1    2    0    0  0.31507174549E+02 -0.45508887625E+01 -0.18192160142E+01  0.59301918656E+02  0.49999953728E+02 0.  0.
        -12    1    1    2    0    0 -0.31507174549E+02  0.45508887625E+01  0.18192160142E+01  0.31886081344E+02  0.00000000000E+00 0.  1.
         11    1    3    3    0    0  0.39523780785E+02  0.69004570942E+01 -0.14717775307E+01  0.40148619964E+02  0.51100000000E-03 0. -1.
        -11    1    3    3    0    0 -0.62011269303E+01 -0.29293267208E+01 -0.57082897033E+01  0.89229760641E+01  0.51100000000E-03 0.  1.
         12    1    3    3    0    0 -0.18154793065E+01 -0.85220191360E+01  0.53608512198E+01  0.10230322628E+02  0.00000000000E+00 0. -1.
</event>
<event>
 7    1  0.1052674E-011  0.5930195E+02  0.7816164E-02  0.1266605E+00
        -11   -1    0    0    0    0  0.00000000000E+00  0.00000000000E+00  0.45593999997E+02  0.45594000000E+02  0.51100000000E-03 0.  1.
         11   -1    0    0    0    0 -0.00000000000E+00 -0.00000000000E+00 -0.45593999997E+02  0.45594000000E+02  0.51100000000E-03 0. -1.
    9900012    2    1    2    0    0 -0.25527135391E+02  0.11920418847E+02 -0.14932831680E+02  0.59301945231E+02  0.50000002194E+02 0.  0.
        -12    1    1    2    0    0  0.25527135391E+02 -0.11920418847E+02  0.14932831680E+02  0.31886054769E+02  0.00000000000E+00 0.  1.
         11    1    3    3    0    0 -0.27120713511E+02  0.83735503955E+00 -0.28263754532E+02  0.39180021507E+02  0.51100000000E-03 0. -1.
        -11    1    3    3    0    0  0.53140209741E+01  0.74613374825E+01  0.53723967733E+01  0.10619464360E+02  0.51100000000E-03 0.  1.
         12    1    3    3    0    0 -0.37204428543E+01  0.36217263249E+01  0.79585260792E+01  0.95024593637E+01  0.00000000000E+00 0. -1.
</event>
<event>
 7    1  0.1052674E-011  0.5930196E+02  0.7816164E-02  0.1266605E+00
        -11   -1    0    0    0    0  0.00000000000E+00  0.00000000000E+00  0.45593999997E+02  0.45594000000E+02  0.51100000000E-03 0.  1.
         11   -1    0    0    0    0 -0.00000000000E+00 -0.00000000000E+00 -0.45593999997E+02  0.45594000000E+02  0.51100000000E-03 0. -1.
    9900012    2    1    2    0    0 -0.13165246449E+02  0.29007121114E+02 -0.14081188011E+01  0.59301959356E+02  0.50000027955E+02 0.  0.
        -12    1    1    2    0    0  0.13165246449E+02 -0.29007121114E+02  0.14081188011E+01  0.31886040644E+02  0.00000000000E+00 0.  1.
         11    1    3    3    0    0 -0.20068142827E+02  0.41018237590E+01  0.37780657761E+01  0.20828564423E+02  0.51100000000E-03 0. -1.
        -11    1    3    3    0    0  0.87068663037E+01 -0.36215708322E+01 -0.25471817911E+01  0.97679799069E+01  0.51100000000E-03 0.  1.
        -12    1    3    3    0    0 -0.18039699255E+01  0.28526868188E+02 -0.26390027861E+01  0.28705415026E+02  0.00000000000E+00 0.  1.
</event>
<event>
 7    1  0.1052674E-011  0.5930186E+02  0.7816164E-02  0.1266605E+00
        -11   -1    0    0    0    0  0.00000000000E+00  0.00000000000E+00  0.45593999997E+02  0.45594000000E+02  0.51100000000E-03 0.  1.
         11   -1    0    0    0    0 -0.00000000000E+00 -0.00000000000E+00 -0.45593999997E+02  0.45594000000E+02  0.51100000000E-03 0. -1.
    9900012    2    1    2    0    0 -0.22558251221E+02  0.85571856441E+01 -0.20847678139E+02  0.59301861819E+02  0.49999850071E+02 0.  0.
        -12    1    1    2    0    0  0.22558251221E+02 -0.85571856441E+01  0.20847678139E+02  0.31886138181E+02  0.00000000000E+00 0.  1.
         11    1    3    3    0    0 -0.10238646608E+02  0.23947559681E+02 -0.21449188859E+02  0.33739934826E+02  0.51100000000E-03 0. -1.
        -11    1    3    3    0    0 -0.15976026571E+02 -0.94046980226E+01  0.58201416995E+00  0.18547789912E+02  0.51100000000E-03 0.  1.
         12    1    3    3    0    0  0.36564219574E+01 -0.59856760143E+01  0.19496550722E-01  0.70141370813E+01  0.00000000000E+00 0. -1.
</event>
<event>
 7    1  0.1052674E-011  0.5930196E+02  0.7816164E-02  0.1266605E+00
        -11   -1    0    0    0    0  0.00000000000E+00  0.00000000000E+00  0.45593999997E+02  0.45594000000E+02  0.51100000000E-03 0.  1.
         11   -1    0    0    0    0 -0.00000000000E+00 -0.00000000000E+00 -0.45593999997E+02  0.45594000000E+02  0.51100000000E-03 0. -1.
    9900012    2    1    2    0    0 -0.21697125219E+02  0.18775897280E+02 -0.13907551373E+02  0.59301960004E+02  0.50000029136E+02 0.  0.
        -12    1    1    2    0    0  0.21697125219E+02 -0.18775897280E+02  0.13907551373E+02  0.31886039996E+02  0.00000000000E+00 0.  1.
         11    1    3    3    0    0 -0.11987549377E+02  0.56245178996E+00 -0.18718640008E+02  0.22235223770E+02  0.51100000000E-03 0. -1.
        -11    1    3    3    0    0 -0.42558626664E+01  0.10809210514E+02  0.17737462148E+02  0.21203041355E+02  0.51100000000E-03 0.  1.
        -12    1    3    3    0    0 -0.54537131752E+01  0.74042349761E+01 -0.12926373514E+02  0.15863694878E+02  0.00000000000E+00 0.  1.
</event>
<event>
 7    1  0.1052674E-011  0.5930197E+02  0.7816164E-02  0.1266605E+00
        -11   -1    0    0    0    0  0.00000000000E+00  0.00000000000E+00  0.45593999997E+02  0.45594000000E+02  0.51100000000E-03 0.  1.
         11   -1    0    0    0    0 -0.00000000000E+00 -0.00000000000E+00 -0.45593999997E+02  0.45594000000E+02  0.51100000000E-03 0. -1.
    9900012    2    1    2    0    0 -0.26323898560E+02  0.17037053539E+02 -0.57887821973E+01  0.59301971272E+02  0.50000049687E+02 0.  0.
        -12    1    1    2    0    0  0.26323898560E+02 -0.17037053539E+02  0.57887821973E+01  0.31886028728E+02  0.00000000000E+00 0.  1.
         11    1    3    3    0    0 -0.27575013984E+02 -0.44819143083E+01 -0.15283690979E+02  0.31844311302E+02  0.51100000000E-03 0. -1.
        -11    1    3    3    0    0  0.75895688141E+01  0.98394251198E+01  0.54319797703E+01  0.13561793611E+02  0.51100000000E-03 0.  1.
         12    1    3    3    0    0 -0.63384533904E+01  0.11679542728E+02  0.40629290116E+01  0.13895866359E+02  0.00000000000E+00 0. -1.
</event>
<event>
 7    1  0.1696920E-011  0.5930195E+02  0.7816164E-02  0.1266605E+00
        -11   -1    0    0    0    0  0.00000000000E+00  0.00000000000E+00  0.45593999997E+02  0.45594000000E+02  0.51100000000E-03 0.  1.
         11   -1    0    0    0    0 -0.00000000000E+00 -0.00000000000E+00 -0.45593999997E+02  0.45594000000E+02  0.51100000000E-03 0. -1.
    9900012    2    1    2    0    0 -0.31431433494E+02 -0.46916041017E+01  0.26026746581E+01  0.59301951704E+02  0.50000014000E+02 0.  0.
        -12    1    1    2    0    0  0.31431433494E+02  0.46916041017E+01 -0.26026746581E+01  0.31886048296E+02  0.00000000000E+00 0.  1.
         11    1    3    3    0    0 -0.30814602451E+02 -0.19061201958E+02 -0.27394917833E+01  0.36336950337E+02  0.51100000000E-03 0. -1.
        -11    1    3    3    0    0  0.34226864459E+01  0.98040448110E+01 -0.45563252995E+01  0.11339937286E+02  0.51100000000E-03 0.  1.
         12    1    3    3    0    0 -0.40395174891E+01  0.45655530450E+01  0.98984917409E+01  0.11625064081E+02  0.00000000000E+00 0. -1.
</event>
<event>
 7    1  0.1052674E-011  0.5930201E+02  0.7816164E-02  0.1266605E+00
        -11   -1    0    0    0    0  0.00000000000E+00  0.00000000000E+00  0.45593999997E+02  0.45594000000E+02  0.51100000000E-03 0. -1.
         11   -1    0    0    0    0 -0.00000000000E+00 -0.00000000000E+00 -0.45593999997E+02  0.45594000000E+02  0.51100000000E-03 0.  1.
    9900012    2    1    2    0    0 -0.21516487961E+02  0.43423376136E+01  0.23127930676E+02  0.59302010482E+02  0.50000121197E+02 0.  0.
        -12    1    1    2    0    0  0.21516487961E+02 -0.43423376136E+01 -0.23127930676E+02  0.31885989518E+02  0.00000000000E+00 0.  1.
         11    1    3    3    0    0  0.98114437191E+00  0.34062261720E+01  0.27308125778E+02  0.27537224893E+02  0.51100000000E-03 0. -1.
        -11    1    3    3    0    0 -0.23944377388E+02 -0.54200850585E+01 -0.53895438419E+01  0.25134790901E+02  0.51100000000E-03 0.  1.
         12    1    3    3    0    0  0.14467450548E+01  0.63561965001E+01  0.12093487400E+01  0.66299946890E+01  0.00000000000E+00 0. -1.
</event>
<event>
 7    1  0.1052674E-011  0.5930197E+02  0.7816164E-02  0.1266605E+00
        -11   -1    0    0    0    0  0.00000000000E+00  0.00000000000E+00  0.45593999997E+02  0.45594000000E+02  0.51100000000E-03 0.  1.
         11   -1    0    0    0    0 -0.00000000000E+00 -0.00000000000E+00 -0.45593999997E+02  0.45594000000E+02  0.51100000000E-03 0. -1.
    9900012    2    1    2    0    0  0.21116824630E+01  0.30040461368E+02  0.10480001451E+02  0.59301969321E+02  0.50000046129E+02 0.  0.
        -12    1    1    2    0    0 -0.21116824630E+01 -0.30040461368E+02 -0.10480001451E+02  0.31886030679E+02  0.00000000000E+00 0.  1.
         11    1    3    3    0    0 -0.18192570642E+02  0.26776251201E+02  0.11798608458E+02  0.34454962150E+02  0.51100000000E-03 0. -1.
        -11    1    3    3    0    0  0.12252457085E+01 -0.38515562017E+01  0.14561356282E+01  0.42960497495E+01  0.51100000000E-03 0.  1.
         12    1    3    3    0    0  0.19079007396E+02  0.71157663693E+01 -0.27747426346E+01  0.20550957422E+02  0.00000000000E+00 0. -1.
</event>
<event>
 7    1  0.1052674E-011  0.5930198E+02  0.7816164E-02  0.1266605E+00
        -11   -1    0    0    0    0  0.00000000000E+00  0.00000000000E+00  0.45593999997E+02  0.45594000000E+02  0.51100000000E-03 0.  1.
         11   -1    0    0    0    0 -0.00000000000E+00 -0.00000000000E+00 -0.45593999997E+02  0.45594000000E+02  0.51100000000E-03 0. -1.
    9900012    2    1    2    0    0  0.29782234149E+02  0.24797811780E+01  0.11116997227E+02  0.59301977781E+02  0.50000061557E+02 0.  0.
        -12    1    1    2    0    0 -0.29782234149E+02 -0.24797811780E+01 -0.11116997227E+02  0.31886022219E+02  0.00000000000E+00 0.  1.
         11    1    3    3    0    0  0.56535364749E+01 -0.97246862443E+00  0.12723731988E+01  0.58759768309E+01  0.51100000000E-03 0. -1.
        -11    1    3    3    0    0 -0.45720765141E+01 -0.72463286563E-01 -0.14763886517E+02  0.15455791145E+02  0.51100000000E-03 0.  1.
        -12    1    3    3    0    0  0.28700774188E+02  0.35247130890E+01  0.24608510545E+02  0.37970209805E+02  0.00000000000E+00 0.  1.
</event>
<event>
 7    1  0.1052674E-011  0.5930195E+02  0.7816164E-02  0.1266605E+00
        -11   -1    0    0    0    0  0.00000000000E+00  0.00000000000E+00  0.45593999997E+02  0.45594000000E+02  0.51100000000E-03 0. -1.
         11   -1    0    0    0    0 -0.00000000000E+00 -0.00000000000E+00 -0.45593999997E+02  0.45594000000E+02  0.51100000000E-03 0.  1.
    9900012    2    1    2    0    0 -0.25905707055E+02  0.65254208119E+01  0.17407859202E+02  0.59301947613E+02  0.50000006539E+02 0.  0.
        -12    1    1    2    0    0  0.25905707055E+02 -0.65254208119E+01 -0.17407859202E+02  0.31886052387E+02  0.00000000000E+00 0.  1.
         11    1    3    3    0    0 -0.92810116836E+01 -0.63111292573E+01 -0.15510777499E+02  0.19145541237E+02  0.51100000000E-03 0.  1.
        -11    1    3    3    0    0 -0.17838133516E+02  0.11826070222E+02  0.30250434952E+02  0.37055954438E+02  0.51100000000E-03 0. -1.
        -12    1    3    3    0    0  0.12134381446E+01  0.10104798467E+01  0.26682017489E+01  0.31004519387E+01  0.00000000000E+00 0.  1.
</event>
<event>
 7    1  0.1052674E-011  0.5930192E+02  0.7816164E-02  0.1266605E+00
        -11   -1    0    0    0    0  0.00000000000E+00  0.00000000000E+00  0.45593999997E+02  0.45594000000E+02  0.51100000000E-03 0.  1.
         11   -1    0    0    0    0 -0.00000000000E+00 -0.00000000000E+00 -0.45593999997E+02  0.45594000000E+02  0.51100000000E-03 0. -1.
    9900012    2    1    2    0    0  0.18640957042E+02  0.14199234383E+01 -0.25830609227E+02  0.59301924119E+02  0.49999963692E+02 0.  0.
        -12    1    1    2    0    0 -0.18640957042E+02 -0.14199234383E+01  0.25830609227E+02  0.31886075881E+02  0.00000000000E+00 0.  1.
         11    1    3    3    0    0  0.12047760655E+02  0.10258362996E+02 -0.21076811454E+02  0.26355540774E+02  0.51100000000E-03 0. -1.
        -11    1    3    3    0    0  0.14595653919E+02 -0.14507695468E+02 -0.87423220009E+01  0.22359215893E+02  0.51100000000E-03 0.  1.
        -12    1    3    3    0    0 -0.80024575325E+01  0.56692559105E+01  0.39885242282E+01  0.10587167452E+02  0.00000000000E+00 0.  1.
</event>
<event>
 7    1  0.1052674E-011  0.5930195E+02  0.7816164E-02  0.1266605E+00
        -11   -1    0    0    0    0  0.00000000000E+00  0.00000000000E+00  0.45593999997E+02  0.45594000000E+02  0.51100000000E-03 0. -1.
         11   -1    0    0    0    0 -0.00000000000E+00 -0.00000000000E+00 -0.45593999997E+02  0.45594000000E+02  0.51100000000E-03 0.  1.
    9900012    2    1    2    0    0  0.63146246760E+01 -0.21067083845E+02  0.23087310048E+02  0.59301946752E+02  0.50000004968E+02 0.  0.
        -12    1    1    2    0    0 -0.63146246760E+01  0.21067083845E+02 -0.23087310048E+02  0.31886053248E+02  0.00000000000E+00 0.  1.
         11    1    3    3    0    0 -0.99394757539E+01  0.80308031844E+01  0.47531882214E+01  0.13633773380E+02  0.51100000000E-03 0.  1.
        -11    1    3    3    0    0  0.11533632832E+02 -0.25291887783E+02  0.24475866666E+02  0.37037444880E+02  0.51100000000E-03 0. -1.
         12    1    3    3    0    0  0.47204675980E+01 -0.38059992464E+01 -0.61417448403E+01  0.86307284913E+01  0.00000000000E+00 0. -1.
</event>
<event>
 7    1  0.1052674E-011  0.5930195E+02  0.7816164E-02  0.1266605E+00
        -11   -1    0    0    0    0  0.00000000000E+00  0.00000000000E+00  0.45593999997E+02  0.45594000000E+02  0.51100000000E-03 0.  1.
         11   -1    0    0    0    0 -0.00000000000E+00 -0.00000000000E+00 -0.45593999997E+02  0.45594000000E+02  0.51100000000E-03 0. -1.
    9900012    2    1    2    0    0 -0.12984753222E+02  0.23584511715E+02 -0.17084710473E+02  0.59301947547E+02  0.50000006418E+02 0.  0.
        -12    1    1    2    0    0  0.12984753222E+02 -0.23584511715E+02  0.17084710473E+02  0.31886052453E+02  0.00000000000E+00 0.  1.
         11    1    3    3    0    0 -0.22203624711E+02  0.20825014913E+02 -0.10666283037E+02  0.32256034947E+02  0.51100000000E-03 0. -1.
        -11    1    3    3    0    0  0.15715995684E+02 -0.35672672016E+00  0.21321393925E+01  0.15863977841E+02  0.51100000000E-03 0.  1.
        -12    1    3    3    0    0 -0.64971241956E+01  0.31162235224E+01 -0.85505668284E+01  0.11181934758E+02  0.00000000000E+00 0.  1.
</event>
<event>
 7    1  0.1052674E-011  0.5930194E+02  0.7816164E-02  0.1266605E+00
        -11   -1    0    0    0    0  0.00000000000E+00  0.00000000000E+00  0.45593999997E+02  0.45594000000E+02  0.51100000000E-03 0. -1.
         11   -1    0    0    0    0 -0.00000000000E+00 -0.00000000000E+00 -0.45593999997E+02  0.45594000000E+02  0.51100000000E-03 0.  1.
    9900012    2    1    2    0    0 -0.23929099478E+02  0.17681600558E+02 -0.11466469810E+02  0.59301941448E+02  0.49999995294E+02 0.  0.
        -12    1    1    2    0    0  0.23929099478E+02 -0.17681600558E+02  0.11466469810E+02  0.31886058552E+02  0.00000000000E+00 0.  1.
         11    1    3    3    0    0 -0.71814557850E+01  0.13285880393E+02  0.15927701509E+02  0.21949478368E+02  0.51100000000E-03 0. -1.
        -11    1    3    3    0    0 -0.12574663971E+02 -0.61638369912E+01 -0.14164761972E+02  0.19918723413E+02  0.51100000000E-03 0.  1.
         12    1    3    3    0    0 -0.41729797225E+01  0.10559557156E+02 -0.13229409347E+02  0.17433739667E+02  0.00000000000E+00 0. -1.
</event>
<event>
 7    1  0.1052674E-011  0.5930194E+02  0.7816164E-02  0.1266605E+00
        -11   -1    0    0    0    0  0.00000000000E+00  0.00000000000E+00  0.45593999997E+02  0.45594000000E+02  0.51100000000E-03 0.  1.
         11   -1    0    0    0    0 -0.00000000000E+00 -0.00000000000E+00 -0.45593999997E+02  0.45594000000E+02  0.51100000000E-03 0. -1.
    9900012    2    1    2    0    0 -0.13355917238E+02 -0.28833391359E+02  0.26411274925E+01  0.59301944475E+02  0.50000000816E+02 0.  0.
        -12    1    1    2    0    0  0.13355917238E+02  0.28833391359E+02 -0.26411274925E+01  0.31886055525E+02  0.00000000000E+00 0.  1.
         11    1    3    3    0    0  0.23038041814E+01 -0.10086720908E+02  0.56760334009E+01  0.11801135869E+02  0.51100000000E-03 0. -1.
        -11    1    3    3    0    0  0.80668600025E+01 -0.96144620245E+01 -0.14869395645E+02  0.19457929937E+02  0.51100000000E-03 0.  1.
        -12    1    3    3    0    0 -0.23726581422E+02 -0.91322084263E+01  0.11834489737E+02  0.28042878669E+02  0.00000000000E+00 0.  1.
</event>
<event>
 7    1  0.1052674E-011  0.5930195E+02  0.7816164E-02  0.1266605E+00
        -11   -1    0    0    0    0  0.00000000000E+00  0.00000000000E+00  0.45593999997E+02  0.45594000000E+02  0.51100000000E-03 0.  1.
         11   -1    0    0    0    0 -0.00000000000E+00 -0.00000000000E+00 -0.45593999997E+02  0.45594000000E+02  0.51100000000E-03 0. -1.
    9900012    2    1    2    0    0  0.24231822410E+02  0.20444541442E+02 -0.33999981617E+01  0.59301945375E+02  0.50000002456E+02 0.  0.
        -12    1    1    2    0    0 -0.24231822410E+02 -0.20444541442E+02  0.33999981617E+01  0.31886054625E+02  0.00000000000E+00 0.  1.
         11    1    3    3    0    0  0.23516241343E+02  0.32482234803E+02  0.61598310210E+01  0.40571575064E+02  0.51100000000E-03 0. -1.
        -11    1    3    3    0    0 -0.29260847576E+01 -0.19488955221E+01 -0.67999963081E+01  0.76550712483E+01  0.51100000000E-03 0.  1.
         12    1    3    3    0    0  0.36416658247E+01 -0.10088797839E+02 -0.27598328747E+01  0.11075299062E+02  0.00000000000E+00 0. -1.
</event>
<event>
 7    1  0.1052674E-011  0.5930194E+02  0.7816164E-02  0.1266605E+00
        -11   -1    0    0    0    0  0.00000000000E+00  0.00000000000E+00  0.45593999997E+02  0.45594000000E+02  0.51100000000E-03 0. -1.
         11   -1    0    0    0    0 -0.00000000000E+00 -0.00000000000E+00 -0.45593999997E+02  0.45594000000E+02  0.51100000000E-03 0.  1.
    9900012    2    1    2    0    0 -0.77483416335E+01 -0.30102032039E+02 -0.71099529755E+01  0.59301944078E+02  0.50000000092E+02 0.  0.
        -12    1    1    2    0    0  0.77483416335E+01  0.30102032039E+02  0.71099529755E+01  0.31886055922E+02  0.00000000000E+00 0.  1.
         11    1    3    3    0    0  0.18467482012E+02 -0.26364754092E+02 -0.43471779908E+01  0.32481473288E+02  0.51100000000E-03 0. -1.
        -11    1    3    3    0    0 -0.24972314946E+02 -0.42423353831E+01 -0.27427590347E+01  0.25478160268E+02  0.51100000000E-03 0.  1.
         12    1    3    3    0    0 -0.12435086993E+01  0.50505743658E+00 -0.20015949980E-01  0.13423105221E+01  0.00000000000E+00 0. -1.
</event>
<event>
 7    1  0.1052674E-011  0.5930197E+02  0.7816164E-02  0.1266605E+00
        -11   -1    0    0    0    0  0.00000000000E+00  0.00000000000E+00  0.45593999997E+02  0.45594000000E+02  0.51100000000E-03 0.  1.
         11   -1    0    0    0    0 -0.00000000000E+00 -0.00000000000E+00 -0.45593999997E+02  0.45594000000E+02  0.51100000000E-03 0. -1.
    9900012    2    1    2    0    0  0.20599326052E+02  0.21767978361E+02  0.10887691374E+02  0.59301969530E+02  0.50000046510E+02 0.  0.
        -12    1    1    2    0    0 -0.20599326052E+02 -0.21767978361E+02 -0.10887691374E+02  0.31886030470E+02  0.00000000000E+00 0.  1.
         11    1    3    3    0    0  0.19257564203E+02  0.12326915902E+02 -0.91230992609E+01  0.24617830430E+02  0.51100000000E-03 0. -1.
        -11    1    3    3    0    0  0.66066556849E+01  0.13275373482E+02  0.23120199290E+02  0.27466835564E+02  0.51100000000E-03 0.  1.
         12    1    3    3    0    0 -0.52648938366E+01 -0.38343110236E+01 -0.31094086553E+01  0.72173035354E+01  0.00000000000E+00 0. -1.
</event>
<event>
 7    1  0.1052674E-011  0.5930193E+02  0.7816164E-02  0.1266605E+00
        -11   -1    0    0    0    0  0.00000000000E+00  0.00000000000E+00  0.45593999997E+02  0.45594000000E+02  0.51100000000E-03 0.  1.
         11   -1    0    0    0    0 -0.00000000000E+00 -0.00000000000E+00 -0.45593999997E+02  0.45594000000E+02  0.51100000000E-03 0. -1.
    9900012    2    1    2    0    0  0.29584351816E+02  0.85391469768E+01  0.82807186390E+01  0.59301934005E+02  0.49999981721E+02 0.  0.
        -12    1    1    2    0    0 -0.29584351816E+02 -0.85391469768E+01 -0.82807186390E+01  0.31886065995E+02  0.00000000000E+00 0.  1.
         11    1    3    3    0    0  0.17796072660E+02 -0.12890389189E+02 -0.76066855032E+00  0.21987290704E+02  0.51100000000E-03 0. -1.
        -11    1    3    3    0    0 -0.44384495525E+00  0.23689327558E+02  0.70263840104E+01  0.24713383237E+02  0.51100000000E-03 0.  1.
        -12    1    3    3    0    0  0.12232124111E+02 -0.22597913916E+01  0.20150031789E+01  0.12601260065E+02  0.00000000000E+00 0.  1.
</event>
<event>
 7    1  0.1052674E-011  0.5930194E+02  0.7816164E-02  0.1266605E+00
        -11   -1    0    0    0    0  0.00000000000E+00  0.00000000000E+00  0.45593999997E+02  0.45594000000E+02  0.51100000000E-03 0.  1.
         11   -1    0    0    0    0 -0.00000000000E+00 -0.00000000000E+00 -0.45593999997E+02  0.45594000000E+02  0.51100000000E-03 0. -1.
    9900012    2    1    2    0    0 -0.11280414932E+02  0.21521533600E+02 -0.20646955381E+02  0.59301938217E+02  0.49999989402E+02 0.  0.
        -12    1    1    2    0    0  0.11280414932E+02 -0.21521533600E+02  0.20646955381E+02  0.31886061783E+02  0.00000000000E+00 0.  1.
         11    1    3    3    0    0  0.12390702213E+02  0.49636283183E+01  0.18816335333E+00  0.13349251407E+02  0.51100000000E-03 0. -1.
        -11    1    3    3    0    0 -0.22494700236E+02  0.16074212531E+02 -0.27068277485E+01  0.27779826564E+02  0.51100000000E-03 0.  1.
         12    1    3    3    0    0 -0.11764169090E+01  0.48369275040E+00 -0.18128290986E+02  0.18172860245E+02  0.00000000000E+00 0. -1.
</event>
<event>
 7    1  0.1052674E-011  0.5930198E+02  0.7816164E-02  0.1266605E+00
        -11   -1    0    0    0    0  0.00000000000E+00  0.00000000000E+00  0.45593999997E+02  0.45594000000E+02  0.51100000000E-03 0. -1.
         11   -1    0    0    0    0 -0.00000000000E+00 -0.00000000000E+00 -0.45593999997E+02  0.45594000000E+02  0.51100000000E-03 0.  1.
    9900012    2    1    2    0    0 -0.37383585025E+01 -0.28116965230E+02  0.14566364288E+02  0.59301983839E+02  0.50000072605E+02 0.  0.
        -12    1    1    2    0    0  0.37383585025E+01  0.28116965230E+02 -0.14566364288E+02  0.31886016161E+02  0.00000000000E+00 0.  1.
         11    1    3    3    0    0  0.46982890384E+01  0.26030846962E+00 -0.41535184381E+01  0.62764158613E+01  0.51100000000E-03 0. -1.
        -11    1    3    3    0    0 -0.18637643859E+01 -0.29293572703E+01  0.25618121338E+02  0.25852328577E+02  0.51100000000E-03 0.  1.
        -12    1    3    3    0    0 -0.65728831550E+01 -0.25447916430E+02 -0.68982386111E+01  0.27173239401E+02  0.00000000000E+00 0.  1.
</event>
<event>
 7    1  0.1154714E-011  0.5930195E+02  0.7816164E-02  0.1266605E+00
        -11   -1    0    0    0    0  0.00000000000E+00  0.00000000000E+00  0.45593999997E+02  0.45594000000E+02  0.51100000000E-03 0.  1.
         11   -1    0    0    0    0 -0.00000000000E+00 -0.00000000000E+00 -0.45593999997E+02  0.45594000000E+02  0.51100000000E-03 0. -1.
    9900012    2    1    2    0    0 -0.13726111137E+02 -0.26584171658E+02 -0.11027051898E+02  0.59301950022E+02  0.50000010931E+02 0.  0.
        -12    1    1    2    0    0  0.13726111137E+02  0.26584171658E+02  0.11027051898E+02  0.31886049978E+02  0.00000000000E+00 0.  1.
         11    1    3    3    0    0 -0.15574805849E+02 -0.20033801974E+02 -0.19923419199E+02  0.32262523640E+02  0.51100000000E-03 0. -1.
        -11    1    3    3    0    0 -0.25862888191E+01  0.89473667888E+01  0.21121274373E+01  0.95501489455E+01  0.51100000000E-03 0.  1.
         12    1    3    3    0    0  0.44349835313E+01 -0.15497736473E+02  0.67842398643E+01  0.17489277436E+02  0.00000000000E+00 0. -1.
</event>
<event>
 7    1  0.1052674E-011  0.5930195E+02  0.7816164E-02  0.1266605E+00
        -11   -1    0    0    0    0  0.00000000000E+00  0.00000000000E+00  0.45593999997E+02  0.45594000000E+02  0.51100000000E-03 0.  1.
         11   -1    0    0    0    0 -0.00000000000E+00 -0.00000000000E+00 -0.45593999997E+02  0.45594000000E+02  0.51100000000E-03 0. -1.
    9900012    2    1    2    0    0 -0.69825854166E+01 -0.17390344699E+02 -0.25798056987E+02  0.59301947686E+02  0.50000006672E+02 0.  0.
        -12    1    1    2    0    0  0.69825854166E+01  0.17390344699E+02  0.25798056987E+02  0.31886052314E+02  0.00000000000E+00 0.  1.
         11    1    3    3    0    0 -0.51172935565E+00 -0.29424140442E+02 -0.72627160618E+01  0.30311531676E+02  0.51100000000E-03 0. -1.
        -11    1    3    3    0    0 -0.20797846888E+01  0.12004422869E+02 -0.25953278728E+01  0.12456620721E+02  0.51100000000E-03 0.  1.
         12    1    3    3    0    0 -0.43910713721E+01  0.29372873933E-01 -0.15940013052E+02  0.16533795289E+02  0.00000000000E+00 0. -1.
</event>
<event>
 7    1  0.1052674E-011  0.5930194E+02  0.7816164E-02  0.1266605E+00
        -11   -1    0    0    0    0  0.00000000000E+00  0.00000000000E+00  0.45593999997E+02  0.45594000000E+02  0.51100000000E-03 0. -1.
         11   -1    0    0    0    0 -0.00000000000E+00 -0.00000000000E+00 -0.45593999997E+02  0.45594000000E+02  0.51100000000E-03 0.  1.
    9900012    2    1    2    0    0  0.23796485433E+02  0.21096612547E+02 -0.23196519313E+01  0.59301944035E+02  0.50000000013E+02 0.  0.
        -12    1    1    2    0    0 -0.23796485433E+02 -0.21096612547E+02  0.23196519313E+01  0.31886055965E+02  0.00000000000E+00 0.  1.
         11    1    3    3    0    0 -0.12266731065E+00  0.85735442622E+01  0.43266047433E+01  0.96041770782E+01  0.51100000000E-03 0. -1.
        -11    1    3    3    0    0  0.18008709420E+00 -0.12567799203E+02 -0.83908637726E+01  0.15112531333E+02  0.51100000000E-03 0.  1.
        -12    1    3    3    0    0  0.23739065650E+02  0.25090867488E+02  0.17446070980E+01  0.34585235624E+02  0.00000000000E+00 0.  1.
</event>
<event>
 7    1  0.1052674E-011  0.5930197E+02  0.7816164E-02  0.1266605E+00
        -11   -1    0    0    0    0  0.00000000000E+00  0.00000000000E+00  0.45593999997E+02  0.45594000000E+02  0.51100000000E-03 0.  1.
         11   -1    0    0    0    0 -0.00000000000E+00 -0.00000000000E+00 -0.45593999997E+02  0.45594000000E+02  0.51100000000E-03 0. -1.
    9900012    2    1    2    0    0  0.84053286839E+01 -0.18960623239E+01 -0.30699748625E+02  0.59301965937E+02  0.50000039958E+02 0.  0.
        -12    1    1    2    0    0 -0.84053286839E+01  0.18960623239E+01  0.30699748625E+02  0.31886034063E+02  0.00000000000E+00 0.  1.
         11    1    3    3    0    0 -0.68427441196E+01  0.80827289714E+01 -0.32550238783E+02  0.34229690326E+02  0.51100000000E-03 0. -1.
        -11    1    3    3    0    0  0.60265335031E+01 -0.10090731838E+02 -0.57844970016E+01  0.13099709192E+02  0.51100000000E-03 0.  1.
         12    1    3    3    0    0  0.92215393004E+01  0.11194054262E+00  0.76349871595E+01  0.11972566420E+02  0.00000000000E+00 0. -1.
</event>
<event>
 7    1  0.1052674E-011  0.5930190E+02  0.7816164E-02  0.1266605E+00
        -11   -1    0    0    0    0  0.00000000000E+00  0.00000000000E+00  0.45593999997E+02  0.45594000000E+02  0.51100000000E-03 0. -1.
         11   -1    0    0    0    0 -0.00000000000E+00 -0.00000000000E+00 -0.45593999997E+02  0.45594000000E+02  0.51100000000E-03 0.  1.
    9900012    2    1    2    0    0  0.41073716562E+01 -0.58294168734E+01  0.31078459090E+02  0.59301902364E+02  0.49999924016E+02 0.  0.
        -12    1    1    2    0    0 -0.41073716562E+01  0.58294168734E+01 -0.31078459090E+02  0.31886097636E+02  0.00000000000E+00 0.  1.
         11    1    3    3    0    0 -0.14990146460E+02 -0.15296730351E+02  0.21709857634E+02  0.30496104162E+02  0.51100000000E-03 0. -1.
        -11    1    3    3    0    0  0.10802375008E+02  0.11248287347E+02 -0.73474697459E+00  0.15612659204E+02  0.51100000000E-03 0.  1.
         12    1    3    3    0    0  0.82951431075E+01 -0.17809738693E+01  0.10103348431E+02  0.13193138998E+02  0.00000000000E+00 0. -1.
</event>
<event>
 7    1  0.1052674E-011  0.5930193E+02  0.7816164E-02  0.1266605E+00
        -11   -1    0    0    0    0  0.00000000000E+00  0.00000000000E+00  0.45593999997E+02  0.45594000000E+02  0.51100000000E-03 0.  1.
         11   -1    0    0    0    0 -0.00000000000E+00 -0.00000000000E+00 -0.45593999997E+02  0.45594000000E+02  0.51100000000E-03 0. -1.
    9900012    2    1    2    0    0 -0.23561267541E+02  0.17207287489E+02 -0.12864578832E+02  0.59301930010E+02  0.49999974436E+02 0.  0.
        -12    1    1    2    0    0  0.23561267541E+02 -0.17207287489E+02  0.12864578832E+02  0.31886069990E+02  0.00000000000E+00 0.  1.
         11    1    3    3    0    0  0.58538342336E-01  0.15654473090E+02 -0.22308878365E+02  0.27253477001E+02  0.51100000000E-03 0. -1.
        -11    1    3    3    0    0 -0.21355549373E+02 -0.64228410203E+01  0.75507446237E+01  0.23544131337E+02  0.51100000000E-03 0.  1.
        -12    1    3    3    0    0 -0.22642565106E+01  0.79756554196E+01  0.18935549097E+01  0.85043216728E+01  0.00000000000E+00 0.  1.
</event>
<event>
 7    1  0.1052674E-011  0.5930195E+02  0.7816164E-02  0.1266605E+00
        -11   -1    0    0    0    0  0.00000000000E+00  0.00000000000E+00  0.45593999997E+02  0.45594000000E+02  0.51100000000E-03 0.  1.
         11   -1    0    0    0    0 -0.00000000000E+00 -0.00000000000E+00 -0.45593999997E+02  0.45594000000E+02  0.51100000000E-03 0. -1.
    9900012    2    1    2    0    0  0.15012710791E+02 -0.58365351872E+01 -0.27518604495E+02  0.59301949419E+02  0.50000009833E+02 0.  0.
        -12    1    1    2    0    0 -0.15012710791E+02  0.58365351872E+01  0.27518604495E+02  0.31886050581E+02  0.00000000000E+00 0.  1.
         11    1    3    3    0    0  0.63966137334E+01 -0.20787339746E+02 -0.12496817868E+02  0.25083871672E+02  0.51100000000E-03 0.  1.
        -11    1    3    3    0    0 -0.20682828771E+01  0.10230621432E+02  0.45813725483E+01  0.11398788691E+02  0.51100000000E-03 0. -1.
         12    1    3    3    0    0  0.10684379935E+02  0.47201831270E+01 -0.19603159175E+02  0.22819289055E+02  0.00000000000E+00 0. -1.
</event>
<event>
 7    1  0.1052674E-011  0.5930198E+02  0.7816164E-02  0.1266605E+00
        -11   -1    0    0    0    0  0.00000000000E+00  0.00000000000E+00  0.45593999997E+02  0.45594000000E+02  0.51100000000E-03 0. -1.
         11   -1    0    0    0    0 -0.00000000000E+00 -0.00000000000E+00 -0.45593999997E+02  0.45594000000E+02  0.51100000000E-03 0.  1.
    9900012    2    1    2    0    0  0.10547676911E+02  0.69507942837E+01  0.29277140535E+02  0.59301984456E+02  0.50000073731E+02 0.  0.
        -12    1    1    2    0    0 -0.10547676911E+02 -0.69507942837E+01 -0.29277140535E+02  0.31886015544E+02  0.00000000000E+00 0.  1.
         11    1    3    3    0    0 -0.13283994298E+02  0.47788403444E+01 -0.32249732601E+01  0.14481100523E+02  0.51100000000E-03 0.  1.
        -11    1    3    3    0    0  0.12598299800E+02  0.48018651367E+01  0.30176903034E+02  0.33051785786E+02  0.51100000000E-03 0. -1.
        -12    1    3    3    0    0  0.11233371409E+02 -0.26299111974E+01  0.23252107605E+01  0.11769098148E+02  0.00000000000E+00 0.  1.
</event>
<event>
 7    1  0.1052674E-011  0.5930196E+02  0.7816164E-02  0.1266605E+00
        -11   -1    0    0    0    0  0.00000000000E+00  0.00000000000E+00  0.45593999997E+02  0.45594000000E+02  0.51100000000E-03 0. -1.
         11   -1    0    0    0    0 -0.00000000000E+00 -0.00000000000E+00 -0.45593999997E+02  0.45594000000E+02  0.51100000000E-03 0.  1.
    9900012    2    1    2    0    0  0.12085220079E+02 -0.26026166452E+02  0.13903436363E+02  0.59301961876E+02  0.50000032550E+02 0.  0.
        -12    1    1    2    0    0 -0.12085220079E+02  0.26026166452E+02 -0.13903436363E+02  0.31886038124E+02  0.00000000000E+00 0.  1.
         11    1    3    3    0    0  0.18287638488E+02 -0.49461241529E+01 -0.96851658854E+00  0.18969446229E+02  0.51100000000E-03 0. -1.
        -11    1    3    3    0    0 -0.72557998169E+01 -0.74001387321E+01  0.22400882169E+02  0.24682143473E+02  0.51100000000E-03 0.  1.
        -12    1    3    3    0    0  0.10533814085E+01 -0.13679903567E+02 -0.75289292169E+01  0.15650372173E+02  0.00000000000E+00 0.  1.
</event>
<event>
 7    1  0.1052674E-011  0.5930194E+02  0.7816164E-02  0.1266605E+00
        -11   -1    0    0    0    0  0.00000000000E+00  0.00000000000E+00  0.45593999997E+02  0.45594000000E+02  0.51100000000E-03 0. -1.
         11   -1    0    0    0    0 -0.00000000000E+00 -0.00000000000E+00 -0.45593999997E+02  0.45594000000E+02  0.51100000000E-03 0.  1.
    9900012    2    1    2    0    0  0.21269576365E+02 -0.76431757690E+01  0.22492387720E+02  0.59301944742E+02  0.50000001302E+02 0.  0.
        -12    1    1    2    0    0 -0.21269576365E+02  0.76431757690E+01 -0.22492387720E+02  0.31886055258E+02  0.00000000000E+00 0.  1.
         11    1    3    3    0    0 -0.74723534403E+01 -0.87244839869E-01  0.15026094065E+02  0.16781751419E+02  0.51100000000E-03 0. -1.
        -11    1    3    3    0    0  0.32817385100E+02 -0.12040283572E+02  0.31859139159E+01  0.35101271217E+02  0.51100000000E-03 0.  1.
        -12    1    3    3    0    0 -0.40754552947E+01  0.44843526431E+01  0.42803797397E+01  0.74189221052E+01  0.00000000000E+00 0.  1.
</event>
<event>
 7    1  0.1052674E-011  0.5930196E+02  0.7816164E-02  0.1266605E+00
        -11   -1    0    0    0    0  0.00000000000E+00  0.00000000000E+00  0.45593999997E+02  0.45594000000E+02  0.51100000000E-03 0.  1.
         11   -1    0    0    0    0 -0.00000000000E+00 -0.00000000000E+00 -0.45593999997E+02  0.45594000000E+02  0.51100000000E-03 0. -1.
    9900012    2    1    2    0    0 -0.31965795337E+01 -0.16367510337E+02 -0.27177311493E+02  0.59301956418E+02  0.50000022596E+02 0.  0.
        -12    1    1    2    0    0  0.31965795337E+01  0.16367510337E+02  0.27177311493E+02  0.31886043582E+02  0.00000000000E+00 0.  1.
         11    1    3    3    0    0 -0.10669939999E+02 -0.20509667896E+02  0.40121404438E+01  0.23464683420E+02  0.51100000000E-03 0. -1.
        -11    1    3    3    0    0  0.84576734205E+01 -0.38218647284E+01 -0.20196957348E+02  0.22227369976E+02  0.51100000000E-03 0.  1.
        -12    1    3    3    0    0 -0.98431295528E+00  0.79640222869E+01 -0.10992494589E+02  0.13609903022E+02  0.00000000000E+00 0.  1.
</event>
<event>
 7    1  0.1052674E-011  0.5930195E+02  0.7816164E-02  0.1266605E+00
        -11   -1    0    0    0    0  0.00000000000E+00  0.00000000000E+00  0.45593999997E+02  0.45594000000E+02  0.51100000000E-03 0.  1.
         11   -1    0    0    0    0 -0.00000000000E+00 -0.00000000000E+00 -0.45593999997E+02  0.45594000000E+02  0.51100000000E-03 0. -1.
    9900012    2    1    2    0    0 -0.89126961092E+01  0.10832761908E+02 -0.28634510376E+02  0.59301951845E+02  0.50000014257E+02 0.  0.
        -12    1    1    2    0    0  0.89126961092E+01 -0.10832761908E+02  0.28634510376E+02  0.31886048155E+02  0.00000000000E+00 0.  1.
         11    1    3    3    0    0 -0.86768240202E+01  0.21047940229E+02 -0.17659959981E+02  0.28812796632E+02  0.51100000000E-03 0. -1.
        -11    1    3    3    0    0 -0.11175465956E+02 -0.12982834044E+02 -0.73103387710E+01  0.18624877781E+02  0.51100000000E-03 0.  1.
        -12    1    3    3    0    0  0.10939593867E+02  0.27676557225E+01 -0.36642116240E+01  0.11864277433E+02  0.00000000000E+00 0.  1.
</event>
<event>
 7    1  0.1052674E-011  0.5930197E+02  0.7816164E-02  0.1266605E+00
        -11   -1    0    0    0    0  0.00000000000E+00  0.00000000000E+00  0.45593999997E+02  0.45594000000E+02  0.51100000000E-03 0.  1.
         11   -1    0    0    0    0 -0.00000000000E+00 -0.00000000000E+00 -0.45593999997E+02  0.45594000000E+02  0.51100000000E-03 0. -1.
    9900012    2    1    2    0    0 -0.14157805464E+02  0.27162001428E+02 -0.88600955767E+01  0.59301967466E+02  0.50000042746E+02 0.  0.
        -12    1    1    2    0    0  0.14157805464E+02 -0.27162001428E+02  0.88600955767E+01  0.31886032534E+02  0.00000000000E+00 0.  1.
         11    1    3    3    0    0 -0.24328844095E+02  0.16791900706E+02 -0.12230722901E+02  0.31991423339E+02  0.51100000000E-03 0. -1.
        -11    1    3    3    0    0  0.48784355660E+01 -0.65444020157E+00 -0.87836592652E+01  0.10068768341E+02  0.51100000000E-03 0.  1.
         12    1    3    3    0    0  0.52926030650E+01  0.11024540924E+02  0.12154286589E+02  0.17241775787E+02  0.00000000000E+00 0. -1.
</event>
<event>
 7    1  0.1052674E-011  0.5930226E+02  0.7816164E-02  0.1266604E+00
        -11   -1    0    0    0    0  0.00000000000E+00  0.00000000000E+00  0.45593999997E+02  0.45594000000E+02  0.51100000000E-03 0.  1.
         11   -1    0    0    0    0 -0.00000000000E+00 -0.00000000000E+00 -0.45593999997E+02  0.45594000000E+02  0.51100000000E-03 0. -1.
    9900012    2    1    2    0    0  0.11635805511E+02 -0.36926305229E+01 -0.29456286394E+02  0.59302261837E+02  0.50000579604E+02 0.  0.
        -12    1    1    2    0    0 -0.11635805511E+02  0.36926305229E+01  0.29456286394E+02  0.31885738163E+02  0.00000000000E+00 0.  1.
         11    1    3    3    0    0 -0.14658020713E+02  0.34579786294E+01 -0.14261220060E+02  0.20741205010E+02  0.51100000000E-03 0. -1.
        -11    1    3    3    0    0  0.18790468822E+02 -0.15323453590E+02 -0.11751009761E+02  0.26943945129E+02  0.51100000000E-03 0.  1.
        -12    1    3    3    0    0  0.75033574014E+01  0.81728444380E+01 -0.34440565739E+01  0.11617111697E+02  0.00000000000E+00 0.  1.
</event>
<event>
 7    1  0.1052674E-011  0.5930196E+02  0.7816164E-02  0.1266605E+00
        -11   -1    0    0    0    0  0.00000000000E+00  0.00000000000E+00  0.45593999997E+02  0.45594000000E+02  0.51100000000E-03 0. -1.
         11   -1    0    0    0    0 -0.00000000000E+00 -0.00000000000E+00 -0.45593999997E+02  0.45594000000E+02  0.51100000000E-03 0.  1.
    9900012    2    1    2    0    0 -0.81229631763E+01 -0.20594793290E+02  0.22947576482E+02  0.59301963749E+02  0.50000035966E+02 0.  0.
        -12    1    1    2    0    0  0.81229631763E+01  0.20594793290E+02 -0.22947576482E+02  0.31886036251E+02  0.00000000000E+00 0.  1.
         11    1    3    3    0    0 -0.12434057571E+02 -0.27398911200E+02  0.32701735124E+01  0.30265494506E+02  0.51100000000E-03 0.  1.
        -11    1    3    3    0    0  0.66363084062E+01  0.15041120992E+01  0.21826575137E+02  0.22862684115E+02  0.51100000000E-03 0. -1.
        -12    1    3    3    0    0 -0.23252140119E+01  0.53000058108E+01 -0.21491721676E+01  0.61737851276E+01  0.00000000000E+00 0.  1.
</event>
<event>
 7    1  0.1052674E-011  0.5930195E+02  0.7816164E-02  0.1266605E+00
        -11   -1    0    0    0    0  0.00000000000E+00  0.00000000000E+00  0.45593999997E+02  0.45594000000E+02  0.51100000000E-03 0. -1.
         11   -1    0    0    0    0 -0.00000000000E+00 -0.00000000000E+00 -0.45593999997E+02  0.45594000000E+02  0.51100000000E-03 0.  1.
    9900012    2    1    2    0    0 -0.29755863382E+02  0.22427724414E+01  0.11237384860E+02  0.59301948938E+02  0.50000008956E+02 0.  0.
        -12    1    1    2    0    0  0.29755863382E+02 -0.22427724414E+01 -0.11237384860E+02  0.31886051062E+02  0.00000000000E+00 0.  1.
         11    1    3    3    0    0 -0.24949320823E+02  0.72278787600E+01  0.88836850425E+01  0.27452335075E+02  0.51100000000E-03 0. -1.
        -11    1    3    3    0    0 -0.33321157877E+01 -0.18168124719E+02  0.20069207112E+01  0.18579867664E+02  0.51100000000E-03 0.  1.
        -12    1    3    3    0    0 -0.14744267714E+01  0.13183018400E+02  0.34677910639E+00  0.13269746199E+02  0.00000000000E+00 0.  1.
</event>
<event>
 7    1  0.1052674E-011  0.5930194E+02  0.7816164E-02  0.1266605E+00
        -11   -1    0    0    0    0  0.00000000000E+00  0.00000000000E+00  0.45593999997E+02  0.45594000000E+02  0.51100000000E-03 0.  1.
         11   -1    0    0    0    0 -0.00000000000E+00 -0.00000000000E+00 -0.45593999997E+02  0.45594000000E+02  0.51100000000E-03 0. -1.
    9900012    2    1    2    0    0 -0.11856828962E+02 -0.24649367746E+02 -0.16387339569E+02  0.59301943150E+02  0.49999998398E+02 0.  0.
        -12    1    1    2    0    0  0.11856828962E+02  0.24649367746E+02  0.16387339569E+02  0.31886056850E+02  0.00000000000E+00 0.  1.
         11    1    3    3    0    0  0.14405168992E+02 -0.23770438647E+02 -0.34014329662E+01  0.28002006958E+02  0.51100000000E-03 0. -1.
        -11    1    3    3    0    0 -0.26121546171E+02 -0.29976102050E+01 -0.12540098755E+02  0.29130309273E+02  0.51100000000E-03 0.  1.
         12    1    3    3    0    0 -0.14045178376E+00  0.21186811058E+01 -0.44580784824E+00  0.21696269194E+01  0.00000000000E+00 0. -1.
</event>
<event>
 7    1  0.1052674E-011  0.5930196E+02  0.7816164E-02  0.1266605E+00
        -11   -1    0    0    0    0  0.00000000000E+00  0.00000000000E+00  0.45593999997E+02  0.45594000000E+02  0.51100000000E-03 0. -1.
         11   -1    0    0    0    0 -0.00000000000E+00 -0.00000000000E+00 -0.45593999997E+02  0.45594000000E+02  0.51100000000E-03 0.  1.
    9900012    2    1    2    0    0 -0.82714704117E+01  0.10950008023E+02  0.28781932458E+02  0.59301960194E+02  0.50000029484E+02 0.  0.
        -12    1    1    2    0    0  0.82714704117E+01 -0.10950008023E+02 -0.28781932458E+02  0.31886039806E+02  0.00000000000E+00 0.  1.
         11    1    3    3    0    0  0.52997471725E+01 -0.91981817488E+01 -0.48949402985E+01  0.11689923369E+02  0.51100000000E-03 0. -1.
        -11    1    3    3    0    0 -0.63293419117E+01  0.20412188262E+02  0.11473733922E+02  0.24256227428E+02  0.51100000000E-03 0.  1.
        -12    1    3    3    0    0 -0.72418756725E+01 -0.26399849103E+00  0.22203138835E+02  0.23355809397E+02  0.00000000000E+00 0.  1.
</event>
<event>
 7    1  0.1052674E-011  0.5930194E+02  0.7816164E-02  0.1266605E+00
        -11   -1    0    0    0    0  0.00000000000E+00  0.00000000000E+00  0.45593999997E+02  0.45594000000E+02  0.51100000000E-03 0. -1.
         11   -1    0    0    0    0 -0.00000000000E+00 -0.00000000000E+00 -0.45593999997E+02  0.45594000000E+02  0.51100000000E-03 0.  1.
    9900012    2    1    2    0    0  0.13436173296E+02  0.14465726333E+02  0.25038629970E+02  0.59301937497E+02  0.49999988089E+02 0.  0.
        -12    1    1    2    0    0 -0.13436173296E+02 -0.14465726333E+02 -0.25038629970E+02  0.31886062503E+02  0.00000000000E+00 0.  1.
         11    1    3    3    0    0  0.11454652728E+02  0.16669774013E+02  0.34940014144E+02  0.40371958379E+02  0.51100000000E-03 0. -1.
        -11    1    3    3    0    0  0.66168404536E+01 -0.56081665247E+01 -0.99221921535E+01  0.13178922822E+02  0.51100000000E-03 0.  1.
         12    1    3    3    0    0 -0.46353198847E+01  0.34041188443E+01  0.20807980046E-01  0.57510562953E+01  0.00000000000E+00 0. -1.
</event>
<event>
 7    1  0.1052674E-011  0.5930194E+02  0.7816164E-02  0.1266605E+00
        -11   -1    0    0    0    0  0.00000000000E+00  0.00000000000E+00  0.45593999997E+02  0.45594000000E+02  0.51100000000E-03 0.  1.
         11   -1    0    0    0    0 -0.00000000000E+00 -0.00000000000E+00 -0.45593999997E+02  0.45594000000E+02  0.51100000000E-03 0. -1.
    9900012    2    1    2    0    0  0.60775388457E+01 -0.15348546855E+01 -0.31263858837E+02  0.59301935227E+02  0.49999983950E+02 0.  0.
        -12    1    1    2    0    0 -0.60775388457E+01  0.15348546855E+01  0.31263858837E+02  0.31886064773E+02  0.00000000000E+00 0.  1.
         11    1    3    3    0    0 -0.65646142026E+01  0.83906469388E+01  0.40907399291E+01  0.11411891566E+02  0.51100000000E-03 0. -1.
        -11    1    3    3    0    0  0.19182702681E+02  0.13198969318E+01 -0.19570139569E+02  0.27435534860E+02  0.51100000000E-03 0.  1.
         12    1    3    3    0    0 -0.65405496325E+01 -0.11245398556E+02 -0.15784459196E+02  0.20454508801E+02  0.00000000000E+00 0. -1.
</event>
<event>
 7    1  0.1052674E-011  0.5930193E+02  0.7816164E-02  0.1266605E+00
        -11   -1    0    0    0    0  0.00000000000E+00  0.00000000000E+00  0.45593999997E+02  0.45594000000E+02  0.51100000000E-03 0.  1.
         11   -1    0    0    0    0 -0.00000000000E+00 -0.00000000000E+00 -0.45593999997E+02  0.45594000000E+02  0.51100000000E-03 0. -1.
    9900012    2    1    2    0    0  0.17968733893E+02  0.10107259689E+02 -0.24324662343E+02  0.59301932600E+02  0.49999979159E+02 0.  0.
        -12    1    1    2    0    0 -0.17968733893E+02 -0.10107259689E+02  0.24324662343E+02  0.31886067400E+02  0.00000000000E+00 0.  1.
         11    1    3    3    0    0  0.17931453052E+02  0.17712114015E+02 -0.23597791285E+02  0.34526971272E+02  0.51100000000E-03 0. -1.
        -11    1    3    3    0    0 -0.84157823677E+01 -0.30889740637E+01  0.78483642530E+01  0.11914863631E+02  0.51100000000E-03 0.  1.
        -12    1    3    3    0    0  0.84530632084E+01 -0.45158802624E+01 -0.85752353110E+01  0.12860097698E+02  0.00000000000E+00 0.  1.
</event>
<event>
 7    1  0.1052674E-011  0.5930196E+02  0.7816164E-02  0.1266605E+00
        -11   -1    0    0    0    0  0.00000000000E+00  0.00000000000E+00  0.45593999997E+02  0.45594000000E+02  0.51100000000E-03 0.  1.
         11   -1    0    0    0    0 -0.00000000000E+00 -0.00000000000E+00 -0.45593999997E+02  0.45594000000E+02  0.51100000000E-03 0. -1.
    9900012    2    1    2    0    0  0.25409335520E+02  0.16812368347E+02 -0.94036975003E+01  0.59301959361E+02  0.50000027964E+02 0.  0.
        -12    1    1    2    0    0 -0.25409335520E+02 -0.16812368347E+02  0.94036975003E+01  0.31886040639E+02  0.00000000000E+00 0.  1.
         11    1    3    3    0    0  0.28019679458E+02  0.10909972117E+02  0.36569154811E+01  0.30290311316E+02  0.51100000000E-03 0. -1.
        -11    1    3    3    0    0 -0.12123982448E+02  0.94934854800E+01 -0.55436686011E+01  0.16366107625E+02  0.51100000000E-03 0.  1.
        -12    1    3    3    0    0  0.95136385101E+01 -0.35910892498E+01 -0.75169443804E+01  0.12645540420E+02  0.00000000000E+00 0.  1.
</event>
<event>
 7    1  0.1052674E-011  0.5930194E+02  0.7816164E-02  0.1266605E+00
        -11   -1    0    0    0    0  0.00000000000E+00  0.00000000000E+00  0.45593999997E+02  0.45594000000E+02  0.51100000000E-03 0. -1.
         11   -1    0    0    0    0 -0.00000000000E+00 -0.00000000000E+00 -0.45593999997E+02  0.45594000000E+02  0.51100000000E-03 0.  1.
    9900012    2    1    2    0    0  0.62454892422E+01 -0.21614505965E+02  0.22594868295E+02  0.59301936003E+02  0.49999985364E+02 0.  0.
        -12    1    1    2    0    0 -0.62454892422E+01  0.21614505965E+02 -0.22594868295E+02  0.31886063997E+02  0.00000000000E+00 0.  1.
         11    1    3    3    0    0  0.42034308151E+00  0.37615421053E+01  0.11298218940E+02  0.11915353071E+02  0.51100000000E-03 0. -1.
        -11    1    3    3    0    0  0.18733644154E+02 -0.26787787176E+02  0.10670748809E+02  0.34386041434E+02  0.51100000000E-03 0.  1.
        -12    1    3    3    0    0 -0.12908497993E+02  0.14117391060E+01  0.62590054527E+00  0.13000541498E+02  0.00000000000E+00 0.  1.
</event>
<event>
 7    1  0.1052674E-011  0.5930193E+02  0.7816164E-02  0.1266605E+00
        -11   -1    0    0    0    0  0.00000000000E+00  0.00000000000E+00  0.45593999997E+02  0.45594000000E+02  0.51100000000E-03 0.  1.
         11   -1    0    0    0    0 -0.00000000000E+00 -0.00000000000E+00 -0.45593999997E+02  0.45594000000E+02  0.51100000000E-03 0. -1.
    9900012    2    1    2    0    0  0.10751335790E+02  0.19485739031E+02 -0.22834975283E+02  0.59301931835E+02  0.49999977764E+02 0.  0.
        -12    1    1    2    0    0 -0.10751335790E+02 -0.19485739031E+02  0.22834975283E+02  0.31886068165E+02  0.00000000000E+00 0.  1.
         11    1    3    3    0    0 -0.46615795402E+01  0.24311715114E+02 -0.17609674664E+01  0.24817147747E+02  0.51100000000E-03 0. -1.
        -11    1    3    3    0    0  0.38692917620E+01 -0.23571872007E+01  0.44578079034E+01  0.63560838417E+01  0.51100000000E-03 0.  1.
         12    1    3    3    0    0  0.11543623568E+02 -0.24687888832E+01 -0.25531815720E+02  0.28128700247E+02  0.00000000000E+00 0. -1.
</event>
<event>
 7    1  0.1052674E-011  0.5930194E+02  0.7816164E-02  0.1266605E+00
        -11   -1    0    0    0    0  0.00000000000E+00  0.00000000000E+00  0.45593999997E+02  0.45594000000E+02  0.51100000000E-03 0.  1.
         11   -1    0    0    0    0 -0.00000000000E+00 -0.00000000000E+00 -0.45593999997E+02  0.45594000000E+02  0.51100000000E-03 0. -1.
    9900012    2    1    2    0    0 -0.83321121961E+01  0.30687027919E+02 -0.23670929842E+01  0.59301938698E+02  0.49999990280E+02 0.  0.
        -12    1    1    2    0    0  0.83321121961E+01 -0.30687027919E+02  0.23670929842E+01  0.31886061302E+02  0.00000000000E+00 0.  1.
         11    1    3    3    0    0  0.15032624593E+02  0.18258508618E+02 -0.55326811130E+01  0.24289164244E+02  0.51100000000E-03 0. -1.
        -11    1    3    3    0    0 -0.13584309088E+02  0.17883584938E+02  0.64075871180E+01  0.23354083938E+02  0.51100000000E-03 0.  1.
        -12    1    3    3    0    0 -0.97804277009E+01 -0.54550656368E+01 -0.32419989892E+01  0.11658690517E+02  0.00000000000E+00 0.  1.
</event>
<event>
 7    1  0.1052674E-011  0.5930195E+02  0.7816164E-02  0.1266605E+00
        -11   -1    0    0    0    0  0.00000000000E+00  0.00000000000E+00  0.45593999997E+02  0.45594000000E+02  0.51100000000E-03 0.  1.
         11   -1    0    0    0    0 -0.00000000000E+00 -0.00000000000E+00 -0.45593999997E+02  0.45594000000E+02  0.51100000000E-03 0. -1.
    9900012    2    1    2    0    0  0.20225090258E+02  0.33431522886E+01 -0.24423123271E+02  0.59301954565E+02  0.50000019217E+02 0.  0.
        -12    1    1    2    0    0 -0.20225090258E+02 -0.33431522886E+01  0.24423123271E+02  0.31886045435E+02  0.00000000000E+00 0.  1.
         11    1    3    3    0    0  0.69537834763E+01  0.33839246906E+01  0.40991531720E+01  0.87526629054E+01  0.51100000000E-03 0. -1.
        -11    1    3    3    0    0 -0.12863811048E+02 -0.32231671787E+00 -0.18547113203E+02  0.22573810737E+02  0.51100000000E-03 0.  1.
        -12    1    3    3    0    0  0.26135117830E+02  0.28154431593E+00 -0.99751632404E+01  0.27975480923E+02  0.00000000000E+00 0.  1.
</event>
<event>
 7    1  0.1052674E-011  0.5930192E+02  0.7816164E-02  0.1266605E+00
        -11   -1    0    0    0    0  0.00000000000E+00  0.00000000000E+00  0.45593999997E+02  0.45594000000E+02  0.51100000000E-03 0. -1.
         11   -1    0    0    0    0 -0.00000000000E+00 -0.00000000000E+00 -0.45593999997E+02  0.45594000000E+02  0.51100000000E-03 0.  1.
    9900012    2    1    2    0    0 -0.64481471272E+01 -0.62000430868E+01  0.30605603376E+02  0.59301920064E+02  0.49999956297E+02 0.  0.
        -12    1    1    2    0    0  0.64481471272E+01  0.62000430868E+01 -0.30605603376E+02  0.31886079936E+02  0.00000000000E+00 0.  1.
         11    1    3    3    0    0  0.64355225378E+01 -0.16306900585E+02  0.31032938931E+02  0.35642309914E+02  0.51100000000E-03 0. -1.
        -11    1    3    3    0    0  0.22164959094E+01  0.42140254612E+01 -0.49124412280E+01  0.68412677030E+01  0.51100000000E-03 0.  1.
         12    1    3    3    0    0 -0.15100165574E+02  0.58928320371E+01  0.44851056729E+01  0.16818342448E+02  0.00000000000E+00 0. -1.
</event>
<event>
 7    1  0.1052674E-011  0.5930209E+02  0.7816164E-02  0.1266604E+00
        -11   -1    0    0    0    0  0.00000000000E+00  0.00000000000E+00  0.45593999997E+02  0.45594000000E+02  0.51100000000E-03 0. -1.
         11   -1    0    0    0    0 -0.00000000000E+00 -0.00000000000E+00 -0.45593999997E+02  0.45594000000E+02  0.51100000000E-03 0.  1.
    9900012    2    1    2    0    0 -0.19262535147E+02  0.11983426045E+02  0.22406770093E+02  0.59302092359E+02  0.50000270520E+02 0.  0.
        -12    1    1    2    0    0  0.19262535147E+02 -0.11983426045E+02 -0.22406770093E+02  0.31885907641E+02  0.00000000000E+00 0.  1.
         11    1    3    3    0    0 -0.94390579812E+01  0.11399458645E+02  0.30084974916E+02  0.33528334121E+02  0.51100000000E-03 0. -1.
        -11    1    3    3    0    0 -0.15433376477E+02  0.56181765081E+01 -0.24627411963E+01  0.16607772614E+02  0.51100000000E-03 0.  1.
         12    1    3    3    0    0  0.56098993104E+01 -0.50342091088E+01 -0.52154636264E+01  0.91659856242E+01  0.00000000000E+00 0. -1.
</event>
<event>
 7    1  0.1052674E-011  0.5930194E+02  0.7816164E-02  0.1266605E+00
        -11   -1    0    0    0    0  0.00000000000E+00  0.00000000000E+00  0.45593999997E+02  0.45594000000E+02  0.51100000000E-03 0. -1.
         11   -1    0    0    0    0 -0.00000000000E+00 -0.00000000000E+00 -0.45593999997E+02  0.45594000000E+02  0.51100000000E-03 0.  1.
    9900012    2    1    2    0    0 -0.13593619880E+02  0.28822749839E+02 -0.10877967487E+01  0.59301941738E+02  0.49999995824E+02 0.  0.
        -12    1    1    2    0    0  0.13593619880E+02 -0.28822749839E+02  0.10877967487E+01  0.31886058262E+02  0.00000000000E+00 0.  1.
         11    1    3    3    0    0 -0.10087949031E+02  0.11621769362E+02  0.16106691522E+02  0.22276843376E+02  0.51100000000E-03 0. -1.
        -11    1    3    3    0    0 -0.99967461764E+01  0.21674417213E+02 -0.86202167202E+01  0.25377616756E+02  0.51100000000E-03 0.  1.
         12    1    3    3    0    0  0.64910753278E+01 -0.44734367363E+01 -0.85742715504E+01  0.11647481606E+02  0.00000000000E+00 0. -1.
</event>
<event>
 7    1  0.1052674E-011  0.5930193E+02  0.7816164E-02  0.1266605E+00
        -11   -1    0    0    0    0  0.00000000000E+00  0.00000000000E+00  0.45593999997E+02  0.45594000000E+02  0.51100000000E-03 0. -1.
         11   -1    0    0    0    0 -0.00000000000E+00 -0.00000000000E+00 -0.45593999997E+02  0.45594000000E+02  0.51100000000E-03 0.  1.
    9900012    2    1    2    0    0 -0.10121515701E+02 -0.19195292380E+02  0.23362728607E+02  0.59301930665E+02  0.49999975630E+02 0.  0.
        -12    1    1    2    0    0  0.10121515701E+02  0.19195292380E+02 -0.23362728607E+02  0.31886069335E+02  0.00000000000E+00 0.  1.
         11    1    3    3    0    0 -0.48653594101E+01 -0.10873413876E+02  0.14588290894E+02  0.18834040537E+02  0.51100000000E-03 0. -1.
        -11    1    3    3    0    0 -0.62346995972E+01 -0.78734766094E+01 -0.14241654780E+02  0.17426641791E+02  0.51100000000E-03 0.  1.
        -12    1    3    3    0    0  0.97854330628E+00 -0.44840189480E+00  0.23016092493E+02  0.23041248337E+02  0.00000000000E+00 0.  1.
</event>
<event>
 7    1  0.1052674E-011  0.5930193E+02  0.7816164E-02  0.1266605E+00
        -11   -1    0    0    0    0  0.00000000000E+00  0.00000000000E+00  0.45593999997E+02  0.45594000000E+02  0.51100000000E-03 0.  1.
         11   -1    0    0    0    0 -0.00000000000E+00 -0.00000000000E+00 -0.45593999997E+02  0.45594000000E+02  0.51100000000E-03 0. -1.
    9900012    2    1    2    0    0  0.19412168182E+02 -0.19990100631E+02 -0.15501132419E+02  0.59301929326E+02  0.49999973187E+02 0.  0.
        -12    1    1    2    0    0 -0.19412168182E+02  0.19990100631E+02  0.15501132419E+02  0.31886070674E+02  0.00000000000E+00 0.  1.
         11    1    3    3    0    0 -0.15749857238E+02 -0.11034523809E+02 -0.97151480104E+01  0.21545366551E+02  0.51100000000E-03 0. -1.
        -11    1    3    3    0    0  0.14929961077E+02 -0.24681664411E+01 -0.65656305694E+01  0.16495547532E+02  0.51100000000E-03 0.  1.
        -12    1    3    3    0    0  0.20232064342E+02 -0.64874103812E+01  0.77964616106E+00  0.21261015243E+02  0.00000000000E+00 0.  1.
</event>
<event>
 7    1  0.1052674E-011  0.5930193E+02  0.7816164E-02  0.1266605E+00
        -11   -1    0    0    0    0  0.00000000000E+00  0.00000000000E+00  0.45593999997E+02  0.45594000000E+02  0.51100000000E-03 0.  1.
         11   -1    0    0    0    0 -0.00000000000E+00 -0.00000000000E+00 -0.45593999997E+02  0.45594000000E+02  0.51100000000E-03 0. -1.
    9900012    2    1    2    0    0  0.13688184547E+02 -0.27230369195E+02 -0.93734622922E+01  0.59301934108E+02  0.49999981909E+02 0.  0.
        -12    1    1    2    0    0 -0.13688184547E+02  0.27230369195E+02  0.93734622922E+01  0.31886065892E+02  0.00000000000E+00 0.  1.
         11    1    3    3    0    0  0.24847464976E+02 -0.98270419552E+01  0.11387327747E+02  0.29045455803E+02  0.51100000000E-03 0. -1.
        -11    1    3    3    0    0 -0.75254065608E+01 -0.56188578437E+01 -0.66009335632E+01  0.11479356756E+02  0.51100000000E-03 0.  1.
         12    1    3    3    0    0 -0.36338738682E+01 -0.11784469396E+02 -0.14159856476E+02  0.18777121549E+02  0.00000000000E+00 0. -1.
</event>
<event>
 7    1  0.1052674E-011  0.5930194E+02  0.7816164E-02  0.1266605E+00
        -11   -1    0    0    0    0  0.00000000000E+00  0.00000000000E+00  0.45593999997E+02  0.45594000000E+02  0.51100000000E-03 0.  1.
         11   -1    0    0    0    0 -0.00000000000E+00 -0.00000000000E+00 -0.45593999997E+02  0.45594000000E+02  0.51100000000E-03 0. -1.
    9900012    2    1    2    0    0  0.27233836641E+02 -0.15030034079E+02 -0.70097896023E+01  0.59301938267E+02  0.49999989493E+02 0.  0.
        -12    1    1    2    0    0 -0.27233836641E+02  0.15030034079E+02  0.70097896023E+01  0.31886061733E+02  0.00000000000E+00 0.  1.
         11    1    3    3    0    0 -0.59653233689E+01  0.94496865932E+01 -0.53088499330E+01  0.12371966193E+02  0.51100000000E-03 0. -1.
        -11    1    3    3    0    0  0.32520328407E+02 -0.26833747173E+02  0.23153926373E+01  0.42225380879E+02  0.51100000000E-03 0.  1.
        -12    1    3    3    0    0  0.67883160244E+00  0.23540265009E+01 -0.40163323066E+01  0.47045911946E+01  0.00000000000E+00 0.  1.
</event>
<event>
 7    1  0.1052674E-011  0.5930194E+02  0.7816164E-02  0.1266605E+00
        -11   -1    0    0    0    0  0.00000000000E+00  0.00000000000E+00  0.45593999997E+02  0.45594000000E+02  0.51100000000E-03 0.  1.
         11   -1    0    0    0    0 -0.00000000000E+00 -0.00000000000E+00 -0.45593999997E+02  0.45594000000E+02  0.51100000000E-03 0. -1.
    9900012    2    1    2    0    0 -0.66812676602E+01  0.14745286561E+02 -0.27471034555E+02  0.59301944226E+02  0.50000000361E+02 0.  0.
        -12    1    1    2    0    0  0.66812676602E+01 -0.14745286561E+02  0.27471034555E+02  0.31886055774E+02  0.00000000000E+00 0.  1.
         11    1    3    3    0    0 -0.57618334391E+01  0.45583106023E+01 -0.19421325433E+02  0.20764508228E+02  0.51100000000E-03 0. -1.
        -11    1    3    3    0    0 -0.11808611660E+02  0.15166040587E+02  0.59450628402E+01  0.20119539479E+02  0.51100000000E-03 0.  1.
        -12    1    3    3    0    0  0.10889177439E+02 -0.49790646286E+01 -0.13994771962E+02  0.18417896518E+02  0.00000000000E+00 0.  1.
</event>
<event>
 7    1  0.1052674E-011  0.5930193E+02  0.7816164E-02  0.1266605E+00
        -11   -1    0    0    0    0  0.00000000000E+00  0.00000000000E+00  0.45593999997E+02  0.45594000000E+02  0.51100000000E-03 0. -1.
         11   -1    0    0    0    0 -0.00000000000E+00 -0.00000000000E+00 -0.45593999997E+02  0.45594000000E+02  0.51100000000E-03 0.  1.
    9900012    2    1    2    0    0 -0.14017853487E+02  0.10174264038E+02  0.26771356691E+02  0.59301930876E+02  0.49999976014E+02 0.  0.
        -12    1    1    2    0    0  0.14017853487E+02 -0.10174264038E+02 -0.26771356691E+02  0.31886069124E+02  0.00000000000E+00 0.  1.
         11    1    3    3    0    0 -0.16234585321E+02 -0.90745300775E+01  0.31981904337E+02  0.36996635819E+02  0.51100000000E-03 0. -1.
        -11    1    3    3    0    0  0.33808125788E+01  0.88284780951E+01  0.18918209370E+01  0.96411050138E+01  0.51100000000E-03 0.  1.
         12    1    3    3    0    0 -0.11640807454E+01  0.10420316020E+02 -0.71023685827E+01  0.12664190043E+02  0.00000000000E+00 0. -1.
</event>
<event>
 7    1  0.1052674E-011  0.5930188E+02  0.7816164E-02  0.1266605E+00
        -11   -1    0    0    0    0  0.00000000000E+00  0.00000000000E+00  0.45593999997E+02  0.45594000000E+02  0.51100000000E-03 0.  1.
         11   -1    0    0    0    0 -0.00000000000E+00 -0.00000000000E+00 -0.45593999997E+02  0.45594000000E+02  0.51100000000E-03 0. -1.
    9900012    2    1    2    0    0  0.31093299556E+02  0.50468435527E+01  0.49457804252E+01  0.59301879961E+02  0.49999883157E+02 0.  0.
        -12    1    1    2    0    0 -0.31093299556E+02 -0.50468435527E+01 -0.49457804252E+01  0.31886120039E+02  0.00000000000E+00 0.  1.
         11    1    3    3    0    0  0.10935542505E+02  0.11042698098E+01 -0.11511134267E+02  0.15915769352E+02  0.51100000000E-03 0. -1.
        -11    1    3    3    0    0  0.84560858573E+01 -0.15336619838E+02  0.85378816082E+01  0.19483652601E+02  0.51100000000E-03 0.  1.
        -12    1    3    3    0    0  0.11701671194E+02  0.19279193580E+02  0.79190330837E+01  0.23902458008E+02  0.00000000000E+00 0.  1.
</event>
<event>
 7    1  0.1052674E-011  0.5930193E+02  0.7816164E-02  0.1266605E+00
        -11   -1    0    0    0    0  0.00000000000E+00  0.00000000000E+00  0.45593999997E+02  0.45594000000E+02  0.51100000000E-03 0. -1.
         11   -1    0    0    0    0 -0.00000000000E+00 -0.00000000000E+00 -0.45593999997E+02  0.45594000000E+02  0.51100000000E-03 0.  1.
    9900012    2    1    2    0    0  0.23591597940E+02 -0.59735922395E+01  0.20602765500E+02  0.59301933390E+02  0.49999980599E+02 0.  0.
        -12    1    1    2    0    0 -0.23591597940E+02  0.59735922395E+01 -0.20602765500E+02  0.31886066610E+02  0.00000000000E+00 0.  1.
         11    1    3    3    0    0  0.25451073674E+02  0.13208728811E+02  0.10247331246E+02  0.30450541307E+02  0.51100000000E-03 0. -1.
        -11    1    3    3    0    0  0.15782905784E+01 -0.19277077514E+02  0.13972330523E+02  0.23860484889E+02  0.51100000000E-03 0.  1.
         12    1    3    3    0    0 -0.34377663117E+01  0.94756463965E-01 -0.36168962688E+01  0.49909071941E+01  0.00000000000E+00 0. -1.
</event>
<event>
 7    1  0.1052674E-011  0.5930190E+02  0.7816164E-02  0.1266605E+00
        -11   -1    0    0    0    0  0.00000000000E+00  0.00000000000E+00  0.45593999997E+02  0.45594000000E+02  0.51100000000E-03 0. -1.
         11   -1    0    0    0    0 -0.00000000000E+00 -0.00000000000E+00 -0.45593999997E+02  0.45594000000E+02  0.51100000000E-03 0.  1.
    9900012    2    1    2    0    0 -0.15858686651E+02 -0.60004907627E+01  0.27004062813E+02  0.59301902087E+02  0.49999923510E+02 0.  0.
        -12    1    1    2    0    0  0.15858686651E+02  0.60004907627E+01 -0.27004062813E+02  0.31886097913E+02  0.00000000000E+00 0.  1.
         11    1    3    3    0    0 -0.24535752690E+02  0.25766672437E+01  0.16633315766E+02  0.29754152109E+02  0.51100000000E-03 0. -1.
        -11    1    3    3    0    0  0.35431354049E+01  0.66066720682E+01 -0.35715401565E+01  0.83040847578E+01  0.51100000000E-03 0.  1.
         12    1    3    3    0    0  0.51339306342E+01 -0.15183830075E+02  0.13942287204E+02  0.21243665220E+02  0.00000000000E+00 0. -1.
</event>
<event>
 7    1  0.1052674E-011  0.5930194E+02  0.7816164E-02  0.1266605E+00
        -11   -1    0    0    0    0  0.00000000000E+00  0.00000000000E+00  0.45593999997E+02  0.45594000000E+02  0.51100000000E-03 0.  1.
         11   -1    0    0    0    0 -0.00000000000E+00 -0.00000000000E+00 -0.45593999997E+02  0.45594000000E+02  0.51100000000E-03 0. -1.
    9900012    2    1    2    0    0  0.30772468309E+00 -0.15820445258E+02 -0.27682842828E+02  0.59301937689E+02  0.49999988440E+02 0.  0.
        -12    1    1    2    0    0 -0.30772468309E+00  0.15820445258E+02  0.27682842828E+02  0.31886062311E+02  0.00000000000E+00 0.  1.
         11    1    3    3    0    0  0.14132348996E+02 -0.16903988192E+02  0.18352152186E+01  0.22109638624E+02  0.51100000000E-03 0. -1.
        -11    1    3    3    0    0 -0.12605064434E+02  0.82788084531E+01 -0.17202934917E+02  0.22877222052E+02  0.51100000000E-03 0.  1.
        -12    1    3    3    0    0 -0.12195598790E+01 -0.71952655197E+01 -0.12315123130E+02  0.14315077013E+02  0.00000000000E+00 0.  1.
</event>
<event>
 7    1  0.1143951E-011  0.5930195E+02  0.7816164E-02  0.1266605E+00
        -11   -1    0    0    0    0  0.00000000000E+00  0.00000000000E+00  0.45593999997E+02  0.45594000000E+02  0.51100000000E-03 0.  1.
         11   -1    0    0    0    0 -0.00000000000E+00 -0.00000000000E+00 -0.45593999997E+02  0.45594000000E+02  0.51100000000E-03 0. -1.
    9900012    2    1    2    0    0 -0.17660807378E+02  0.26349533815E+02 -0.32431965677E+01  0.59301947038E+02  0.50000005491E+02 0.  0.
        -12    1    1    2    0    0  0.17660807378E+02 -0.26349533815E+02  0.32431965677E+01  0.31886052962E+02  0.00000000000E+00 0.  1.
         11    1    3    3    0    0 -0.20315583091E+02  0.80800918055E+01 -0.11286021873E+02  0.24604574573E+02  0.51100000000E-03 0. -1.
        -11    1    3    3    0    0  0.13769775084E+02  0.12460917705E+02 -0.19345276424E+01  0.18671464146E+02  0.51100000000E-03 0.  1.
        -12    1    3    3    0    0 -0.11114999371E+02  0.58085243043E+01  0.99773529479E+01  0.16025908319E+02  0.00000000000E+00 0.  1.
</event>
<event>
 7    1  0.1052674E-011  0.5930194E+02  0.7816164E-02  0.1266605E+00
        -11   -1    0    0    0    0  0.00000000000E+00  0.00000000000E+00  0.45593999997E+02  0.45594000000E+02  0.51100000000E-03 0. -1.
         11   -1    0    0    0    0 -0.00000000000E+00 -0.00000000000E+00 -0.45593999997E+02  0.45594000000E+02  0.51100000000E-03 0.  1.
    9900012    2    1    2    0    0 -0.10955422383E+02 -0.10120661191E+02  0.28182824107E+02  0.59301942903E+02  0.49999997948E+02 0.  0.
        -12    1    1    2    0    0  0.10955422383E+02  0.10120661191E+02 -0.28182824107E+02  0.31886057097E+02  0.00000000000E+00 0.  1.
         11    1    3    3    0    0 -0.10282718111E+02 -0.12297345471E+02  0.10122671114E+02  0.18958572418E+02  0.51100000000E-03 0. -1.
        -11    1    3    3    0    0  0.17469247759E+02 -0.13397015761E+01  0.74905783745E+01  0.19054610524E+02  0.51100000000E-03 0.  1.
        -12    1    3    3    0    0 -0.18141952032E+02  0.35163858561E+01  0.10569574619E+02  0.21288759960E+02  0.00000000000E+00 0.  1.
</event>
<event>
 7    1  0.1052674E-011  0.5930194E+02  0.7816164E-02  0.1266605E+00
        -11   -1    0    0    0    0  0.00000000000E+00  0.00000000000E+00  0.45593999997E+02  0.45594000000E+02  0.51100000000E-03 0.  1.
         11   -1    0    0    0    0 -0.00000000000E+00 -0.00000000000E+00 -0.45593999997E+02  0.45594000000E+02  0.51100000000E-03 0. -1.
    9900012    2    1    2    0    0 -0.28298687905E+02  0.14599003462E+02  0.16656511866E+01  0.59301936695E+02  0.49999986627E+02 0.  0.
        -12    1    1    2    0    0  0.28298687905E+02 -0.14599003462E+02 -0.16656511866E+01  0.31886063305E+02  0.00000000000E+00 0.  1.
         11    1    3    3    0    0 -0.71862836822E+01  0.13920943658E+02 -0.17629583334E+02  0.23584688980E+02  0.51100000000E-03 0. -1.
        -11    1    3    3    0    0 -0.12637574550E+02  0.68712822041E+01  0.20615377093E+02  0.25137951042E+02  0.51100000000E-03 0.  1.
         12    1    3    3    0    0 -0.84748296725E+01 -0.61932224004E+01 -0.13201425723E+01  0.10579296673E+02  0.00000000000E+00 0. -1.
</event>
<event>
 7    1  0.1052674E-011  0.5930194E+02  0.7816164E-02  0.1266605E+00
        -11   -1    0    0    0    0  0.00000000000E+00  0.00000000000E+00  0.45593999997E+02  0.45594000000E+02  0.51100000000E-03 0.  1.
         11   -1    0    0    0    0 -0.00000000000E+00 -0.00000000000E+00 -0.45593999997E+02  0.45594000000E+02  0.51100000000E-03 0. -1.
    9900012    2    1    2    0    0 -0.20904553036E+02 -0.22748479969E+02 -0.78884077301E+01  0.59301942623E+02  0.49999997438E+02 0.  0.
        -12    1    1    2    0    0  0.20904553036E+02  0.22748479969E+02  0.78884077301E+01  0.31886057377E+02  0.00000000000E+00 0.  1.
         11    1    3    3    0    0  0.25421496861E+01 -0.22464308811E+02  0.10842542196E+02  0.25073260995E+02  0.51100000000E-03 0.  1.
        -11    1    3    3    0    0 -0.16407213852E+02 -0.76395530845E+01 -0.92888872441E+01  0.20343128182E+02  0.51100000000E-03 0. -1.
         12    1    3    3    0    0 -0.70394888700E+01  0.73553819264E+01 -0.94420626823E+01  0.13885553447E+02  0.00000000000E+00 0. -1.
</event>
<event>
 7    1  0.1052674E-011  0.5930196E+02  0.7816164E-02  0.1266605E+00
        -11   -1    0    0    0    0  0.00000000000E+00  0.00000000000E+00  0.45593999997E+02  0.45594000000E+02  0.51100000000E-03 0.  1.
         11   -1    0    0    0    0 -0.00000000000E+00 -0.00000000000E+00 -0.45593999997E+02  0.45594000000E+02  0.51100000000E-03 0. -1.
    9900012    2    1    2    0    0 -0.66745607765E+01 -0.30280673322E+02  0.74330687594E+01  0.59301961526E+02  0.50000031913E+02 0.  0.
        -12    1    1    2    0    0  0.66745607765E+01  0.30280673322E+02 -0.74330687594E+01  0.31886038474E+02  0.00000000000E+00 0.  1.
         11    1    3    3    0    0  0.61116006992E+00  0.12462976637E+02  0.24856636400E+01  0.12723121758E+02  0.51100000000E-03 0. -1.
        -11    1    3    3    0    0 -0.10480892629E+02 -0.28437209240E+02  0.85375156669E+01  0.31486713923E+02  0.51100000000E-03 0.  1.
        -12    1    3    3    0    0  0.31951717826E+01 -0.14306440719E+02 -0.35901105475E+01  0.15092125845E+02  0.00000000000E+00 0.  1.
</event>
<event>
 7    1  0.1052674E-011  0.5930194E+02  0.7816164E-02  0.1266605E+00
        -11   -1    0    0    0    0  0.00000000000E+00  0.00000000000E+00  0.45593999997E+02  0.45594000000E+02  0.51100000000E-03 0. -1.
         11   -1    0    0    0    0 -0.00000000000E+00 -0.00000000000E+00 -0.45593999997E+02  0.45594000000E+02  0.51100000000E-03 0.  1.
    9900012    2    1    2    0    0  0.24098507626E+02 -0.32096185938E+01  0.20632037472E+02  0.59301942050E+02  0.49999996394E+02 0.  0.
        -12    1    1    2    0    0 -0.24098507626E+02  0.32096185938E+01 -0.20632037472E+02  0.31886057950E+02  0.00000000000E+00 0.  1.
         11    1    3    3    0    0  0.19888177558E+02 -0.97364147897E+01  0.34585803665E+02  0.41067203398E+02  0.51100000000E-03 0. -1.
        -11    1    3    3    0    0 -0.25689234884E+01  0.20910948550E+01 -0.22645088432E+01  0.40124862796E+01  0.51100000000E-03 0.  1.
         12    1    3    3    0    0  0.67792535567E+01  0.44357013409E+01 -0.11689257350E+02  0.14222252373E+02  0.00000000000E+00 0. -1.
</event>
<event>
 7    1  0.1052674E-011  0.5930195E+02  0.7816164E-02  0.1266605E+00
        -11   -1    0    0    0    0  0.00000000000E+00  0.00000000000E+00  0.45593999997E+02  0.45594000000E+02  0.51100000000E-03 0.  1.
         11   -1    0    0    0    0 -0.00000000000E+00 -0.00000000000E+00 -0.45593999997E+02  0.45594000000E+02  0.51100000000E-03 0. -1.
    9900012    2    1    2    0    0 -0.11631074768E+02 -0.26829095265E+02 -0.12713699560E+02  0.59301946473E+02  0.50000004460E+02 0.  0.
        -12    1    1    2    0    0  0.11631074768E+02  0.26829095265E+02  0.12713699560E+02  0.31886053527E+02  0.00000000000E+00 0.  1.
         11    1    3    3    0    0 -0.42194175640E+00 -0.22899996559E+02 -0.11848870953E+02  0.25787276327E+02  0.51100000000E-03 0. -1.
        -11    1    3    3    0    0  0.71354218342E+01  0.62960869518E+01  0.61986188454E+01  0.11356840736E+02  0.51100000000E-03 0.  1.
        -12    1    3    3    0    0 -0.18344554846E+02 -0.10225185658E+02 -0.70634474530E+01  0.22157829410E+02  0.00000000000E+00 0.  1.
</event>
<event>
 7    1  0.1052674E-011  0.5930193E+02  0.7816164E-02  0.1266605E+00
        -11   -1    0    0    0    0  0.00000000000E+00  0.00000000000E+00  0.45593999997E+02  0.45594000000E+02  0.51100000000E-03 0. -1.
         11   -1    0    0    0    0 -0.00000000000E+00 -0.00000000000E+00 -0.45593999997E+02  0.45594000000E+02  0.51100000000E-03 0.  1.
    9900012    2    1    2    0    0 -0.22354659693E+02 -0.10043650414E+02  0.20398919051E+02  0.59301927460E+02  0.49999969784E+02 0.  0.
        -12    1    1    2    0    0  0.22354659693E+02  0.10043650414E+02 -0.20398919051E+02  0.31886072540E+02  0.00000000000E+00 0.  1.
         11    1    3    3    0    0  0.94797812143E+01 -0.10862334283E+02  0.22533548686E+02  0.26751025674E+02  0.51100000000E-03 0. -1.
        -11    1    3    3    0    0 -0.19547918794E+02 -0.24143061412E+01 -0.24087546167E+01  0.19843187808E+02  0.51100000000E-03 0.  1.
         12    1    3    3    0    0 -0.12286522114E+02  0.32329900100E+01  0.27412498112E+00  0.12707713978E+02  0.00000000000E+00 0. -1.
</event>
<event>
 7    1  0.1052674E-011  0.5930194E+02  0.7816164E-02  0.1266605E+00
        -11   -1    0    0    0    0  0.00000000000E+00  0.00000000000E+00  0.45593999997E+02  0.45594000000E+02  0.51100000000E-03 0. -1.
         11   -1    0    0    0    0 -0.00000000000E+00 -0.00000000000E+00 -0.45593999997E+02  0.45594000000E+02  0.51100000000E-03 0.  1.
    9900012    2    1    2    0    0  0.22258062395E+02 -0.19518114158E+02  0.11846635273E+02  0.59301938952E+02  0.49999990743E+02 0.  0.
        -12    1    1    2    0    0 -0.22258062395E+02  0.19518114158E+02 -0.11846635273E+02  0.31886061048E+02  0.00000000000E+00 0.  1.
         11    1    3    3    0    0  0.86517372140E+01 -0.43019557884E+01  0.18138728431E+02  0.20551711602E+02  0.51100000000E-03 0. -1.
        -11    1    3    3    0    0  0.16745332649E+02 -0.21514087271E+02 -0.11905199808E+02  0.29748880640E+02  0.51100000000E-03 0.  1.
        -12    1    3    3    0    0 -0.31390074679E+01  0.62979289009E+01  0.56131066502E+01  0.90013467098E+01  0.00000000000E+00 0.  1.
</event>
<event>
 7    1  0.1052674E-011  0.5930193E+02  0.7816164E-02  0.1266605E+00
        -11   -1    0    0    0    0  0.00000000000E+00  0.00000000000E+00  0.45593999997E+02  0.45594000000E+02  0.51100000000E-03 0. -1.
         11   -1    0    0    0    0 -0.00000000000E+00 -0.00000000000E+00 -0.45593999997E+02  0.45594000000E+02  0.51100000000E-03 0.  1.
    9900012    2    1    2    0    0  0.11125908912E+02 -0.25734564529E+02  0.15187742869E+02  0.59301934171E+02  0.49999982023E+02 0.  0.
        -12    1    1    2    0    0 -0.11125908912E+02  0.25734564529E+02 -0.15187742869E+02  0.31886065829E+02  0.00000000000E+00 0.  1.
         11    1    3    3    0    0  0.26054904489E+02 -0.25891083940E+02  0.60401001004E+01  0.37224844996E+02  0.51100000000E-03 0. -1.
        -11    1    3    3    0    0 -0.20964534659E+01  0.44009585291E+01 -0.12403381538E+01  0.50301085581E+01  0.51100000000E-03 0.  1.
         12    1    3    3    0    0 -0.12832542112E+02 -0.42444391182E+01  0.10387980923E+02  0.17046980616E+02  0.00000000000E+00 0. -1.
</event>
<event>
 7    1  0.1052674E-011  0.5930191E+02  0.7816164E-02  0.1266605E+00
        -11   -1    0    0    0    0  0.00000000000E+00  0.00000000000E+00  0.45593999997E+02  0.45594000000E+02  0.51100000000E-03 0. -1.
         11   -1    0    0    0    0 -0.00000000000E+00 -0.00000000000E+00 -0.45593999997E+02  0.45594000000E+02  0.51100000000E-03 0.  1.
    9900012    2    1    2    0    0  0.16406244728E+02  0.17747810860E+02  0.20798385330E+02  0.59301913869E+02  0.49999944998E+02 0.  0.
        -12    1    1    2    0    0 -0.16406244728E+02 -0.17747810860E+02 -0.20798385330E+02  0.31886086131E+02  0.00000000000E+00 0.  1.
         11    1    3    3    0    0  0.92875161011E+01 -0.21470861473E+01  0.37370757184E+01  0.10238831449E+02  0.51100000000E-03 0. -1.
        -11    1    3    3    0    0  0.69326881980E+01  0.29140430256E+02  0.34071674338E+00  0.29955682755E+02  0.51100000000E-03 0.  1.
        -12    1    3    3    0    0  0.18604042851E+00 -0.92455332486E+01  0.16720592868E+02  0.19107399665E+02  0.00000000000E+00 0.  1.
</event>
<event>
 7    1  0.1052674E-011  0.5930191E+02  0.7816164E-02  0.1266605E+00
        -11   -1    0    0    0    0  0.00000000000E+00  0.00000000000E+00  0.45593999997E+02  0.45594000000E+02  0.51100000000E-03 0.  1.
         11   -1    0    0    0    0 -0.00000000000E+00 -0.00000000000E+00 -0.45593999997E+02  0.45594000000E+02  0.51100000000E-03 0. -1.
    9900012    2    1    2    0    0 -0.20920958630E+02 -0.23733556202E+02 -0.39691712729E+01  0.59301913369E+02  0.49999944086E+02 0.  0.
        -12    1    1    2    0    0  0.20920958630E+02  0.23733556202E+02  0.39691712729E+01  0.31886086631E+02  0.00000000000E+00 0.  1.
         11    1    3    3    0    0 -0.11269515108E+02 -0.10719802710E+02 -0.26293624209E+02  0.30549481424E+02  0.51100000000E-03 0. -1.
        -11    1    3    3    0    0 -0.52868302158E+01 -0.42597034456E+01  0.37411363238E+01  0.77518867658E+01  0.51100000000E-03 0.  1.
         12    1    3    3    0    0 -0.43646133066E+01 -0.87540500463E+01  0.18583316613E+02  0.21000545180E+02  0.00000000000E+00 0. -1.
</event>
<event>
 7    1  0.1052674E-011  0.5930178E+02  0.7816164E-02  0.1266605E+00
        -11   -1    0    0    0    0  0.00000000000E+00  0.00000000000E+00  0.45593999997E+02  0.45594000000E+02  0.51100000000E-03 0.  1.
         11   -1    0    0    0    0 -0.00000000000E+00 -0.00000000000E+00 -0.45593999997E+02  0.45594000000E+02  0.51100000000E-03 0. -1.
    9900012    2    1    2    0    0  0.81816057243E+01 -0.29427437329E+02 -0.91552259515E+01  0.59301781940E+02  0.49999704390E+02 0.  0.
        -12    1    1    2    0    0 -0.81816057243E+01  0.29427437329E+02  0.91552259515E+01  0.31886218060E+02  0.00000000000E+00 0.  1.
         11    1    3    3    0    0  0.12068902097E+02 -0.27562937178E+01  0.43690644671E+01  0.13127995943E+02  0.51100000000E-03 0. -1.
        -11    1    3    3    0    0 -0.13131867313E+02 -0.25640323829E+02 -0.19797333550E+02  0.34954349674E+02  0.51100000000E-03 0.  1.
        -12    1    3    3    0    0  0.92445709403E+01 -0.10308197819E+01  0.62730431312E+01  0.11219436324E+02  0.00000000000E+00 0.  1.
</event>
<event>
 7    1  0.1052674E-011  0.5930192E+02  0.7816164E-02  0.1266605E+00
        -11   -1    0    0    0    0  0.00000000000E+00  0.00000000000E+00  0.45593999997E+02  0.45594000000E+02  0.51100000000E-03 0.  1.
         11   -1    0    0    0    0 -0.00000000000E+00 -0.00000000000E+00 -0.45593999997E+02  0.45594000000E+02  0.51100000000E-03 0. -1.
    9900012    2    1    2    0    0  0.16940539466E+02  0.25593698618E+02 -0.86430822531E+01  0.59301919068E+02  0.49999954480E+02 0.  0.
        -12    1    1    2    0    0 -0.16940539466E+02 -0.25593698618E+02  0.86430822531E+01  0.31886080932E+02  0.00000000000E+00 0.  1.
         11    1    3    3    0    0  0.10840257267E+02  0.20501959343E+02  0.30123610452E+01  0.23386231715E+02  0.51100000000E-03 0. -1.
        -11    1    3    3    0    0 -0.30251033362E+01  0.92263689453E+01 -0.20415949282E+02  0.22607258115E+02  0.51100000000E-03 0.  1.
        -12    1    3    3    0    0  0.91253855358E+01 -0.41346296704E+01  0.87605059841E+01  0.13308429238E+02  0.00000000000E+00 0.  1.
</event>
<event>
 7    1  0.1052674E-011  0.5930199E+02  0.7816164E-02  0.1266605E+00
        -11   -1    0    0    0    0  0.00000000000E+00  0.00000000000E+00  0.45593999997E+02  0.45594000000E+02  0.51100000000E-03 0.  1.
         11   -1    0    0    0    0 -0.00000000000E+00 -0.00000000000E+00 -0.45593999997E+02  0.45594000000E+02  0.51100000000E-03 0. -1.
    9900012    2    1    2    0    0 -0.22092890864E+02 -0.74502043871E+00 -0.22979709437E+02  0.59301985385E+02  0.50000075426E+02 0.  0.
        -12    1    1    2    0    0  0.22092890864E+02  0.74502043871E+00  0.22979709437E+02  0.31886014615E+02  0.00000000000E+00 0.  1.
         11    1    3    3    0    0  0.28689170890E+01  0.12787802416E+01 -0.49382504108E+01  0.58525448781E+01  0.51100000000E-03 0. -1.
        -11    1    3    3    0    0 -0.31007991445E+02 -0.44775750789E+01 -0.27682740105E+02  0.41807634614E+02  0.51100000000E-03 0.  1.
        -12    1    3    3    0    0  0.60461834913E+01  0.24537743985E+01  0.96412810792E+01  0.11641805893E+02  0.00000000000E+00 0.  1.
</event>
<event>
 7    1  0.1052674E-011  0.5930194E+02  0.7816164E-02  0.1266605E+00
        -11   -1    0    0    0    0  0.00000000000E+00  0.00000000000E+00  0.45593999997E+02  0.45594000000E+02  0.51100000000E-03 0. -1.
         11   -1    0    0    0    0 -0.00000000000E+00 -0.00000000000E+00 -0.45593999997E+02  0.45594000000E+02  0.51100000000E-03 0.  1.
    9900012    2    1    2    0    0  0.28790941720E+02  0.41033485843E+01 -0.13075353001E+02  0.59301942689E+02  0.49999997559E+02 0.  0.
        -12    1    1    2    0    0 -0.28790941720E+02 -0.41033485843E+01  0.13075353001E+02  0.31886057311E+02  0.00000000000E+00 0.  1.
         11    1    3    3    0    0  0.30034178436E+02 -0.56586142107E+01 -0.13217362074E+02  0.33298204901E+02  0.51100000000E-03 0. -1.
        -11    1    3    3    0    0 -0.10145750813E+02  0.96257294212E+01  0.61342398168E+01  0.15271536427E+02  0.51100000000E-03 0.  1.
        -12    1    3    3    0    0  0.89025140971E+01  0.13623337381E+00 -0.59922307433E+01  0.10732201361E+02  0.00000000000E+00 0.  1.
</event>
<event>
 7    1  0.1052674E-011  0.5930193E+02  0.7816164E-02  0.1266605E+00
        -11   -1    0    0    0    0  0.00000000000E+00  0.00000000000E+00  0.45593999997E+02  0.45594000000E+02  0.51100000000E-03 0.  1.
         11   -1    0    0    0    0 -0.00000000000E+00 -0.00000000000E+00 -0.45593999997E+02  0.45594000000E+02  0.51100000000E-03 0. -1.
    9900012    2    1    2    0    0  0.13726142364E+02  0.19834104794E+02 -0.20854807460E+02  0.59301926372E+02  0.49999967801E+02 0.  0.
        -12    1    1    2    0    0 -0.13726142364E+02 -0.19834104794E+02  0.20854807460E+02  0.31886073628E+02  0.00000000000E+00 0.  1.
         11    1    3    3    0    0 -0.11761119257E+01  0.78881117940E+01 -0.12837719593E+02  0.15113324966E+02  0.51100000000E-03 0. -1.
        -11    1    3    3    0    0  0.22198520936E+01 -0.86803367501E+01  0.10429135264E+02  0.13749285510E+02  0.51100000000E-03 0.  1.
        -12    1    3    3    0    0  0.12682402196E+02  0.20626329751E+02 -0.18446223131E+02  0.30439315896E+02  0.00000000000E+00 0.  1.
</event>
<event>
 7    1  0.1052674E-011  0.5930197E+02  0.7816164E-02  0.1266605E+00
        -11   -1    0    0    0    0  0.00000000000E+00  0.00000000000E+00  0.45593999997E+02  0.45594000000E+02  0.51100000000E-03 0.  1.
         11   -1    0    0    0    0 -0.00000000000E+00 -0.00000000000E+00 -0.45593999997E+02  0.45594000000E+02  0.51100000000E-03 0. -1.
    9900012    2    1    2    0    0 -0.53837873749E+01 -0.31302470635E+02  0.28087567112E+01  0.59301969382E+02  0.50000046239E+02 0.  0.
        -12    1    1    2    0    0  0.53837873749E+01  0.31302470635E+02 -0.28087567112E+01  0.31886030618E+02  0.00000000000E+00 0.  1.
         11    1    3    3    0    0  0.13465953065E+02 -0.93013956713E+01  0.69006802650E+01  0.17761397517E+02  0.51100000000E-03 0. -1.
        -11    1    3    3    0    0 -0.13381624110E+02 -0.13589138370E+02 -0.16753865468E+02  0.25385518585E+02  0.51100000000E-03 0.  1.
        -12    1    3    3    0    0 -0.54681163296E+01 -0.84119365932E+01  0.12661941914E+02  0.16155053280E+02  0.00000000000E+00 0.  1.
</event>
<event>
 7    1  0.1175134E-011  0.5930195E+02  0.7816164E-02  0.1266605E+00
        -11   -1    0    0    0    0  0.00000000000E+00  0.00000000000E+00  0.45593999997E+02  0.45594000000E+02  0.51100000000E-03 0.  1.
         11   -1    0    0    0    0 -0.00000000000E+00 -0.00000000000E+00 -0.45593999997E+02  0.45594000000E+02  0.51100000000E-03 0. -1.
    9900012    2    1    2    0    0  0.18851883291E+02  0.24941836611E+02 -0.62635253507E+01  0.59301945572E+02  0.50000002817E+02 0.  0.
        -12    1    1    2    0    0 -0.18851883291E+02 -0.24941836611E+02  0.62635253507E+01  0.31886054428E+02  0.00000000000E+00 0.  1.
         11    1    3    3    0    0  0.11755941154E+02  0.52998062884E+00 -0.13514878232E+02  0.17920238999E+02  0.51100000000E-03 0. -1.
        -11    1    3    3    0    0 -0.67168430131E+01  0.25747236291E+02  0.25547828701E+01  0.26731312584E+02  0.51100000000E-03 0.  1.
         12    1    3    3    0    0  0.13812785150E+02 -0.13353803091E+01  0.46965700115E+01  0.14650393989E+02  0.00000000000E+00 0. -1.
</event>
<event>
 7    1  0.1052674E-011  0.5930195E+02  0.7816164E-02  0.1266605E+00
        -11   -1    0    0    0    0  0.00000000000E+00  0.00000000000E+00  0.45593999997E+02  0.45594000000E+02  0.51100000000E-03 0. -1.
         11   -1    0    0    0    0 -0.00000000000E+00 -0.00000000000E+00 -0.45593999997E+02  0.45594000000E+02  0.51100000000E-03 0.  1.
    9900012    2    1    2    0    0 -0.20164671594E+02 -0.22802870198E+02 -0.94939564697E+01  0.59301951653E+02  0.50000013906E+02 0.  0.
        -12    1    1    2    0    0  0.20164671594E+02  0.22802870198E+02  0.94939564697E+01  0.31886048347E+02  0.00000000000E+00 0.  1.
         11    1    3    3    0    0  0.96672788544E+01 -0.22278076148E+02 -0.71439259809E+01  0.25314119301E+02  0.51100000000E-03 0. -1.
        -11    1    3    3    0    0 -0.90406554189E+01  0.48320147663E+01 -0.64752996604E+01  0.12124822599E+02  0.51100000000E-03 0.  1.
         12    1    3    3    0    0 -0.20791295029E+02 -0.53568088163E+01  0.41252691716E+01  0.21863009752E+02  0.00000000000E+00 0. -1.
</event>
<event>
 7    1  0.1052674E-011  0.5930193E+02  0.7816164E-02  0.1266605E+00
        -11   -1    0    0    0    0  0.00000000000E+00  0.00000000000E+00  0.45593999997E+02  0.45594000000E+02  0.51100000000E-03 0.  1.
         11   -1    0    0    0    0 -0.00000000000E+00 -0.00000000000E+00 -0.45593999997E+02  0.45594000000E+02  0.51100000000E-03 0. -1.
    9900012    2    1    2    0    0 -0.29938743583E+02  0.60956625897E+01  0.91233778275E+01  0.59301929487E+02  0.49999973482E+02 0.  0.
        -12    1    1    2    0    0  0.29938743583E+02 -0.60956625897E+01 -0.91233778275E+01  0.31886070513E+02  0.00000000000E+00 0.  1.
         11    1    3    3    0    0 -0.37867470372E+02 -0.49384100904E+01 -0.26490979791E+01  0.38279902390E+02  0.51100000000E-03 0. -1.
        -11    1    3    3    0    0  0.20033590255E+01  0.24535848674E+01  0.99427424647E+01  0.10435116390E+02  0.51100000000E-03 0.  1.
         12    1    3    3    0    0  0.59253677631E+01  0.85804878127E+01  0.18297333418E+01  0.10586910708E+02  0.00000000000E+00 0. -1.
</event>
<event>
 7    1  0.1052674E-011  0.5930194E+02  0.7816164E-02  0.1266605E+00
        -11   -1    0    0    0    0  0.00000000000E+00  0.00000000000E+00  0.45593999997E+02  0.45594000000E+02  0.51100000000E-03 0.  1.
         11   -1    0    0    0    0 -0.00000000000E+00 -0.00000000000E+00 -0.45593999997E+02  0.45594000000E+02  0.51100000000E-03 0. -1.
    9900012    2    1    2    0    0 -0.89812543784E+01  0.18817799143E+02 -0.24123606435E+02  0.59301939061E+02  0.49999990941E+02 0.  0.
        -12    1    1    2    0    0  0.89812543784E+01 -0.18817799143E+02  0.24123606435E+02  0.31886060939E+02  0.00000000000E+00 0.  1.
         11    1    3    3    0    0  0.74826152603E+01 -0.33728561833E+01 -0.10700171000E+02  0.13485523707E+02  0.51100000000E-03 0. -1.
        -11    1    3    3    0    0 -0.93857216083E+01  0.24116273171E+02  0.46666225193E+01  0.26295698655E+02  0.51100000000E-03 0.  1.
        -12    1    3    3    0    0 -0.70781480304E+01 -0.19256178446E+01 -0.18090057955E+02  0.19520716699E+02  0.00000000000E+00 0.  1.
</event>
<event>
 7    1  0.1052674E-011  0.5930196E+02  0.7816164E-02  0.1266605E+00
        -11   -1    0    0    0    0  0.00000000000E+00  0.00000000000E+00  0.45593999997E+02  0.45594000000E+02  0.51100000000E-03 0.  1.
         11   -1    0    0    0    0 -0.00000000000E+00 -0.00000000000E+00 -0.45593999997E+02  0.45594000000E+02  0.51100000000E-03 0. -1.
    9900012    2    1    2    0    0 -0.17526192625E+02 -0.21253914467E+02 -0.16056884226E+02  0.59301955417E+02  0.50000020772E+02 0.  0.
        -12    1    1    2    0    0  0.17526192625E+02  0.21253914467E+02  0.16056884226E+02  0.31886044583E+02  0.00000000000E+00 0.  1.
         11    1    3    3    0    0 -0.20622932458E+02 -0.13698095214E+02 -0.13637615891E+02  0.28265309535E+02  0.51100000000E-03 0. -1.
        -11    1    3    3    0    0  0.11019846128E+02 -0.15159258015E+02  0.26749191868E+01  0.18931331310E+02  0.51100000000E-03 0.  1.
        -12    1    3    3    0    0 -0.79231062950E+01  0.76034387624E+01 -0.50941875215E+01  0.12105314572E+02  0.00000000000E+00 0.  1.
</event>
<event>
 7    1  0.1052674E-011  0.5930194E+02  0.7816164E-02  0.1266605E+00
        -11   -1    0    0    0    0  0.00000000000E+00  0.00000000000E+00  0.45593999997E+02  0.45594000000E+02  0.51100000000E-03 0.  1.
         11   -1    0    0    0    0 -0.00000000000E+00 -0.00000000000E+00 -0.45593999997E+02  0.45594000000E+02  0.51100000000E-03 0. -1.
    9900012    2    1    2    0    0  0.86838371374E+01 -0.11300589761E+01 -0.30659982097E+02  0.59301944068E+02  0.50000000073E+02 0.  0.
        -12    1    1    2    0    0 -0.86838371374E+01  0.11300589761E+01  0.30659982097E+02  0.31886055932E+02  0.00000000000E+00 0.  1.
         11    1    3    3    0    0  0.12176661756E+02 -0.70421246424E+01 -0.28904001335E+02  0.32145044788E+02  0.51100000000E-03 0. -1.
        -11    1    3    3    0    0 -0.14191158569E+02  0.41765655853E+01 -0.53616543329E+01  0.15734675690E+02  0.51100000000E-03 0.  1.
         12    1    3    3    0    0  0.10698333951E+02  0.17355000810E+01  0.36056735705E+01  0.11422223590E+02  0.00000000000E+00 0. -1.
</event>
<event>
 7    1  0.1052674E-011  0.5930193E+02  0.7816164E-02  0.1266605E+00
        -11   -1    0    0    0    0  0.00000000000E+00  0.00000000000E+00  0.45593999997E+02  0.45594000000E+02  0.51100000000E-03 0.  1.
         11   -1    0    0    0    0 -0.00000000000E+00 -0.00000000000E+00 -0.45593999997E+02  0.45594000000E+02  0.51100000000E-03 0. -1.
    9900012    2    1    2    0    0  0.14621997332E+02  0.28101817592E+02 -0.36340818284E+01  0.59301929237E+02  0.49999973026E+02 0.  0.
        -12    1    1    2    0    0 -0.14621997332E+02 -0.28101817592E+02  0.36340818284E+01  0.31886070763E+02  0.00000000000E+00 0.  1.
         11    1    3    3    0    0  0.67981164066E+01  0.72139763290E+01 -0.52086898271E+00  0.99260841177E+01  0.51100000000E-03 0. -1.
        -11    1    3    3    0    0 -0.74453256750E+01 -0.83798489225E+01 -0.10708023975E+02  0.15502145660E+02  0.51100000000E-03 0.  1.
        -12    1    3    3    0    0  0.15269206601E+02  0.29267690185E+02  0.75948111289E+01  0.33873699459E+02  0.00000000000E+00 0.  1.
</event>
<event>
 7    1  0.1052674E-011  0.5930193E+02  0.7816164E-02  0.1266605E+00
        -11   -1    0    0    0    0  0.00000000000E+00  0.00000000000E+00  0.45593999997E+02  0.45594000000E+02  0.51100000000E-03 0. -1.
         11   -1    0    0    0    0 -0.00000000000E+00 -0.00000000000E+00 -0.45593999997E+02  0.45594000000E+02  0.51100000000E-03 0.  1.
    9900012    2    1    2    0    0  0.71672237812E+01  0.23797973348E+02  0.19975200869E+02  0.59301932793E+02  0.49999979510E+02 0.  0.
        -12    1    1    2    0    0 -0.71672237812E+01 -0.23797973348E+02 -0.19975200869E+02  0.31886067207E+02  0.00000000000E+00 0.  1.
         11    1    3    3    0    0 -0.17467294292E+02  0.14830288904E+02  0.12051257669E+02  0.25889701631E+02  0.51100000000E-03 0. -1.
        -11    1    3    3    0    0  0.22899204453E+02  0.71104411424E+01 -0.11338774080E+01  0.24004533240E+02  0.51100000000E-03 0.  1.
        -12    1    3    3    0    0  0.17353136205E+01  0.18572433015E+01  0.90578206080E+01  0.94076979229E+01  0.00000000000E+00 0.  1.
</event>
<event>
 7    1  0.1052674E-011  0.5930193E+02  0.7816164E-02  0.1266605E+00
        -11   -1    0    0    0    0  0.00000000000E+00  0.00000000000E+00  0.45593999997E+02  0.45594000000E+02  0.51100000000E-03 0.  1.
         11   -1    0    0    0    0 -0.00000000000E+00 -0.00000000000E+00 -0.45593999997E+02  0.45594000000E+02  0.51100000000E-03 0. -1.
    9900012    2    1    2    0    0 -0.14968222209E+02 -0.26950864448E+01 -0.28025167331E+02  0.59301934533E+02  0.49999982683E+02 0.  0.
        -12    1    1    2    0    0  0.14968222209E+02  0.26950864448E+01  0.28025167331E+02  0.31886065467E+02  0.00000000000E+00 0.  1.
         11    1    3    3    0    0 -0.28371670621E+02 -0.11442588997E+02 -0.26575167602E+02  0.40523130064E+02  0.51100000000E-03 0. -1.
        -11    1    3    3    0    0  0.84905540459E+01  0.74709946217E+01  0.33473547861E+01  0.11794492485E+02  0.51100000000E-03 0.  1.
         12    1    3    3    0    0  0.49128943663E+01  0.12765079307E+01 -0.47973545152E+01  0.69843119844E+01  0.00000000000E+00 0. -1.
</event>
<event>
 7    1  0.1052674E-011  0.5930195E+02  0.7816164E-02  0.1266605E+00
        -11   -1    0    0    0    0  0.00000000000E+00  0.00000000000E+00  0.45593999997E+02  0.45594000000E+02  0.51100000000E-03 0. -1.
         11   -1    0    0    0    0 -0.00000000000E+00 -0.00000000000E+00 -0.45593999997E+02  0.45594000000E+02  0.51100000000E-03 0.  1.
    9900012    2    1    2    0    0  0.27019743417E+02 -0.12811282438E+02 -0.11069095120E+02  0.59301947268E+02  0.50000005910E+02 0.  0.
        -12    1    1    2    0    0 -0.27019743417E+02  0.12811282438E+02  0.11069095120E+02  0.31886052732E+02  0.00000000000E+00 0.  1.
         11    1    3    3    0    0  0.79803772162E+00 -0.13588122078E+02  0.19468218218E+01  0.13750056046E+02  0.51100000000E-03 0. -1.
        -11    1    3    3    0    0  0.32794443066E+02  0.41687570708E+01 -0.16975777740E+02  0.37162226274E+02  0.51100000000E-03 0.  1.
        -12    1    3    3    0    0 -0.65727373704E+01 -0.33919174307E+01  0.39598607977E+01  0.83896649476E+01  0.00000000000E+00 0.  1.
</event>
<event>
 7    1  0.1052674E-011  0.5930189E+02  0.7816164E-02  0.1266605E+00
        -11   -1    0    0    0    0  0.00000000000E+00  0.00000000000E+00  0.45593999997E+02  0.45594000000E+02  0.51100000000E-03 0.  1.
         11   -1    0    0    0    0 -0.00000000000E+00 -0.00000000000E+00 -0.45593999997E+02  0.45594000000E+02  0.51100000000E-03 0. -1.
    9900012    2    1    2    0    0 -0.99051145009E+01 -0.28314582216E+02 -0.10811894202E+02  0.59301891495E+02  0.49999904194E+02 0.  0.
        -12    1    1    2    0    0  0.99051145009E+01  0.28314582216E+02  0.10811894202E+02  0.31886108505E+02  0.00000000000E+00 0.  1.
         11    1    3    3    0    0 -0.17561693169E+02 -0.47875337716E+01 -0.11826211148E+02  0.21706976228E+02  0.51100000000E-03 0. -1.
        -11    1    3    3    0    0  0.95738452496E+01 -0.15312132730E+02  0.13485687538E+02  0.22538493522E+02  0.51100000000E-03 0.  1.
        -12    1    3    3    0    0 -0.19172665814E+01 -0.82149157138E+01 -0.12471370592E+02  0.15056421745E+02  0.00000000000E+00 0.  1.
</event>
<event>
 7    1  0.1052674E-011  0.5930196E+02  0.7816164E-02  0.1266605E+00
        -11   -1    0    0    0    0  0.00000000000E+00  0.00000000000E+00  0.45593999997E+02  0.45594000000E+02  0.51100000000E-03 0. -1.
         11   -1    0    0    0    0 -0.00000000000E+00 -0.00000000000E+00 -0.45593999997E+02  0.45594000000E+02  0.51100000000E-03 0.  1.
    9900012    2    1    2    0    0  0.19305966079E+02  0.10349642156E+02  0.23170766701E+02  0.59301955271E+02  0.50000020504E+02 0.  0.
        -12    1    1    2    0    0 -0.19305966079E+02 -0.10349642156E+02 -0.23170766701E+02  0.31886044729E+02  0.00000000000E+00 0.  1.
         11    1    3    3    0    0  0.13888196908E+02  0.50255754744E+01  0.60057730514E+01  0.15943893264E+02  0.51100000000E-03 0. -1.
        -11    1    3    3    0    0 -0.12171269152E+02 -0.98209708579E+01  0.23318267132E+01  0.15812295135E+02  0.51100000000E-03 0.  1.
        -12    1    3    3    0    0  0.17589038323E+02  0.15145037539E+02  0.14833166936E+02  0.27545766872E+02  0.00000000000E+00 0.  1.
</event>
<event>
 7    1  0.1052674E-011  0.5930192E+02  0.7816164E-02  0.1266605E+00
        -11   -1    0    0    0    0  0.00000000000E+00  0.00000000000E+00  0.45593999997E+02  0.45594000000E+02  0.51100000000E-03 0. -1.
         11   -1    0    0    0    0 -0.00000000000E+00 -0.00000000000E+00 -0.45593999997E+02  0.45594000000E+02  0.51100000000E-03 0.  1.
    9900012    2    1    2    0    0 -0.20310770739E+02  0.23590913256E+02 -0.69038734068E+01  0.59301920525E+02  0.49999957137E+02 0.  0.
        -12    1    1    2    0    0  0.20310770739E+02 -0.23590913256E+02  0.69038734068E+01  0.31886079475E+02  0.00000000000E+00 0.  1.
         11    1    3    3    0    0  0.13858956224E+01  0.10998756390E+02  0.63170677732E+01  0.12759259161E+02  0.51100000000E-03 0. -1.
        -11    1    3    3    0    0 -0.15414920381E+02 -0.10992309746E+02 -0.11327303436E+02  0.22062602912E+02  0.51100000000E-03 0.  1.
        -12    1    3    3    0    0 -0.62817459804E+01  0.23584466612E+02 -0.18936377445E+01  0.24480058452E+02  0.00000000000E+00 0.  1.
</event>
<event>
 7    1  0.1052674E-011  0.5930213E+02  0.7816164E-02  0.1266604E+00
        -11   -1    0    0    0    0  0.00000000000E+00  0.00000000000E+00  0.45593999997E+02  0.45594000000E+02  0.51100000000E-03 0.  1.
         11   -1    0    0    0    0 -0.00000000000E+00 -0.00000000000E+00 -0.45593999997E+02  0.45594000000E+02  0.51100000000E-03 0. -1.
    9900012    2    1    2    0    0  0.14190385080E+02 -0.26595669097E+02  0.10392878400E+02  0.59302132208E+02  0.50000343194E+02 0.  0.
        -12    1    1    2    0    0 -0.14190385080E+02  0.26595669097E+02 -0.10392878400E+02  0.31885867792E+02  0.00000000000E+00 0.  1.
         11    1    3    3    0    0  0.11500625704E+01 -0.38809052756E+00 -0.69716803900E+01  0.70765518366E+01  0.51100000000E-03 0. -1.
        -11    1    3    3    0    0  0.24104476020E+02 -0.92464521296E+01  0.41957451864E+00  0.25820508984E+02  0.51100000000E-03 0.  1.
        -12    1    3    3    0    0 -0.11064153510E+02 -0.16961126439E+02  0.16944984272E+02  0.26405071387E+02  0.00000000000E+00 0.  1.
</event>
<event>
 7    1  0.1052674E-011  0.5930194E+02  0.7816164E-02  0.1266605E+00
        -11   -1    0    0    0    0  0.00000000000E+00  0.00000000000E+00  0.45593999997E+02  0.45594000000E+02  0.51100000000E-03 0.  1.
         11   -1    0    0    0    0 -0.00000000000E+00 -0.00000000000E+00 -0.45593999997E+02  0.45594000000E+02  0.51100000000E-03 0. -1.
    9900012    2    1    2    0    0 -0.13613888818E+02  0.14654119812E+02 -0.24832230847E+02  0.59301939016E+02  0.49999990860E+02 0.  0.
        -12    1    1    2    0    0  0.13613888818E+02 -0.14654119812E+02  0.24832230847E+02  0.31886060984E+02  0.00000000000E+00 0.  1.
         11    1    3    3    0    0 -0.11398580713E+02 -0.34581219130E+01 -0.98800971397E+01  0.15475870547E+02  0.51100000000E-03 0. -1.
        -11    1    3    3    0    0 -0.89457580282E+01  0.21211046919E+02  0.41011226279E+01  0.23382777961E+02  0.51100000000E-03 0.  1.
        -12    1    3    3    0    0  0.67304499229E+01 -0.30988051944E+01 -0.19053256335E+02  0.20443290508E+02  0.00000000000E+00 0.  1.
</event>
<event>
 7    1  0.1052674E-011  0.5930193E+02  0.7816164E-02  0.1266605E+00
        -11   -1    0    0    0    0  0.00000000000E+00  0.00000000000E+00  0.45593999997E+02  0.45594000000E+02  0.51100000000E-03 0. -1.
         11   -1    0    0    0    0 -0.00000000000E+00 -0.00000000000E+00 -0.45593999997E+02  0.45594000000E+02  0.51100000000E-03 0.  1.
    9900012    2    1    2    0    0 -0.14581714328E+02 -0.62602873732E+01  0.27656896399E+02  0.59301929230E+02  0.49999973012E+02 0.  0.
        -12    1    1    2    0    0  0.14581714328E+02  0.62602873732E+01 -0.27656896399E+02  0.31886070770E+02  0.00000000000E+00 0.  1.
         11    1    3    3    0    0 -0.19817958192E+02  0.17045897504E+02  0.15752720639E+02  0.30519867241E+02  0.51100000000E-03 0. -1.
        -11    1    3    3    0    0  0.47321754225E+01 -0.11058487251E+02  0.11308444023E+02  0.16509528491E+02  0.51100000000E-03 0.  1.
        -12    1    3    3    0    0  0.50406844121E+00 -0.12247697626E+02  0.59573173662E+00  0.12272533497E+02  0.00000000000E+00 0.  1.
</event>
<event>
 7    1  0.1052674E-011  0.5930191E+02  0.7816164E-02  0.1266605E+00
        -11   -1    0    0    0    0  0.00000000000E+00  0.00000000000E+00  0.45593999997E+02  0.45594000000E+02  0.51100000000E-03 0.  1.
         11   -1    0    0    0    0 -0.00000000000E+00 -0.00000000000E+00 -0.45593999997E+02  0.45594000000E+02  0.51100000000E-03 0. -1.
    9900012    2    1    2    0    0  0.16295546107E+02  0.27184403464E+02 -0.34908198979E+01  0.59301914662E+02  0.49999946445E+02 0.  0.
        -12    1    1    2    0    0 -0.16295546107E+02 -0.27184403464E+02  0.34908198979E+01  0.31886085338E+02  0.00000000000E+00 0.  1.
         11    1    3    3    0    0 -0.36316199095E+01  0.92737495287E+01 -0.86974489291E+01  0.13222583394E+02  0.51100000000E-03 0. -1.
        -11    1    3    3    0    0  0.87832127461E+01 -0.11061580378E+02  0.51604587895E+01  0.15037743241E+02  0.51100000000E-03 0.  1.
        -12    1    3    3    0    0  0.11143953270E+02  0.28972234313E+02  0.46170241649E-01  0.31041588027E+02  0.00000000000E+00 0.  1.
</event>
<event>
 7    1  0.1052674E-011  0.5930203E+02  0.7816164E-02  0.1266604E+00
        -11   -1    0    0    0    0  0.00000000000E+00  0.00000000000E+00  0.45593999997E+02  0.45594000000E+02  0.51100000000E-03 0. -1.
         11   -1    0    0    0    0 -0.00000000000E+00 -0.00000000000E+00 -0.45593999997E+02  0.45594000000E+02  0.51100000000E-03 0.  1.
    9900012    2    1    2    0    0 -0.29494865151E+02  0.11110933115E+02  0.48285634308E+01  0.59302032401E+02  0.50000161171E+02 0.  0.
        -12    1    1    2    0    0  0.29494865151E+02 -0.11110933115E+02 -0.48285634308E+01  0.31885967599E+02  0.00000000000E+00 0.  1.
         11    1    3    3    0    0 -0.10027331794E+02 -0.59255416002E+00  0.16790444073E+02  0.19565722981E+02  0.51100000000E-03 0. -1.
        -11    1    3    3    0    0 -0.19304832996E+02  0.20870355249E+02 -0.68662836301E+01  0.29247122189E+02  0.51100000000E-03 0.  1.
         12    1    3    3    0    0 -0.16270036108E+00 -0.91668679733E+01 -0.50955970122E+01  0.10489187231E+02  0.00000000000E+00 0. -1.
</event>
<event>
 7    1  0.1052674E-011  0.5930194E+02  0.7816164E-02  0.1266605E+00
        -11   -1    0    0    0    0  0.00000000000E+00  0.00000000000E+00  0.45593999997E+02  0.45594000000E+02  0.51100000000E-03 0.  1.
         11   -1    0    0    0    0 -0.00000000000E+00 -0.00000000000E+00 -0.45593999997E+02  0.45594000000E+02  0.51100000000E-03 0. -1.
    9900012    2    1    2    0    0 -0.27748034191E+02 -0.15518103147E+02 -0.24404746311E+01  0.59301939673E+02  0.49999992058E+02 0.  0.
        -12    1    1    2    0    0  0.27748034191E+02  0.15518103147E+02  0.24404746311E+01  0.31886060327E+02  0.00000000000E+00 0.  1.
         11    1    3    3    0    0 -0.15031601714E+02 -0.12735325483E+01 -0.41159798063E+01  0.15636886687E+02  0.51100000000E-03 0. -1.
        -11    1    3    3    0    0 -0.38228155417E+01 -0.18445584458E+02  0.17053754695E+02  0.25410313932E+02  0.51100000000E-03 0.  1.
        -12    1    3    3    0    0 -0.88936169356E+01  0.42010138597E+01 -0.15378249519E+02  0.18254739054E+02  0.00000000000E+00 0.  1.
</event>
<event>
 7    1  0.1052674E-011  0.5930191E+02  0.7816164E-02  0.1266605E+00
        -11   -1    0    0    0    0  0.00000000000E+00  0.00000000000E+00  0.45593999997E+02  0.45594000000E+02  0.51100000000E-03 0.  1.
         11   -1    0    0    0    0 -0.00000000000E+00 -0.00000000000E+00 -0.45593999997E+02  0.45594000000E+02  0.51100000000E-03 0. -1.
    9900012    2    1    2    0    0 -0.12577735422E+02 -0.27272651946E+02 -0.10711026105E+02  0.59301905026E+02  0.49999928870E+02 0.  0.
        -12    1    1    2    0    0  0.12577735422E+02  0.27272651946E+02  0.10711026105E+02  0.31886094974E+02  0.00000000000E+00 0.  1.
         11    1    3    3    0    0 -0.15206012376E+00 -0.16264966885E+02  0.91763818732E+01  0.18675605870E+02  0.51100000000E-03 0. -1.
        -11    1    3    3    0    0  0.35033204474E+01 -0.86305091328E+01 -0.22461763161E+02  0.24316450124E+02  0.51100000000E-03 0.  1.
        -12    1    3    3    0    0 -0.15928995745E+02 -0.23771759278E+01  0.25743551829E+01  0.16309849032E+02  0.00000000000E+00 0.  1.
</event>
<event>
 7    1  0.1052674E-011  0.5930194E+02  0.7816164E-02  0.1266605E+00
        -11   -1    0    0    0    0  0.00000000000E+00  0.00000000000E+00  0.45593999997E+02  0.45594000000E+02  0.51100000000E-03 0. -1.
         11   -1    0    0    0    0 -0.00000000000E+00 -0.00000000000E+00 -0.45593999997E+02  0.45594000000E+02  0.51100000000E-03 0.  1.
    9900012    2    1    2    0    0  0.15347861283E+02  0.90519512636E+01  0.26442883459E+02  0.59301941083E+02  0.49999994630E+02 0.  0.
        -12    1    1    2    0    0 -0.15347861283E+02 -0.90519512636E+01 -0.26442883459E+02  0.31886058917E+02  0.00000000000E+00 0.  1.
         11    1    3    3    0    0  0.13791750522E+02 -0.94869382245E+00  0.52955709557E+01  0.14803900650E+02  0.51100000000E-03 0. -1.
        -11    1    3    3    0    0 -0.10912758252E+01  0.11307796381E+02  0.31629605341E+02  0.33607872235E+02  0.51100000000E-03 0.  1.
        -12    1    3    3    0    0  0.26473865861E+01 -0.13071512950E+01 -0.10482292838E+02  0.10890168198E+02  0.00000000000E+00 0.  1.
</event>
<event>
 7    1  0.1052674E-011  0.5930200E+02  0.7816164E-02  0.1266605E+00
        -11   -1    0    0    0    0  0.00000000000E+00  0.00000000000E+00  0.45593999997E+02  0.45594000000E+02  0.51100000000E-03 0.  1.
         11   -1    0    0    0    0 -0.00000000000E+00 -0.00000000000E+00 -0.45593999997E+02  0.45594000000E+02  0.51100000000E-03 0. -1.
    9900012    2    1    2    0    0  0.31318000464E+01  0.23168880161E+02 -0.21682058193E+02  0.59302002651E+02  0.50000106914E+02 0.  0.
        -12    1    1    2    0    0 -0.31318000464E+01 -0.23168880161E+02  0.21682058193E+02  0.31885997349E+02  0.00000000000E+00 0.  1.
         11    1    3    3    0    0 -0.93961980160E+01  0.43666245312E-01  0.99192919855E+01  0.13663191342E+02  0.51100000000E-03 0. -1.
        -11    1    3    3    0    0  0.12305837549E+02  0.15552847251E+02 -0.89577549026E+01  0.21761573210E+02  0.51100000000E-03 0.  1.
         12    1    3    3    0    0  0.22216051315E+00  0.75723666647E+01 -0.22643595276E+02  0.23877238099E+02  0.00000000000E+00 0. -1.
</event>
<event>
 7    1  0.1052674E-011  0.5930193E+02  0.7816164E-02  0.1266605E+00
        -11   -1    0    0    0    0  0.00000000000E+00  0.00000000000E+00  0.45593999997E+02  0.45594000000E+02  0.51100000000E-03 0.  1.
         11   -1    0    0    0    0 -0.00000000000E+00 -0.00000000000E+00 -0.45593999997E+02  0.45594000000E+02  0.51100000000E-03 0. -1.
    9900012    2    1    2    0    0 -0.97098522737E+01  0.86450963030E+01 -0.29115330608E+02  0.59301930978E+02  0.49999976201E+02 0.  0.
        -12    1    1    2    0    0  0.97098522737E+01 -0.86450963030E+01  0.29115330608E+02  0.31886069022E+02  0.00000000000E+00 0.  1.
         11    1    3    3    0    0  0.11749025053E+01 -0.13329052102E+01 -0.14001767873E+02  0.14114054556E+02  0.51100000000E-03 0. -1.
        -11    1    3    3    0    0 -0.43835268046E+01  0.25419261539E+02 -0.82397220227E+01  0.27078537326E+02  0.51100000000E-03 0.  1.
        -12    1    3    3    0    0 -0.65012279745E+01 -0.15441260026E+02 -0.68738407121E+01  0.18109339096E+02  0.00000000000E+00 0.  1.
</event>
<event>
 7    1  0.1052674E-011  0.5930189E+02  0.7816164E-02  0.1266605E+00
        -11   -1    0    0    0    0  0.00000000000E+00  0.00000000000E+00  0.45593999997E+02  0.45594000000E+02  0.51100000000E-03 0.  1.
         11   -1    0    0    0    0 -0.00000000000E+00 -0.00000000000E+00 -0.45593999997E+02  0.45594000000E+02  0.51100000000E-03 0. -1.
    9900012    2    1    2    0    0 -0.53178390492E+01 -0.65431264848E+01 -0.30751130060E+02  0.59301891484E+02  0.49999904173E+02 0.  0.
        -12    1    1    2    0    0  0.53178390492E+01  0.65431264848E+01  0.30751130060E+02  0.31886108516E+02  0.00000000000E+00 0.  1.
         11    1    3    3    0    0 -0.60143196021E+01 -0.50688767505E+01 -0.28425671877E+02  0.29493802293E+02  0.51100000000E-03 0. -1.
        -11    1    3    3    0    0 -0.83327306366E+01 -0.10255386977E+02  0.62028311075E+01  0.14597344824E+02  0.51100000000E-03 0.  1.
        -12    1    3    3    0    0  0.90292111895E+01  0.87811372425E+01 -0.85282892902E+01  0.15210744367E+02  0.00000000000E+00 0.  1.
</event>
<event>
 7    1  0.1052674E-011  0.5930194E+02  0.7816164E-02  0.1266605E+00
        -11   -1    0    0    0    0  0.00000000000E+00  0.00000000000E+00  0.45593999997E+02  0.45594000000E+02  0.51100000000E-03 0. -1.
         11   -1    0    0    0    0 -0.00000000000E+00 -0.00000000000E+00 -0.45593999997E+02  0.45594000000E+02  0.51100000000E-03 0.  1.
    9900012    2    1    2    0    0 -0.11266748185E+02  0.28564954406E+02 -0.85921177325E+01  0.59301941573E+02  0.49999995523E+02 0.  0.
        -12    1    1    2    0    0  0.11266748185E+02 -0.28564954406E+02  0.85921177325E+01  0.31886058427E+02  0.00000000000E+00 0.  1.
         11    1    3    3    0    0 -0.59198354452E+01  0.44094928609E+00  0.61556548695E+00  0.59680657755E+01  0.51100000000E-03 0. -1.
        -11    1    3    3    0    0 -0.95503656377E+01  0.34331493993E+02  0.62268057140E+01  0.36175047661E+02  0.51100000000E-03 0.  1.
        -12    1    3    3    0    0  0.42034528980E+01 -0.62074888734E+01 -0.15434488933E+02  0.17158828136E+02  0.00000000000E+00 0.  1.
</event>
<event>
 7    1  0.1052674E-011  0.5930189E+02  0.7816164E-02  0.1266605E+00
        -11   -1    0    0    0    0  0.00000000000E+00  0.00000000000E+00  0.45593999997E+02  0.45594000000E+02  0.51100000000E-03 0.  1.
         11   -1    0    0    0    0 -0.00000000000E+00 -0.00000000000E+00 -0.45593999997E+02  0.45594000000E+02  0.51100000000E-03 0. -1.
    9900012    2    1    2    0    0 -0.22074189212E+02 -0.22116279797E+02 -0.63501396766E+01  0.59301891185E+02  0.49999903628E+02 0.  0.
        -12    1    1    2    0    0  0.22074189212E+02  0.22116279797E+02  0.63501396766E+01  0.31886108815E+02  0.00000000000E+00 0.  1.
         11    1    3    3    0    0 -0.74648586967E+01 -0.17556755046E+02 -0.15390446946E+02  0.24511826138E+02  0.51100000000E-03 0. -1.
        -11    1    3    3    0    0 -0.16523147198E+02  0.66574470668E+01 -0.31763125458E+01  0.18094887577E+02  0.51100000000E-03 0.  1.
        -12    1    3    3    0    0  0.19138166833E+01 -0.11216971818E+02  0.12216619816E+02  0.16695177470E+02  0.00000000000E+00 0.  1.
</event>
<event>
 7    1  0.1052674E-011  0.5930191E+02  0.7816164E-02  0.1266605E+00
        -11   -1    0    0    0    0  0.00000000000E+00  0.00000000000E+00  0.45593999997E+02  0.45594000000E+02  0.51100000000E-03 0. -1.
         11   -1    0    0    0    0 -0.00000000000E+00 -0.00000000000E+00 -0.45593999997E+02  0.45594000000E+02  0.51100000000E-03 0.  1.
    9900012    2    1    2    0    0 -0.59026635118E+01 -0.30187990633E+02 -0.84003910787E+01  0.59301909220E+02  0.49999936518E+02 0.  0.
        -12    1    1    2    0    0  0.59026635118E+01  0.30187990633E+02  0.84003910787E+01  0.31886090780E+02  0.00000000000E+00 0.  1.
         11    1    3    3    0    0  0.86492994264E+01 -0.72421388040E+00  0.50462536837E+00  0.86942229863E+01  0.51100000000E-03 0. -1.
        -11    1    3    3    0    0 -0.35116616921E+01 -0.18367907042E+02 -0.22931437093E+02  0.29589906799E+02  0.51100000000E-03 0.  1.
        -12    1    3    3    0    0 -0.11040301246E+02 -0.11095869710E+02  0.14026420646E+02  0.21017779435E+02  0.00000000000E+00 0.  1.
</event>
<event>
 7    1  0.1052674E-011  0.5930203E+02  0.7816164E-02  0.1266604E+00
        -11   -1    0    0    0    0  0.00000000000E+00  0.00000000000E+00  0.45593999997E+02  0.45594000000E+02  0.51100000000E-03 0.  1.
         11   -1    0    0    0    0 -0.00000000000E+00 -0.00000000000E+00 -0.45593999997E+02  0.45594000000E+02  0.51100000000E-03 0. -1.
    9900012    2    1    2    0    0 -0.24843531101E+01  0.30181177527E+02  0.99819751999E+01  0.59302026341E+02  0.50000150119E+02 0.  0.
        -12    1    1    2    0    0  0.24843531101E+01 -0.30181177527E+02 -0.99819751999E+01  0.31885973659E+02  0.00000000000E+00 0.  1.
         11    1    3    3    0    0 -0.38845829925E+01  0.93848056873E+01  0.32231113250E+01  0.10656125454E+02  0.51100000000E-03 0. -1.
        -11    1    3    3    0    0  0.55256409734E+01 -0.12277802021E+02 -0.32393789461E+01  0.13848130085E+02  0.51100000000E-03 0.  1.
        -12    1    3    3    0    0 -0.41254110910E+01  0.33074173861E+02  0.99982428209E+01  0.34797770802E+02  0.00000000000E+00 0.  1.
</event>
<event>
 7    1  0.1052674E-011  0.5930167E+02  0.7816164E-02  0.1266606E+00
        -11   -1    0    0    0    0  0.00000000000E+00  0.00000000000E+00  0.45593999997E+02  0.45594000000E+02  0.51100000000E-03 0.  1.
         11   -1    0    0    0    0 -0.00000000000E+00 -0.00000000000E+00 -0.45593999997E+02  0.45594000000E+02  0.51100000000E-03 0. -1.
    9900012    2    1    2    0    0 -0.16500324705E+01  0.63436624529E+01 -0.31205340075E+02  0.59301672058E+02  0.49999503990E+02 0.  0.
        -12    1    1    2    0    0  0.16500324705E+01 -0.63436624529E+01  0.31205340075E+02  0.31886327942E+02  0.00000000000E+00 0.  1.
         11    1    3    3    0    0 -0.13304845108E+02  0.18293598522E+02 -0.16970931932E+02  0.28278740798E+02  0.51100000000E-03 0. -1.
        -11    1    3    3    0    0 -0.65275515290E+00 -0.11668966871E+02 -0.14606293222E+02  0.18706541077E+02  0.51100000000E-03 0.  1.
        -12    1    3    3    0    0  0.12307567790E+02 -0.28096919868E+00  0.37188507979E+00  0.12316390182E+02  0.00000000000E+00 0.  1.
</event>
<event>
 7    1  0.1052674E-011  0.5930195E+02  0.7816164E-02  0.1266605E+00
        -11   -1    0    0    0    0  0.00000000000E+00  0.00000000000E+00  0.45593999997E+02  0.45594000000E+02  0.51100000000E-03 0.  1.
         11   -1    0    0    0    0 -0.00000000000E+00 -0.00000000000E+00 -0.45593999997E+02  0.45594000000E+02  0.51100000000E-03 0. -1.
    9900012    2    1    2    0    0 -0.43940895098E+00 -0.22608924007E+02 -0.22480294331E+02  0.59301950414E+02  0.50000011647E+02 0.  0.
        -12    1    1    2    0    0  0.43940895098E+00  0.22608924007E+02  0.22480294331E+02  0.31886049586E+02  0.00000000000E+00 0.  1.
         11    1    3    3    0    0 -0.75018191716E+00 -0.23838595827E+00 -0.28885725710E+02  0.28896448758E+02  0.51100000000E-03 0. -1.
        -11    1    3    3    0    0 -0.28247430556E+01  0.11613121626E+01  0.59192091736E+01  0.66606949165E+01  0.51100000000E-03 0.  1.
         12    1    3    3    0    0  0.31355160218E+01 -0.23531850211E+02  0.48622220499E+00  0.23744806740E+02  0.00000000000E+00 0. -1.
</event>
<event>
 7    1  0.1052674E-011  0.5930195E+02  0.7816164E-02  0.1266605E+00
        -11   -1    0    0    0    0  0.00000000000E+00  0.00000000000E+00  0.45593999997E+02  0.45594000000E+02  0.51100000000E-03 0.  1.
         11   -1    0    0    0    0 -0.00000000000E+00 -0.00000000000E+00 -0.45593999997E+02  0.45594000000E+02  0.51100000000E-03 0. -1.
    9900012    2    1    2    0    0  0.10124070853E+02 -0.13276003598E+01 -0.30206972132E+02  0.59301945074E+02  0.50000001909E+02 0.  0.
        -12    1    1    2    0    0 -0.10124070853E+02  0.13276003598E+01  0.30206972132E+02  0.31886054926E+02  0.00000000000E+00 0.  1.
         11    1    3    3    0    0  0.91930670823E+01  0.47663915296E+01  0.81134252513E+01  0.13155175414E+02  0.51100000000E-03 0.  1.
        -11    1    3    3    0    0 -0.37751505257E+01 -0.10497173078E+02 -0.38098531637E+02  0.39698117301E+02  0.51100000000E-03 0. -1.
         12    1    3    3    0    0  0.47061542967E+01  0.44031811886E+01 -0.22186574634E+00  0.64486523595E+01  0.00000000000E+00 0. -1.
</event>
<event>
 7    1  0.1052674E-011  0.5930194E+02  0.7816164E-02  0.1266605E+00
        -11   -1    0    0    0    0  0.00000000000E+00  0.00000000000E+00  0.45593999997E+02  0.45594000000E+02  0.51100000000E-03 0.  1.
         11   -1    0    0    0    0 -0.00000000000E+00 -0.00000000000E+00 -0.45593999997E+02  0.45594000000E+02  0.51100000000E-03 0. -1.
    9900012    2    1    2    0    0 -0.76166225606E+01  0.27193038674E+01 -0.30843368170E+02  0.59301938581E+02  0.49999990067E+02 0.  0.
        -12    1    1    2    0    0  0.76166225606E+01 -0.27193038674E+01  0.30843368170E+02  0.31886061419E+02  0.00000000000E+00 0.  1.
         11    1    3    3    0    0 -0.24332802495E+01 -0.35107837578E+01 -0.16883949609E+02  0.17415918294E+02  0.51100000000E-03 0. -1.
        -11    1    3    3    0    0 -0.51430922364E+01 -0.88272109360E+01  0.95389978320E+01  0.13977250465E+02  0.51100000000E-03 0.  1.
        -12    1    3    3    0    0 -0.40250074821E-01  0.15057298561E+02 -0.23498416392E+02  0.27908769822E+02  0.00000000000E+00 0.  1.
</event>
<event>
 7    1  0.1052674E-011  0.5930197E+02  0.7816164E-02  0.1266605E+00
        -11   -1    0    0    0    0  0.00000000000E+00  0.00000000000E+00  0.45593999997E+02  0.45594000000E+02  0.51100000000E-03 0.  1.
         11   -1    0    0    0    0 -0.00000000000E+00 -0.00000000000E+00 -0.45593999997E+02  0.45594000000E+02  0.51100000000E-03 0. -1.
    9900012    2    1    2    0    0  0.77701961245E+01 -0.89047273439E+01 -0.29615009791E+02  0.59301969801E+02  0.50000047005E+02 0.  0.
        -12    1    1    2    0    0 -0.77701961245E+01  0.89047273439E+01  0.29615009791E+02  0.31886030199E+02  0.00000000000E+00 0.  1.
         11    1    3    3    0    0  0.14602145066E+02 -0.49457894929E+01 -0.25502254444E+02  0.29800141882E+02  0.51100000000E-03 0. -1.
        -11    1    3    3    0    0  0.81276147110E+00 -0.11283245670E+02  0.76652792254E+01  0.13664871749E+02  0.51100000000E-03 0.  1.
        -12    1    3    3    0    0 -0.76447104128E+01  0.73243078189E+01 -0.11778034573E+02  0.15836956170E+02  0.00000000000E+00 0.  1.
</event>
<event>
 7    1  0.1052674E-011  0.5930194E+02  0.7816164E-02  0.1266605E+00
        -11   -1    0    0    0    0  0.00000000000E+00  0.00000000000E+00  0.45593999997E+02  0.45594000000E+02  0.51100000000E-03 0. -1.
         11   -1    0    0    0    0 -0.00000000000E+00 -0.00000000000E+00 -0.45593999997E+02  0.45594000000E+02  0.51100000000E-03 0.  1.
    9900012    2    1    2    0    0 -0.37990047602E+01  0.26874394512E+02  0.16734856793E+02  0.59301938007E+02  0.49999989020E+02 0.  0.
        -12    1    1    2    0    0  0.37990047602E+01 -0.26874394512E+02 -0.16734856793E+02  0.31886061993E+02  0.00000000000E+00 0.  1.
         11    1    3    3    0    0  0.14884330220E+02  0.10094064555E+02  0.14311403430E+02  0.22983683206E+02  0.51100000000E-03 0. -1.
        -11    1    3    3    0    0 -0.21131796632E+02  0.11868215754E+02 -0.71621148237E+01  0.25272579273E+02  0.51100000000E-03 0.  1.
        -12    1    3    3    0    0  0.24484616523E+01  0.49121142027E+01  0.95855681868E+01  0.11045675528E+02  0.00000000000E+00 0.  1.
</event>
<event>
 7    1  0.1052674E-011  0.5930194E+02  0.7816164E-02  0.1266605E+00
        -11   -1    0    0    0    0  0.00000000000E+00  0.00000000000E+00  0.45593999997E+02  0.45594000000E+02  0.51100000000E-03 0.  1.
         11   -1    0    0    0    0 -0.00000000000E+00 -0.00000000000E+00 -0.45593999997E+02  0.45594000000E+02  0.51100000000E-03 0. -1.
    9900012    2    1    2    0    0  0.85337228343E+01 -0.16720380640E+02 -0.25774503613E+02  0.59301943633E+02  0.49999999280E+02 0.  0.
        -12    1    1    2    0    0 -0.85337228343E+01  0.16720380640E+02  0.25774503613E+02  0.31886056367E+02  0.00000000000E+00 0.  1.
         11    1    3    3    0    0  0.41684281124E+01  0.39322659216E+01 -0.18460438472E+02  0.19329415331E+02  0.51100000000E-03 0. -1.
        -11    1    3    3    0    0 -0.10486973320E+02 -0.19289583306E+02  0.25312166413E+01  0.22101395691E+02  0.51100000000E-03 0.  1.
        -12    1    3    3    0    0  0.14852268042E+02 -0.13630632556E+01 -0.98452817826E+01  0.17871132611E+02  0.00000000000E+00 0.  1.
</event>
<event>
 7    1  0.1052674E-011  0.5930195E+02  0.7816164E-02  0.1266605E+00
        -11   -1    0    0    0    0  0.00000000000E+00  0.00000000000E+00  0.45593999997E+02  0.45594000000E+02  0.51100000000E-03 0.  1.
         11   -1    0    0    0    0 -0.00000000000E+00 -0.00000000000E+00 -0.45593999997E+02  0.45594000000E+02  0.51100000000E-03 0. -1.
    9900012    2    1    2    0    0  0.11565398234E+02 -0.87042625233E+00 -0.29701923127E+02  0.59301947946E+02  0.50000007145E+02 0.  0.
        -12    1    1    2    0    0 -0.11565398234E+02  0.87042625233E+00  0.29701923127E+02  0.31886052054E+02  0.00000000000E+00 0.  1.
         11    1    3    3    0    0  0.10778480319E+02 -0.62028553051E+01 -0.32454666156E+02  0.34755667271E+02  0.51100000000E-03 0. -1.
        -11    1    3    3    0    0  0.11898277341E+02  0.57169485351E+01  0.24386022828E+01  0.13423832746E+02  0.51100000000E-03 0.  1.
        -12    1    3    3    0    0 -0.11111359426E+02 -0.38451948228E+00  0.31414074630E+00  0.11122447929E+02  0.00000000000E+00 0.  1.
</event>
<event>
 7    1  0.1052674E-011  0.5930192E+02  0.7816164E-02  0.1266605E+00
        -11   -1    0    0    0    0  0.00000000000E+00  0.00000000000E+00  0.45593999997E+02  0.45594000000E+02  0.51100000000E-03 0.  1.
         11   -1    0    0    0    0 -0.00000000000E+00 -0.00000000000E+00 -0.45593999997E+02  0.45594000000E+02  0.51100000000E-03 0. -1.
    9900012    2    1    2    0    0 -0.30045524152E+02 -0.10599427018E+02 -0.12809618887E+01  0.59301917801E+02  0.49999952168E+02 0.  0.
        -12    1    1    2    0    0  0.30045524152E+02  0.10599427018E+02  0.12809618887E+01  0.31886082199E+02  0.00000000000E+00 0.  1.
         11    1    3    3    0    0 -0.39755364254E+01 -0.58680960648E+01 -0.19219237041E+02  0.20484592112E+02  0.51100000000E-03 0. -1.
        -11    1    3    3    0    0 -0.27674977038E+02 -0.62923454115E+01  0.92582437603E+01  0.29853191498E+02  0.51100000000E-03 0.  1.
        -12    1    3    3    0    0  0.16049893120E+01  0.15610144581E+01  0.86800313918E+01  0.89641341909E+01  0.00000000000E+00 0.  1.
</event>
<event>
 7    1  0.1052674E-011  0.5930195E+02  0.7816164E-02  0.1266605E+00
        -11   -1    0    0    0    0  0.00000000000E+00  0.00000000000E+00  0.45593999997E+02  0.45594000000E+02  0.51100000000E-03 0.  1.
         11   -1    0    0    0    0 -0.00000000000E+00 -0.00000000000E+00 -0.45593999997E+02  0.45594000000E+02  0.51100000000E-03 0. -1.
    9900012    2    1    2    0    0 -0.15081861616E+02  0.25004712276E+02  0.12807100347E+02  0.59301952815E+02  0.50000016025E+02 0.  0.
        -12    1    1    2    0    0  0.15081861616E+02 -0.25004712276E+02 -0.12807100347E+02  0.31886047185E+02  0.00000000000E+00 0.  1.
         11    1    3    3    0    0 -0.20451920631E+02  0.37800604257E+02  0.64618148254E+01  0.43461727886E+02  0.51100000000E-03 0. -1.
        -11    1    3    3    0    0  0.32538836786E+01 -0.11451171108E+02  0.59267457294E+01  0.13298247777E+02  0.51100000000E-03 0.  1.
         12    1    3    3    0    0  0.21161753367E+01 -0.13447208738E+01  0.41853979263E+00  0.25419771521E+01  0.00000000000E+00 0. -1.
</event>
<event>
 7    1  0.1053884E-011  0.5930193E+02  0.7816164E-02  0.1266605E+00
        -11   -1    0    0    0    0  0.00000000000E+00  0.00000000000E+00  0.45593999997E+02  0.45594000000E+02  0.51100000000E-03 0. -1.
         11   -1    0    0    0    0 -0.00000000000E+00 -0.00000000000E+00 -0.45593999997E+02  0.45594000000E+02  0.51100000000E-03 0.  1.
    9900012    2    1    2    0    0 -0.17265971225E+02  0.20416261336E+02  0.17371931353E+02  0.59301929558E+02  0.49999973611E+02 0.  0.
        -12    1    1    2    0    0  0.17265971225E+02 -0.20416261336E+02 -0.17371931353E+02  0.31886070442E+02  0.00000000000E+00 0.  1.
         11    1    3    3    0    0 -0.11619128889E+01 -0.11801217824E+02  0.13104215082E+02  0.17673121877E+02  0.51100000000E-03 0. -1.
        -11    1    3    3    0    0 -0.13424396115E+02  0.18493872093E+02 -0.67481569495E+01  0.23828036817E+02  0.51100000000E-03 0.  1.
         12    1    3    3    0    0 -0.26796622218E+01  0.13723607067E+02  0.11015873221E+02  0.17800770865E+02  0.00000000000E+00 0. -1.
</event>
<event>
 7    1  0.1052674E-011  0.5930192E+02  0.7816164E-02  0.1266605E+00
        -11   -1    0    0    0    0  0.00000000000E+00  0.00000000000E+00  0.45593999997E+02  0.45594000000E+02  0.51100000000E-03 0. -1.
         11   -1    0    0    0    0 -0.00000000000E+00 -0.00000000000E+00 -0.45593999997E+02  0.45594000000E+02  0.51100000000E-03 0.  1.
    9900012    2    1    2    0    0 -0.80529323188E+01 -0.20145870238E+02  0.23366987152E+02  0.59301923177E+02  0.49999961974E+02 0.  0.
        -12    1    1    2    0    0  0.80529323188E+01  0.20145870238E+02 -0.23366987152E+02  0.31886076823E+02  0.00000000000E+00 0.  1.
         11    1    3    3    0    0 -0.51277684891E+01 -0.10632034042E+02  0.33214788696E+01  0.12262396979E+02  0.51100000000E-03 0. -1.
        -11    1    3    3    0    0 -0.39759167857E+01  0.14561596302E+02 -0.88508603578E+00  0.15120561454E+02  0.51100000000E-03 0.  1.
        -12    1    3    3    0    0  0.10507529560E+01 -0.24075432499E+02  0.20930594318E+02  0.31918964743E+02  0.00000000000E+00 0.  1.
</event>
<event>
 7    1  0.1052674E-011  0.5930194E+02  0.7816164E-02  0.1266605E+00
        -11   -1    0    0    0    0  0.00000000000E+00  0.00000000000E+00  0.45593999997E+02  0.45594000000E+02  0.51100000000E-03 0. -1.
         11   -1    0    0    0    0 -0.00000000000E+00 -0.00000000000E+00 -0.45593999997E+02  0.45594000000E+02  0.51100000000E-03 0.  1.
    9900012    2    1    2    0    0 -0.20202109855E+02 -0.85639256657E+01  0.23135568894E+02  0.59301943276E+02  0.49999998628E+02 0.  0.
        -12    1    1    2    0    0  0.20202109855E+02  0.85639256657E+01 -0.23135568894E+02  0.31886056724E+02  0.00000000000E+00 0.  1.
         11    1    3    3    0    0 -0.41545751312E+01  0.11051800944E+02 -0.76841932688E+01  0.14087214951E+02  0.51100000000E-03 0.  1.
        -11    1    3    3    0    0 -0.32466556476E+01 -0.12175009581E+02  0.27193309327E+02  0.29970780831E+02  0.51100000000E-03 0. -1.
         12    1    3    3    0    0 -0.12800879076E+02 -0.74407170286E+01  0.36264528359E+01  0.15243947493E+02  0.00000000000E+00 0. -1.
</event>
<event>
 7    1  0.1052674E-011  0.5930220E+02  0.7816164E-02  0.1266604E+00
        -11   -1    0    0    0    0  0.00000000000E+00  0.00000000000E+00  0.45593999997E+02  0.45594000000E+02  0.51100000000E-03 0. -1.
         11   -1    0    0    0    0 -0.00000000000E+00 -0.00000000000E+00 -0.45593999997E+02  0.45594000000E+02  0.51100000000E-03 0.  1.
    9900012    2    1    2    0    0  0.14341396629E+02 -0.23451732157E+02  0.16156878042E+02  0.59302202119E+02  0.50000470694E+02 0.  0.
        -12    1    1    2    0    0 -0.14341396629E+02  0.23451732157E+02 -0.16156878042E+02  0.31885797881E+02  0.00000000000E+00 0.  1.
         11    1    3    3    0    0 -0.79095386962E+00 -0.20538737440E+02  0.95284815356E+01  0.22655182725E+02  0.51100000000E-03 0. -1.
        -11    1    3    3    0    0 -0.23920996996E+01  0.31647299463E+01 -0.10608489081E+02  0.11325974459E+02  0.51100000000E-03 0.  1.
        -12    1    3    3    0    0  0.17524450198E+02 -0.60777246636E+01  0.17236885588E+02  0.25321044935E+02  0.00000000000E+00 0.  1.
</event>
<event>
 7    1  0.1052674E-011  0.5930194E+02  0.7816164E-02  0.1266605E+00
        -11   -1    0    0    0    0  0.00000000000E+00  0.00000000000E+00  0.45593999997E+02  0.45594000000E+02  0.51100000000E-03 0. -1.
         11   -1    0    0    0    0 -0.00000000000E+00 -0.00000000000E+00 -0.45593999997E+02  0.45594000000E+02  0.51100000000E-03 0.  1.
    9900012    2    1    2    0    0  0.47382897059E+01  0.29983540555E+02  0.97599659923E+01  0.59301936748E+02  0.49999986723E+02 0.  0.
        -12    1    1    2    0    0 -0.47382897059E+01 -0.29983540555E+02 -0.97599659923E+01  0.31886063252E+02  0.00000000000E+00 0.  1.
         11    1    3    3    0    0 -0.26563636180E+01  0.69654233836E+01  0.16235710708E+02  0.17865376936E+02  0.51100000000E-03 0. -1.
        -11    1    3    3    0    0 -0.81546261792E+01  0.13105647062E+01 -0.11607347951E+02  0.14245912912E+02  0.51100000000E-03 0.  1.
        -12    1    3    3    0    0  0.15549279503E+02  0.21707552465E+02  0.51316032348E+01  0.27190646900E+02  0.00000000000E+00 0.  1.
</event>
<event>
 7    1  0.1052674E-011  0.5930197E+02  0.7816164E-02  0.1266605E+00
        -11   -1    0    0    0    0  0.00000000000E+00  0.00000000000E+00  0.45593999997E+02  0.45594000000E+02  0.51100000000E-03 0. -1.
         11   -1    0    0    0    0 -0.00000000000E+00 -0.00000000000E+00 -0.45593999997E+02  0.45594000000E+02  0.51100000000E-03 0.  1.
    9900012    2    1    2    0    0  0.31725371338E+02 -0.21176709970E+01  0.23948425041E+01  0.59301968770E+02  0.50000045123E+02 0.  0.
        -12    1    1    2    0    0 -0.31725371338E+02  0.21176709970E+01 -0.23948425041E+01  0.31886031230E+02  0.00000000000E+00 0.  1.
         11    1    3    3    0    0  0.29549708777E+02 -0.16684078720E+02  0.31250265502E+01  0.34077992352E+02  0.51100000000E-03 0. -1.
        -11    1    3    3    0    0  0.94857037608E+00  0.19807647163E+02 -0.60192479641E+00  0.19839480477E+02  0.51100000000E-03 0.  1.
        -12    1    3    3    0    0  0.12270921852E+01 -0.52412394397E+01 -0.12825924965E+00  0.53844959402E+01  0.00000000000E+00 0.  1.
</event>
<event>
 7    1  0.1052674E-011  0.5930197E+02  0.7816164E-02  0.1266605E+00
        -11   -1    0    0    0    0  0.00000000000E+00  0.00000000000E+00  0.45593999997E+02  0.45594000000E+02  0.51100000000E-03 0. -1.
         11   -1    0    0    0    0 -0.00000000000E+00 -0.00000000000E+00 -0.45593999997E+02  0.45594000000E+02  0.51100000000E-03 0.  1.
    9900012    2    1    2    0    0  0.50556248529E+01 -0.11227815083E+02  0.29412509368E+02  0.59301970434E+02  0.50000048158E+02 0.  0.
        -12    1    1    2    0    0 -0.50556248529E+01  0.11227815083E+02 -0.29412509368E+02  0.31886029566E+02  0.00000000000E+00 0.  1.
         11    1    3    3    0    0 -0.10568724600E+02 -0.12330747493E+02  0.28051047552E+02  0.32413061294E+02  0.51100000000E-03 0. -1.
        -11    1    3    3    0    0  0.15062223210E+02 -0.54108059706E+01 -0.59553032884E+01  0.17076680790E+02  0.51100000000E-03 0.  1.
         12    1    3    3    0    0  0.56212624293E+00  0.65137383812E+01  0.73167651043E+01  0.98122283505E+01  0.00000000000E+00 0. -1.
</event>
<event>
 7    1  0.1052674E-011  0.5930196E+02  0.7816164E-02  0.1266605E+00
        -11   -1    0    0    0    0  0.00000000000E+00  0.00000000000E+00  0.45593999997E+02  0.45594000000E+02  0.51100000000E-03 0. -1.
         11   -1    0    0    0    0 -0.00000000000E+00 -0.00000000000E+00 -0.45593999997E+02  0.45594000000E+02  0.51100000000E-03 0.  1.
    9900012    2    1    2    0    0 -0.25474105503E+02  0.18565489453E+02 -0.48074786004E+01  0.59301963867E+02  0.50000036181E+02 0.  0.
        -12    1    1    2    0    0  0.25474105503E+02 -0.18565489453E+02  0.48074786004E+01  0.31886036133E+02  0.00000000000E+00 0.  1.
         11    1    3    3    0    0  0.23201221689E+01  0.15330930581E+02  0.10457728776E+01  0.15540722008E+02  0.51100000000E-03 0. -1.
        -11    1    3    3    0    0 -0.33252113829E+02 -0.12341930954E+01 -0.10981396261E+02  0.35040225039E+02  0.51100000000E-03 0.  1.
        -12    1    3    3    0    0  0.54578861568E+01  0.44687519673E+01  0.51281447834E+01  0.87210168195E+01  0.00000000000E+00 0.  1.
</event>
<event>
 7    1  0.1052674E-011  0.5930194E+02  0.7816164E-02  0.1266605E+00
        -11   -1    0    0    0    0  0.00000000000E+00  0.00000000000E+00  0.45593999997E+02  0.45594000000E+02  0.51100000000E-03 0.  1.
         11   -1    0    0    0    0 -0.00000000000E+00 -0.00000000000E+00 -0.45593999997E+02  0.45594000000E+02  0.51100000000E-03 0. -1.
    9900012    2    1    2    0    0 -0.93989214260E+01  0.18182452458E+02 -0.24449525990E+02  0.59301943133E+02  0.49999998368E+02 0.  0.
        -12    1    1    2    0    0  0.93989214260E+01 -0.18182452458E+02  0.24449525990E+02  0.31886056867E+02  0.00000000000E+00 0.  1.
         11    1    3    3    0    0 -0.37916846077E+01  0.34762470137E+01  0.11038635054E+00  0.51452260272E+01  0.51100000000E-03 0. -1.
        -11    1    3    3    0    0  0.12058008076E+02  0.18293536726E+01 -0.29345289133E+02  0.31778736416E+02  0.51100000000E-03 0.  1.
        -12    1    3    3    0    0 -0.17665244894E+02  0.12876851772E+02  0.47853767921E+01  0.22377980690E+02  0.00000000000E+00 0.  1.
</event>
<event>
 7    1  0.1052674E-011  0.5930191E+02  0.7816164E-02  0.1266605E+00
        -11   -1    0    0    0    0  0.00000000000E+00  0.00000000000E+00  0.45593999997E+02  0.45594000000E+02  0.51100000000E-03 0.  1.
         11   -1    0    0    0    0 -0.00000000000E+00 -0.00000000000E+00 -0.45593999997E+02  0.45594000000E+02  0.51100000000E-03 0. -1.
    9900012    2    1    2    0    0 -0.51381685178E+01  0.64797244124E+01 -0.30795052932E+02  0.59301907588E+02  0.49999933543E+02 0.  0.
        -12    1    1    2    0    0  0.51381685178E+01 -0.64797244124E+01  0.30795052932E+02  0.31886092412E+02  0.00000000000E+00 0.  1.
         11    1    3    3    0    0 -0.10059238692E+02  0.25659403768E+02 -0.24027441624E+02  0.36563796795E+02  0.51100000000E-03 0. -1.
        -11    1    3    3    0    0  0.29755900026E+01 -0.37078883182E+01  0.16314855164E+01  0.50263621930E+01  0.51100000000E-03 0.  1.
         12    1    3    3    0    0  0.19454801714E+01 -0.15471791038E+02 -0.83990968248E+01  0.17711748600E+02  0.00000000000E+00 0. -1.
</event>
<event>
 7    1  0.1052674E-011  0.5930186E+02  0.7816164E-02  0.1266605E+00
        -11   -1    0    0    0    0  0.00000000000E+00  0.00000000000E+00  0.45593999997E+02  0.45594000000E+02  0.51100000000E-03 0. -1.
         11   -1    0    0    0    0 -0.00000000000E+00 -0.00000000000E+00 -0.45593999997E+02  0.45594000000E+02  0.51100000000E-03 0.  1.
    9900012    2    1    2    0    0  0.19429072604E+02 -0.79567400652E+00  0.25270608485E+02  0.59301864885E+02  0.49999855662E+02 0.  0.
        -12    1    1    2    0    0 -0.19429072604E+02  0.79567400652E+00 -0.25270608485E+02  0.31886135115E+02  0.00000000000E+00 0.  1.
         11    1    3    3    0    0  0.19462505451E+02 -0.38092004496E+01  0.33457819066E+02  0.38893762783E+02  0.51100000000E-03 0. -1.
        -11    1    3    3    0    0 -0.50351781315E+01 -0.48556878412E+01 -0.85866818765E+01  0.11075280093E+02  0.51100000000E-03 0.  1.
         12    1    3    3    0    0  0.50017452843E+01  0.78692142843E+01  0.39947129604E+00  0.93328220093E+01  0.00000000000E+00 0. -1.
</event>
<event>
 7    1  0.1052674E-011  0.5930195E+02  0.7816164E-02  0.1266605E+00
        -11   -1    0    0    0    0  0.00000000000E+00  0.00000000000E+00  0.45593999997E+02  0.45594000000E+02  0.51100000000E-03 0.  1.
         11   -1    0    0    0    0 -0.00000000000E+00 -0.00000000000E+00 -0.45593999997E+02  0.45594000000E+02  0.51100000000E-03 0. -1.
    9900012    2    1    2    0    0  0.16603027469E+02 -0.19129893454E+02 -0.19367677677E+02  0.59301948453E+02  0.50000008070E+02 0.  0.
        -12    1    1    2    0    0 -0.16603027469E+02  0.19129893454E+02  0.19367677677E+02  0.31886051547E+02  0.00000000000E+00 0.  1.
         11    1    3    3    0    0  0.54605626213E+01  0.28626699042E+01 -0.25085878183E+02  0.25832419700E+02  0.51100000000E-03 0. -1.
        -11    1    3    3    0    0 -0.12290747169E+01 -0.18622528648E+02  0.82407053484E+01  0.20401431882E+02  0.51100000000E-03 0.  1.
        -12    1    3    3    0    0  0.12371539565E+02 -0.33700347095E+01 -0.25225048423E+01  0.13068096871E+02  0.00000000000E+00 0.  1.
</event>
<event>
 7    1  0.1052674E-011  0.5930192E+02  0.7816164E-02  0.1266605E+00
        -11   -1    0    0    0    0  0.00000000000E+00  0.00000000000E+00  0.45593999997E+02  0.45594000000E+02  0.51100000000E-03 0.  1.
         11   -1    0    0    0    0 -0.00000000000E+00 -0.00000000000E+00 -0.45593999997E+02  0.45594000000E+02  0.51100000000E-03 0. -1.
    9900012    2    1    2    0    0 -0.26224999181E+02 -0.13602452864E+02 -0.11997688670E+02  0.59301924052E+02  0.49999963568E+02 0.  0.
        -12    1    1    2    0    0  0.26224999181E+02  0.13602452864E+02  0.11997688670E+02  0.31886075948E+02  0.00000000000E+00 0.  1.
         11    1    3    3    0    0 -0.71897932440E-01 -0.20288144060E+02 -0.29774548379E+01  0.20505589391E+02  0.51100000000E-03 0. -1.
        -11    1    3    3    0    0 -0.31187568672E+02  0.31645937539E+01 -0.91351472527E+01  0.32651646342E+02  0.51100000000E-03 0.  1.
        -12    1    3    3    0    0  0.50344674231E+01  0.35210974420E+01  0.11491342043E+00  0.61446883179E+01  0.00000000000E+00 0.  1.
</event>
<event>
 7    1  0.1052674E-011  0.5930187E+02  0.7816164E-02  0.1266605E+00
        -11   -1    0    0    0    0  0.00000000000E+00  0.00000000000E+00  0.45593999997E+02  0.45594000000E+02  0.51100000000E-03 0.  1.
         11   -1    0    0    0    0 -0.00000000000E+00 -0.00000000000E+00 -0.45593999997E+02  0.45594000000E+02  0.51100000000E-03 0. -1.
    9900012    2    1    2    0    0 -0.29396036422E+02 -0.11027803004E+02 -0.55665099800E+01  0.59301867752E+02  0.49999860890E+02 0.  0.
        -12    1    1    2    0    0  0.29396036422E+02  0.11027803004E+02  0.55665099800E+01  0.31886132248E+02  0.00000000000E+00 0.  1.
         11    1    3    3    0    0 -0.12940192997E+02  0.14054688177E+02  0.80934597300E+01  0.20748179323E+02  0.51100000000E-03 0. -1.
        -11    1    3    3    0    0  0.98067233851E+00 -0.14291749687E+02 -0.10601239053E+02  0.17821394364E+02  0.51100000000E-03 0.  1.
         12    1    3    3    0    0 -0.17436515763E+02 -0.10790741494E+02 -0.30587306570E+01  0.20732294065E+02  0.00000000000E+00 0. -1.
</event>
<event>
 7    1  0.1052674E-011  0.5930195E+02  0.7816164E-02  0.1266605E+00
        -11   -1    0    0    0    0  0.00000000000E+00  0.00000000000E+00  0.45593999997E+02  0.45594000000E+02  0.51100000000E-03 0.  1.
         11   -1    0    0    0    0 -0.00000000000E+00 -0.00000000000E+00 -0.45593999997E+02  0.45594000000E+02  0.51100000000E-03 0. -1.
    9900012    2    1    2    0    0  0.17236108814E+02 -0.17004518484E+01 -0.26772091547E+02  0.59301954943E+02  0.50000019907E+02 0.  0.
        -12    1    1    2    0    0 -0.17236108814E+02  0.17004518484E+01  0.26772091547E+02  0.31886045057E+02  0.00000000000E+00 0.  1.
         11    1    3    3    0    0  0.20051931356E+01  0.94589839437E+01 -0.15852225254E+02  0.18568420033E+02  0.51100000000E-03 0. -1.
        -11    1    3    3    0    0  0.13558527734E+01 -0.21145933842E+02 -0.10463856550E+02  0.23632205757E+02  0.51100000000E-03 0.  1.
        -12    1    3    3    0    0  0.13875062905E+02  0.99864980497E+01 -0.45600974347E+00  0.17101329153E+02  0.00000000000E+00 0.  1.
</event>
<event>
 7    1  0.1052674E-011  0.5930172E+02  0.7816164E-02  0.1266606E+00
        -11   -1    0    0    0    0  0.00000000000E+00  0.00000000000E+00  0.45593999997E+02  0.45594000000E+02  0.51100000000E-03 0.  1.
         11   -1    0    0    0    0 -0.00000000000E+00 -0.00000000000E+00 -0.45593999997E+02  0.45594000000E+02  0.51100000000E-03 0. -1.
    9900012    2    1    2    0    0 -0.29018749640E+02 -0.11700791793E+02 -0.61431709684E+01  0.59301719114E+02  0.49999589809E+02 0.  0.
        -12    1    1    2    0    0  0.29018749640E+02  0.11700791793E+02  0.61431709684E+01  0.31886280886E+02  0.00000000000E+00 0.  1.
         11    1    3    3    0    0 -0.19494959422E+02 -0.28294427444E+02 -0.38981812829E+01  0.34580686587E+02  0.51100000000E-03 0. -1.
        -11    1    3    3    0    0 -0.24433589892E+01  0.17137932030E+02 -0.13097651675E+00  0.17311726445E+02  0.51100000000E-03 0.  1.
         12    1    3    3    0    0 -0.70804312288E+01 -0.54429637868E+00 -0.21140131688E+01  0.74093060816E+01  0.00000000000E+00 0. -1.
</event>
<event>
 7    1  0.1052674E-011  0.5930188E+02  0.7816164E-02  0.1266605E+00
        -11   -1    0    0    0    0  0.00000000000E+00  0.00000000000E+00  0.45593999997E+02  0.45594000000E+02  0.51100000000E-03 0.  1.
         11   -1    0    0    0    0 -0.00000000000E+00 -0.00000000000E+00 -0.45593999997E+02  0.45594000000E+02  0.51100000000E-03 0. -1.
    9900012    2    1    2    0    0  0.22992026039E+02  0.39105012711E+01 -0.21743951695E+02  0.59301878930E+02  0.49999881278E+02 0.  0.
        -12    1    1    2    0    0 -0.22992026039E+02 -0.39105012711E+01  0.21743951695E+02  0.31886121070E+02  0.00000000000E+00 0.  1.
         11    1    3    3    0    0 -0.32509634861E+01  0.17775968497E+02 -0.88574255045E+01  0.20124805748E+02  0.51100000000E-03 0. -1.
        -11    1    3    3    0    0  0.22926395267E+02 -0.47399342381E+01 -0.47135471932E+00  0.23415993510E+02  0.51100000000E-03 0.  1.
         12    1    3    3    0    0  0.33165942580E+01 -0.91255329873E+01 -0.12415171471E+02  0.15761079672E+02  0.00000000000E+00 0. -1.
</event>
<event>
 7    1  0.1052674E-011  0.5930192E+02  0.7816164E-02  0.1266605E+00
        -11   -1    0    0    0    0  0.00000000000E+00  0.00000000000E+00  0.45593999997E+02  0.45594000000E+02  0.51100000000E-03 0.  1.
         11   -1    0    0    0    0 -0.00000000000E+00 -0.00000000000E+00 -0.45593999997E+02  0.45594000000E+02  0.51100000000E-03 0. -1.
    9900012    2    1    2    0    0 -0.29093349381E+02 -0.43715965805E+01  0.12295868085E+02  0.59301918290E+02  0.49999953060E+02 0.  0.
        -12    1    1    2    0    0  0.29093349381E+02  0.43715965805E+01 -0.12295868085E+02  0.31886081710E+02  0.00000000000E+00 0.  1.
         11    1    3    3    0    0 -0.53211086108E+01  0.46155170451E+00 -0.87497098322E+01  0.10251080393E+02  0.51100000000E-03 0. -1.
        -11    1    3    3    0    0 -0.19920988215E+02  0.88553824355E+01  0.26056683083E+02  0.33973729602E+02  0.51100000000E-03 0.  1.
        -12    1    3    3    0    0 -0.38512525554E+01 -0.13688530720E+02 -0.50111051659E+01  0.15077108294E+02  0.00000000000E+00 0.  1.
</event>
<event>
 7    1  0.1052674E-011  0.5930192E+02  0.7816164E-02  0.1266605E+00
        -11   -1    0    0    0    0  0.00000000000E+00  0.00000000000E+00  0.45593999997E+02  0.45594000000E+02  0.51100000000E-03 0.  1.
         11   -1    0    0    0    0 -0.00000000000E+00 -0.00000000000E+00 -0.45593999997E+02  0.45594000000E+02  0.51100000000E-03 0. -1.
    9900012    2    1    2    0    0  0.50262859222E+01 -0.18488984390E+02 -0.25487561458E+02  0.59301923367E+02  0.49999962320E+02 0.  0.
        -12    1    1    2    0    0 -0.50262859222E+01  0.18488984390E+02  0.25487561458E+02  0.31886076633E+02  0.00000000000E+00 0.  1.
         11    1    3    3    0    0  0.72055581345E+01 -0.19701574477E+02 -0.39524411052E+02  0.44746521363E+02  0.51100000000E-03 0. -1.
        -11    1    3    3    0    0 -0.23468071754E+01  0.19616463704E+01  0.10512323013E+02  0.10948264511E+02  0.51100000000E-03 0.  1.
         12    1    3    3    0    0  0.16753496311E+00 -0.74905628365E+00  0.35245265803E+01  0.36071374933E+01  0.00000000000E+00 0. -1.
</event>
<event>
 7    1  0.1052674E-011  0.5930196E+02  0.7816164E-02  0.1266605E+00
        -11   -1    0    0    0    0  0.00000000000E+00  0.00000000000E+00  0.45593999997E+02  0.45594000000E+02  0.51100000000E-03 0.  1.
         11   -1    0    0    0    0 -0.00000000000E+00 -0.00000000000E+00 -0.45593999997E+02  0.45594000000E+02  0.51100000000E-03 0. -1.
    9900012    2    1    2    0    0 -0.56873437961E+01 -0.97726533704E+01 -0.29813906691E+02  0.59301958139E+02  0.50000025736E+02 0.  0.
        -12    1    1    2    0    0  0.56873437961E+01  0.97726533704E+01  0.29813906691E+02  0.31886041861E+02  0.00000000000E+00 0.  1.
         11    1    3    3    0    0  0.11620472580E+02 -0.12429671930E+02 -0.36091264033E+02  0.39901271496E+02  0.51100000000E-03 0. -1.
        -11    1    3    3    0    0 -0.90396883632E+01 -0.86760092175E+00  0.14434790303E+01  0.91952340392E+01  0.51100000000E-03 0.  1.
         12    1    3    3    0    0 -0.82681280133E+01  0.35246194809E+01  0.48338783113E+01  0.10205452604E+02  0.00000000000E+00 0. -1.
</event>
<event>
 7    1  0.1052674E-011  0.5930193E+02  0.7816164E-02  0.1266605E+00
        -11   -1    0    0    0    0  0.00000000000E+00  0.00000000000E+00  0.45593999997E+02  0.45594000000E+02  0.51100000000E-03 0. -1.
         11   -1    0    0    0    0 -0.00000000000E+00 -0.00000000000E+00 -0.45593999997E+02  0.45594000000E+02  0.51100000000E-03 0.  1.
    9900012    2    1    2    0    0 -0.13692488748E+02  0.25906649078E+02  0.12573095864E+02  0.59301930092E+02  0.49999974585E+02 0.  0.
        -12    1    1    2    0    0  0.13692488748E+02 -0.25906649078E+02 -0.12573095864E+02  0.31886069908E+02  0.00000000000E+00 0.  1.
         11    1    3    3    0    0 -0.16878974323E+02  0.16388525277E+02  0.18394270907E+01  0.23598030156E+02  0.51100000000E-03 0. -1.
        -11    1    3    3    0    0  0.74369747568E+01 -0.46619111868E+01 -0.79665267044E+01  0.11853588378E+02  0.51100000000E-03 0.  1.
        -12    1    3    3    0    0 -0.42504891815E+01  0.14180034988E+02  0.18700195478E+02  0.23850311559E+02  0.00000000000E+00 0.  1.
</event>
<event>
 7    1  0.1052674E-011  0.5930193E+02  0.7816164E-02  0.1266605E+00
        -11   -1    0    0    0    0  0.00000000000E+00  0.00000000000E+00  0.45593999997E+02  0.45594000000E+02  0.51100000000E-03 0.  1.
         11   -1    0    0    0    0 -0.00000000000E+00 -0.00000000000E+00 -0.45593999997E+02  0.45594000000E+02  0.51100000000E-03 0. -1.
    9900012    2    1    2    0    0 -0.17177649020E+01  0.97805844640E+01 -0.30300349268E+02  0.59301926010E+02  0.49999967140E+02 0.  0.
        -12    1    1    2    0    0  0.17177649020E+01 -0.97805844640E+01  0.30300349268E+02  0.31886073990E+02  0.00000000000E+00 0.  1.
         11    1    3    3    0    0  0.94074801325E+00  0.13962959119E+02  0.56392967936E+00  0.14005971981E+02  0.51100000000E-03 0. -1.
        -11    1    3    3    0    0 -0.17689807207E+02 -0.34001277001E+01 -0.18447181745E+02  0.25783495923E+02  0.51100000000E-03 0.  1.
        -12    1    3    3    0    0  0.15031294292E+02 -0.78224695535E+00 -0.12417097203E+02  0.19512458106E+02  0.00000000000E+00 0.  1.
</event>
<event>
 7    1  0.1052674E-011  0.5930190E+02  0.7816164E-02  0.1266605E+00
        -11   -1    0    0    0    0  0.00000000000E+00  0.00000000000E+00  0.45593999997E+02  0.45594000000E+02  0.51100000000E-03 0.  1.
         11   -1    0    0    0    0 -0.00000000000E+00 -0.00000000000E+00 -0.45593999997E+02  0.45594000000E+02  0.51100000000E-03 0. -1.
    9900012    2    1    2    0    0  0.27758516077E+02  0.17768533699E+01 -0.15589458990E+02  0.59301895592E+02  0.49999911665E+02 0.  0.
        -12    1    1    2    0    0 -0.27758516077E+02 -0.17768533699E+01  0.15589458990E+02  0.31886104408E+02  0.00000000000E+00 0.  1.
         11    1    3    3    0    0  0.29787409509E+02 -0.49455531581E+01 -0.11612715672E+02  0.32351250777E+02  0.51100000000E-03 0. -1.
        -11    1    3    3    0    0 -0.95403079460E+00  0.13736318009E+02 -0.10496833027E+02  0.17314159265E+02  0.51100000000E-03 0.  1.
         12    1    3    3    0    0 -0.10748626367E+01 -0.70139114814E+01  0.65200897081E+01  0.96364855502E+01  0.00000000000E+00 0. -1.
</event>
<event>
 7    1  0.1052674E-011  0.5930191E+02  0.7816164E-02  0.1266605E+00
        -11   -1    0    0    0    0  0.00000000000E+00  0.00000000000E+00  0.45593999997E+02  0.45594000000E+02  0.51100000000E-03 0.  1.
         11   -1    0    0    0    0 -0.00000000000E+00 -0.00000000000E+00 -0.45593999997E+02  0.45594000000E+02  0.51100000000E-03 0. -1.
    9900012    2    1    2    0    0 -0.61386672424E+01  0.28492644995E+02 -0.12930918679E+02  0.59301910365E+02  0.49999938608E+02 0.  0.
        -12    1    1    2    0    0  0.61386672424E+01 -0.28492644995E+02  0.12930918679E+02  0.31886089635E+02  0.00000000000E+00 0.  1.
         11    1    3    3    0    0  0.17366520230E+01  0.38693121568E+02 -0.12780393650E+02  0.40786175097E+02  0.51100000000E-03 0. -1.
        -11    1    3    3    0    0 -0.11484119041E+02 -0.73503425351E+01 -0.15153430759E+01  0.13718920892E+02  0.51100000000E-03 0.  1.
         12    1    3    3    0    0  0.36087997759E+01 -0.28501340385E+01  0.13648180468E+01  0.47968143763E+01  0.00000000000E+00 0. -1.
</event>
<event>
 7    1  0.1052674E-011  0.5930197E+02  0.7816164E-02  0.1266605E+00
        -11   -1    0    0    0    0  0.00000000000E+00  0.00000000000E+00  0.45593999997E+02  0.45594000000E+02  0.51100000000E-03 0. -1.
         11   -1    0    0    0    0 -0.00000000000E+00 -0.00000000000E+00 -0.45593999997E+02  0.45594000000E+02  0.51100000000E-03 0.  1.
    9900012    2    1    2    0    0 -0.30460061584E+02  0.76882240472E+01  0.54584728735E+01  0.59301967528E+02  0.50000042858E+02 0.  0.
        -12    1    1    2    0    0  0.30460061584E+02 -0.76882240472E+01 -0.54584728735E+01  0.31886032472E+02  0.00000000000E+00 0.  1.
         11    1    3    3    0    0 -0.20860201356E+02  0.10067278065E+02  0.14947990006E+02  0.27567018224E+02  0.51100000000E-03 0. -1.
        -11    1    3    3    0    0  0.87812626810E+01  0.28765556675E+01 -0.85578873984E+01  0.12594545794E+02  0.51100000000E-03 0.  1.
        -12    1    3    3    0    0 -0.18381122909E+02 -0.52556096850E+01 -0.93162973399E+00  0.19140403510E+02  0.00000000000E+00 0.  1.
</event>
<event>
 7    1  0.1052674E-011  0.5930194E+02  0.7816164E-02  0.1266605E+00
        -11   -1    0    0    0    0  0.00000000000E+00  0.00000000000E+00  0.45593999997E+02  0.45594000000E+02  0.51100000000E-03 0. -1.
         11   -1    0    0    0    0 -0.00000000000E+00 -0.00000000000E+00 -0.45593999997E+02  0.45594000000E+02  0.51100000000E-03 0.  1.
    9900012    2    1    2    0    0 -0.32500342085E+01 -0.23203076863E+01  0.31635013414E+02  0.59301943112E+02  0.49999998331E+02 0.  0.
        -12    1    1    2    0    0  0.32500342085E+01  0.23203076863E+01 -0.31635013414E+02  0.31886056888E+02  0.00000000000E+00 0.  1.
         11    1    3    3    0    0 -0.22943370669E+02  0.11370773775E+02  0.13245170913E+02  0.28829278636E+02  0.51100000000E-03 0. -1.
        -11    1    3    3    0    0  0.26504211373E+01 -0.15074962529E+01  0.89294479773E+00  0.31772044049E+01  0.51100000000E-03 0.  1.
         12    1    3    3    0    0  0.17042915324E+02 -0.12183585208E+02  0.17496897704E+02  0.27295460072E+02  0.00000000000E+00 0. -1.
</event>
<event>
 7    1  0.1052674E-011  0.5930194E+02  0.7816164E-02  0.1266605E+00
        -11   -1    0    0    0    0  0.00000000000E+00  0.00000000000E+00  0.45593999997E+02  0.45594000000E+02  0.51100000000E-03 0.  1.
         11   -1    0    0    0    0 -0.00000000000E+00 -0.00000000000E+00 -0.45593999997E+02  0.45594000000E+02  0.51100000000E-03 0. -1.
    9900012    2    1    2    0    0 -0.22087504557E+02  0.18625916606E+02 -0.13488449608E+02  0.59301938785E+02  0.49999990439E+02 0.  0.
        -12    1    1    2    0    0  0.22087504557E+02 -0.18625916606E+02  0.13488449608E+02  0.31886061215E+02  0.00000000000E+00 0.  1.
         11    1    3    3    0    0 -0.46423928245E+01  0.12976703053E+02 -0.14969300213E+02  0.20347643165E+02  0.51100000000E-03 0. -1.
        -11    1    3    3    0    0 -0.24893027125E+01  0.37924871855E+01  0.16837557530E+02  0.17437973819E+02  0.51100000000E-03 0.  1.
        -12    1    3    3    0    0 -0.14955809020E+02  0.18567263677E+01 -0.15356706926E+02  0.21516321801E+02  0.00000000000E+00 0.  1.
</event>
<event>
 7    1  0.1052674E-011  0.5930193E+02  0.7816164E-02  0.1266605E+00
        -11   -1    0    0    0    0  0.00000000000E+00  0.00000000000E+00  0.45593999997E+02  0.45594000000E+02  0.51100000000E-03 0. -1.
         11   -1    0    0    0    0 -0.00000000000E+00 -0.00000000000E+00 -0.45593999997E+02  0.45594000000E+02  0.51100000000E-03 0.  1.
    9900012    2    1    2    0    0  0.11543276169E+01 -0.67195857593E+01  0.31148612910E+02  0.59301931079E+02  0.49999976384E+02 0.  0.
        -12    1    1    2    0    0 -0.11543276169E+01  0.67195857593E+01 -0.31148612910E+02  0.31886068921E+02  0.00000000000E+00 0.  1.
         11    1    3    3    0    0  0.14904680158E+02 -0.17023736392E+02  0.25010673307E+02  0.33726708569E+02  0.51100000000E-03 0. -1.
        -11    1    3    3    0    0 -0.16073597137E+01  0.57419209081E+01  0.10343245959E+02  0.11938844090E+02  0.51100000000E-03 0.  1.
         12    1    3    3    0    0 -0.12142992827E+02  0.45622297250E+01 -0.42053063565E+01  0.13636378420E+02  0.00000000000E+00 0. -1.
</event>
<event>
 7    1  0.1052674E-011  0.5930192E+02  0.7816164E-02  0.1266605E+00
        -11   -1    0    0    0    0  0.00000000000E+00  0.00000000000E+00  0.45593999997E+02  0.45594000000E+02  0.51100000000E-03 0. -1.
         11   -1    0    0    0    0 -0.00000000000E+00 -0.00000000000E+00 -0.45593999997E+02  0.45594000000E+02  0.51100000000E-03 0.  1.
    9900012    2    1    2    0    0  0.19494554395E+02 -0.16195925625E+02  0.19348809311E+02  0.59301920284E+02  0.49999956697E+02 0.  0.
        -12    1    1    2    0    0 -0.19494554395E+02  0.16195925625E+02 -0.19348809311E+02  0.31886079716E+02  0.00000000000E+00 0.  1.
         11    1    3    3    0    0  0.40604344835E+01 -0.16408298178E+02  0.17408102334E+02  0.24264406121E+02  0.51100000000E-03 0. -1.
        -11    1    3    3    0    0  0.12167950778E+02 -0.35643697753E+01 -0.13671658786E+02  0.18646125932E+02  0.51100000000E-03 0.  1.
        -12    1    3    3    0    0  0.32661691337E+01  0.37767423282E+01  0.15612365763E+02  0.16391388231E+02  0.00000000000E+00 0.  1.
</event>
<event>
 7    1  0.1052674E-011  0.5930194E+02  0.7816164E-02  0.1266605E+00
        -11   -1    0    0    0    0  0.00000000000E+00  0.00000000000E+00  0.45593999997E+02  0.45594000000E+02  0.51100000000E-03 0. -1.
         11   -1    0    0    0    0 -0.00000000000E+00 -0.00000000000E+00 -0.45593999997E+02  0.45594000000E+02  0.51100000000E-03 0.  1.
    9900012    2    1    2    0    0  0.26614024832E+02  0.88109488749E+00  0.17539609948E+02  0.59301944065E+02  0.50000000068E+02 0.  0.
        -12    1    1    2    0    0 -0.26614024832E+02 -0.88109488749E+00 -0.17539609948E+02  0.31886055935E+02  0.00000000000E+00 0.  1.
         11    1    3    3    0    0  0.32576658969E+02 -0.35025594371E+01 -0.40596253153E+01  0.33014954039E+02  0.51100000000E-03 0.  1.
        -11    1    3    3    0    0 -0.83863069384E+00 -0.44512657025E+01  0.46014382363E+01  0.64568027613E+01  0.51100000000E-03 0. -1.
         12    1    3    3    0    0 -0.51240034434E+01  0.88349200271E+01  0.16997797027E+02  0.19830187265E+02  0.00000000000E+00 0. -1.
</event>
<event>
 7    1  0.1052674E-011  0.5930190E+02  0.7816164E-02  0.1266605E+00
        -11   -1    0    0    0    0  0.00000000000E+00  0.00000000000E+00  0.45593999997E+02  0.45594000000E+02  0.51100000000E-03 0. -1.
         11   -1    0    0    0    0 -0.00000000000E+00 -0.00000000000E+00 -0.45593999997E+02  0.45594000000E+02  0.51100000000E-03 0.  1.
    9900012    2    1    2    0    0  0.30605182032E+02 -0.62707604509E+01  0.63815043603E+01  0.59301902688E+02  0.49999924607E+02 0.  0.
        -12    1    1    2    0    0 -0.30605182032E+02  0.62707604509E+01 -0.63815043603E+01  0.31886097312E+02  0.00000000000E+00 0.  1.
         11    1    3    3    0    0  0.32637447428E+01  0.19233943292E+02 -0.17801855616E+01  0.19589937856E+02  0.51100000000E-03 0. -1.
        -11    1    3    3    0    0  0.27364873745E+01 -0.79505652444E+01  0.15159156128E-01  0.84083340155E+01  0.51100000000E-03 0.  1.
         12    1    3    3    0    0  0.24604949915E+02 -0.17554138499E+02  0.81465307658E+01  0.31303630816E+02  0.00000000000E+00 0. -1.
</event>
<event>
 7    1  0.1052674E-011  0.5930197E+02  0.7816164E-02  0.1266605E+00
        -11   -1    0    0    0    0  0.00000000000E+00  0.00000000000E+00  0.45593999997E+02  0.45594000000E+02  0.51100000000E-03 0.  1.
         11   -1    0    0    0    0 -0.00000000000E+00 -0.00000000000E+00 -0.45593999997E+02  0.45594000000E+02  0.51100000000E-03 0. -1.
    9900012    2    1    2    0    0 -0.18587626367E+02  0.12805841247E+02 -0.22521757931E+02  0.59301968508E+02  0.50000044646E+02 0.  0.
        -12    1    1    2    0    0  0.18587626367E+02 -0.12805841247E+02  0.22521757931E+02  0.31886031492E+02  0.00000000000E+00 0.  1.
         11    1    3    3    0    0 -0.11383717484E+02 -0.12413739097E+02 -0.45563630445E+01  0.17448506715E+02  0.51100000000E-03 0. -1.
        -11    1    3    3    0    0  0.79530595460E+01  0.18391985210E+02 -0.14848986404E+02  0.24940101715E+02  0.51100000000E-03 0.  1.
        -12    1    3    3    0    0 -0.15156968430E+02  0.68275951343E+01 -0.31164084823E+01  0.16913360078E+02  0.00000000000E+00 0.  1.
</event>
<event>
 7    1  0.1052674E-011  0.5930190E+02  0.7816164E-02  0.1266605E+00
        -11   -1    0    0    0    0  0.00000000000E+00  0.00000000000E+00  0.45593999997E+02  0.45594000000E+02  0.51100000000E-03 0.  1.
         11   -1    0    0    0    0 -0.00000000000E+00 -0.00000000000E+00 -0.45593999997E+02  0.45594000000E+02  0.51100000000E-03 0. -1.
    9900012    2    1    2    0    0  0.30091418543E+02  0.41322118075E+01 -0.97033319221E+01  0.59301901230E+02  0.49999921948E+02 0.  0.
        -12    1    1    2    0    0 -0.30091418543E+02 -0.41322118075E+01  0.97033319221E+01  0.31886098770E+02  0.00000000000E+00 0.  1.
         11    1    3    3    0    0  0.23588100161E+02  0.10058689049E+02  0.14390538888E+01  0.25683585633E+02  0.51100000000E-03 0. -1.
        -11    1    3    3    0    0 -0.69952313810E+01 -0.13773369177E+02 -0.21403371629E+01  0.15595512303E+02  0.51100000000E-03 0.  1.
        -12    1    3    3    0    0  0.13498549763E+02  0.78468919352E+01 -0.90020486480E+01  0.18022803295E+02  0.00000000000E+00 0.  1.
</event>
<event>
 7    1  0.1052674E-011  0.5930187E+02  0.7816164E-02  0.1266605E+00
        -11   -1    0    0    0    0  0.00000000000E+00  0.00000000000E+00  0.45593999997E+02  0.45594000000E+02  0.51100000000E-03 0.  1.
         11   -1    0    0    0    0 -0.00000000000E+00 -0.00000000000E+00 -0.45593999997E+02  0.45594000000E+02  0.51100000000E-03 0. -1.
    9900012    2    1    2    0    0 -0.84352881600E+01 -0.12608564196E+02 -0.28046304882E+02  0.59301871433E+02  0.49999867605E+02 0.  0.
        -12    1    1    2    0    0  0.84352881600E+01  0.12608564196E+02  0.28046304882E+02  0.31886128567E+02  0.00000000000E+00 0.  1.
         11    1    3    3    0    0  0.79400684698E-01  0.12627115425E+02 -0.27053189253E+02  0.29855073228E+02  0.51100000000E-03 0. -1.
        -11    1    3    3    0    0 -0.48933489333E+00 -0.15970268864E+01  0.36873282809E+01  0.40480036594E+01  0.51100000000E-03 0.  1.
         12    1    3    3    0    0 -0.80253539514E+01 -0.23638652735E+02 -0.46804439101E+01  0.25398794545E+02  0.00000000000E+00 0. -1.
</event>
<event>
 7    1  0.1052674E-011  0.5930197E+02  0.7816164E-02  0.1266605E+00
        -11   -1    0    0    0    0  0.00000000000E+00  0.00000000000E+00  0.45593999997E+02  0.45594000000E+02  0.51100000000E-03 0.  1.
         11   -1    0    0    0    0 -0.00000000000E+00 -0.00000000000E+00 -0.45593999997E+02  0.45594000000E+02  0.51100000000E-03 0. -1.
    9900012    2    1    2    0    0 -0.18412214318E+02  0.24653511428E+02 -0.83614222982E+01  0.59301974147E+02  0.50000054930E+02 0.  0.
        -12    1    1    2    0    0  0.18412214318E+02 -0.24653511428E+02  0.83614222982E+01  0.31886025853E+02  0.00000000000E+00 0.  1.
         11    1    3    3    0    0 -0.22612847922E+02  0.31110461274E+02 -0.35200891786E+01  0.38621143431E+02  0.51100000000E-03 0. -1.
        -11    1    3    3    0    0  0.54728907110E+00 -0.78003174466E+01  0.55470132182E+01  0.95871702550E+01  0.51100000000E-03 0.  1.
        -12    1    3    3    0    0  0.36533445329E+01  0.13433676015E+01 -0.10388346338E+02  0.11093660461E+02  0.00000000000E+00 0.  1.
</event>
<event>
 7    1  0.1052674E-011  0.5930194E+02  0.7816164E-02  0.1266605E+00
        -11   -1    0    0    0    0  0.00000000000E+00  0.00000000000E+00  0.45593999997E+02  0.45594000000E+02  0.51100000000E-03 0. -1.
         11   -1    0    0    0    0 -0.00000000000E+00 -0.00000000000E+00 -0.45593999997E+02  0.45594000000E+02  0.51100000000E-03 0.  1.
    9900012    2    1    2    0    0 -0.31578693900E+02 -0.23328356641E+01 -0.37503339494E+01  0.59301936659E+02  0.49999986562E+02 0.  0.
        -12    1    1    2    0    0  0.31578693900E+02  0.23328356641E+01  0.37503339494E+01  0.31886063341E+02  0.00000000000E+00 0.  1.
         11    1    3    3    0    0 -0.27286745404E+02 -0.25617190295E+01 -0.10131010008E+02  0.29219278622E+02  0.51100000000E-03 0. -1.
        -11    1    3    3    0    0  0.24780174505E+01  0.12944879857E+02  0.82605527705E+01  0.15554652595E+02  0.51100000000E-03 0.  1.
        -12    1    3    3    0    0 -0.67699659456E+01 -0.12715996492E+02 -0.18798767115E+01  0.14528005442E+02  0.00000000000E+00 0.  1.
</event>
<event>
 7    1  0.1052674E-011  0.5930196E+02  0.7816164E-02  0.1266605E+00
        -11   -1    0    0    0    0  0.00000000000E+00  0.00000000000E+00  0.45593999997E+02  0.45594000000E+02  0.51100000000E-03 0.  1.
         11   -1    0    0    0    0 -0.00000000000E+00 -0.00000000000E+00 -0.45593999997E+02  0.45594000000E+02  0.51100000000E-03 0. -1.
    9900012    2    1    2    0    0  0.30157643546E+02 -0.58140412687E+01  0.85693069540E+01  0.59301959766E+02  0.50000028703E+02 0.  0.
        -12    1    1    2    0    0 -0.30157643546E+02  0.58140412687E+01 -0.85693069540E+01  0.31886040234E+02  0.00000000000E+00 0.  1.
         11    1    3    3    0    0  0.18751019004E+02 -0.20614664194E+02  0.50938673128E+01  0.28328652951E+02  0.51100000000E-03 0. -1.
        -11    1    3    3    0    0  0.48158591614E+01  0.17826196082E+02  0.10189812891E+02  0.21090235969E+02  0.51100000000E-03 0.  1.
         12    1    3    3    0    0  0.65907653800E+01 -0.30255731560E+01 -0.67143732500E+01  0.98830708465E+01  0.00000000000E+00 0. -1.
</event>
<event>
 7    1  0.1052674E-011  0.5930200E+02  0.7816164E-02  0.1266605E+00
        -11   -1    0    0    0    0  0.00000000000E+00  0.00000000000E+00  0.45593999997E+02  0.45594000000E+02  0.51100000000E-03 0.  1.
         11   -1    0    0    0    0 -0.00000000000E+00 -0.00000000000E+00 -0.45593999997E+02  0.45594000000E+02  0.51100000000E-03 0. -1.
    9900012    2    1    2    0    0 -0.13159253771E+02  0.17324857799E+02 -0.23310954369E+02  0.59301995999E+02  0.50000094782E+02 0.  0.
        -12    1    1    2    0    0  0.13159253771E+02 -0.17324857799E+02  0.23310954369E+02  0.31886004001E+02  0.00000000000E+00 0.  1.
         11    1    3    3    0    0 -0.12957649670E+02 -0.56633624681E+01 -0.25389614700E+02  0.29062121297E+02  0.51100000000E-03 0. -1.
        -11    1    3    3    0    0  0.19732352420E+01  0.20016044417E+02 -0.63089341803E+01  0.21079334482E+02  0.51100000000E-03 0.  1.
         12    1    3    3    0    0 -0.21748393430E+01  0.29721758498E+01  0.83875945105E+01  0.91605402200E+01  0.00000000000E+00 0. -1.
</event>
<event>
 7    1  0.1052674E-011  0.5930192E+02  0.7816164E-02  0.1266605E+00
        -11   -1    0    0    0    0  0.00000000000E+00  0.00000000000E+00  0.45593999997E+02  0.45594000000E+02  0.51100000000E-03 0.  1.
         11   -1    0    0    0    0 -0.00000000000E+00 -0.00000000000E+00 -0.45593999997E+02  0.45594000000E+02  0.51100000000E-03 0. -1.
    9900012    2    1    2    0    0 -0.17033960580E+02  0.19170306022E+02 -0.18949024624E+02  0.59301921843E+02  0.49999959541E+02 0.  0.
        -12    1    1    2    0    0  0.17033960580E+02 -0.19170306022E+02  0.18949024624E+02  0.31886078157E+02  0.00000000000E+00 0.  1.
         11    1    3    3    0    0 -0.76762244106E+01  0.35681991514E+02 -0.13566187384E+02  0.38938032565E+02  0.51100000000E-03 0. -1.
        -11    1    3    3    0    0 -0.26164139598E+01 -0.90594339958E+01 -0.39074277901E+01  0.10207201307E+02  0.51100000000E-03 0.  1.
         12    1    3    3    0    0 -0.67413222100E+01 -0.74522514961E+01 -0.14754094499E+01  0.10156687971E+02  0.00000000000E+00 0. -1.
</event>
<event>
 7    1  0.1052674E-011  0.5930194E+02  0.7816164E-02  0.1266605E+00
        -11   -1    0    0    0    0  0.00000000000E+00  0.00000000000E+00  0.45593999997E+02  0.45594000000E+02  0.51100000000E-03 0.  1.
         11   -1    0    0    0    0 -0.00000000000E+00 -0.00000000000E+00 -0.45593999997E+02  0.45594000000E+02  0.51100000000E-03 0. -1.
    9900012    2    1    2    0    0  0.19548436487E+02  0.23050804872E+01 -0.25085171240E+02  0.59301943779E+02  0.49999999547E+02 0.  0.
        -12    1    1    2    0    0 -0.19548436487E+02 -0.23050804872E+01  0.25085171240E+02  0.31886056221E+02  0.00000000000E+00 0.  1.
         11    1    3    3    0    0  0.15785223747E+02  0.62048294145E+01 -0.15894098349E+02  0.23244258632E+02  0.51100000000E-03 0. -1.
        -11    1    3    3    0    0 -0.43387226234E+01 -0.87418705364E+01  0.10430335704E+02  0.14284142174E+02  0.51100000000E-03 0.  1.
        -12    1    3    3    0    0  0.81019353643E+01  0.48421216090E+01 -0.19621408596E+02  0.21773542973E+02  0.00000000000E+00 0.  1.
</event>
<event>
 7    1  0.1052674E-011  0.5930188E+02  0.7816164E-02  0.1266605E+00
        -11   -1    0    0    0    0  0.00000000000E+00  0.00000000000E+00  0.45593999997E+02  0.45594000000E+02  0.51100000000E-03 0.  1.
         11   -1    0    0    0    0 -0.00000000000E+00 -0.00000000000E+00 -0.45593999997E+02  0.45594000000E+02  0.51100000000E-03 0. -1.
    9900012    2    1    2    0    0 -0.29927241457E+02 -0.67395090563E+01 -0.86984873004E+01  0.59301883196E+02  0.49999889057E+02 0.  0.
        -12    1    1    2    0    0  0.29927241457E+02  0.67395090563E+01  0.86984873004E+01  0.31886116804E+02  0.00000000000E+00 0.  1.
         11    1    3    3    0    0 -0.18410712885E+02  0.50068554037E+01 -0.12859257120E+02  0.23008334227E+02  0.51100000000E-03 0. -1.
        -11    1    3    3    0    0  0.29949643902E+01  0.53541283259E-01  0.14579438593E+02  0.14883974883E+02  0.51100000000E-03 0.  1.
        -12    1    3    3    0    0 -0.14511492962E+02 -0.11799905743E+02 -0.10418668774E+02  0.21409574086E+02  0.00000000000E+00 0.  1.
</event>
<event>
 7    1  0.1052674E-011  0.5930194E+02  0.7816164E-02  0.1266605E+00
        -11   -1    0    0    0    0  0.00000000000E+00  0.00000000000E+00  0.45593999997E+02  0.45594000000E+02  0.51100000000E-03 0.  1.
         11   -1    0    0    0    0 -0.00000000000E+00 -0.00000000000E+00 -0.45593999997E+02  0.45594000000E+02  0.51100000000E-03 0. -1.
    9900012    2    1    2    0    0 -0.21675564271E+02  0.10787993504E+02 -0.20748730264E+02  0.59301941952E+02  0.49999996214E+02 0.  0.
        -12    1    1    2    0    0  0.21675564271E+02 -0.10787993504E+02  0.20748730264E+02  0.31886058048E+02  0.00000000000E+00 0.  1.
         11    1    3    3    0    0 -0.30638629258E+02  0.12207530075E+02 -0.22146155983E+01  0.33055316000E+02  0.51100000000E-03 0. -1.
        -11    1    3    3    0    0  0.11192414083E+01  0.63268928599E+01 -0.27385192651E+01  0.69843942198E+01  0.51100000000E-03 0.  1.
         12    1    3    3    0    0  0.78438235789E+01 -0.77464294309E+01 -0.15795595400E+02  0.19262231732E+02  0.00000000000E+00 0. -1.
</event>
<event>
 7    1  0.1052674E-011  0.5930194E+02  0.7816164E-02  0.1266605E+00
        -11   -1    0    0    0    0  0.00000000000E+00  0.00000000000E+00  0.45593999997E+02  0.45594000000E+02  0.51100000000E-03 0. -1.
         11   -1    0    0    0    0 -0.00000000000E+00 -0.00000000000E+00 -0.45593999997E+02  0.45594000000E+02  0.51100000000E-03 0.  1.
    9900012    2    1    2    0    0  0.30327396612E+02 -0.68545201145E+01  0.70700234555E+01  0.59301942499E+02  0.49999997212E+02 0.  0.
        -12    1    1    2    0    0 -0.30327396612E+02  0.68545201145E+01 -0.70700234555E+01  0.31886057501E+02  0.00000000000E+00 0.  1.
         11    1    3    3    0    0  0.54047868259E+01 -0.50013836880E+00  0.88822131175E+01  0.10409398116E+02  0.51100000000E-03 0. -1.
        -11    1    3    3    0    0  0.11156372739E+02 -0.23466411543E+02  0.37099152506E+01  0.26246915911E+02  0.51100000000E-03 0.  1.
        -12    1    3    3    0    0  0.13766237048E+02  0.17112029797E+02 -0.55221049125E+01  0.22645628472E+02  0.00000000000E+00 0.  1.
</event>
<event>
 7    1  0.1052674E-011  0.5930194E+02  0.7816164E-02  0.1266605E+00
        -11   -1    0    0    0    0  0.00000000000E+00  0.00000000000E+00  0.45593999997E+02  0.45594000000E+02  0.51100000000E-03 0. -1.
         11   -1    0    0    0    0 -0.00000000000E+00 -0.00000000000E+00 -0.45593999997E+02  0.45594000000E+02  0.51100000000E-03 0.  1.
    9900012    2    1    2    0    0  0.82655225876E+01  0.29381043150E+02  0.92280137360E+01  0.59301940385E+02  0.49999993357E+02 0.  0.
        -12    1    1    2    0    0 -0.82655225876E+01 -0.29381043150E+02 -0.92280137360E+01  0.31886059615E+02  0.00000000000E+00 0.  1.
         11    1    3    3    0    0 -0.99904820523E+01  0.14970161873E+02  0.14068293720E+02  0.22843650466E+02  0.51100000000E-03 0. -1.
        -11    1    3    3    0    0  0.23400536100E+02  0.14432892679E+02  0.23759318621E+01  0.27595987631E+02  0.51100000000E-03 0.  1.
         12    1    3    3    0    0 -0.51445314597E+01 -0.22011402391E-01 -0.72162118465E+01  0.88623022887E+01  0.00000000000E+00 0. -1.
</event>
<event>
 7    1  0.1052674E-011  0.5930195E+02  0.7816164E-02  0.1266605E+00
        -11   -1    0    0    0    0  0.00000000000E+00  0.00000000000E+00  0.45593999997E+02  0.45594000000E+02  0.51100000000E-03 0.  1.
         11   -1    0    0    0    0 -0.00000000000E+00 -0.00000000000E+00 -0.45593999997E+02  0.45594000000E+02  0.51100000000E-03 0. -1.
    9900012    2    1    2    0    0  0.20244512566E+02  0.22256416772E+02  0.10560852408E+02  0.59301953206E+02  0.50000016739E+02 0.  0.
        -12    1    1    2    0    0 -0.20244512566E+02 -0.22256416772E+02 -0.10560852408E+02  0.31886046794E+02  0.00000000000E+00 0.  1.
         11    1    3    3    0    0  0.12171875650E+02  0.32175820223E+01 -0.99929055048E+01  0.16073753501E+02  0.51100000000E-03 0. -1.
        -11    1    3    3    0    0 -0.28115189441E+01  0.24613412152E+02  0.18285380404E+02  0.30790905042E+02  0.51100000000E-03 0.  1.
        -12    1    3    3    0    0  0.10884155860E+02 -0.55745774028E+01  0.22683775090E+01  0.12437294663E+02  0.00000000000E+00 0.  1.
</event>
<event>
 7    1  0.1052674E-011  0.5930190E+02  0.7816164E-02  0.1266605E+00
        -11   -1    0    0    0    0  0.00000000000E+00  0.00000000000E+00  0.45593999997E+02  0.45594000000E+02  0.51100000000E-03 0.  1.
         11   -1    0    0    0    0 -0.00000000000E+00 -0.00000000000E+00 -0.45593999997E+02  0.45594000000E+02  0.51100000000E-03 0. -1.
    9900012    2    1    2    0    0  0.19687114804E+02 -0.23026064155E+02 -0.99469323682E+01  0.59301896705E+02  0.49999913696E+02 0.  0.
        -12    1    1    2    0    0 -0.19687114804E+02  0.23026064155E+02  0.99469323682E+01  0.31886103295E+02  0.00000000000E+00 0.  1.
         11    1    3    3    0    0  0.10081661338E+02 -0.23008165834E+02 -0.24904743605E+02  0.35373179737E+02  0.51100000000E-03 0. -1.
        -11    1    3    3    0    0  0.88861116069E+01  0.10014351319E+00 -0.66308402920E-01  0.88869232740E+01  0.51100000000E-03 0.  1.
         12    1    3    3    0    0  0.71934185973E+00 -0.11804183353E+00  0.15024119640E+02  0.15041793695E+02  0.00000000000E+00 0. -1.
</event>
<event>
 7    1  0.1052674E-011  0.5930196E+02  0.7816164E-02  0.1266605E+00
        -11   -1    0    0    0    0  0.00000000000E+00  0.00000000000E+00  0.45593999997E+02  0.45594000000E+02  0.51100000000E-03 0. -1.
         11   -1    0    0    0    0 -0.00000000000E+00 -0.00000000000E+00 -0.45593999997E+02  0.45594000000E+02  0.51100000000E-03 0.  1.
    9900012    2    1    2    0    0 -0.12599394142E+02 -0.23850092761E+02  0.17004358352E+02  0.59301955083E+02  0.50000020162E+02 0.  0.
        -12    1    1    2    0    0  0.12599394142E+02  0.23850092761E+02 -0.17004358352E+02  0.31886044917E+02  0.00000000000E+00 0.  1.
         11    1    3    3    0    0 -0.21360524471E+02 -0.25070806800E+02  0.20040848005E+02  0.38554545106E+02  0.51100000000E-03 0. -1.
        -11    1    3    3    0    0  0.13011744370E+00 -0.19569333136E+01 -0.93746605957E+01  0.95776187066E+01  0.51100000000E-03 0.  1.
         12    1    3    3    0    0  0.86310128855E+01  0.31776473523E+01  0.63381709428E+01  0.11169791270E+02  0.00000000000E+00 0. -1.
</event>
<event>
 7    1  0.1052674E-011  0.5930192E+02  0.7816164E-02  0.1266605E+00
        -11   -1    0    0    0    0  0.00000000000E+00  0.00000000000E+00  0.45593999997E+02  0.45594000000E+02  0.51100000000E-03 0. -1.
         11   -1    0    0    0    0 -0.00000000000E+00 -0.00000000000E+00 -0.45593999997E+02  0.45594000000E+02  0.51100000000E-03 0.  1.
    9900012    2    1    2    0    0 -0.94507080200E+01  0.10342330753E+02  0.28643360911E+02  0.59301924485E+02  0.49999964359E+02 0.  0.
        -12    1    1    2    0    0  0.94507080200E+01 -0.10342330753E+02 -0.28643360911E+02  0.31886075515E+02  0.00000000000E+00 0.  1.
         11    1    3    3    0    0 -0.15924230632E+01 -0.79240848454E+01  0.25075515121E+02  0.26345936892E+02  0.51100000000E-03 0. -1.
        -11    1    3    3    0    0  0.65840082193E+01  0.59062574010E+01 -0.69337651411E+01  0.11238778404E+02  0.51100000000E-03 0.  1.
        -12    1    3    3    0    0 -0.14442293176E+02  0.12360158197E+02  0.10501610931E+02  0.21717209189E+02  0.00000000000E+00 0.  1.
</event>
<event>
 7    1  0.1052674E-011  0.5930196E+02  0.7816164E-02  0.1266605E+00
        -11   -1    0    0    0    0  0.00000000000E+00  0.00000000000E+00  0.45593999997E+02  0.45594000000E+02  0.51100000000E-03 0.  1.
         11   -1    0    0    0    0 -0.00000000000E+00 -0.00000000000E+00 -0.45593999997E+02  0.45594000000E+02  0.51100000000E-03 0. -1.
    9900012    2    1    2    0    0 -0.15137659955E+02  0.17336806858E+02 -0.22068211838E+02  0.59301959250E+02  0.50000027762E+02 0.  0.
        -12    1    1    2    0    0  0.15137659955E+02 -0.17336806858E+02  0.22068211838E+02  0.31886040750E+02  0.00000000000E+00 0.  1.
         11    1    3    3    0    0 -0.72513626981E+00  0.94266181941E+01 -0.31622724593E+02  0.33005812581E+02  0.51100000000E-03 0. -1.
        -11    1    3    3    0    0 -0.16512686506E+02  0.44962928181E+01  0.12608571674E+02  0.21257035180E+02  0.51100000000E-03 0.  1.
        -12    1    3    3    0    0  0.21001628206E+01  0.34138958456E+01 -0.30540589191E+01  0.50391114891E+01  0.00000000000E+00 0.  1.
</event>
<event>
 7    1  0.1052674E-011  0.5930197E+02  0.7816164E-02  0.1266605E+00
        -11   -1    0    0    0    0  0.00000000000E+00  0.00000000000E+00  0.45593999997E+02  0.45594000000E+02  0.51100000000E-03 0.  1.
         11   -1    0    0    0    0 -0.00000000000E+00 -0.00000000000E+00 -0.45593999997E+02  0.45594000000E+02  0.51100000000E-03 0. -1.
    9900012    2    1    2    0    0  0.11886955822E+02  0.27918463727E+02 -0.97968599111E+01  0.59301971716E+02  0.50000050498E+02 0.  0.
        -12    1    1    2    0    0 -0.11886955822E+02 -0.27918463727E+02  0.97968599111E+01  0.31886028284E+02  0.00000000000E+00 0.  1.
         11    1    3    3    0    0  0.16986213731E+02  0.15297938478E+02 -0.12800955108E+02  0.26199672336E+02  0.51100000000E-03 0. -1.
        -11    1    3    3    0    0 -0.17243041553E+02  0.77035120824E+01 -0.21829943574E+01  0.19011366206E+02  0.51100000000E-03 0.  1.
        -12    1    3    3    0    0  0.12143783644E+02  0.49170131666E+01  0.51870895540E+01  0.14090933174E+02  0.00000000000E+00 0.  1.
</event>
<event>
 7    1  0.1052674E-011  0.5930195E+02  0.7816164E-02  0.1266605E+00
        -11   -1    0    0    0    0  0.00000000000E+00  0.00000000000E+00  0.45593999997E+02  0.45594000000E+02  0.51100000000E-03 0.  1.
         11   -1    0    0    0    0 -0.00000000000E+00 -0.00000000000E+00 -0.45593999997E+02  0.45594000000E+02  0.51100000000E-03 0. -1.
    9900012    2    1    2    0    0  0.17965564511E+01 -0.13237820760E+02 -0.28952597672E+02  0.59301946223E+02  0.50000004003E+02 0.  0.
        -12    1    1    2    0    0 -0.17965564511E+01  0.13237820760E+02  0.28952597672E+02  0.31886053777E+02  0.00000000000E+00 0.  1.
         11    1    3    3    0    0  0.11724970747E+02 -0.12855830576E+02 -0.19183532011E+02  0.25898942440E+02  0.51100000000E-03 0. -1.
        -11    1    3    3    0    0 -0.17189375624E+02 -0.99930548720E+01 -0.56033954279E+01  0.20657536654E+02  0.51100000000E-03 0.  1.
        -12    1    3    3    0    0  0.72609613278E+01  0.96110646886E+01 -0.41656702332E+01  0.12745467129E+02  0.00000000000E+00 0.  1.
</event>
<event>
 7    1  0.1052674E-011  0.5930195E+02  0.7816164E-02  0.1266605E+00
        -11   -1    0    0    0    0  0.00000000000E+00  0.00000000000E+00  0.45593999997E+02  0.45594000000E+02  0.51100000000E-03 0.  1.
         11   -1    0    0    0    0 -0.00000000000E+00 -0.00000000000E+00 -0.45593999997E+02  0.45594000000E+02  0.51100000000E-03 0. -1.
    9900012    2    1    2    0    0  0.20861871296E+02  0.11156615772E+02 -0.21378313284E+02  0.59301952451E+02  0.50000015361E+02 0.  0.
        -12    1    1    2    0    0 -0.20861871296E+02 -0.11156615772E+02  0.21378313284E+02  0.31886047549E+02  0.00000000000E+00 0.  1.
         11    1    3    3    0    0  0.10883298674E+02  0.26512910320E+00 -0.46952191982E+01  0.11855866356E+02  0.51100000000E-03 0. -1.
        -11    1    3    3    0    0 -0.69971706107E+01 -0.10321562940E+02 -0.15977571717E+02  0.20267655422E+02  0.51100000000E-03 0.  1.
        -12    1    3    3    0    0  0.16975743232E+02  0.21213049609E+02 -0.70552236926E+00  0.27178430673E+02  0.00000000000E+00 0.  1.
</event>
<event>
 7    1  0.1052674E-011  0.5930189E+02  0.7816164E-02  0.1266605E+00
        -11   -1    0    0    0    0  0.00000000000E+00  0.00000000000E+00  0.45593999997E+02  0.45594000000E+02  0.51100000000E-03 0. -1.
         11   -1    0    0    0    0 -0.00000000000E+00 -0.00000000000E+00 -0.45593999997E+02  0.45594000000E+02  0.51100000000E-03 0.  1.
    9900012    2    1    2    0    0  0.42864429491E+01 -0.17896652224E+02  0.26039584802E+02  0.59301894395E+02  0.49999909482E+02 0.  0.
        -12    1    1    2    0    0 -0.42864429491E+01  0.17896652224E+02 -0.26039584802E+02  0.31886105605E+02  0.00000000000E+00 0.  1.
         11    1    3    3    0    0 -0.11773120207E+02  0.60901284463E+01  0.38764780269E+01  0.13810253657E+02  0.51100000000E-03 0. -1.
        -11    1    3    3    0    0  0.17552678142E+02 -0.26633367926E+01  0.14003080583E+02  0.22611416119E+02  0.51100000000E-03 0.  1.
         12    1    3    3    0    0 -0.14931149853E+01 -0.21323443878E+02  0.81600261916E+01  0.22880224619E+02  0.00000000000E+00 0. -1.
</event>
<event>
 7    1  0.1052674E-011  0.5930195E+02  0.7816164E-02  0.1266605E+00
        -11   -1    0    0    0    0  0.00000000000E+00  0.00000000000E+00  0.45593999997E+02  0.45594000000E+02  0.51100000000E-03 0.  1.
         11   -1    0    0    0    0 -0.00000000000E+00 -0.00000000000E+00 -0.45593999997E+02  0.45594000000E+02  0.51100000000E-03 0. -1.
    9900012    2    1    2    0    0 -0.78842619326E+01  0.29260803335E+02 -0.99178694855E+01  0.59301947670E+02  0.50000006643E+02 0.  0.
        -12    1    1    2    0    0  0.78842619326E+01 -0.29260803335E+02  0.99178694855E+01  0.31886052330E+02  0.00000000000E+00 0.  1.
         11    1    3    3    0    0 -0.82495993839E+01  0.11833638330E+02 -0.69827139535E+01  0.16026514921E+02  0.51100000000E-03 0. -1.
        -11    1    3    3    0    0  0.97525803976E+01 -0.47478254114E+01  0.11004470284E+02  0.15451635416E+02  0.51100000000E-03 0.  1.
        -12    1    3    3    0    0 -0.93872429463E+01  0.22174990417E+02 -0.13939625816E+02  0.27823797333E+02  0.00000000000E+00 0.  1.
</event>
<event>
 7    1  0.1052674E-011  0.5930194E+02  0.7816164E-02  0.1266605E+00
        -11   -1    0    0    0    0  0.00000000000E+00  0.00000000000E+00  0.45593999997E+02  0.45594000000E+02  0.51100000000E-03 0. -1.
         11   -1    0    0    0    0 -0.00000000000E+00 -0.00000000000E+00 -0.45593999997E+02  0.45594000000E+02  0.51100000000E-03 0.  1.
    9900012    2    1    2    0    0 -0.27902790987E+02  0.12378234016E+02 -0.92159958821E+01  0.59301937178E+02  0.49999987507E+02 0.  0.
        -12    1    1    2    0    0  0.27902790987E+02 -0.12378234016E+02  0.92159958821E+01  0.31886062822E+02  0.00000000000E+00 0.  1.
         11    1    3    3    0    0 -0.88382576877E+01  0.19500254160E+02  0.78885184060E+01  0.22816735835E+02  0.51100000000E-03 0. -1.
        -11    1    3    3    0    0 -0.28519087806E+01 -0.13983675841E+02 -0.50066345982E+01  0.15124250857E+02  0.51100000000E-03 0.  1.
        -12    1    3    3    0    0 -0.16212624518E+02  0.68616556974E+01 -0.12097879690E+02  0.21360950486E+02  0.00000000000E+00 0.  1.
</event>
<event>
 7    1  0.1052674E-011  0.5930194E+02  0.7816164E-02  0.1266605E+00
        -11   -1    0    0    0    0  0.00000000000E+00  0.00000000000E+00  0.45593999997E+02  0.45594000000E+02  0.51100000000E-03 0. -1.
         11   -1    0    0    0    0 -0.00000000000E+00 -0.00000000000E+00 -0.45593999997E+02  0.45594000000E+02  0.51100000000E-03 0.  1.
    9900012    2    1    2    0    0 -0.13374268115E+02  0.22262068028E+02  0.18499999600E+02  0.59301941829E+02  0.49999995989E+02 0.  0.
        -12    1    1    2    0    0  0.13374268115E+02 -0.22262068028E+02 -0.18499999600E+02  0.31886058171E+02  0.00000000000E+00 0.  1.
         11    1    3    3    0    0 -0.41877327193E+01  0.14335270652E+02  0.20165016650E+01  0.15069949211E+02  0.51100000000E-03 0. -1.
        -11    1    3    3    0    0 -0.11954717214E+02 -0.10123575905E+02  0.20234043602E+02  0.25589423080E+02  0.51100000000E-03 0.  1.
        -12    1    3    3    0    0  0.27681818191E+01  0.18050373281E+02 -0.37505456672E+01  0.18642569538E+02  0.00000000000E+00 0.  1.
</event>
<event>
 7    1  0.1052674E-011  0.5930194E+02  0.7816164E-02  0.1266605E+00
        -11   -1    0    0    0    0  0.00000000000E+00  0.00000000000E+00  0.45593999997E+02  0.45594000000E+02  0.51100000000E-03 0.  1.
         11   -1    0    0    0    0 -0.00000000000E+00 -0.00000000000E+00 -0.45593999997E+02  0.45594000000E+02  0.51100000000E-03 0. -1.
    9900012    2    1    2    0    0  0.27066792742E+02  0.47827152312E+01 -0.16162772090E+02  0.59301939786E+02  0.49999992265E+02 0.  0.
        -12    1    1    2    0    0 -0.27066792742E+02 -0.47827152312E+01  0.16162772090E+02  0.31886060214E+02  0.00000000000E+00 0.  1.
         11    1    3    3    0    0  0.10745695537E+02  0.19192301429E+02 -0.18544704806E+02  0.28770131791E+02  0.51100000000E-03 0. -1.
        -11    1    3    3    0    0  0.21133872913E+02 -0.85856121404E+01  0.26962258055E+01  0.22970044710E+02  0.51100000000E-03 0.  1.
        -12    1    3    3    0    0 -0.48127757081E+01 -0.58239740570E+01 -0.31429308993E+00  0.75617632851E+01  0.00000000000E+00 0.  1.
</event>
<event>
 7    1  0.1052674E-011  0.5930196E+02  0.7816164E-02  0.1266605E+00
        -11   -1    0    0    0    0  0.00000000000E+00  0.00000000000E+00  0.45593999997E+02  0.45594000000E+02  0.51100000000E-03 0.  1.
         11   -1    0    0    0    0 -0.00000000000E+00 -0.00000000000E+00 -0.45593999997E+02  0.45594000000E+02  0.51100000000E-03 0. -1.
    9900012    2    1    2    0    0  0.15618135956E+02 -0.21493683428E+02 -0.17629938761E+02  0.59301963264E+02  0.50000035081E+02 0.  0.
        -12    1    1    2    0    0 -0.15618135956E+02  0.21493683428E+02  0.17629938761E+02  0.31886036736E+02  0.00000000000E+00 0.  1.
         11    1    3    3    0    0  0.12462320387E+02  0.69198409537E+01 -0.22311077999E+02  0.26475985912E+02  0.51100000000E-03 0. -1.
        -11    1    3    3    0    0 -0.60743030820E+01 -0.12165767471E+02  0.15336229603E+00  0.13598771134E+02  0.51100000000E-03 0.  1.
         12    1    3    3    0    0  0.92301186511E+01 -0.16247756910E+02  0.45277769416E+01  0.19227206218E+02  0.00000000000E+00 0. -1.
</event>
<event>
 7    1  0.1052674E-011  0.5930190E+02  0.7816164E-02  0.1266605E+00
        -11   -1    0    0    0    0  0.00000000000E+00  0.00000000000E+00  0.45593999997E+02  0.45594000000E+02  0.51100000000E-03 0.  1.
         11   -1    0    0    0    0 -0.00000000000E+00 -0.00000000000E+00 -0.45593999997E+02  0.45594000000E+02  0.51100000000E-03 0. -1.
    9900012    2    1    2    0    0 -0.31223369008E+02  0.28501509173E+01 -0.58052625143E+01  0.59301902633E+02  0.49999924505E+02 0.  0.
        -12    1    1    2    0    0  0.31223369008E+02 -0.28501509173E+01  0.58052625143E+01  0.31886097367E+02  0.00000000000E+00 0.  1.
         11    1    3    3    0    0 -0.23569914348E+02 -0.80870053571E+00  0.12546658366E+02  0.26713545167E+02  0.51100000000E-03 0. -1.
        -11    1    3    3    0    0 -0.48535228147E+01  0.14730011692E+02 -0.10703195188E+02  0.18843787189E+02  0.51100000000E-03 0.  1.
        -12    1    3    3    0    0 -0.27999318448E+01 -0.11071160239E+02 -0.76487256931E+01  0.13744570277E+02  0.00000000000E+00 0.  1.
</event>
<event>
 7    1  0.1052674E-011  0.5930195E+02  0.7816164E-02  0.1266605E+00
        -11   -1    0    0    0    0  0.00000000000E+00  0.00000000000E+00  0.45593999997E+02  0.45594000000E+02  0.51100000000E-03 0.  1.
         11   -1    0    0    0    0 -0.00000000000E+00 -0.00000000000E+00 -0.45593999997E+02  0.45594000000E+02  0.51100000000E-03 0. -1.
    9900012    2    1    2    0    0  0.16505376336E+02 -0.26842371785E+02  0.48764678055E+01  0.59301948045E+02  0.50000007326E+02 0.  0.
        -12    1    1    2    0    0 -0.16505376336E+02  0.26842371785E+02 -0.48764678055E+01  0.31886051955E+02  0.00000000000E+00 0.  1.
         11    1    3    3    0    0  0.11485634714E+02 -0.37630741915E+02 -0.95791042864E+01  0.40493848682E+02  0.51100000000E-03 0. -1.
        -11    1    3    3    0    0  0.21149742126E+01  0.32393314879E+01  0.56921049212E+01  0.68823283199E+01  0.51100000000E-03 0.  1.
         12    1    3    3    0    0  0.29047674096E+01  0.75490386423E+01  0.87634671707E+01  0.11925771043E+02  0.00000000000E+00 0. -1.
</event>
<event>
 7    1  0.1052674E-011  0.5930188E+02  0.7816164E-02  0.1266605E+00
        -11   -1    0    0    0    0  0.00000000000E+00  0.00000000000E+00  0.45593999997E+02  0.45594000000E+02  0.51100000000E-03 0.  1.
         11   -1    0    0    0    0 -0.00000000000E+00 -0.00000000000E+00 -0.45593999997E+02  0.45594000000E+02  0.51100000000E-03 0. -1.
    9900012    2    1    2    0    0 -0.13349843522E+01  0.79792834997E+01 -0.30842721940E+02  0.59301880056E+02  0.49999883331E+02 0.  0.
        -12    1    1    2    0    0  0.13349843522E+01 -0.79792834997E+01  0.30842721940E+02  0.31886119944E+02  0.00000000000E+00 0.  1.
         11    1    3    3    0    0  0.15095937288E+01  0.10317400077E+02 -0.39829271768E+02  0.41171574021E+02  0.51100000000E-03 0. -1.
        -11    1    3    3    0    0  0.43712919249E+01 -0.56904179529E+01  0.17748973870E+01  0.73918408104E+01  0.51100000000E-03 0.  1.
         12    1    3    3    0    0 -0.72158700059E+01  0.33523013753E+01  0.72116524408E+01  0.10738465225E+02  0.00000000000E+00 0. -1.
</event>
<event>
 7    1  0.1052674E-011  0.5930166E+02  0.7816164E-02  0.1266606E+00
        -11   -1    0    0    0    0  0.00000000000E+00  0.00000000000E+00  0.45593999997E+02  0.45594000000E+02  0.51100000000E-03 0.  1.
         11   -1    0    0    0    0 -0.00000000000E+00 -0.00000000000E+00 -0.45593999997E+02  0.45594000000E+02  0.51100000000E-03 0. -1.
    9900012    2    1    2    0    0  0.99140545480E+01 -0.17907112893E+02 -0.24449656356E+02  0.59301657067E+02  0.49999476649E+02 0.  0.
        -12    1    1    2    0    0 -0.99140545480E+01  0.17907112893E+02  0.24449656356E+02  0.31886342933E+02  0.00000000000E+00 0.  1.
         11    1    3    3    0    0  0.34359086780E+01 -0.82392912324E+01 -0.43010771941E+01  0.99091197262E+01  0.51100000000E-03 0. -1.
        -11    1    3    3    0    0 -0.12184798667E+02 -0.87507073921E+01 -0.25823212761E+02  0.29864402154E+02  0.51100000000E-03 0.  1.
        -12    1    3    3    0    0  0.18662944537E+02 -0.91711426856E+00  0.56746335997E+01  0.19528135187E+02  0.00000000000E+00 0.  1.
</event>
<event>
 7    1  0.1052674E-011  0.5930195E+02  0.7816164E-02  0.1266605E+00
        -11   -1    0    0    0    0  0.00000000000E+00  0.00000000000E+00  0.45593999997E+02  0.45594000000E+02  0.51100000000E-03 0.  1.
         11   -1    0    0    0    0 -0.00000000000E+00 -0.00000000000E+00 -0.45593999997E+02  0.45594000000E+02  0.51100000000E-03 0. -1.
    9900012    2    1    2    0    0  0.62061475048E+01  0.10806965043E+02 -0.29349843286E+02  0.59301951935E+02  0.50000014421E+02 0.  0.
        -12    1    1    2    0    0 -0.62061475048E+01 -0.10806965043E+02  0.29349843286E+02  0.31886048065E+02  0.00000000000E+00 0.  1.
         11    1    3    3    0    0  0.12413065703E+02  0.10804275317E+01 -0.29752873689E+02  0.32256549983E+02  0.51100000000E-03 0. -1.
        -11    1    3    3    0    0 -0.12016750999E+02  0.14947963962E+02  0.10449564649E+01  0.19207703284E+02  0.51100000000E-03 0.  1.
        -12    1    3    3    0    0  0.58098328007E+01 -0.52214264499E+01 -0.64192606210E+00  0.78376986681E+01  0.00000000000E+00 0.  1.
</event>
<event>
 7    1  0.1052674E-011  0.5930196E+02  0.7816164E-02  0.1266605E+00
        -11   -1    0    0    0    0  0.00000000000E+00  0.00000000000E+00  0.45593999997E+02  0.45594000000E+02  0.51100000000E-03 0. -1.
         11   -1    0    0    0    0 -0.00000000000E+00 -0.00000000000E+00 -0.45593999997E+02  0.45594000000E+02  0.51100000000E-03 0.  1.
    9900012    2    1    2    0    0 -0.31285647054E+01  0.13525569171E+02  0.28705237810E+02  0.59301958912E+02  0.50000027146E+02 0.  0.
        -12    1    1    2    0    0  0.31285647054E+01 -0.13525569171E+02 -0.28705237810E+02  0.31886041088E+02  0.00000000000E+00 0.  1.
         11    1    3    3    0    0 -0.13205377030E+02  0.51650992576E+00  0.80343002207E+01  0.15466051381E+02  0.51100000000E-03 0. -1.
        -11    1    3    3    0    0  0.12001191467E+02 -0.99665983446E+01  0.83523128252E+01  0.17695276460E+02  0.51100000000E-03 0.  1.
        -12    1    3    3    0    0 -0.19243791423E+01  0.22975657590E+02  0.12318624764E+02  0.26140631072E+02  0.00000000000E+00 0.  1.
</event>
<event>
 7    1  0.1052674E-011  0.5930195E+02  0.7816164E-02  0.1266605E+00
        -11   -1    0    0    0    0  0.00000000000E+00  0.00000000000E+00  0.45593999997E+02  0.45594000000E+02  0.51100000000E-03 0. -1.
         11   -1    0    0    0    0 -0.00000000000E+00 -0.00000000000E+00 -0.45593999997E+02  0.45594000000E+02  0.51100000000E-03 0.  1.
    9900012    2    1    2    0    0 -0.25009346310E+01 -0.23757910078E+02  0.21119357240E+02  0.59301949515E+02  0.50000010008E+02 0.  0.
        -12    1    1    2    0    0  0.25009346310E+01  0.23757910078E+02 -0.21119357240E+02  0.31886050485E+02  0.00000000000E+00 0.  1.
         11    1    3    3    0    0 -0.16002369461E+02 -0.27003228906E+01  0.12969871459E+02  0.20774627266E+02  0.51100000000E-03 0. -1.
        -11    1    3    3    0    0  0.20756049467E+02 -0.14305772420E+02 -0.73257963850E+00  0.25219147233E+02  0.51100000000E-03 0.  1.
        -12    1    3    3    0    0 -0.72546146364E+01 -0.67518147674E+01  0.88820654187E+01  0.13308175017E+02  0.00000000000E+00 0.  1.
</event>
<event>
 7    1  0.1052674E-011  0.5930195E+02  0.7816164E-02  0.1266605E+00
        -11   -1    0    0    0    0  0.00000000000E+00  0.00000000000E+00  0.45593999997E+02  0.45594000000E+02  0.51100000000E-03 0. -1.
         11   -1    0    0    0    0 -0.00000000000E+00 -0.00000000000E+00 -0.45593999997E+02  0.45594000000E+02  0.51100000000E-03 0.  1.
    9900012    2    1    2    0    0 -0.11159812358E+02  0.29760544603E+02  0.25473173146E+01  0.59301948936E+02  0.50000008952E+02 0.  0.
        -12    1    1    2    0    0  0.11159812358E+02 -0.29760544603E+02 -0.25473173146E+01  0.31886051064E+02  0.00000000000E+00 0.  1.
         11    1    3    3    0    0 -0.29891673426E+01  0.29400999906E+02  0.53699561771E+01  0.30036483590E+02  0.51100000000E-03 0. -1.
        -11    1    3    3    0    0  0.42855133763E+01 -0.71636657274E+01  0.76612332924E+01  0.11330411615E+02  0.51100000000E-03 0.  1.
        -12    1    3    3    0    0 -0.12456158391E+02  0.75232104252E+01 -0.10483872155E+02  0.17935053731E+02  0.00000000000E+00 0.  1.
</event>
<event>
 7    1  0.1052674E-011  0.5930193E+02  0.7816164E-02  0.1266605E+00
        -11   -1    0    0    0    0  0.00000000000E+00  0.00000000000E+00  0.45593999997E+02  0.45594000000E+02  0.51100000000E-03 0.  1.
         11   -1    0    0    0    0 -0.00000000000E+00 -0.00000000000E+00 -0.45593999997E+02  0.45594000000E+02  0.51100000000E-03 0. -1.
    9900012    2    1    2    0    0  0.79635678202E+01 -0.40039475358E+01 -0.30614892318E+02  0.59301927180E+02  0.49999969273E+02 0.  0.
        -12    1    1    2    0    0 -0.79635678202E+01  0.40039475358E+01  0.30614892318E+02  0.31886072820E+02  0.00000000000E+00 0.  1.
         11    1    3    3    0    0 -0.11644727751E+02 -0.18341931222E+02 -0.24476584198E+02  0.32728111764E+02  0.51100000000E-03 0. -1.
        -11    1    3    3    0    0  0.12313722817E+02  0.47220575604E+01 -0.60359062713E+01  0.14503715455E+02  0.51100000000E-03 0.  1.
         12    1    3    3    0    0  0.72945727551E+01  0.96159261260E+01 -0.10240184871E+00  0.12070099961E+02  0.00000000000E+00 0. -1.
</event>
<event>
 7    1  0.1052674E-011  0.5930195E+02  0.7816164E-02  0.1266605E+00
        -11   -1    0    0    0    0  0.00000000000E+00  0.00000000000E+00  0.45593999997E+02  0.45594000000E+02  0.51100000000E-03 0. -1.
         11   -1    0    0    0    0 -0.00000000000E+00 -0.00000000000E+00 -0.45593999997E+02  0.45594000000E+02  0.51100000000E-03 0.  1.
    9900012    2    1    2    0    0 -0.24529379902E+02 -0.20252606489E+02  0.22049148317E+01  0.59301949800E+02  0.50000010526E+02 0.  0.
        -12    1    1    2    0    0  0.24529379902E+02  0.20252606489E+02 -0.22049148317E+01  0.31886050200E+02  0.00000000000E+00 0.  1.
         11    1    3    3    0    0 -0.25356583413E+01 -0.35146774665E+00  0.15282703678E+01  0.29813928589E+01  0.51100000000E-03 0. -1.
        -11    1    3    3    0    0 -0.18940348743E+02 -0.26850484208E+02 -0.17063321501E+02  0.37024886950E+02  0.51100000000E-03 0.  1.
        -12    1    3    3    0    0 -0.30533728168E+01  0.69493454654E+01  0.17739965965E+02  0.19295669991E+02  0.00000000000E+00 0.  1.
</event>
<event>
 7    1  0.1052674E-011  0.5930197E+02  0.7816164E-02  0.1266605E+00
        -11   -1    0    0    0    0  0.00000000000E+00  0.00000000000E+00  0.45593999997E+02  0.45594000000E+02  0.51100000000E-03 0. -1.
         11   -1    0    0    0    0 -0.00000000000E+00 -0.00000000000E+00 -0.45593999997E+02  0.45594000000E+02  0.51100000000E-03 0.  1.
    9900012    2    1    2    0    0 -0.83228941347E+01  0.29317379399E+02  0.93776013279E+01  0.59301973150E+02  0.50000053113E+02 0.  0.
        -12    1    1    2    0    0  0.83228941347E+01 -0.29317379399E+02 -0.93776013279E+01  0.31886026850E+02  0.00000000000E+00 0.  1.
         11    1    3    3    0    0 -0.16771584860E+02  0.21953676231E+01  0.81290462347E+01  0.18766648360E+02  0.51100000000E-03 0. -1.
        -11    1    3    3    0    0  0.64064519944E+01  0.17706027911E+02 -0.13323193051E+02  0.23066285459E+02  0.51100000000E-03 0.  1.
        -12    1    3    3    0    0  0.20422387313E+01  0.94159838646E+01  0.14571748144E+02  0.17469039331E+02  0.00000000000E+00 0.  1.
</event>
<event>
 7    1  0.1052674E-011  0.5930189E+02  0.7816164E-02  0.1266605E+00
        -11   -1    0    0    0    0  0.00000000000E+00  0.00000000000E+00  0.45593999997E+02  0.45594000000E+02  0.51100000000E-03 0.  1.
         11   -1    0    0    0    0 -0.00000000000E+00 -0.00000000000E+00 -0.45593999997E+02  0.45594000000E+02  0.51100000000E-03 0. -1.
    9900012    2    1    2    0    0 -0.46488263669E+01  0.31045393080E+02 -0.55942756954E+01  0.59301891134E+02  0.49999903534E+02 0.  0.
        -12    1    1    2    0    0  0.46488263669E+01 -0.31045393080E+02  0.55942756954E+01  0.31886108866E+02  0.00000000000E+00 0.  1.
         11    1    3    3    0    0 -0.32005296315E+01  0.11927318665E+02 -0.14506897057E+02  0.19051361708E+02  0.51100000000E-03 0. -1.
        -11    1    3    3    0    0 -0.49281784583E+01  0.20311440473E+02  0.19780494158E+02  0.28776891883E+02  0.51100000000E-03 0.  1.
         12    1    3    3    0    0  0.34798817229E+01 -0.11933660579E+01 -0.10867872796E+02  0.11473637543E+02  0.00000000000E+00 0. -1.
</event>
<event>
 7    1  0.1052674E-011  0.5930215E+02  0.7816164E-02  0.1266604E+00
        -11   -1    0    0    0    0  0.00000000000E+00  0.00000000000E+00  0.45593999997E+02  0.45594000000E+02  0.51100000000E-03 0. -1.
         11   -1    0    0    0    0 -0.00000000000E+00 -0.00000000000E+00 -0.45593999997E+02  0.45594000000E+02  0.51100000000E-03 0.  1.
    9900012    2    1    2    0    0  0.51223976057E+01  0.30479347176E+01  0.31323772951E+02  0.59302147100E+02  0.50000370353E+02 0.  0.
        -12    1    1    2    0    0 -0.51223976057E+01 -0.30479347176E+01 -0.31323772951E+02  0.31885852900E+02  0.00000000000E+00 0.  1.
         11    1    3    3    0    0  0.67614374240E+00  0.10953504710E+02  0.21541032089E+02  0.24175452416E+02  0.51100000000E-03 0. -1.
        -11    1    3    3    0    0 -0.36700629585E+01 -0.17564125253E+02  0.12938825280E+02  0.22121958726E+02  0.51100000000E-03 0.  1.
        -12    1    3    3    0    0  0.81163168218E+01  0.96585552606E+01 -0.31560844174E+01  0.13004735957E+02  0.00000000000E+00 0.  1.
</event>
<event>
 7    1  0.1052674E-011  0.5930193E+02  0.7816164E-02  0.1266605E+00
        -11   -1    0    0    0    0  0.00000000000E+00  0.00000000000E+00  0.45593999997E+02  0.45594000000E+02  0.51100000000E-03 0.  1.
         11   -1    0    0    0    0 -0.00000000000E+00 -0.00000000000E+00 -0.45593999997E+02  0.45594000000E+02  0.51100000000E-03 0. -1.
    9900012    2    1    2    0    0  0.26357582568E+02  0.15306408823E+02 -0.93655447865E+01  0.59301925625E+02  0.49999966438E+02 0.  0.
        -12    1    1    2    0    0 -0.26357582568E+02 -0.15306408823E+02  0.93655447865E+01  0.31886074375E+02  0.00000000000E+00 0.  1.
         11    1    3    3    0    0 -0.10313951636E+02 -0.35797336612E+01 -0.11867793495E+02  0.16125650812E+02  0.51100000000E-03 0. -1.
        -11    1    3    3    0    0  0.20498350973E+02  0.35575550798E+01  0.17925829799E+01  0.20881856833E+02  0.51100000000E-03 0.  1.
         12    1    3    3    0    0  0.16173183230E+02  0.15328587405E+02  0.70966572823E+00  0.22294417980E+02  0.00000000000E+00 0. -1.
</event>
<event>
 7    1  0.1052674E-011  0.5930193E+02  0.7816164E-02  0.1266605E+00
        -11   -1    0    0    0    0  0.00000000000E+00  0.00000000000E+00  0.45593999997E+02  0.45594000000E+02  0.51100000000E-03 0. -1.
         11   -1    0    0    0    0 -0.00000000000E+00 -0.00000000000E+00 -0.45593999997E+02  0.45594000000E+02  0.51100000000E-03 0.  1.
    9900012    2    1    2    0    0  0.41519478184E+01  0.19679354818E+02  0.24742797202E+02  0.59301926392E+02  0.49999967837E+02 0.  0.
        -12    1    1    2    0    0 -0.41519478184E+01 -0.19679354818E+02 -0.24742797202E+02  0.31886073608E+02  0.00000000000E+00 0.  1.
         11    1    3    3    0    0 -0.88458196981E+01  0.10998884390E+02  0.28268123537E+02  0.31596056597E+02  0.51100000000E-03 0. -1.
        -11    1    3    3    0    0  0.11968864127E+02 -0.18637900320E+01 -0.96334989375E+01  0.15476812457E+02  0.51100000000E-03 0.  1.
         12    1    3    3    0    0  0.10289033891E+01  0.10544260460E+02  0.61081726025E+01  0.12229057338E+02  0.00000000000E+00 0. -1.
</event>
<event>
 7    1  0.1075526E-011  0.5930195E+02  0.7816164E-02  0.1266605E+00
        -11   -1    0    0    0    0  0.00000000000E+00  0.00000000000E+00  0.45593999997E+02  0.45594000000E+02  0.51100000000E-03 0. -1.
         11   -1    0    0    0    0 -0.00000000000E+00 -0.00000000000E+00 -0.45593999997E+02  0.45594000000E+02  0.51100000000E-03 0.  1.
    9900012    2    1    2    0    0  0.11204947770E+02 -0.21360351751E+02  0.20854376059E+02  0.59301945332E+02  0.50000002380E+02 0.  0.
        -12    1    1    2    0    0 -0.11204947770E+02  0.21360351751E+02 -0.20854376059E+02  0.31886054668E+02  0.00000000000E+00 0.  1.
         11    1    3    3    0    0  0.10336657785E+02  0.32348763410E+01  0.25241444525E+02  0.27467097427E+02  0.51100000000E-03 0. -1.
        -11    1    3    3    0    0 -0.26998785852E+01 -0.51968884565E+00 -0.68410965725E+01  0.73729250265E+01  0.51100000000E-03 0.  1.
         12    1    3    3    0    0  0.35681685700E+01 -0.24075539247E+02  0.24540281058E+01  0.24461922879E+02  0.00000000000E+00 0. -1.
</event>
<event>
 7    1  0.1052674E-011  0.5930199E+02  0.7816164E-02  0.1266605E+00
        -11   -1    0    0    0    0  0.00000000000E+00  0.00000000000E+00  0.45593999997E+02  0.45594000000E+02  0.51100000000E-03 0.  1.
         11   -1    0    0    0    0 -0.00000000000E+00 -0.00000000000E+00 -0.45593999997E+02  0.45594000000E+02  0.51100000000E-03 0. -1.
    9900012    2    1    2    0    0 -0.11397590860E+02 -0.19936913869E+02 -0.22120854577E+02  0.59301987091E+02  0.50000078537E+02 0.  0.
        -12    1    1    2    0    0  0.11397590860E+02  0.19936913869E+02  0.22120854577E+02  0.31886012909E+02  0.00000000000E+00 0.  1.
         11    1    3    3    0    0 -0.84413049612E+01 -0.11026733458E+02 -0.30878486089E+02  0.33857427304E+02  0.51100000000E-03 0. -1.
        -11    1    3    3    0    0 -0.39593693865E+01 -0.65960401036E+00  0.14693050263E+02  0.15231461180E+02  0.51100000000E-03 0.  1.
        -12    1    3    3    0    0  0.10030834873E+01 -0.82505764005E+01 -0.59354187504E+01  0.10213098607E+02  0.00000000000E+00 0.  1.
</event>
<event>
 7    1  0.1052674E-011  0.5930195E+02  0.7816164E-02  0.1266605E+00
        -11   -1    0    0    0    0  0.00000000000E+00  0.00000000000E+00  0.45593999997E+02  0.45594000000E+02  0.51100000000E-03 0. -1.
         11   -1    0    0    0    0 -0.00000000000E+00 -0.00000000000E+00 -0.45593999997E+02  0.45594000000E+02  0.51100000000E-03 0.  1.
    9900012    2    1    2    0    0 -0.24275853169E+02  0.18537519657E+02  0.91522420491E+01  0.59301949498E+02  0.50000009976E+02 0.  0.
        -12    1    1    2    0    0  0.24275853169E+02 -0.18537519657E+02 -0.91522420491E+01  0.31886050502E+02  0.00000000000E+00 0.  1.
         11    1    3    3    0    0 -0.17660897167E+02  0.99669140302E+00  0.17884683614E+02  0.25154772723E+02  0.51100000000E-03 0. -1.
        -11    1    3    3    0    0  0.34392871726E+01  0.16574548120E+02 -0.14696519992E+02  0.22417226452E+02  0.51100000000E-03 0.  1.
        -12    1    3    3    0    0 -0.10054243174E+02  0.96628013325E+00  0.59640784274E+01  0.11729950324E+02  0.00000000000E+00 0.  1.
</event>
<event>
 7    1  0.1052674E-011  0.5930194E+02  0.7816164E-02  0.1266605E+00
        -11   -1    0    0    0    0  0.00000000000E+00  0.00000000000E+00  0.45593999997E+02  0.45594000000E+02  0.51100000000E-03 0.  1.
         11   -1    0    0    0    0 -0.00000000000E+00 -0.00000000000E+00 -0.45593999997E+02  0.45594000000E+02  0.51100000000E-03 0. -1.
    9900012    2    1    2    0    0 -0.20731928230E+02  0.20670083492E+02 -0.12635496389E+02  0.59301937704E+02  0.49999988468E+02 0.  0.
        -12    1    1    2    0    0  0.20731928230E+02 -0.20670083492E+02  0.12635496389E+02  0.31886062296E+02  0.00000000000E+00 0.  1.
         11    1    3    3    0    0 -0.35670683541E+02  0.10338485634E+02 -0.45326776057E+01  0.37414263537E+02  0.51100000000E-03 0. -1.
        -11    1    3    3    0    0  0.62751989468E+01  0.57878533633E+00 -0.59484817395E+01  0.86658842338E+01  0.51100000000E-03 0.  1.
         12    1    3    3    0    0  0.86635563635E+01  0.97528125223E+01 -0.21543370435E+01  0.13221789934E+02  0.00000000000E+00 0. -1.
</event>
<event>
 7    1  0.1052674E-011  0.5930193E+02  0.7816164E-02  0.1266605E+00
        -11   -1    0    0    0    0  0.00000000000E+00  0.00000000000E+00  0.45593999997E+02  0.45594000000E+02  0.51100000000E-03 0. -1.
         11   -1    0    0    0    0 -0.00000000000E+00 -0.00000000000E+00 -0.45593999997E+02  0.45594000000E+02  0.51100000000E-03 0.  1.
    9900012    2    1    2    0    0 -0.89916932103E+01  0.19201134965E+02  0.23815699162E+02  0.59301926907E+02  0.49999968776E+02 0.  0.
        -12    1    1    2    0    0  0.89916932103E+01 -0.19201134965E+02 -0.23815699162E+02  0.31886073093E+02  0.00000000000E+00 0.  1.
         11    1    3    3    0    0 -0.19644546617E+02 -0.20469228279E+01 -0.79226941352E+00  0.19766785169E+02  0.51100000000E-03 0. -1.
        -11    1    3    3    0    0 -0.13179395320E+01  0.16697419506E+02  0.79968407248E+01  0.18560448394E+02  0.51100000000E-03 0.  1.
        -12    1    3    3    0    0  0.11970792939E+02  0.45506382868E+01  0.16611127850E+02  0.20974693344E+02  0.00000000000E+00 0.  1.
</event>
<event>
 7    1  0.1052674E-011  0.5930196E+02  0.7816164E-02  0.1266605E+00
        -11   -1    0    0    0    0  0.00000000000E+00  0.00000000000E+00  0.45593999997E+02  0.45594000000E+02  0.51100000000E-03 0.  1.
         11   -1    0    0    0    0 -0.00000000000E+00 -0.00000000000E+00 -0.45593999997E+02  0.45594000000E+02  0.51100000000E-03 0. -1.
    9900012    2    1    2    0    0  0.11765750206E+02  0.85086676168E+01 -0.28388193723E+02  0.59301955319E+02  0.50000020592E+02 0.  0.
        -12    1    1    2    0    0 -0.11765750206E+02 -0.85086676168E+01  0.28388193723E+02  0.31886044681E+02  0.00000000000E+00 0.  1.
         11    1    3    3    0    0 -0.26775379101E+01 -0.31268620047E+01 -0.64721851491E+01  0.76704404125E+01  0.51100000000E-03 0. -1.
        -11    1    3    3    0    0  0.14876917768E+02  0.26772189687E+02 -0.19469347696E+02  0.36292262576E+02  0.51100000000E-03 0.  1.
        -12    1    3    3    0    0 -0.43362965157E+00 -0.15136660065E+02 -0.24466608780E+01  0.15339252331E+02  0.00000000000E+00 0.  1.
</event>
<event>
 7    1  0.1052674E-011  0.5930189E+02  0.7816164E-02  0.1266605E+00
        -11   -1    0    0    0    0  0.00000000000E+00  0.00000000000E+00  0.45593999997E+02  0.45594000000E+02  0.51100000000E-03 0. -1.
         11   -1    0    0    0    0 -0.00000000000E+00 -0.00000000000E+00 -0.45593999997E+02  0.45594000000E+02  0.51100000000E-03 0.  1.
    9900012    2    1    2    0    0  0.15666995636E+02 -0.27762769131E+02  0.70561484786E+00  0.59301890260E+02  0.49999901940E+02 0.  0.
        -12    1    1    2    0    0 -0.15666995636E+02  0.27762769131E+02 -0.70561484786E+00  0.31886109740E+02  0.00000000000E+00 0.  1.
         11    1    3    3    0    0 -0.12428031596E+02  0.72185224898E-02  0.10954003671E+02  0.16566418386E+02  0.51100000000E-03 0. -1.
        -11    1    3    3    0    0  0.14531550820E+02 -0.22105399048E+02 -0.39631101536E+01  0.26749222020E+02  0.51100000000E-03 0.  1.
         12    1    3    3    0    0  0.13563476412E+02 -0.56645886047E+01 -0.62852786697E+01  0.15986249854E+02  0.00000000000E+00 0. -1.
</event>
<event>
 7    1  0.1052674E-011  0.5930197E+02  0.7816164E-02  0.1266605E+00
        -11   -1    0    0    0    0  0.00000000000E+00  0.00000000000E+00  0.45593999997E+02  0.45594000000E+02  0.51100000000E-03 0.  1.
         11   -1    0    0    0    0 -0.00000000000E+00 -0.00000000000E+00 -0.45593999997E+02  0.45594000000E+02  0.51100000000E-03 0. -1.
    9900012    2    1    2    0    0 -0.17344923582E+02 -0.23077483893E+02 -0.13538923043E+02  0.59301967414E+02  0.50000042651E+02 0.  0.
        -12    1    1    2    0    0  0.17344923582E+02  0.23077483893E+02  0.13538923043E+02  0.31886032586E+02  0.00000000000E+00 0.  1.
         11    1    3    3    0    0  0.56385180737E+01 -0.14917324925E+02  0.76056972540E+01  0.17668222886E+02  0.51100000000E-03 0.  1.
        -11    1    3    3    0    0 -0.23244564226E+02 -0.11232712416E+02 -0.25506867500E+02  0.36291650337E+02  0.51100000000E-03 0. -1.
        -12    1    3    3    0    0  0.26112257102E+00  0.30725534480E+01  0.43622472022E+01  0.53420941906E+01  0.00000000000E+00 0.  1.
</event>
<event>
 7    1  0.1052674E-011  0.5930196E+02  0.7816164E-02  0.1266605E+00
        -11   -1    0    0    0    0  0.00000000000E+00  0.00000000000E+00  0.45593999997E+02  0.45594000000E+02  0.51100000000E-03 0.  1.
         11   -1    0    0    0    0 -0.00000000000E+00 -0.00000000000E+00 -0.45593999997E+02  0.45594000000E+02  0.51100000000E-03 0. -1.
    9900012    2    1    2    0    0 -0.13474307145E+02  0.23477979601E+02 -0.16850726656E+02  0.59301961237E+02  0.50000031385E+02 0.  0.
        -12    1    1    2    0    0  0.13474307145E+02 -0.23477979601E+02  0.16850726656E+02  0.31886038763E+02  0.00000000000E+00 0.  1.
         11    1    3    3    0    0 -0.28181801760E+01  0.37768670096E+00 -0.13076415154E+02  0.13381981180E+02  0.51100000000E-03 0. -1.
        -11    1    3    3    0    0 -0.20333861771E+02  0.25070282526E+02 -0.10530422131E+02  0.33954009939E+02  0.51100000000E-03 0.  1.
        -12    1    3    3    0    0  0.96777348022E+01 -0.19699896256E+01  0.67561106289E+01  0.11965970118E+02  0.00000000000E+00 0.  1.
</event>
<event>
 7    1  0.1052674E-011  0.5930195E+02  0.7816164E-02  0.1266605E+00
        -11   -1    0    0    0    0  0.00000000000E+00  0.00000000000E+00  0.45593999997E+02  0.45594000000E+02  0.51100000000E-03 0. -1.
         11   -1    0    0    0    0 -0.00000000000E+00 -0.00000000000E+00 -0.45593999997E+02  0.45594000000E+02  0.51100000000E-03 0.  1.
    9900012    2    1    2    0    0 -0.18618924349E+02 -0.24619613667E+02 -0.79956556296E+01  0.59301949288E+02  0.50000009594E+02 0.  0.
        -12    1    1    2    0    0  0.18618924349E+02  0.24619613667E+02  0.79956556296E+01  0.31886050712E+02  0.00000000000E+00 0.  1.
         11    1    3    3    0    0 -0.24696511135E+02 -0.94417912972E+00  0.43978319344E+01  0.25102789933E+02  0.51100000000E-03 0. -1.
        -11    1    3    3    0    0 -0.11804267662E+01 -0.62896011130E+01 -0.13896603006E+02  0.15299283149E+02  0.51100000000E-03 0.  1.
         12    1    3    3    0    0  0.72580135514E+01 -0.17385833424E+02  0.15031154421E+01  0.18899876206E+02  0.00000000000E+00 0. -1.
</event>
<event>
 7    1  0.1052674E-011  0.5930191E+02  0.7816164E-02  0.1266605E+00
        -11   -1    0    0    0    0  0.00000000000E+00  0.00000000000E+00  0.45593999997E+02  0.45594000000E+02  0.51100000000E-03 0.  1.
         11   -1    0    0    0    0 -0.00000000000E+00 -0.00000000000E+00 -0.45593999997E+02  0.45594000000E+02  0.51100000000E-03 0. -1.
    9900012    2    1    2    0    0  0.78428997009E+01 -0.27309851406E+02 -0.14470085788E+02  0.59301914599E+02  0.49999946329E+02 0.  0.
        -12    1    1    2    0    0 -0.78428997009E+01  0.27309851406E+02  0.14470085788E+02  0.31886085401E+02  0.00000000000E+00 0.  1.
         11    1    3    3    0    0  0.12893822978E+02 -0.24057827025E+02  0.87203717090E+00  0.27309158926E+02  0.51100000000E-03 0. -1.
        -11    1    3    3    0    0  0.76504777701E+01  0.60280050930E+01 -0.12758927821E+02  0.16051694456E+02  0.51100000000E-03 0.  1.
         12    1    3    3    0    0 -0.12701401047E+02 -0.92800294731E+01 -0.25831951381E+01  0.15941061217E+02  0.00000000000E+00 0. -1.
</event>
<event>
 7    1  0.1052674E-011  0.5930195E+02  0.7816164E-02  0.1266605E+00
        -11   -1    0    0    0    0  0.00000000000E+00  0.00000000000E+00  0.45593999997E+02  0.45594000000E+02  0.51100000000E-03 0.  1.
         11   -1    0    0    0    0 -0.00000000000E+00 -0.00000000000E+00 -0.45593999997E+02  0.45594000000E+02  0.51100000000E-03 0. -1.
    9900012    2    1    2    0    0 -0.99930390287E+01 -0.96688959209E+01 -0.28694456333E+02  0.59301949733E+02  0.50000010406E+02 0.  0.
        -12    1    1    2    0    0  0.99930390287E+01  0.96688959209E+01  0.28694456333E+02  0.31886050267E+02  0.00000000000E+00 0.  1.
         11    1    3    3    0    0 -0.58639486389E+01 -0.11551996355E+02 -0.18493453264E+02  0.22579688380E+02  0.51100000000E-03 0. -1.
        -11    1    3    3    0    0  0.11574968855E+02  0.11933515811E+02 -0.51795238849E+01  0.17413103444E+02  0.51100000000E-03 0.  1.
        -12    1    3    3    0    0 -0.15704059244E+02 -0.10050415377E+02 -0.50214791840E+01  0.19309157910E+02  0.00000000000E+00 0.  1.
</event>
<event>
 7    1  0.1052674E-011  0.5930198E+02  0.7816164E-02  0.1266605E+00
        -11   -1    0    0    0    0  0.00000000000E+00  0.00000000000E+00  0.45593999997E+02  0.45594000000E+02  0.51100000000E-03 0.  1.
         11   -1    0    0    0    0 -0.00000000000E+00 -0.00000000000E+00 -0.45593999997E+02  0.45594000000E+02  0.51100000000E-03 0. -1.
    9900012    2    1    2    0    0  0.15888017707E+02 -0.27435863049E+02 -0.34004267008E+01  0.59301975010E+02  0.50000056504E+02 0.  0.
        -12    1    1    2    0    0 -0.15888017707E+02  0.27435863049E+02  0.34004267008E+01  0.31886024990E+02  0.00000000000E+00 0.  1.
         11    1    3    3    0    0 -0.85430494487E+01 -0.61048775641E+01 -0.13509251406E+02  0.17110029158E+02  0.51100000000E-03 0. -1.
        -11    1    3    3    0    0  0.13969041153E+02  0.17532883492E+01 -0.17925430884E+01  0.14192298678E+02  0.51100000000E-03 0.  1.
         12    1    3    3    0    0  0.10462026003E+02 -0.23084273834E+02  0.11901367794E+02  0.27999647175E+02  0.00000000000E+00 0. -1.
</event>
<event>
 7    1  0.1052674E-011  0.5930196E+02  0.7816164E-02  0.1266605E+00
        -11   -1    0    0    0    0  0.00000000000E+00  0.00000000000E+00  0.45593999997E+02  0.45594000000E+02  0.51100000000E-03 0. -1.
         11   -1    0    0    0    0 -0.00000000000E+00 -0.00000000000E+00 -0.45593999997E+02  0.45594000000E+02  0.51100000000E-03 0.  1.
    9900012    2    1    2    0    0 -0.25265217952E+02  0.45208133950E+00  0.19446947039E+02  0.59301962854E+02  0.50000034335E+02 0.  0.
        -12    1    1    2    0    0  0.25265217952E+02 -0.45208133950E+00 -0.19446947039E+02  0.31886037146E+02  0.00000000000E+00 0.  1.
         11    1    3    3    0    0  0.88972936111E+01  0.67873747565E+01  0.50455250268E+01  0.12275488289E+02  0.51100000000E-03 0. -1.
        -11    1    3    3    0    0 -0.20049327952E+02 -0.17466993889E+02  0.63944485994E+01  0.27348864693E+02  0.51100000000E-03 0.  1.
        -12    1    3    3    0    0 -0.14113183612E+02  0.11131700472E+02  0.80069734126E+01  0.19677609872E+02  0.00000000000E+00 0.  1.
</event>
<event>
 7    1  0.1052674E-011  0.5930198E+02  0.7816164E-02  0.1266605E+00
        -11   -1    0    0    0    0  0.00000000000E+00  0.00000000000E+00  0.45593999997E+02  0.45594000000E+02  0.51100000000E-03 0. -1.
         11   -1    0    0    0    0 -0.00000000000E+00 -0.00000000000E+00 -0.45593999997E+02  0.45594000000E+02  0.51100000000E-03 0.  1.
    9900012    2    1    2    0    0 -0.33194783805E+01 -0.31139925401E+02  0.60003793519E+01  0.59301977309E+02  0.50000060697E+02 0.  0.
        -12    1    1    2    0    0  0.33194783805E+01  0.31139925401E+02 -0.60003793519E+01  0.31886022691E+02  0.00000000000E+00 0.  1.
         11    1    3    3    0    0 -0.72512676922E+01 -0.35958725888E+02  0.21025627824E+02  0.42281058127E+02  0.51100000000E-03 0. -1.
        -11    1    3    3    0    0  0.40578816460E+01  0.15084761909E+01 -0.10912894709E+02  0.11740237437E+02  0.51100000000E-03 0.  1.
        -12    1    3    3    0    0 -0.12609233429E+00  0.33103242970E+01 -0.41123537629E+01  0.52806817457E+01  0.00000000000E+00 0.  1.
</event>
<event>
 7    1  0.1052674E-011  0.5930194E+02  0.7816164E-02  0.1266605E+00
        -11   -1    0    0    0    0  0.00000000000E+00  0.00000000000E+00  0.45593999997E+02  0.45594000000E+02  0.51100000000E-03 0.  1.
         11   -1    0    0    0    0 -0.00000000000E+00 -0.00000000000E+00 -0.45593999997E+02  0.45594000000E+02  0.51100000000E-03 0. -1.
    9900012    2    1    2    0    0  0.27067189165E+01 -0.14692518239E-01 -0.31770967513E+02  0.59301938471E+02  0.49999989865E+02 0.  0.
        -12    1    1    2    0    0 -0.27067189165E+01  0.14692518239E-01  0.31770967513E+02  0.31886061529E+02  0.00000000000E+00 0.  1.
         11    1    3    3    0    0  0.17219108865E+02  0.68992666026E+01 -0.76485637980E+01  0.20064847824E+02  0.51100000000E-03 0. -1.
        -11    1    3    3    0    0 -0.22096549726E+02 -0.52494604089E+01 -0.14816191708E+02  0.27117040424E+02  0.51100000000E-03 0.  1.
        -12    1    3    3    0    0  0.75841597774E+01 -0.16644987119E+01 -0.93062120063E+01  0.12120050223E+02  0.00000000000E+00 0.  1.
</event>
<event>
 7    1  0.1052674E-011  0.5930195E+02  0.7816164E-02  0.1266605E+00
        -11   -1    0    0    0    0  0.00000000000E+00  0.00000000000E+00  0.45593999997E+02  0.45594000000E+02  0.51100000000E-03 0.  1.
         11   -1    0    0    0    0 -0.00000000000E+00 -0.00000000000E+00 -0.45593999997E+02  0.45594000000E+02  0.51100000000E-03 0. -1.
    9900012    2    1    2    0    0 -0.25444470718E-01 -0.22432502425E+02 -0.22660593673E+02  0.59301947906E+02  0.50000007074E+02 0.  0.
        -12    1    1    2    0    0  0.25444470718E-01  0.22432502425E+02  0.22660593673E+02  0.31886052094E+02  0.00000000000E+00 0.  1.
         11    1    3    3    0    0 -0.89911098943E+01 -0.58813499224E+00 -0.10691446457E+02  0.13981880685E+02  0.51100000000E-03 0. -1.
        -11    1    3    3    0    0  0.22557617490E+02 -0.14717961515E+02 -0.13061450336E+02  0.29934361245E+02  0.51100000000E-03 0.  1.
        -12    1    3    3    0    0 -0.13591952067E+02 -0.71264059184E+01  0.10923031192E+01  0.15385705977E+02  0.00000000000E+00 0.  1.
</event>
<event>
 7    1  0.1052674E-011  0.5930193E+02  0.7816164E-02  0.1266605E+00
        -11   -1    0    0    0    0  0.00000000000E+00  0.00000000000E+00  0.45593999997E+02  0.45594000000E+02  0.51100000000E-03 0. -1.
         11   -1    0    0    0    0 -0.00000000000E+00 -0.00000000000E+00 -0.45593999997E+02  0.45594000000E+02  0.51100000000E-03 0.  1.
    9900012    2    1    2    0    0 -0.95362018346E+01 -0.15843765615E+01  0.30385394850E+02  0.59301927575E+02  0.49999969994E+02 0.  0.
        -12    1    1    2    0    0  0.95362018346E+01  0.15843765615E+01 -0.30385394850E+02  0.31886072425E+02  0.00000000000E+00 0.  1.
         11    1    3    3    0    0  0.19335172039E+01 -0.11659584005E+02  0.13549702823E+02  0.17979956474E+02  0.51100000000E-03 0. -1.
        -11    1    3    3    0    0 -0.25788985301E+01  0.10458465657E+02 -0.89746813248E+01  0.14020525192E+02  0.51100000000E-03 0.  1.
        -12    1    3    3    0    0 -0.88908205084E+01 -0.38325821336E+00  0.25810373351E+02  0.27301445908E+02  0.00000000000E+00 0.  1.
</event>
<event>
 7    1  0.1052674E-011  0.5930194E+02  0.7816164E-02  0.1266605E+00
        -11   -1    0    0    0    0  0.00000000000E+00  0.00000000000E+00  0.45593999997E+02  0.45594000000E+02  0.51100000000E-03 0.  1.
         11   -1    0    0    0    0 -0.00000000000E+00 -0.00000000000E+00 -0.45593999997E+02  0.45594000000E+02  0.51100000000E-03 0. -1.
    9900012    2    1    2    0    0  0.18170354847E+02  0.16485441027E+02 -0.20366383054E+02  0.59301935335E+02  0.49999984147E+02 0.  0.
        -12    1    1    2    0    0 -0.18170354847E+02 -0.16485441027E+02  0.20366383054E+02  0.31886064665E+02  0.00000000000E+00 0.  1.
         11    1    3    3    0    0  0.16866561176E+02  0.96657952346E+01 -0.10150193177E+02  0.21930228116E+02  0.51100000000E-03 0. -1.
        -11    1    3    3    0    0  0.16847777039E+01 -0.16590431366E+01  0.12708380356E+02  0.12926477927E+02  0.51100000000E-03 0.  1.
        -12    1    3    3    0    0 -0.38098403301E+00  0.84786889293E+01 -0.22924570233E+02  0.24445229293E+02  0.00000000000E+00 0.  1.
</event>
<event>
 7    1  0.1052674E-011  0.5930196E+02  0.7816164E-02  0.1266605E+00
        -11   -1    0    0    0    0  0.00000000000E+00  0.00000000000E+00  0.45593999997E+02  0.45594000000E+02  0.51100000000E-03 0.  1.
         11   -1    0    0    0    0 -0.00000000000E+00 -0.00000000000E+00 -0.45593999997E+02  0.45594000000E+02  0.51100000000E-03 0. -1.
    9900012    2    1    2    0    0 -0.23742414182E+02  0.12668244767E+02  0.17103584614E+02  0.59301964447E+02  0.50000037239E+02 0.  0.
        -12    1    1    2    0    0  0.23742414182E+02 -0.12668244767E+02 -0.17103584614E+02  0.31886035553E+02  0.00000000000E+00 0.  1.
         11    1    3    3    0    0 -0.14164386634E+02  0.19266482567E+02  0.31584209434E+02  0.39615520759E+02  0.51100000000E-03 0.  1.
        -11    1    3    3    0    0 -0.14893685931E+01 -0.41950633472E+01 -0.75601057503E+01  0.87733673416E+01  0.51100000000E-03 0. -1.
        -12    1    3    3    0    0 -0.80886589548E+01 -0.24031744524E+01 -0.69205190695E+01  0.10913076346E+02  0.00000000000E+00 0.  1.
</event>
<event>
 7    1  0.1052674E-011  0.5930194E+02  0.7816164E-02  0.1266605E+00
        -11   -1    0    0    0    0  0.00000000000E+00  0.00000000000E+00  0.45593999997E+02  0.45594000000E+02  0.51100000000E-03 0. -1.
         11   -1    0    0    0    0 -0.00000000000E+00 -0.00000000000E+00 -0.45593999997E+02  0.45594000000E+02  0.51100000000E-03 0.  1.
    9900012    2    1    2    0    0  0.14785357219E+02 -0.19933664063E+02 -0.20019068403E+02  0.59301939553E+02  0.49999991840E+02 0.  0.
        -12    1    1    2    0    0 -0.14785357219E+02  0.19933664063E+02  0.20019068403E+02  0.31886060447E+02  0.00000000000E+00 0.  1.
         11    1    3    3    0    0 -0.61272135909E+01  0.12471081683E+02 -0.49755255681E+01  0.14758945751E+02  0.51100000000E-03 0. -1.
        -11    1    3    3    0    0  0.21564604238E+02 -0.30583515893E+02 -0.94101351187E+01  0.38586710711E+02  0.51100000000E-03 0.  1.
        -12    1    3    3    0    0 -0.65203342776E+00 -0.18212298533E+01 -0.56334077160E+01  0.59562830913E+01  0.00000000000E+00 0.  1.
</event>
<event>
 7    1  0.1052674E-011  0.5930196E+02  0.7816164E-02  0.1266605E+00
        -11   -1    0    0    0    0  0.00000000000E+00  0.00000000000E+00  0.45593999997E+02  0.45594000000E+02  0.51100000000E-03 0.  1.
         11   -1    0    0    0    0 -0.00000000000E+00 -0.00000000000E+00 -0.45593999997E+02  0.45594000000E+02  0.51100000000E-03 0. -1.
    9900012    2    1    2    0    0 -0.17336937015E+02  0.21532154352E+02  0.15890776227E+02  0.59301955637E+02  0.50000021172E+02 0.  0.
        -12    1    1    2    0    0  0.17336937015E+02 -0.21532154352E+02 -0.15890776227E+02  0.31886044363E+02  0.00000000000E+00 0.  1.
         11    1    3    3    0    0 -0.83940758085E+01 -0.13826471420E+02  0.46814756367E+01  0.16838884612E+02  0.51100000000E-03 0. -1.
        -11    1    3    3    0    0 -0.11724550943E+02  0.25871603185E+02  0.14694653389E+02  0.31980271804E+02  0.51100000000E-03 0.  1.
         12    1    3    3    0    0  0.27816897369E+01  0.94870225864E+01 -0.34853527997E+01  0.10482799220E+02  0.00000000000E+00 0. -1.
</event>
<event>
 7    1  0.1052674E-011  0.5930196E+02  0.7816164E-02  0.1266605E+00
        -11   -1    0    0    0    0  0.00000000000E+00  0.00000000000E+00  0.45593999997E+02  0.45594000000E+02  0.51100000000E-03 0. -1.
         11   -1    0    0    0    0 -0.00000000000E+00 -0.00000000000E+00 -0.45593999997E+02  0.45594000000E+02  0.51100000000E-03 0.  1.
    9900012    2    1    2    0    0  0.17458277843E+02 -0.11801698976E+02  0.23930069295E+02  0.59301956338E+02  0.50000022451E+02 0.  0.
        -12    1    1    2    0    0 -0.17458277843E+02  0.11801698976E+02 -0.23930069295E+02  0.31886043662E+02  0.00000000000E+00 0.  1.
         11    1    3    3    0    0  0.92605698397E+01  0.10314932504E+02  0.31474677925E+02  0.34392024324E+02  0.51100000000E-03 0. -1.
        -11    1    3    3    0    0  0.37279545787E+01 -0.77861302009E+01 -0.38402681190E+01  0.94482341383E+01  0.51100000000E-03 0.  1.
         12    1    3    3    0    0  0.44697534243E+01 -0.14330501279E+02 -0.37043405116E+01  0.15461697876E+02  0.00000000000E+00 0. -1.
</event>
