<event>
 7    1  0.5755468E-013  0.5930194E+02  0.7816164E-02  0.1266605E+00
        -11   -1    0    0    0    0  0.00000000000E+00  0.00000000000E+00  0.45593999997E+02  0.45594000000E+02  0.51100000000E-03 0.  1.
         11   -1    0    0    0    0 -0.00000000000E+00 -0.00000000000E+00 -0.45593999997E+02  0.45594000000E+02  0.51100000000E-03 0. -1.
    9900012    2    1    2    0    0  0.15356100989E+02  0.26617136712E+02  0.85111274791E+01  0.59301935720E+02  0.49999984848E+02 0.  0.
        -12    1    1    2    0    0 -0.15356100989E+02 -0.26617136712E+02 -0.85111274791E+01  0.31886064280E+02  0.00000000000E+00 0.  1.
         11    1    3    3    0    0  0.11310319665E+02  0.33339678997E+02  0.12578118949E+02  0.37385379537E+02  0.51100000000E-03 0. -1.
        -11    1    3    3    0    0  0.45956210456E+01 -0.58101120784E+01  0.73585127417E+01  0.10441496310E+02  0.51100000000E-03 0.  1.
         12    1    3    3    0    0 -0.54983972231E+00 -0.91243020702E+00 -0.11425504211E+02  0.11475059873E+02  0.00000000000E+00 0. -1.
</event>
<event>
 7    1  0.5755468E-013  0.5930197E+02  0.7816164E-02  0.1266605E+00
        -11   -1    0    0    0    0  0.00000000000E+00  0.00000000000E+00  0.45593999997E+02  0.45594000000E+02  0.51100000000E-03 0.  1.
         11   -1    0    0    0    0 -0.00000000000E+00 -0.00000000000E+00 -0.45593999997E+02  0.45594000000E+02  0.51100000000E-03 0. -1.
    9900012    2    1    2    0    0 -0.28267937421E+02 -0.11643365600E+02  0.90595179808E+01  0.59301966779E+02  0.50000041493E+02 0.  0.
        -12    1    1    2    0    0  0.28267937421E+02  0.11643365600E+02 -0.90595179808E+01  0.31886033221E+02  0.00000000000E+00 0.  1.
         11    1    3    3    0    0  0.97378621051E+00 -0.15741514536E+02  0.13789374494E+02  0.20949710944E+02  0.51100000000E-03 0. -1.
        -11    1    3    3    0    0 -0.11750008474E+02  0.13352087110E+02  0.80447117344E+00  0.17804159723E+02  0.51100000000E-03 0.  1.
         12    1    3    3    0    0 -0.17491715158E+02 -0.92539381737E+01 -0.55343276861E+01  0.20548096112E+02  0.00000000000E+00 0. -1.
</event>
<event>
 7    1  0.5755468E-013  0.5930194E+02  0.7816164E-02  0.1266605E+00
        -11   -1    0    0    0    0  0.00000000000E+00  0.00000000000E+00  0.45593999997E+02  0.45594000000E+02  0.51100000000E-03 0. -1.
         11   -1    0    0    0    0 -0.00000000000E+00 -0.00000000000E+00 -0.45593999997E+02  0.45594000000E+02  0.51100000000E-03 0.  1.
    9900012    2    1    2    0    0  0.96089216826E+01  0.29012209968E+02 -0.90929240240E+01  0.59301937678E+02  0.49999988419E+02 0.  0.
        -12    1    1    2    0    0 -0.96089216826E+01 -0.29012209968E+02  0.90929240240E+01  0.31886062322E+02  0.00000000000E+00 0.  1.
         11    1    3    3    0    0  0.21754049784E+01 -0.14447583426E+01  0.47560364060E+01  0.54258267614E+01  0.51100000000E-03 0. -1.
        -11    1    3    3    0    0 -0.22693850494E+01  0.15272202995E+02 -0.27317485091E+02  0.31378898719E+02  0.51100000000E-03 0.  1.
        -12    1    3    3    0    0  0.97029017536E+01  0.15184765315E+02  0.13468524661E+02  0.22497212198E+02  0.00000000000E+00 0.  1.
</event>
<event>
 7    1  0.5755468E-013  0.5930196E+02  0.7816164E-02  0.1266605E+00
        -11   -1    0    0    0    0  0.00000000000E+00  0.00000000000E+00  0.45593999997E+02  0.45594000000E+02  0.51100000000E-03 0. -1.
         11   -1    0    0    0    0 -0.00000000000E+00 -0.00000000000E+00 -0.45593999997E+02  0.45594000000E+02  0.51100000000E-03 0.  1.
    9900012    2    1    2    0    0 -0.16856548308E+02  0.20381207354E+02  0.17809628239E+02  0.59301957723E+02  0.50000024976E+02 0.  0.
        -12    1    1    2    0    0  0.16856548308E+02 -0.20381207354E+02 -0.17809628239E+02  0.31886042277E+02  0.00000000000E+00 0.  1.
         11    1    3    3    0    0 -0.23472103739E+02  0.84724202897E+01  0.48419491352E+01  0.25419796049E+02  0.51100000000E-03 0. -1.
        -11    1    3    3    0    0  0.43056415755E+00  0.17462038055E+02 -0.11435662585E+01  0.17504739432E+02  0.51100000000E-03 0.  1.
        -12    1    3    3    0    0  0.61849912732E+01 -0.55532509900E+01  0.14111245363E+02  0.16377422242E+02  0.00000000000E+00 0.  1.
</event>
<event>
 7    1  0.5755468E-013  0.5930194E+02  0.7816164E-02  0.1266605E+00
        -11   -1    0    0    0    0  0.00000000000E+00  0.00000000000E+00  0.45593999997E+02  0.45594000000E+02  0.51100000000E-03 0.  1.
         11   -1    0    0    0    0 -0.00000000000E+00 -0.00000000000E+00 -0.45593999997E+02  0.45594000000E+02  0.51100000000E-03 0. -1.
    9900012    2    1    2    0    0  0.31336539987E+02 -0.56499518546E+01 -0.16793926077E+01  0.59301936369E+02  0.49999986033E+02 0.  0.
        -12    1    1    2    0    0 -0.31336539987E+02  0.56499518546E+01  0.16793926077E+01  0.31886063631E+02  0.00000000000E+00 0.  1.
         11    1    3    3    0    0 -0.38073390620E+01  0.64208456861E+01  0.11208060638E+01  0.75484631913E+01  0.51100000000E-03 0. -1.
        -11    1    3    3    0    0  0.29446580261E+02 -0.24298295810E+02 -0.25308976657E+01  0.38261125331E+02  0.51100000000E-03 0.  1.
        -12    1    3    3    0    0  0.56972987879E+01  0.12227498269E+02 -0.26930100585E+00  0.13492347847E+02  0.00000000000E+00 0.  1.
</event>
<event>
 7    1  0.5755468E-013  0.5930194E+02  0.7816164E-02  0.1266605E+00
        -11   -1    0    0    0    0  0.00000000000E+00  0.00000000000E+00  0.45593999997E+02  0.45594000000E+02  0.51100000000E-03 0. -1.
         11   -1    0    0    0    0 -0.00000000000E+00 -0.00000000000E+00 -0.45593999997E+02  0.45594000000E+02  0.51100000000E-03 0.  1.
    9900012    2    1    2    0    0 -0.29847687003E+02 -0.75634236797E+01 -0.82844023689E+01  0.59301935335E+02  0.49999984147E+02 0.  0.
        -12    1    1    2    0    0  0.29847687003E+02  0.75634236797E+01  0.82844023689E+01  0.31886064665E+02  0.00000000000E+00 0.  1.
         11    1    3    3    0    0 -0.38238467120E+01 -0.19303496130E+02 -0.11162069076E+01  0.19710217772E+02  0.51100000000E-03 0. -1.
        -11    1    3    3    0    0 -0.28923926231E+02  0.39673814316E+01 -0.99467422079E+01  0.30842686408E+02  0.51100000000E-03 0.  1.
        -12    1    3    3    0    0  0.29000859401E+01  0.77726910184E+01  0.27785467466E+01  0.87490311549E+01  0.00000000000E+00 0.  1.
</event>
<event>
 7    1  0.5755468E-013  0.5930194E+02  0.7816164E-02  0.1266605E+00
        -11   -1    0    0    0    0  0.00000000000E+00  0.00000000000E+00  0.45593999997E+02  0.45594000000E+02  0.51100000000E-03 0.  1.
         11   -1    0    0    0    0 -0.00000000000E+00 -0.00000000000E+00 -0.45593999997E+02  0.45594000000E+02  0.51100000000E-03 0. -1.
    9900012    2    1    2    0    0 -0.15558630027E+02  0.65546804844E+00 -0.27824808156E+02  0.59301944182E+02  0.50000000282E+02 0.  0.
        -12    1    1    2    0    0  0.15558630027E+02 -0.65546804844E+00  0.27824808156E+02  0.31886055818E+02  0.00000000000E+00 0.  1.
         11    1    3    3    0    0  0.11513188927E+02  0.27294877819E+01 -0.75619027574E+01  0.14042293131E+02  0.51100000000E-03 0. -1.
        -11    1    3    3    0    0 -0.27998584683E+02 -0.11961935033E+02 -0.13938974454E+02  0.33485872291E+02  0.51100000000E-03 0.  1.
        -12    1    3    3    0    0  0.92676572977E+00  0.98879152994E+01 -0.63239309451E+01  0.11773778760E+02  0.00000000000E+00 0.  1.
</event>
<event>
 7    1  0.5755468E-013  0.5930194E+02  0.7816164E-02  0.1266605E+00
        -11   -1    0    0    0    0  0.00000000000E+00  0.00000000000E+00  0.45593999997E+02  0.45594000000E+02  0.51100000000E-03 0.  1.
         11   -1    0    0    0    0 -0.00000000000E+00 -0.00000000000E+00 -0.45593999997E+02  0.45594000000E+02  0.51100000000E-03 0. -1.
    9900012    2    1    2    0    0 -0.16257412976E+02  0.81177993327E+01 -0.26201503545E+02  0.59301938301E+02  0.49999989556E+02 0.  0.
        -12    1    1    2    0    0  0.16257412976E+02 -0.81177993327E+01  0.26201503545E+02  0.31886061699E+02  0.00000000000E+00 0.  1.
         11    1    3    3    0    0 -0.66480994838E+00 -0.68913793906E+01 -0.90257044473E+01  0.11375254863E+02  0.51100000000E-03 0. -1.
        -11    1    3    3    0    0 -0.57235404249E+01  0.27185011115E+02 -0.16342448347E+02  0.32231341309E+02  0.51100000000E-03 0.  1.
        -12    1    3    3    0    0 -0.98690626023E+01 -0.12175832392E+02 -0.83335075031E+00  0.15695342129E+02  0.00000000000E+00 0.  1.
</event>
<event>
 7    1  0.5755468E-013  0.5930188E+02  0.7816164E-02  0.1266605E+00
        -11   -1    0    0    0    0  0.00000000000E+00  0.00000000000E+00  0.45593999997E+02  0.45594000000E+02  0.51100000000E-03 0.  1.
         11   -1    0    0    0    0 -0.00000000000E+00 -0.00000000000E+00 -0.45593999997E+02  0.45594000000E+02  0.51100000000E-03 0. -1.
    9900012    2    1    2    0    0 -0.11550160209E+02  0.27877401988E+02  0.10303825584E+02  0.59301881326E+02  0.49999885647E+02 0.  0.
        -12    1    1    2    0    0  0.11550160209E+02 -0.27877401988E+02 -0.10303825584E+02  0.31886118674E+02  0.00000000000E+00 0.  1.
         11    1    3    3    0    0 -0.87271731328E+01  0.26465898199E+02  0.23883197115E+02  0.36701695098E+02  0.51100000000E-03 0. -1.
        -11    1    3    3    0    0  0.73098848188E+01 -0.11009339952E+01 -0.38735972420E+01  0.83457310992E+01  0.51100000000E-03 0.  1.
         12    1    3    3    0    0 -0.10132871895E+02  0.25124377837E+01 -0.97057742888E+01  0.14254455128E+02  0.00000000000E+00 0. -1.
</event>
<event>
 7    1  0.5755468E-013  0.5930195E+02  0.7816164E-02  0.1266605E+00
        -11   -1    0    0    0    0  0.00000000000E+00  0.00000000000E+00  0.45593999997E+02  0.45594000000E+02  0.51100000000E-03 0.  1.
         11   -1    0    0    0    0 -0.00000000000E+00 -0.00000000000E+00 -0.45593999997E+02  0.45594000000E+02  0.51100000000E-03 0. -1.
    9900012    2    1    2    0    0 -0.39880812008E+01  0.31620911054E+02  0.96603635906E+00  0.59301952365E+02  0.50000015206E+02 0.  0.
        -12    1    1    2    0    0  0.39880812008E+01 -0.31620911054E+02 -0.96603635906E+00  0.31886047635E+02  0.00000000000E+00 0.  1.
         11    1    3    3    0    0 -0.22196819306E+02  0.22397344616E+02 -0.19222403144E+01  0.31591689434E+02  0.51100000000E-03 0. -1.
        -11    1    3    3    0    0  0.13203483737E+02 -0.15500161258E+01 -0.41195355144E+01  0.13917798170E+02  0.51100000000E-03 0.  1.
        -12    1    3    3    0    0  0.50052543687E+01  0.10773582563E+02  0.70078121879E+01  0.13792464762E+02  0.00000000000E+00 0.  1.
</event>
<event>
 7    1  0.5755468E-013  0.5930194E+02  0.7816164E-02  0.1266605E+00
        -11   -1    0    0    0    0  0.00000000000E+00  0.00000000000E+00  0.45593999997E+02  0.45594000000E+02  0.51100000000E-03 0.  1.
         11   -1    0    0    0    0 -0.00000000000E+00 -0.00000000000E+00 -0.45593999997E+02  0.45594000000E+02  0.51100000000E-03 0. -1.
    9900012    2    1    2    0    0  0.37877033959E+01  0.12374637982E+02 -0.29141762089E+02  0.59301942548E+02  0.49999997301E+02 0.  0.
        -12    1    1    2    0    0 -0.37877033959E+01 -0.12374637982E+02  0.29141762089E+02  0.31886057452E+02  0.00000000000E+00 0.  1.
         11    1    3    3    0    0 -0.77314280693E+01 -0.18130179350E+01 -0.30832853892E+02  0.31839078086E+02  0.51100000000E-03 0. -1.
        -11    1    3    3    0    0  0.13358226651E+02  0.58620635309E+01 -0.61949438032E+01  0.15848764528E+02  0.51100000000E-03 0.  1.
         12    1    3    3    0    0 -0.18390951855E+01  0.83255923862E+01  0.78860356060E+01  0.11614099933E+02  0.00000000000E+00 0. -1.
</event>
<event>
 7    1  0.5755468E-013  0.5930195E+02  0.7816164E-02  0.1266605E+00
        -11   -1    0    0    0    0  0.00000000000E+00  0.00000000000E+00  0.45593999997E+02  0.45594000000E+02  0.51100000000E-03 0.  1.
         11   -1    0    0    0    0 -0.00000000000E+00 -0.00000000000E+00 -0.45593999997E+02  0.45594000000E+02  0.51100000000E-03 0. -1.
    9900012    2    1    2    0    0 -0.19561075142E+01  0.31250685731E+02 -0.60239957960E+01  0.59301949122E+02  0.50000009291E+02 0.  0.
        -12    1    1    2    0    0  0.19561075142E+01 -0.31250685731E+02  0.60239957960E+01  0.31886050878E+02  0.00000000000E+00 0.  1.
         11    1    3    3    0    0 -0.12527888329E+02 -0.64358406432E+01 -0.11895545777E+02  0.18435618795E+02  0.51100000000E-03 0. -1.
        -11    1    3    3    0    0  0.63495345371E+01  0.17056560608E+02 -0.21626407076E+01  0.18328116753E+02  0.51100000000E-03 0.  1.
         12    1    3    3    0    0  0.42222462774E+01  0.20629965766E+02  0.80341906882E+01  0.22538213575E+02  0.00000000000E+00 0. -1.
</event>
<event>
 7    1  0.5755468E-013  0.5930200E+02  0.7816164E-02  0.1266605E+00
        -11   -1    0    0    0    0  0.00000000000E+00  0.00000000000E+00  0.45593999997E+02  0.45594000000E+02  0.51100000000E-03 0.  1.
         11   -1    0    0    0    0 -0.00000000000E+00 -0.00000000000E+00 -0.45593999997E+02  0.45594000000E+02  0.51100000000E-03 0. -1.
    9900012    2    1    2    0    0  0.31249612290E+02  0.41881398717E+01  0.47579302795E+01  0.59302004886E+02  0.50000110990E+02 0.  0.
        -12    1    1    2    0    0 -0.31249612290E+02 -0.41881398717E+01 -0.47579302795E+01  0.31885995114E+02  0.00000000000E+00 0.  1.
         11    1    3    3    0    0  0.37539400352E+02 -0.15760430956E+01 -0.12643619032E+02  0.39642800017E+02  0.51100000000E-03 0. -1.
        -11    1    3    3    0    0 -0.38067530920E+01  0.20075160907E+01  0.58622272618E+01  0.72723585368E+01  0.51100000000E-03 0.  1.
         12    1    3    3    0    0 -0.24830349699E+01  0.37566668766E+01  0.11539322050E+02  0.12386846332E+02  0.00000000000E+00 0. -1.
</event>
<event>
 7    1  0.5755468E-013  0.5930195E+02  0.7816164E-02  0.1266605E+00
        -11   -1    0    0    0    0  0.00000000000E+00  0.00000000000E+00  0.45593999997E+02  0.45594000000E+02  0.51100000000E-03 0. -1.
         11   -1    0    0    0    0 -0.00000000000E+00 -0.00000000000E+00 -0.45593999997E+02  0.45594000000E+02  0.51100000000E-03 0.  1.
    9900012    2    1    2    0    0 -0.53986931626E+01 -0.17225969434E+02  0.26283839319E+02  0.59301951011E+02  0.50000012735E+02 0.  0.
        -12    1    1    2    0    0  0.53986931626E+01  0.17225969434E+02 -0.26283839319E+02  0.31886048989E+02  0.00000000000E+00 0.  1.
         11    1    3    3    0    0 -0.20833599718E+02 -0.27257857298E+02  0.15430158762E+02  0.37618073599E+02  0.51100000000E-03 0. -1.
        -11    1    3    3    0    0  0.82260579999E+01  0.34660757566E+01  0.41026757287E+01  0.98241365913E+01  0.51100000000E-03 0.  1.
         12    1    3    3    0    0  0.72088485552E+01  0.65658121070E+01  0.67510048287E+01  0.11859740820E+02  0.00000000000E+00 0. -1.
</event>
<event>
 7    1  0.5755468E-013  0.5930203E+02  0.7816164E-02  0.1266604E+00
        -11   -1    0    0    0    0  0.00000000000E+00  0.00000000000E+00  0.45593999997E+02  0.45594000000E+02  0.51100000000E-03 0. -1.
         11   -1    0    0    0    0 -0.00000000000E+00 -0.00000000000E+00 -0.45593999997E+02  0.45594000000E+02  0.51100000000E-03 0.  1.
    9900012    2    1    2    0    0 -0.21201348400E+02  0.22871747407E+02  0.66408744310E+01  0.59302027902E+02  0.50000152967E+02 0.  0.
        -12    1    1    2    0    0  0.21201348400E+02 -0.22871747407E+02 -0.66408744310E+01  0.31885972098E+02  0.00000000000E+00 0.  1.
         11    1    3    3    0    0  0.35018616053E+01  0.76909637915E+01  0.13746875626E+02  0.16136621347E+02  0.51100000000E-03 0. -1.
        -11    1    3    3    0    0 -0.18523577073E+02 -0.67878982756E+01 -0.40628039885E+01  0.20142116251E+02  0.51100000000E-03 0.  1.
        -12    1    3    3    0    0 -0.61796329323E+01  0.21968681891E+02 -0.30431972067E+01  0.23023290304E+02  0.00000000000E+00 0.  1.
</event>
<event>
 7    1  0.5755468E-013  0.5930195E+02  0.7816164E-02  0.1266605E+00
        -11   -1    0    0    0    0  0.00000000000E+00  0.00000000000E+00  0.45593999997E+02  0.45594000000E+02  0.51100000000E-03 0.  1.
         11   -1    0    0    0    0 -0.00000000000E+00 -0.00000000000E+00 -0.45593999997E+02  0.45594000000E+02  0.51100000000E-03 0. -1.
    9900012    2    1    2    0    0  0.25052404561E+02  0.19300099603E+02 -0.40747113196E+01  0.59301951463E+02  0.50000013560E+02 0.  0.
        -12    1    1    2    0    0 -0.25052404561E+02 -0.19300099603E+02  0.40747113196E+01  0.31886048537E+02  0.00000000000E+00 0.  1.
         11    1    3    3    0    0  0.14578475313E+02  0.28474316266E+01 -0.22141036892E+02  0.26662057764E+02  0.51100000000E-03 0. -1.
        -11    1    3    3    0    0  0.10196455369E+02  0.90624303628E+01  0.58000205419E+00  0.13654001201E+02  0.51100000000E-03 0.  1.
         12    1    3    3    0    0  0.27747387942E+00  0.73902376141E+01  0.17486323518E+02  0.18985892497E+02  0.00000000000E+00 0. -1.
</event>
<event>
 7    1  0.5755468E-013  0.5930195E+02  0.7816164E-02  0.1266605E+00
        -11   -1    0    0    0    0  0.00000000000E+00  0.00000000000E+00  0.45593999997E+02  0.45594000000E+02  0.51100000000E-03 0.  1.
         11   -1    0    0    0    0 -0.00000000000E+00 -0.00000000000E+00 -0.45593999997E+02  0.45594000000E+02  0.51100000000E-03 0. -1.
    9900012    2    1    2    0    0  0.29218991248E+02 -0.11828482598E+02 -0.48018474812E+01  0.59301949926E+02  0.50000010756E+02 0.  0.
        -12    1    1    2    0    0 -0.29218991248E+02  0.11828482598E+02  0.48018474812E+01  0.31886050074E+02  0.00000000000E+00 0.  1.
         11    1    3    3    0    0 -0.79317636066E+01  0.51578685734E+01 -0.57510657936E+01  0.11072092853E+02  0.51100000000E-03 0. -1.
        -11    1    3    3    0    0  0.38383911869E+02 -0.12419308322E+02  0.65794590696E+01  0.40876071136E+02  0.51100000000E-03 0.  1.
        -12    1    3    3    0    0 -0.12331570147E+01 -0.45670428499E+01 -0.56302407572E+01  0.73537859365E+01  0.00000000000E+00 0.  1.
</event>
<event>
 7    1  0.5755468E-013  0.5930192E+02  0.7816164E-02  0.1266605E+00
        -11   -1    0    0    0    0  0.00000000000E+00  0.00000000000E+00  0.45593999997E+02  0.45594000000E+02  0.51100000000E-03 0.  1.
         11   -1    0    0    0    0 -0.00000000000E+00 -0.00000000000E+00 -0.45593999997E+02  0.45594000000E+02  0.51100000000E-03 0. -1.
    9900012    2    1    2    0    0  0.18566792875E+02 -0.21214576614E+02 -0.14897574421E+02  0.59301924948E+02  0.49999965203E+02 0.  0.
        -12    1    1    2    0    0 -0.18566792875E+02  0.21214576614E+02  0.14897574421E+02  0.31886075052E+02  0.00000000000E+00 0.  1.
         11    1    3    3    0    0  0.18850136144E+02 -0.11039424490E+02  0.19141447184E+01  0.21928531095E+02  0.51100000000E-03 0. -1.
        -11    1    3    3    0    0 -0.55563561040E+01 -0.10835756336E+02 -0.24886935714E+02  0.27706430265E+02  0.51100000000E-03 0.  1.
         12    1    3    3    0    0  0.52730128351E+01  0.66060421207E+00  0.80752165747E+01  0.96669635880E+01  0.00000000000E+00 0. -1.
</event>
<event>
 7    1  0.5755468E-013  0.5930195E+02  0.7816164E-02  0.1266605E+00
        -11   -1    0    0    0    0  0.00000000000E+00  0.00000000000E+00  0.45593999997E+02  0.45594000000E+02  0.51100000000E-03 0.  1.
         11   -1    0    0    0    0 -0.00000000000E+00 -0.00000000000E+00 -0.45593999997E+02  0.45594000000E+02  0.51100000000E-03 0. -1.
    9900012    2    1    2    0    0 -0.11778073559E+02 -0.16739834548E+02 -0.24449440001E+02  0.59301949856E+02  0.50000010629E+02 0.  0.
        -12    1    1    2    0    0  0.11778073559E+02  0.16739834548E+02  0.24449440001E+02  0.31886050144E+02  0.00000000000E+00 0.  1.
         11    1    3    3    0    0 -0.21984050523E+02  0.60472032317E+01  0.16930924269E+01  0.22863370411E+02  0.51100000000E-03 0. -1.
        -11    1    3    3    0    0  0.65678570035E+01 -0.18616051257E+02 -0.18961203395E+02  0.27371907943E+02  0.51100000000E-03 0.  1.
         12    1    3    3    0    0  0.36381199611E+01 -0.41709865229E+01 -0.71813290332E+01  0.90666715011E+01  0.00000000000E+00 0. -1.
</event>
<event>
 7    1  0.6389904E-013  0.5930192E+02  0.7816164E-02  0.1266605E+00
        -11   -1    0    0    0    0  0.00000000000E+00  0.00000000000E+00  0.45593999997E+02  0.45594000000E+02  0.51100000000E-03 0. -1.
         11   -1    0    0    0    0 -0.00000000000E+00 -0.00000000000E+00 -0.45593999997E+02  0.45594000000E+02  0.51100000000E-03 0.  1.
    9900012    2    1    2    0    0 -0.24219724787E+02 -0.11868316127E+02  0.17007934825E+02  0.59301923988E+02  0.49999963452E+02 0.  0.
        -12    1    1    2    0    0  0.24219724787E+02  0.11868316127E+02 -0.17007934825E+02  0.31886076012E+02  0.00000000000E+00 0.  1.
         11    1    3    3    0    0  0.10686987774E+02 -0.37001367179E+01  0.93625083729E+01  0.14681937294E+02  0.51100000000E-03 0. -1.
        -11    1    3    3    0    0 -0.96751501357E+01 -0.34246418541E+01 -0.93066783305E+01  0.13854636906E+02  0.51100000000E-03 0.  1.
         12    1    3    3    0    0 -0.25231562426E+02 -0.47435375546E+01  0.16952104783E+02  0.30765349788E+02  0.00000000000E+00 0. -1.
</event>
<event>
 7    1  0.5755468E-013  0.5930195E+02  0.7816164E-02  0.1266605E+00
        -11   -1    0    0    0    0  0.00000000000E+00  0.00000000000E+00  0.45593999997E+02  0.45594000000E+02  0.51100000000E-03 0.  1.
         11   -1    0    0    0    0 -0.00000000000E+00 -0.00000000000E+00 -0.45593999997E+02  0.45594000000E+02  0.51100000000E-03 0. -1.
    9900012    2    1    2    0    0  0.11787304139E+02 -0.27885702982E+02  0.10008358442E+02  0.59301949627E+02  0.50000010212E+02 0.  0.
        -12    1    1    2    0    0 -0.11787304139E+02  0.27885702982E+02 -0.10008358442E+02  0.31886050373E+02  0.00000000000E+00 0.  1.
         11    1    3    3    0    0 -0.15240071332E+02 -0.12085793587E+02 -0.67924207737E+01  0.20602503757E+02  0.51100000000E-03 0. -1.
        -11    1    3    3    0    0  0.26029797953E+02 -0.13452861231E+02  0.92445274819E+01  0.30724438895E+02  0.51100000000E-03 0.  1.
        -12    1    3    3    0    0  0.99757751768E+00 -0.23470481637E+01  0.75562517337E+01  0.79750069749E+01  0.00000000000E+00 0.  1.
</event>
<event>
 7    1  0.5755468E-013  0.5930195E+02  0.7816164E-02  0.1266605E+00
        -11   -1    0    0    0    0  0.00000000000E+00  0.00000000000E+00  0.45593999997E+02  0.45594000000E+02  0.51100000000E-03 0.  1.
         11   -1    0    0    0    0 -0.00000000000E+00 -0.00000000000E+00 -0.45593999997E+02  0.45594000000E+02  0.51100000000E-03 0. -1.
    9900012    2    1    2    0    0  0.12227494432E+02  0.68570023973E+00 -0.29440417905E+02  0.59301952717E+02  0.50000015847E+02 0.  0.
        -12    1    1    2    0    0 -0.12227494432E+02 -0.68570023973E+00  0.29440417905E+02  0.31886047283E+02  0.00000000000E+00 0.  1.
         11    1    3    3    0    0  0.23102328940E+02 -0.25590881424E+01 -0.10482066209E+01  0.23267257508E+02  0.51100000000E-03 0.  1.
        -11    1    3    3    0    0 -0.12702442297E+02 -0.26133207499E+01 -0.92404126796E+01  0.15923778208E+02  0.51100000000E-03 0. -1.
         12    1    3    3    0    0  0.18276077890E+01  0.58581091321E+01 -0.19151798605E+02  0.20110917001E+02  0.00000000000E+00 0. -1.
</event>
<event>
 7    1  0.5755468E-013  0.5930195E+02  0.7816164E-02  0.1266605E+00
        -11   -1    0    0    0    0  0.00000000000E+00  0.00000000000E+00  0.45593999997E+02  0.45594000000E+02  0.51100000000E-03 0.  1.
         11   -1    0    0    0    0 -0.00000000000E+00 -0.00000000000E+00 -0.45593999997E+02  0.45594000000E+02  0.51100000000E-03 0. -1.
    9900012    2    1    2    0    0 -0.31310103207E+01  0.26418650230E+02 -0.17577604987E+02  0.59301945012E+02  0.50000001795E+02 0.  0.
        -12    1    1    2    0    0  0.31310103207E+01 -0.26418650230E+02  0.17577604987E+02  0.31886054988E+02  0.00000000000E+00 0.  1.
         11    1    3    3    0    0 -0.28779556308E+01  0.36543068922E+02 -0.31525727440E+00  0.36657576328E+02  0.51100000000E-03 0. -1.
        -11    1    3    3    0    0 -0.49000552014E+01 -0.33496021923E+01 -0.44256037200E+01  0.74038060733E+01  0.51100000000E-03 0.  1.
         12    1    3    3    0    0  0.46470005115E+01 -0.67748164994E+01 -0.12836743993E+02  0.15240562611E+02  0.00000000000E+00 0. -1.
</event>
<event>
 7    1  0.5755468E-013  0.5930201E+02  0.7816164E-02  0.1266605E+00
        -11   -1    0    0    0    0  0.00000000000E+00  0.00000000000E+00  0.45593999997E+02  0.45594000000E+02  0.51100000000E-03 0.  1.
         11   -1    0    0    0    0 -0.00000000000E+00 -0.00000000000E+00 -0.45593999997E+02  0.45594000000E+02  0.51100000000E-03 0. -1.
    9900012    2    1    2    0    0 -0.18162658543E+02  0.24326936879E+02 -0.97485684175E+01  0.59302006061E+02  0.50000113133E+02 0.  0.
        -12    1    1    2    0    0  0.18162658543E+02 -0.24326936879E+02  0.97485684175E+01  0.31885993939E+02  0.00000000000E+00 0.  1.
         11    1    3    3    0    0 -0.12125840885E+02  0.38646695613E+02  0.68993058631E+00  0.40510234552E+02  0.51100000000E-03 0. -1.
        -11    1    3    3    0    0 -0.32790702923E+01 -0.63446667123E+01 -0.55016838113E+01  0.90152993679E+01  0.51100000000E-03 0.  1.
         12    1    3    3    0    0 -0.27577473663E+01 -0.79750920212E+01 -0.49368151924E+01  0.97764721411E+01  0.00000000000E+00 0. -1.
</event>
<event>
 7    1  0.5755468E-013  0.5930194E+02  0.7816164E-02  0.1266605E+00
        -11   -1    0    0    0    0  0.00000000000E+00  0.00000000000E+00  0.45593999997E+02  0.45594000000E+02  0.51100000000E-03 0.  1.
         11   -1    0    0    0    0 -0.00000000000E+00 -0.00000000000E+00 -0.45593999997E+02  0.45594000000E+02  0.51100000000E-03 0. -1.
    9900012    2    1    2    0    0  0.24141744394E+02 -0.43683414868E+01 -0.20366990187E+02  0.59301944756E+02  0.50000001329E+02 0.  0.
        -12    1    1    2    0    0 -0.24141744394E+02  0.43683414868E+01  0.20366990187E+02  0.31886055244E+02  0.00000000000E+00 0.  1.
         11    1    3    3    0    0  0.24653489167E+02 -0.19291842476E+02 -0.95117052782E+01  0.32717613785E+02  0.51100000000E-03 0. -1.
        -11    1    3    3    0    0 -0.68495838954E+01 -0.10431754384E+01 -0.45311057402E+01  0.82786432478E+01  0.51100000000E-03 0.  1.
         12    1    3    3    0    0  0.63378391224E+01  0.15966676427E+02 -0.63241791686E+01  0.18305687723E+02  0.00000000000E+00 0. -1.
</event>
<event>
 7    1  0.5755468E-013  0.5930197E+02  0.7816164E-02  0.1266605E+00
        -11   -1    0    0    0    0  0.00000000000E+00  0.00000000000E+00  0.45593999997E+02  0.45594000000E+02  0.51100000000E-03 0. -1.
         11   -1    0    0    0    0 -0.00000000000E+00 -0.00000000000E+00 -0.45593999997E+02  0.45594000000E+02  0.51100000000E-03 0.  1.
    9900012    2    1    2    0    0  0.12568471707E+02 -0.22929522124E+02  0.18247998456E+02  0.59301969932E+02  0.50000047243E+02 0.  0.
        -12    1    1    2    0    0 -0.12568471707E+02  0.22929522124E+02 -0.18247998456E+02  0.31886030068E+02  0.00000000000E+00 0.  1.
         11    1    3    3    0    0  0.55788839257E+01 -0.12012374853E+02  0.90622775163E+01  0.16048238829E+02  0.51100000000E-03 0. -1.
        -11    1    3    3    0    0 -0.11235372080E+02 -0.93712666956E+01 -0.92297333970E+01  0.17298618560E+02  0.51100000000E-03 0.  1.
        -12    1    3    3    0    0  0.18224959861E+02 -0.15458805750E+01  0.18415454337E+02  0.25955112543E+02  0.00000000000E+00 0.  1.
</event>
<event>
 7    1  0.5755468E-013  0.5930196E+02  0.7816164E-02  0.1266605E+00
        -11   -1    0    0    0    0  0.00000000000E+00  0.00000000000E+00  0.45593999997E+02  0.45594000000E+02  0.51100000000E-03 0.  1.
         11   -1    0    0    0    0 -0.00000000000E+00 -0.00000000000E+00 -0.45593999997E+02  0.45594000000E+02  0.51100000000E-03 0. -1.
    9900012    2    1    2    0    0  0.17061568226E+02 -0.17522689367E+02 -0.20459172310E+02  0.59301960977E+02  0.50000030911E+02 0.  0.
        -12    1    1    2    0    0 -0.17061568226E+02  0.17522689367E+02  0.20459172310E+02  0.31886039023E+02  0.00000000000E+00 0.  1.
         11    1    3    3    0    0  0.14474270387E+02 -0.17728921067E+00 -0.77299497444E+01  0.16409998721E+02  0.51100000000E-03 0. -1.
        -11    1    3    3    0    0 -0.77005187225E+00 -0.11077651305E+02  0.12476588180E+02  0.16702472607E+02  0.51100000000E-03 0.  1.
        -12    1    3    3    0    0  0.33573497115E+01 -0.62677488516E+01 -0.25205810745E+02  0.26189489649E+02  0.00000000000E+00 0.  1.
</event>
<event>
 7    1  0.5755468E-013  0.5930197E+02  0.7816164E-02  0.1266605E+00
        -11   -1    0    0    0    0  0.00000000000E+00  0.00000000000E+00  0.45593999997E+02  0.45594000000E+02  0.51100000000E-03 0.  1.
         11   -1    0    0    0    0 -0.00000000000E+00 -0.00000000000E+00 -0.45593999997E+02  0.45594000000E+02  0.51100000000E-03 0. -1.
    9900012    2    1    2    0    0 -0.14619674189E+02 -0.15752634991E+02 -0.23555006527E+02  0.59301973044E+02  0.50000052918E+02 0.  0.
        -12    1    1    2    0    0  0.14619674189E+02  0.15752634991E+02  0.23555006527E+02  0.31886026956E+02  0.00000000000E+00 0.  1.
         11    1    3    3    0    0 -0.13945769089E+02 -0.15496645489E+01 -0.13496733957E+02  0.19469149018E+02  0.51100000000E-03 0. -1.
        -11    1    3    3    0    0  0.62868559206E+01 -0.23244999197E+02 -0.13885902180E+02  0.27796993086E+02  0.51100000000E-03 0.  1.
        -12    1    3    3    0    0 -0.69607610201E+01  0.90420287543E+01  0.38276296100E+01  0.12035830939E+02  0.00000000000E+00 0.  1.
</event>
<event>
 7    1  0.5755468E-013  0.5930192E+02  0.7816164E-02  0.1266605E+00
        -11   -1    0    0    0    0  0.00000000000E+00  0.00000000000E+00  0.45593999997E+02  0.45594000000E+02  0.51100000000E-03 0.  1.
         11   -1    0    0    0    0 -0.00000000000E+00 -0.00000000000E+00 -0.45593999997E+02  0.45594000000E+02  0.51100000000E-03 0. -1.
    9900012    2    1    2    0    0 -0.30962189456E+02 -0.88980706896E+00  0.75679188722E+01  0.59301916380E+02  0.49999949577E+02 0.  0.
        -12    1    1    2    0    0  0.30962189456E+02  0.88980706896E+00 -0.75679188722E+01  0.31886083620E+02  0.00000000000E+00 0.  1.
         11    1    3    3    0    0 -0.20543555535E+02 -0.13801004329E+02  0.23069511977E+02  0.33833530375E+02  0.51100000000E-03 0. -1.
        -11    1    3    3    0    0  0.68544800197E+00 -0.13291035117E+01 -0.34448543554E+01  0.37554462983E+01  0.51100000000E-03 0.  1.
         12    1    3    3    0    0 -0.11104081923E+02  0.14240300772E+02 -0.12056738750E+02  0.21712939707E+02  0.00000000000E+00 0. -1.
</event>
<event>
 7    1  0.5755468E-013  0.5930195E+02  0.7816164E-02  0.1266605E+00
        -11   -1    0    0    0    0  0.00000000000E+00  0.00000000000E+00  0.45593999997E+02  0.45594000000E+02  0.51100000000E-03 0.  1.
         11   -1    0    0    0    0 -0.00000000000E+00 -0.00000000000E+00 -0.45593999997E+02  0.45594000000E+02  0.51100000000E-03 0. -1.
    9900012    2    1    2    0    0  0.19892894946E+02 -0.24893329781E+02 -0.11467287755E+01  0.59301950953E+02  0.50000012630E+02 0.  0.
        -12    1    1    2    0    0 -0.19892894946E+02  0.24893329781E+02  0.11467287755E+01  0.31886049047E+02  0.00000000000E+00 0.  1.
         11    1    3    3    0    0  0.11100944873E+02 -0.13848993228E+01  0.14664512223E+02  0.18444425776E+02  0.51100000000E-03 0. -1.
        -11    1    3    3    0    0 -0.91805100397E+01 -0.76419634216E+01 -0.11339248920E+02  0.16469970730E+02  0.51100000000E-03 0.  1.
         12    1    3    3    0    0  0.17972460113E+02 -0.15866467037E+02 -0.44719920786E+01  0.24387554447E+02  0.00000000000E+00 0. -1.
</event>
<event>
 7    1  0.5755468E-013  0.5930200E+02  0.7816164E-02  0.1266605E+00
        -11   -1    0    0    0    0  0.00000000000E+00  0.00000000000E+00  0.45593999997E+02  0.45594000000E+02  0.51100000000E-03 0. -1.
         11   -1    0    0    0    0 -0.00000000000E+00 -0.00000000000E+00 -0.45593999997E+02  0.45594000000E+02  0.51100000000E-03 0.  1.
    9900012    2    1    2    0    0  0.20167254247E+02 -0.97264551367E+01  0.22702312422E+02  0.59301998954E+02  0.50000100173E+02 0.  0.
        -12    1    1    2    0    0 -0.20167254247E+02  0.97264551367E+01 -0.22702312422E+02  0.31886001046E+02  0.00000000000E+00 0.  1.
         11    1    3    3    0    0  0.14910710326E+02 -0.17642669369E+02  0.15649924806E+02  0.27901849609E+02  0.51100000000E-03 0. -1.
        -11    1    3    3    0    0 -0.10364157296E+02 -0.38037713344E+01  0.18895434206E+01  0.11200661026E+02  0.51100000000E-03 0.  1.
        -12    1    3    3    0    0  0.15620701216E+02  0.11719985567E+02  0.51628441952E+01  0.20199488320E+02  0.00000000000E+00 0.  1.
</event>
<event>
 7    1  0.5755468E-013  0.5930192E+02  0.7816164E-02  0.1266605E+00
        -11   -1    0    0    0    0  0.00000000000E+00  0.00000000000E+00  0.45593999997E+02  0.45594000000E+02  0.51100000000E-03 0.  1.
         11   -1    0    0    0    0 -0.00000000000E+00 -0.00000000000E+00 -0.45593999997E+02  0.45594000000E+02  0.51100000000E-03 0. -1.
    9900012    2    1    2    0    0 -0.10020751894E+02  0.96759945813E+01 -0.28682427743E+02  0.59301921519E+02  0.49999958950E+02 0.  0.
        -12    1    1    2    0    0  0.10020751894E+02 -0.96759945813E+01  0.28682427743E+02  0.31886078481E+02  0.00000000000E+00 0.  1.
         11    1    3    3    0    0 -0.14115633016E+02 -0.12302706491E+02 -0.26801581222E+02  0.32694532245E+02  0.51100000000E-03 0. -1.
        -11    1    3    3    0    0 -0.39100910260E+01  0.77175686507E+01  0.35836517298E+01  0.93644133661E+01  0.51100000000E-03 0.  1.
         12    1    3    3    0    0  0.80049721479E+01  0.14261132422E+02 -0.54644982507E+01  0.17242975908E+02  0.00000000000E+00 0. -1.
</event>
<event>
 7    1  0.5755468E-013  0.5930196E+02  0.7816164E-02  0.1266605E+00
        -11   -1    0    0    0    0  0.00000000000E+00  0.00000000000E+00  0.45593999997E+02  0.45594000000E+02  0.51100000000E-03 0.  1.
         11   -1    0    0    0    0 -0.00000000000E+00 -0.00000000000E+00 -0.45593999997E+02  0.45594000000E+02  0.51100000000E-03 0. -1.
    9900012    2    1    2    0    0  0.67235786829E+01  0.10831358464E+02 -0.29226612379E+02  0.59301957479E+02  0.50000024532E+02 0.  0.
        -12    1    1    2    0    0 -0.67235786829E+01 -0.10831358464E+02  0.29226612379E+02  0.31886042521E+02  0.00000000000E+00 0.  1.
         11    1    3    3    0    0 -0.12191962597E+02  0.54340663579E+01 -0.33633097427E+02  0.36185055920E+02  0.51100000000E-03 0. -1.
        -11    1    3    3    0    0  0.11494339574E+02  0.41816019956E+01 -0.29659018435E+01  0.12585794035E+02  0.51100000000E-03 0.  1.
         12    1    3    3    0    0  0.74212017060E+01  0.12156901108E+01  0.73723868912E+01  0.10531107524E+02  0.00000000000E+00 0. -1.
</event>
<event>
 7    1  0.5755468E-013  0.5930193E+02  0.7816164E-02  0.1266605E+00
        -11   -1    0    0    0    0  0.00000000000E+00  0.00000000000E+00  0.45593999997E+02  0.45594000000E+02  0.51100000000E-03 0.  1.
         11   -1    0    0    0    0 -0.00000000000E+00 -0.00000000000E+00 -0.45593999997E+02  0.45594000000E+02  0.51100000000E-03 0. -1.
    9900012    2    1    2    0    0 -0.58537395190E+01 -0.71407070229E+01 -0.30519923863E+02  0.59301925990E+02  0.49999967104E+02 0.  0.
        -12    1    1    2    0    0  0.58537395190E+01  0.71407070229E+01  0.30519923863E+02  0.31886074010E+02  0.00000000000E+00 0.  1.
         11    1    3    3    0    0  0.11042007590E+02 -0.32072212531E+01 -0.34562509704E+02  0.36424981497E+02  0.51100000000E-03 0. -1.
        -11    1    3    3    0    0 -0.10713785054E+02 -0.65544418528E+01  0.81812808385E+01  0.14989304674E+02  0.51100000000E-03 0.  1.
         12    1    3    3    0    0 -0.61819620553E+01  0.26209560829E+01 -0.41386949977E+01  0.78876398197E+01  0.00000000000E+00 0. -1.
</event>
<event>
 7    1  0.5755468E-013  0.5930174E+02  0.7816164E-02  0.1266605E+00
        -11   -1    0    0    0    0  0.00000000000E+00  0.00000000000E+00  0.45593999997E+02  0.45594000000E+02  0.51100000000E-03 0. -1.
         11   -1    0    0    0    0 -0.00000000000E+00 -0.00000000000E+00 -0.45593999997E+02  0.45594000000E+02  0.51100000000E-03 0.  1.
    9900012    2    1    2    0    0 -0.25813394754E+02  0.17227883315E+02  0.73213644563E+01  0.59301738229E+02  0.49999624671E+02 0.  0.
        -12    1    1    2    0    0  0.25813394754E+02 -0.17227883315E+02 -0.73213644563E+01  0.31886261771E+02  0.00000000000E+00 0.  1.
         11    1    3    3    0    0  0.44361677820E+01  0.84793198046E+01  0.64355838364E+01  0.11532353988E+02  0.51100000000E-03 0. -1.
        -11    1    3    3    0    0 -0.34530319293E+02 -0.14696139069E+01  0.67800662315E+01  0.35220335232E+02  0.51100000000E-03 0.  1.
        -12    1    3    3    0    0  0.42807567573E+01  0.10218177417E+02 -0.58942856116E+01  0.12549049008E+02  0.00000000000E+00 0.  1.
</event>
<event>
 7    1  0.5755468E-013  0.5930193E+02  0.7816164E-02  0.1266605E+00
        -11   -1    0    0    0    0  0.00000000000E+00  0.00000000000E+00  0.45593999997E+02  0.45594000000E+02  0.51100000000E-03 0.  1.
         11   -1    0    0    0    0 -0.00000000000E+00 -0.00000000000E+00 -0.45593999997E+02  0.45594000000E+02  0.51100000000E-03 0. -1.
    9900012    2    1    2    0    0  0.20269191648E+02  0.24111419568E+02 -0.49518613945E+01  0.59301927572E+02  0.49999969988E+02 0.  0.
        -12    1    1    2    0    0 -0.20269191648E+02 -0.24111419568E+02  0.49518613945E+01  0.31886072428E+02  0.00000000000E+00 0.  1.
         11    1    3    3    0    0  0.17428358056E+02 -0.27849517394E+01 -0.19035712669E+02  0.25958851627E+02  0.51100000000E-03 0. -1.
        -11    1    3    3    0    0 -0.31469971168E+01  0.16977915439E+02  0.13179325235E+02  0.21722058315E+02  0.51100000000E-03 0.  1.
         12    1    3    3    0    0  0.59878307090E+01  0.99184558675E+01  0.90452603958E+00  0.11621017630E+02  0.00000000000E+00 0. -1.
</event>
<event>
 7    1  0.5755468E-013  0.5930195E+02  0.7816164E-02  0.1266605E+00
        -11   -1    0    0    0    0  0.00000000000E+00  0.00000000000E+00  0.45593999997E+02  0.45594000000E+02  0.51100000000E-03 0.  1.
         11   -1    0    0    0    0 -0.00000000000E+00 -0.00000000000E+00 -0.45593999997E+02  0.45594000000E+02  0.51100000000E-03 0. -1.
    9900012    2    1    2    0    0  0.18631235972E+02  0.20257026396E+02 -0.16101254647E+02  0.59301945470E+02  0.50000002631E+02 0.  0.
        -12    1    1    2    0    0 -0.18631235972E+02 -0.20257026396E+02  0.16101254647E+02  0.31886054530E+02  0.00000000000E+00 0.  1.
         11    1    3    3    0    0 -0.15639480268E+01  0.27574251780E+01 -0.60072589185E+01  0.67923844869E+01  0.51100000000E-03 0. -1.
        -11    1    3    3    0    0  0.31502311733E+02  0.17649181610E+02  0.17271380850E+01  0.36150688268E+02  0.51100000000E-03 0.  1.
        -12    1    3    3    0    0 -0.11307127734E+02 -0.14958039200E+00 -0.11821133813E+02  0.16358872715E+02  0.00000000000E+00 0.  1.
</event>
<event>
 7    1  0.5755468E-013  0.5930205E+02  0.7816164E-02  0.1266604E+00
        -11   -1    0    0    0    0  0.00000000000E+00  0.00000000000E+00  0.45593999997E+02  0.45594000000E+02  0.51100000000E-03 0.  1.
         11   -1    0    0    0    0 -0.00000000000E+00 -0.00000000000E+00 -0.45593999997E+02  0.45594000000E+02  0.51100000000E-03 0. -1.
    9900012    2    1    2    0    0 -0.67195114825E+00 -0.31864763331E+02  0.94830741596E+00  0.59302047804E+02  0.50000189263E+02 0.  0.
        -12    1    1    2    0    0  0.67195114825E+00  0.31864763331E+02 -0.94830741596E+00  0.31885952196E+02  0.00000000000E+00 0.  1.
         11    1    3    3    0    0  0.24527006264E+02 -0.15467616289E+02 -0.87513618413E+00  0.29010119847E+02  0.51100000000E-03 0. -1.
        -11    1    3    3    0    0 -0.15698756685E+02 -0.87182005131E+01  0.11508852179E+00  0.17957483880E+02  0.51100000000E-03 0.  1.
         12    1    3    3    0    0 -0.95002007268E+01 -0.76789465286E+01  0.17083550783E+01  0.12334444078E+02  0.00000000000E+00 0. -1.
</event>
<event>
 7    1  0.5755468E-013  0.5930193E+02  0.7816164E-02  0.1266605E+00
        -11   -1    0    0    0    0  0.00000000000E+00  0.00000000000E+00  0.45593999997E+02  0.45594000000E+02  0.51100000000E-03 0. -1.
         11   -1    0    0    0    0 -0.00000000000E+00 -0.00000000000E+00 -0.45593999997E+02  0.45594000000E+02  0.51100000000E-03 0.  1.
    9900012    2    1    2    0    0  0.22472690118E+02 -0.17909703343E+02  0.13818181437E+02  0.59301930735E+02  0.49999975757E+02 0.  0.
        -12    1    1    2    0    0 -0.22472690118E+02  0.17909703343E+02 -0.13818181437E+02  0.31886069265E+02  0.00000000000E+00 0.  1.
         11    1    3    3    0    0  0.11414099207E+02  0.11877249014E+02 -0.45085074411E+01  0.17078563887E+02  0.51100000000E-03 0.  1.
        -11    1    3    3    0    0  0.88860113839E+01 -0.32294636308E+02  0.19435311967E+02  0.38725135043E+02  0.51100000000E-03 0. -1.
         12    1    3    3    0    0  0.21725795271E+01  0.25076839515E+01 -0.11086230897E+01  0.34982318044E+01  0.00000000000E+00 0. -1.
</event>
<event>
 7    1  0.5755468E-013  0.5930195E+02  0.7816164E-02  0.1266605E+00
        -11   -1    0    0    0    0  0.00000000000E+00  0.00000000000E+00  0.45593999997E+02  0.45594000000E+02  0.51100000000E-03 0.  1.
         11   -1    0    0    0    0 -0.00000000000E+00 -0.00000000000E+00 -0.45593999997E+02  0.45594000000E+02  0.51100000000E-03 0. -1.
    9900012    2    1    2    0    0 -0.26653506605E+02  0.17493554505E+02  0.53504951690E+00  0.59301950676E+02  0.50000012124E+02 0.  0.
        -12    1    1    2    0    0  0.26653506605E+02 -0.17493554505E+02 -0.53504951690E+00  0.31886049324E+02  0.00000000000E+00 0.  1.
         11    1    3    3    0    0 -0.16055503758E+02  0.17424664201E+02  0.49070987456E+01  0.24196647326E+02  0.51100000000E-03 0. -1.
        -11    1    3    3    0    0 -0.13381743936E+02  0.16147513859E+01 -0.17220408048E+02  0.21868263452E+02  0.51100000000E-03 0.  1.
        -12    1    3    3    0    0  0.27837410891E+01 -0.15458610823E+01  0.12848358819E+02  0.13237039898E+02  0.00000000000E+00 0.  1.
</event>
<event>
 7    1  0.5755468E-013  0.5930193E+02  0.7816164E-02  0.1266605E+00
        -11   -1    0    0    0    0  0.00000000000E+00  0.00000000000E+00  0.45593999997E+02  0.45594000000E+02  0.51100000000E-03 0.  1.
         11   -1    0    0    0    0 -0.00000000000E+00 -0.00000000000E+00 -0.45593999997E+02  0.45594000000E+02  0.51100000000E-03 0. -1.
    9900012    2    1    2    0    0  0.14091665921E+02 -0.28542237853E+02  0.18673921690E+01  0.59301928690E+02  0.49999972027E+02 0.  0.
        -12    1    1    2    0    0 -0.14091665921E+02  0.28542237853E+02 -0.18673921690E+01  0.31886071310E+02  0.00000000000E+00 0.  1.
         11    1    3    3    0    0  0.15539881929E+02 -0.25063573452E+01 -0.13653398415E+02  0.20837107430E+02  0.51100000000E-03 0. -1.
        -11    1    3    3    0    0 -0.54153359842E-01 -0.16716160608E+02  0.21553265633E+02  0.27275927441E+02  0.51100000000E-03 0.  1.
        -12    1    3    3    0    0 -0.13940626485E+01 -0.93197198995E+01 -0.60324750487E+01  0.11188893819E+02  0.00000000000E+00 0.  1.
</event>
<event>
 7    1  0.5755468E-013  0.5930193E+02  0.7816164E-02  0.1266605E+00
        -11   -1    0    0    0    0  0.00000000000E+00  0.00000000000E+00  0.45593999997E+02  0.45594000000E+02  0.51100000000E-03 0.  1.
         11   -1    0    0    0    0 -0.00000000000E+00 -0.00000000000E+00 -0.45593999997E+02  0.45594000000E+02  0.51100000000E-03 0. -1.
    9900012    2    1    2    0    0  0.80266784020E+01  0.30835970035E+02 -0.11986390327E+01  0.59301931731E+02  0.49999977573E+02 0.  0.
        -12    1    1    2    0    0 -0.80266784020E+01 -0.30835970035E+02  0.11986390327E+01  0.31886068269E+02  0.00000000000E+00 0.  1.
         11    1    3    3    0    0  0.14776906734E+01  0.12266308027E+02 -0.15630960305E+01  0.12453479506E+02  0.51100000000E-03 0. -1.
        -11    1    3    3    0    0 -0.17505740642E+02  0.45296684400E+01 -0.43544952475E+01  0.18599206454E+02  0.51100000000E-03 0.  1.
        -12    1    3    3    0    0  0.24054728370E+02  0.14039993567E+02  0.47189522453E+01  0.28249245771E+02  0.00000000000E+00 0.  1.
</event>
<event>
 7    1  0.5755468E-013  0.5930195E+02  0.7816164E-02  0.1266605E+00
        -11   -1    0    0    0    0  0.00000000000E+00  0.00000000000E+00  0.45593999997E+02  0.45594000000E+02  0.51100000000E-03 0. -1.
         11   -1    0    0    0    0 -0.00000000000E+00 -0.00000000000E+00 -0.45593999997E+02  0.45594000000E+02  0.51100000000E-03 0.  1.
    9900012    2    1    2    0    0  0.19319075027E+02  0.24215899984E+02  0.75553646700E+01  0.59301952782E+02  0.50000015965E+02 0.  0.
        -12    1    1    2    0    0 -0.19319075027E+02 -0.24215899984E+02 -0.75553646700E+01  0.31886047218E+02  0.00000000000E+00 0.  1.
         11    1    3    3    0    0 -0.67118025915E+01 -0.56630652551E+01 -0.53164204270E+01  0.10265618760E+02  0.51100000000E-03 0.  1.
        -11    1    3    3    0    0  0.18143287383E+02  0.33768623070E+02  0.87310249038E+01  0.39315767540E+02  0.51100000000E-03 0. -1.
         12    1    3    3    0    0  0.78875902347E+01 -0.38896578308E+01  0.41407601932E+01  0.97205664819E+01  0.00000000000E+00 0. -1.
</event>
<event>
 7    1  0.5755468E-013  0.5930194E+02  0.7816164E-02  0.1266605E+00
        -11   -1    0    0    0    0  0.00000000000E+00  0.00000000000E+00  0.45593999997E+02  0.45594000000E+02  0.51100000000E-03 0.  1.
         11   -1    0    0    0    0 -0.00000000000E+00 -0.00000000000E+00 -0.45593999997E+02  0.45594000000E+02  0.51100000000E-03 0. -1.
    9900012    2    1    2    0    0 -0.10147674319E+02  0.80541268744E+01 -0.29135486195E+02  0.59301940199E+02  0.49999993018E+02 0.  0.
        -12    1    1    2    0    0  0.10147674319E+02 -0.80541268744E+01  0.29135486195E+02  0.31886059801E+02  0.00000000000E+00 0.  1.
         11    1    3    3    0    0 -0.13826755513E+02  0.11026814826E+02 -0.16449604343E+02  0.24152832060E+02  0.51100000000E-03 0. -1.
        -11    1    3    3    0    0  0.16437451608E+02 -0.71571624212E+01 -0.12252727859E+02  0.21715066879E+02  0.51100000000E-03 0.  1.
        -12    1    3    3    0    0 -0.12758370414E+02  0.41844744698E+01 -0.43315399370E+00  0.13434041261E+02  0.00000000000E+00 0.  1.
</event>
<event>
 7    1  0.5755468E-013  0.5930193E+02  0.7816164E-02  0.1266605E+00
        -11   -1    0    0    0    0  0.00000000000E+00  0.00000000000E+00  0.45593999997E+02  0.45594000000E+02  0.51100000000E-03 0. -1.
         11   -1    0    0    0    0 -0.00000000000E+00 -0.00000000000E+00 -0.45593999997E+02  0.45594000000E+02  0.51100000000E-03 0.  1.
    9900012    2    1    2    0    0 -0.49167591797E+01 -0.30293595524E+02 -0.86512864591E+01  0.59301933953E+02  0.49999981625E+02 0.  0.
        -12    1    1    2    0    0  0.49167591797E+01  0.30293595524E+02  0.86512864591E+01  0.31886066047E+02  0.00000000000E+00 0.  1.
         11    1    3    3    0    0  0.77883385518E+01 -0.31623047801E+02 -0.16471803825E+02  0.36496516151E+02  0.51100000000E-03 0. -1.
        -11    1    3    3    0    0 -0.10417491168E+02 -0.45167911154E+01 -0.16185267587E+01  0.11469313551E+02  0.51100000000E-03 0.  1.
         12    1    3    3    0    0 -0.22876065638E+01  0.58462433930E+01  0.94390441242E+01  0.11336104251E+02  0.00000000000E+00 0. -1.
</event>
<event>
 7    1  0.5755468E-013  0.5930195E+02  0.7816164E-02  0.1266605E+00
        -11   -1    0    0    0    0  0.00000000000E+00  0.00000000000E+00  0.45593999997E+02  0.45594000000E+02  0.51100000000E-03 0.  1.
         11   -1    0    0    0    0 -0.00000000000E+00 -0.00000000000E+00 -0.45593999997E+02  0.45594000000E+02  0.51100000000E-03 0. -1.
    9900012    2    1    2    0    0 -0.10886902619E+02  0.82933435277E+01 -0.28799583774E+02  0.59301949429E+02  0.50000009850E+02 0.  0.
        -12    1    1    2    0    0  0.10886902619E+02 -0.82933435277E+01  0.28799583774E+02  0.31886050571E+02  0.00000000000E+00 0.  1.
         11    1    3    3    0    0 -0.83848856181E+01 -0.11436412805E+02 -0.26921954881E+02  0.30428432420E+02  0.51100000000E-03 0. -1.
        -11    1    3    3    0    0  0.64763296739E+01  0.14298277019E+02  0.48258168328E+01  0.16421695410E+02  0.51100000000E-03 0.  1.
        -12    1    3    3    0    0 -0.89783466745E+01  0.54314793131E+01 -0.67034457259E+01  0.12451821599E+02  0.00000000000E+00 0.  1.
</event>
<event>
 7    1  0.5755468E-013  0.5930190E+02  0.7816164E-02  0.1266605E+00
        -11   -1    0    0    0    0  0.00000000000E+00  0.00000000000E+00  0.45593999997E+02  0.45594000000E+02  0.51100000000E-03 0. -1.
         11   -1    0    0    0    0 -0.00000000000E+00 -0.00000000000E+00 -0.45593999997E+02  0.45594000000E+02  0.51100000000E-03 0.  1.
    9900012    2    1    2    0    0  0.14177691206E+02  0.16269732052E+02  0.23473649348E+02  0.59301900793E+02  0.49999921150E+02 0.  0.
        -12    1    1    2    0    0 -0.14177691206E+02 -0.16269732052E+02 -0.23473649348E+02  0.31886099207E+02  0.00000000000E+00 0.  1.
         11    1    3    3    0    0  0.71905018857E+01 -0.13135612048E+02  0.40431162643E+01  0.15511106042E+02  0.51100000000E-03 0. -1.
        -11    1    3    3    0    0 -0.39311800233E+01  0.10232746555E+02 -0.39421589101E+01  0.11649201500E+02  0.51100000000E-03 0.  1.
         12    1    3    3    0    0  0.10918369344E+02  0.19172597544E+02  0.23372691994E+02  0.32141593252E+02  0.00000000000E+00 0. -1.
</event>
<event>
 7    1  0.5755468E-013  0.5930195E+02  0.7816164E-02  0.1266605E+00
        -11   -1    0    0    0    0  0.00000000000E+00  0.00000000000E+00  0.45593999997E+02  0.45594000000E+02  0.51100000000E-03 0. -1.
         11   -1    0    0    0    0 -0.00000000000E+00 -0.00000000000E+00 -0.45593999997E+02  0.45594000000E+02  0.51100000000E-03 0.  1.
    9900012    2    1    2    0    0 -0.10430771644E+02  0.30030558331E+02  0.24667029836E+01  0.59301952042E+02  0.50000014616E+02 0.  0.
        -12    1    1    2    0    0  0.10430771644E+02 -0.30030558331E+02 -0.24667029836E+01  0.31886047958E+02  0.00000000000E+00 0.  1.
         11    1    3    3    0    0 -0.34346361445E+01  0.66068845108E+01  0.87756078238E+01  0.11509080820E+02  0.51100000000E-03 0. -1.
        -11    1    3    3    0    0 -0.99216170038E+01 -0.34068318912E+01 -0.15986278290E+02  0.19120828469E+02  0.51100000000E-03 0.  1.
        -12    1    3    3    0    0  0.29254815048E+01  0.26830505712E+02  0.96773734496E+01  0.28672042753E+02  0.00000000000E+00 0.  1.
</event>
<event>
 7    1  0.5755468E-013  0.5930210E+02  0.7816164E-02  0.1266604E+00
        -11   -1    0    0    0    0  0.00000000000E+00  0.00000000000E+00  0.45593999997E+02  0.45594000000E+02  0.51100000000E-03 0.  1.
         11   -1    0    0    0    0 -0.00000000000E+00 -0.00000000000E+00 -0.45593999997E+02  0.45594000000E+02  0.51100000000E-03 0. -1.
    9900012    2    1    2    0    0  0.44005430186E+01  0.25295195495E+02 -0.18907640841E+02  0.59302100669E+02  0.50000285676E+02 0.  0.
        -12    1    1    2    0    0 -0.44005430186E+01 -0.25295195495E+02  0.18907640841E+02  0.31885899331E+02  0.00000000000E+00 0.  1.
         11    1    3    3    0    0 -0.51536895628E+01  0.14682680391E+02 -0.12945275403E+02  0.20241585291E+02  0.51100000000E-03 0. -1.
        -11    1    3    3    0    0  0.23566553790E+01 -0.35956712728E+01  0.13351434410E+02  0.14026527637E+02  0.51100000000E-03 0.  1.
        -12    1    3    3    0    0  0.71975772024E+01  0.14208186377E+02 -0.19313799847E+02  0.25033987741E+02  0.00000000000E+00 0.  1.
</event>
<event>
 7    1  0.5755468E-013  0.5930190E+02  0.7816164E-02  0.1266605E+00
        -11   -1    0    0    0    0  0.00000000000E+00  0.00000000000E+00  0.45593999997E+02  0.45594000000E+02  0.51100000000E-03 0.  1.
         11   -1    0    0    0    0 -0.00000000000E+00 -0.00000000000E+00 -0.45593999997E+02  0.45594000000E+02  0.51100000000E-03 0. -1.
    9900012    2    1    2    0    0  0.22519065450E+02 -0.19943119769E+02  0.10577677699E+02  0.59301896438E+02  0.49999913208E+02 0.  0.
        -12    1    1    2    0    0 -0.22519065450E+02  0.19943119769E+02 -0.10577677699E+02  0.31886103562E+02  0.00000000000E+00 0.  1.
         11    1    3    3    0    0  0.53545096102E+01 -0.26990922245E+02 -0.31884142590E+01  0.27701022410E+02  0.51100000000E-03 0. -1.
        -11    1    3    3    0    0  0.16300601617E+02 -0.19339183815E+01  0.15310065855E+02  0.22446553636E+02  0.51100000000E-03 0.  1.
         12    1    3    3    0    0  0.86395422227E+00  0.89817208575E+01 -0.15439738968E+01  0.91543203928E+01  0.00000000000E+00 0. -1.
</event>
<event>
 7    1  0.5755468E-013  0.5930193E+02  0.7816164E-02  0.1266605E+00
        -11   -1    0    0    0    0  0.00000000000E+00  0.00000000000E+00  0.45593999997E+02  0.45594000000E+02  0.51100000000E-03 0.  1.
         11   -1    0    0    0    0 -0.00000000000E+00 -0.00000000000E+00 -0.45593999997E+02  0.45594000000E+02  0.51100000000E-03 0. -1.
    9900012    2    1    2    0    0  0.19369238548E+02  0.14289860811E+02 -0.20913005114E+02  0.59301932402E+02  0.49999978798E+02 0.  0.
        -12    1    1    2    0    0 -0.19369238548E+02 -0.14289860811E+02  0.20913005114E+02  0.31886067598E+02  0.00000000000E+00 0.  1.
         11    1    3    3    0    0  0.41053896812E+01  0.96459631441E+01 -0.41507530023E+01  0.11275086703E+02  0.51100000000E-03 0. -1.
        -11    1    3    3    0    0 -0.54589440017E+01 -0.10645414316E+02  0.62436166374E+01  0.13494727287E+02  0.51100000000E-03 0.  1.
        -12    1    3    3    0    0  0.20722792868E+02  0.15289311983E+02 -0.23005868749E+02  0.34532118413E+02  0.00000000000E+00 0.  1.
</event>
<event>
 7    1  0.5755468E-013  0.5930195E+02  0.7816164E-02  0.1266605E+00
        -11   -1    0    0    0    0  0.00000000000E+00  0.00000000000E+00  0.45593999997E+02  0.45594000000E+02  0.51100000000E-03 0.  1.
         11   -1    0    0    0    0 -0.00000000000E+00 -0.00000000000E+00 -0.45593999997E+02  0.45594000000E+02  0.51100000000E-03 0. -1.
    9900012    2    1    2    0    0  0.29656748065E+02  0.15999073031E+01 -0.11603353645E+02  0.59301949367E+02  0.50000009737E+02 0.  0.
        -12    1    1    2    0    0 -0.29656748065E+02 -0.15999073031E+01  0.11603353645E+02  0.31886050633E+02  0.00000000000E+00 0.  1.
         11    1    3    3    0    0  0.14094471117E+02  0.17115649735E+01 -0.73349779924E+01  0.15980784497E+02  0.51100000000E-03 0. -1.
        -11    1    3    3    0    0 -0.31662282291E+01  0.11376242025E+02  0.11338718041E+02  0.16371023514E+02  0.51100000000E-03 0.  1.
        -12    1    3    3    0    0  0.18728505177E+02 -0.11487899695E+02 -0.15607093694E+02  0.26950141357E+02  0.00000000000E+00 0.  1.
</event>
<event>
 7    1  0.5755468E-013  0.5930191E+02  0.7816164E-02  0.1266605E+00
        -11   -1    0    0    0    0  0.00000000000E+00  0.00000000000E+00  0.45593999997E+02  0.45594000000E+02  0.51100000000E-03 0. -1.
         11   -1    0    0    0    0 -0.00000000000E+00 -0.00000000000E+00 -0.45593999997E+02  0.45594000000E+02  0.51100000000E-03 0.  1.
    9900012    2    1    2    0    0 -0.14880049303E+02 -0.27621011818E+02  0.56909288187E+01  0.59301908488E+02  0.49999935184E+02 0.  0.
        -12    1    1    2    0    0  0.14880049303E+02  0.27621011818E+02 -0.56909288187E+01  0.31886091512E+02  0.00000000000E+00 0.  1.
         11    1    3    3    0    0 -0.29590300580E+02 -0.53125826149E+01  0.56255117976E+01  0.30585222015E+02  0.51100000000E-03 0. -1.
        -11    1    3    3    0    0  0.47108002295E+01 -0.54203480571E+00 -0.40049855827E+00  0.47587645339E+01  0.51100000000E-03 0.  1.
         12    1    3    3    0    0  0.99994510474E+01 -0.21766394397E+02  0.46591557938E+00  0.23957921939E+02  0.00000000000E+00 0. -1.
</event>
<event>
 7    1  0.5755468E-013  0.5930193E+02  0.7816164E-02  0.1266605E+00
        -11   -1    0    0    0    0  0.00000000000E+00  0.00000000000E+00  0.45593999997E+02  0.45594000000E+02  0.51100000000E-03 0. -1.
         11   -1    0    0    0    0 -0.00000000000E+00 -0.00000000000E+00 -0.45593999997E+02  0.45594000000E+02  0.51100000000E-03 0.  1.
    9900012    2    1    2    0    0  0.17528972470E+02 -0.20394583812E+02  0.17132345095E+02  0.59301934498E+02  0.49999982620E+02 0.  0.
        -12    1    1    2    0    0 -0.17528972470E+02  0.20394583812E+02 -0.17132345095E+02  0.31886065502E+02  0.00000000000E+00 0.  1.
         11    1    3    3    0    0 -0.45810776705E+01  0.10381622677E+02  0.10414189145E+02  0.15401938119E+02  0.51100000000E-03 0.  1.
        -11    1    3    3    0    0  0.25982773983E+02 -0.29218571634E+02  0.69765421231E+01  0.39717774515E+02  0.51100000000E-03 0. -1.
        -12    1    3    3    0    0 -0.38727238426E+01 -0.15576348554E+01 -0.25838617313E+00  0.41822218638E+01  0.00000000000E+00 0.  1.
</event>
<event>
 7    1  0.5755468E-013  0.5930192E+02  0.7816164E-02  0.1266605E+00
        -11   -1    0    0    0    0  0.00000000000E+00  0.00000000000E+00  0.45593999997E+02  0.45594000000E+02  0.51100000000E-03 0.  1.
         11   -1    0    0    0    0 -0.00000000000E+00 -0.00000000000E+00 -0.45593999997E+02  0.45594000000E+02  0.51100000000E-03 0. -1.
    9900012    2    1    2    0    0 -0.19169244767E+01 -0.31808670654E+02  0.11206984352E+01  0.59301920071E+02  0.49999956309E+02 0.  0.
        -12    1    1    2    0    0  0.19169244767E+01  0.31808670654E+02 -0.11206984352E+01  0.31886079929E+02  0.00000000000E+00 0.  1.
         11    1    3    3    0    0  0.85610321034E+00  0.85142221920E+00 -0.13336739340E+02  0.13391282574E+02  0.51100000000E-03 0. -1.
        -11    1    3    3    0    0 -0.15497530179E+02 -0.14923769268E+02  0.95388551233E+01  0.23534699662E+02  0.51100000000E-03 0.  1.
        -12    1    3    3    0    0  0.12724502492E+02 -0.17736323605E+02  0.49185826517E+01  0.22375937835E+02  0.00000000000E+00 0.  1.
</event>
<event>
 7    1  0.5755468E-013  0.5930193E+02  0.7816164E-02  0.1266605E+00
        -11   -1    0    0    0    0  0.00000000000E+00  0.00000000000E+00  0.45593999997E+02  0.45594000000E+02  0.51100000000E-03 0. -1.
         11   -1    0    0    0    0 -0.00000000000E+00 -0.00000000000E+00 -0.45593999997E+02  0.45594000000E+02  0.51100000000E-03 0.  1.
    9900012    2    1    2    0    0 -0.28434934795E+02 -0.12047933258E+02  0.79387195310E+01  0.59301929681E+02  0.49999973835E+02 0.  0.
        -12    1    1    2    0    0  0.28434934795E+02  0.12047933258E+02 -0.79387195310E+01  0.31886070319E+02  0.00000000000E+00 0.  1.
         11    1    3    3    0    0 -0.21053184688E+02  0.78883110908E+01  0.14330863437E+02  0.26661501918E+02  0.51100000000E-03 0. -1.
        -11    1    3    3    0    0 -0.14263732255E+02 -0.20111862323E+02 -0.72566389254E+01  0.25702137513E+02  0.51100000000E-03 0.  1.
         12    1    3    3    0    0  0.68819821484E+01  0.17561797389E+00  0.86449501922E+00  0.69382902507E+01  0.00000000000E+00 0. -1.
</event>
<event>
 7    1  0.5755468E-013  0.5930195E+02  0.7816164E-02  0.1266605E+00
        -11   -1    0    0    0    0  0.00000000000E+00  0.00000000000E+00  0.45593999997E+02  0.45594000000E+02  0.51100000000E-03 0.  1.
         11   -1    0    0    0    0 -0.00000000000E+00 -0.00000000000E+00 -0.45593999997E+02  0.45594000000E+02  0.51100000000E-03 0. -1.
    9900012    2    1    2    0    0 -0.19693064798E+02 -0.12780659767E+02 -0.21576797416E+02  0.59301948944E+02  0.50000008967E+02 0.  0.
        -12    1    1    2    0    0  0.19693064798E+02  0.12780659767E+02  0.21576797416E+02  0.31886051056E+02  0.00000000000E+00 0.  1.
         11    1    3    3    0    0 -0.14856050322E+01 -0.14262406798E+02 -0.15137068724E+01  0.14419243348E+02  0.51100000000E-03 0. -1.
        -11    1    3    3    0    0 -0.20053648700E+02  0.11692355820E+02 -0.24362532339E+02  0.33651047429E+02  0.51100000000E-03 0.  1.
        -12    1    3    3    0    0  0.18461889346E+01 -0.10210608789E+02  0.42994417961E+01  0.11231658167E+02  0.00000000000E+00 0.  1.
</event>
<event>
 7    1  0.5755468E-013  0.5930192E+02  0.7816164E-02  0.1266605E+00
        -11   -1    0    0    0    0  0.00000000000E+00  0.00000000000E+00  0.45593999997E+02  0.45594000000E+02  0.51100000000E-03 0.  1.
         11   -1    0    0    0    0 -0.00000000000E+00 -0.00000000000E+00 -0.45593999997E+02  0.45594000000E+02  0.51100000000E-03 0. -1.
    9900012    2    1    2    0    0  0.26071393813E+02  0.18013833914E+02 -0.35364570714E+01  0.59301916574E+02  0.49999949930E+02 0.  0.
        -12    1    1    2    0    0 -0.26071393813E+02 -0.18013833914E+02  0.35364570714E+01  0.31886083426E+02  0.00000000000E+00 0.  1.
         11    1    3    3    0    0  0.10250908814E+02 -0.14736599567E+02 -0.65036054813E+01  0.19093071592E+02  0.51100000000E-03 0. -1.
        -11    1    3    3    0    0  0.58901935133E+01  0.64336941678E+01  0.77606401457E+01  0.11675373056E+02  0.51100000000E-03 0.  1.
         12    1    3    3    0    0  0.99302914852E+01  0.26316739314E+02 -0.47934917358E+01  0.28533471925E+02  0.00000000000E+00 0. -1.
</event>
<event>
 7    1  0.5755468E-013  0.5930194E+02  0.7816164E-02  0.1266605E+00
        -11   -1    0    0    0    0  0.00000000000E+00  0.00000000000E+00  0.45593999997E+02  0.45594000000E+02  0.51100000000E-03 0.  1.
         11   -1    0    0    0    0 -0.00000000000E+00 -0.00000000000E+00 -0.45593999997E+02  0.45594000000E+02  0.51100000000E-03 0. -1.
    9900012    2    1    2    0    0 -0.53746609439E+01 -0.21834227921E+01 -0.31353894381E+02  0.59301937085E+02  0.49999987338E+02 0.  0.
        -12    1    1    2    0    0  0.53746609439E+01  0.21834227921E+01  0.31353894381E+02  0.31886062915E+02  0.00000000000E+00 0.  1.
         11    1    3    3    0    0  0.65458792556E+00  0.11834319802E+02 -0.77276343161E+01  0.14149061556E+02  0.51100000000E-03 0. -1.
        -11    1    3    3    0    0 -0.20729787971E+02 -0.10988925221E+02 -0.13997051259E+02  0.27320286072E+02  0.51100000000E-03 0.  1.
        -12    1    3    3    0    0  0.14700539101E+02 -0.30288173729E+01 -0.96292088055E+01  0.17832589458E+02  0.00000000000E+00 0.  1.
</event>
<event>
 7    1  0.5755468E-013  0.5930195E+02  0.7816164E-02  0.1266605E+00
        -11   -1    0    0    0    0  0.00000000000E+00  0.00000000000E+00  0.45593999997E+02  0.45594000000E+02  0.51100000000E-03 0.  1.
         11   -1    0    0    0    0 -0.00000000000E+00 -0.00000000000E+00 -0.45593999997E+02  0.45594000000E+02  0.51100000000E-03 0. -1.
    9900012    2    1    2    0    0 -0.29316266359E+02  0.10307691168E+02 -0.71433925903E+01  0.59301952453E+02  0.50000015366E+02 0.  0.
        -12    1    1    2    0    0  0.29316266359E+02 -0.10307691168E+02  0.71433925903E+01  0.31886047547E+02  0.00000000000E+00 0.  1.
         11    1    3    3    0    0  0.15703228579E+01  0.34505521729E+01 -0.28391811388E+01  0.47363671707E+01  0.51100000000E-03 0. -1.
        -11    1    3    3    0    0 -0.37351860886E+02  0.21951734542E+00 -0.15143543312E+02  0.40305540609E+02  0.51100000000E-03 0.  1.
        -12    1    3    3    0    0  0.64652716686E+01  0.66376216499E+01  0.10839331860E+02  0.14260044674E+02  0.00000000000E+00 0.  1.
</event>
<event>
 7    1  0.5755468E-013  0.5930196E+02  0.7816164E-02  0.1266605E+00
        -11   -1    0    0    0    0  0.00000000000E+00  0.00000000000E+00  0.45593999997E+02  0.45594000000E+02  0.51100000000E-03 0. -1.
         11   -1    0    0    0    0 -0.00000000000E+00 -0.00000000000E+00 -0.45593999997E+02  0.45594000000E+02  0.51100000000E-03 0.  1.
    9900012    2    1    2    0    0  0.13655789837E+02 -0.19303315188E+02  0.21392082076E+02  0.59301956833E+02  0.50000023354E+02 0.  0.
        -12    1    1    2    0    0 -0.13655789837E+02  0.19303315188E+02 -0.21392082076E+02  0.31886043167E+02  0.00000000000E+00 0.  1.
         11    1    3    3    0    0  0.24164466775E+02 -0.10860976696E+02  0.17710951750E+02  0.31867853418E+02  0.51100000000E-03 0. -1.
        -11    1    3    3    0    0 -0.89333563137E+01  0.71394020678E+01  0.45918917812E+00  0.11444945254E+02  0.51100000000E-03 0.  1.
         12    1    3    3    0    0 -0.15753206250E+01 -0.15581740560E+02  0.32219411478E+01  0.15989158161E+02  0.00000000000E+00 0. -1.
</event>
<event>
 7    1  0.5755468E-013  0.5930194E+02  0.7816164E-02  0.1266605E+00
        -11   -1    0    0    0    0  0.00000000000E+00  0.00000000000E+00  0.45593999997E+02  0.45594000000E+02  0.51100000000E-03 0. -1.
         11   -1    0    0    0    0 -0.00000000000E+00 -0.00000000000E+00 -0.45593999997E+02  0.45594000000E+02  0.51100000000E-03 0.  1.
    9900012    2    1    2    0    0  0.19767445210E+02  0.24217956311E+02  0.62816643859E+01  0.59301943400E+02  0.49999998856E+02 0.  0.
        -12    1    1    2    0    0 -0.19767445210E+02 -0.24217956311E+02 -0.62816643859E+01  0.31886056600E+02  0.00000000000E+00 0.  1.
         11    1    3    3    0    0  0.21771793057E+02 -0.23661672263E+01 -0.94902813438E+01  0.23867868788E+02  0.51100000000E-03 0. -1.
        -11    1    3    3    0    0 -0.89821590042E+01  0.10887103684E+02  0.10055650104E+02  0.17329867463E+02  0.51100000000E-03 0.  1.
         12    1    3    3    0    0  0.69778111572E+01  0.15697019854E+02  0.57162956255E+01  0.18104207150E+02  0.00000000000E+00 0. -1.
</event>
<event>
 7    1  0.5755468E-013  0.5930191E+02  0.7816164E-02  0.1266605E+00
        -11   -1    0    0    0    0  0.00000000000E+00  0.00000000000E+00  0.45593999997E+02  0.45594000000E+02  0.51100000000E-03 0.  1.
         11   -1    0    0    0    0 -0.00000000000E+00 -0.00000000000E+00 -0.45593999997E+02  0.45594000000E+02  0.51100000000E-03 0. -1.
    9900012    2    1    2    0    0 -0.18599954607E+02  0.12846700224E+02 -0.22488372215E+02  0.59301907375E+02  0.49999933154E+02 0.  0.
        -12    1    1    2    0    0  0.18599954607E+02 -0.12846700224E+02  0.22488372215E+02  0.31886092625E+02  0.00000000000E+00 0.  1.
         11    1    3    3    0    0 -0.77050067933E+01  0.24033138190E+02 -0.16981149459E+02  0.30419044991E+02  0.51100000000E-03 0. -1.
        -11    1    3    3    0    0 -0.56743148506E+01 -0.17330335929E+02 -0.87082800126E+01  0.20208229350E+02  0.51100000000E-03 0.  1.
         12    1    3    3    0    0 -0.52206329634E+01  0.61438979624E+01  0.32010572568E+01  0.86746330339E+01  0.00000000000E+00 0. -1.
</event>
<event>
 7    1  0.5755468E-013  0.5930195E+02  0.7816164E-02  0.1266605E+00
        -11   -1    0    0    0    0  0.00000000000E+00  0.00000000000E+00  0.45593999997E+02  0.45594000000E+02  0.51100000000E-03 0. -1.
         11   -1    0    0    0    0 -0.00000000000E+00 -0.00000000000E+00 -0.45593999997E+02  0.45594000000E+02  0.51100000000E-03 0.  1.
    9900012    2    1    2    0    0 -0.27482369842E+02  0.15833398193E+02 -0.32776593937E+01  0.59301949734E+02  0.50000010407E+02 0.  0.
        -12    1    1    2    0    0  0.27482369842E+02 -0.15833398193E+02  0.32776593937E+01  0.31886050266E+02  0.00000000000E+00 0.  1.
         11    1    3    3    0    0 -0.51417966902E+01  0.69949998475E+01  0.11222019988E+02  0.14188087572E+02  0.51100000000E-03 0. -1.
        -11    1    3    3    0    0 -0.27059999340E+02  0.10424830978E+01 -0.20705109845E+02  0.34088589135E+02  0.51100000000E-03 0.  1.
        -12    1    3    3    0    0  0.47194261879E+01  0.77959152476E+01  0.62054304624E+01  0.11025273027E+02  0.00000000000E+00 0.  1.
</event>
<event>
 7    1  0.5755468E-013  0.5930192E+02  0.7816164E-02  0.1266605E+00
        -11   -1    0    0    0    0  0.00000000000E+00  0.00000000000E+00  0.45593999997E+02  0.45594000000E+02  0.51100000000E-03 0.  1.
         11   -1    0    0    0    0 -0.00000000000E+00 -0.00000000000E+00 -0.45593999997E+02  0.45594000000E+02  0.51100000000E-03 0. -1.
    9900012    2    1    2    0    0 -0.22929572600E+01 -0.26387854362E+02 -0.17752344529E+02  0.59301917658E+02  0.49999951907E+02 0.  0.
        -12    1    1    2    0    0  0.22929572600E+01  0.26387854362E+02  0.17752344529E+02  0.31886082342E+02  0.00000000000E+00 0.  1.
         11    1    3    3    0    0  0.17489905769E+01  0.31538824998E+01 -0.24208371078E+02  0.24475521922E+02  0.51100000000E-03 0. -1.
        -11    1    3    3    0    0  0.36035037076E+01 -0.18891566985E+02  0.93744130449E+01  0.21395236907E+02  0.51100000000E-03 0.  1.
         12    1    3    3    0    0 -0.76454515445E+01 -0.10650169877E+02 -0.29183864966E+01  0.13431158828E+02  0.00000000000E+00 0. -1.
</event>
<event>
 7    1  0.5755468E-013  0.5930186E+02  0.7816164E-02  0.1266605E+00
        -11   -1    0    0    0    0  0.00000000000E+00  0.00000000000E+00  0.45593999997E+02  0.45594000000E+02  0.51100000000E-03 0.  1.
         11   -1    0    0    0    0 -0.00000000000E+00 -0.00000000000E+00 -0.45593999997E+02  0.45594000000E+02  0.51100000000E-03 0. -1.
    9900012    2    1    2    0    0 -0.10144889473E+01 -0.27547670342E+02 -0.16025684780E+02  0.59301860350E+02  0.49999847392E+02 0.  0.
        -12    1    1    2    0    0  0.10144889473E+01  0.27547670342E+02  0.16025684780E+02  0.31886139650E+02  0.00000000000E+00 0.  1.
         11    1    3    3    0    0  0.21941671857E+01  0.12368147938E+02 -0.11530975088E+02  0.17051358884E+02  0.51100000000E-03 0. -1.
        -11    1    3    3    0    0  0.46901240127E+01 -0.18933397160E+02 -0.34329815747E+01  0.19805457683E+02  0.51100000000E-03 0.  1.
         12    1    3    3    0    0 -0.78987801458E+01 -0.20982421120E+02 -0.10617281177E+01  0.22445043783E+02  0.00000000000E+00 0. -1.
</event>
<event>
 7    1  0.5755468E-013  0.5930195E+02  0.7816164E-02  0.1266605E+00
        -11   -1    0    0    0    0  0.00000000000E+00  0.00000000000E+00  0.45593999997E+02  0.45594000000E+02  0.51100000000E-03 0.  1.
         11   -1    0    0    0    0 -0.00000000000E+00 -0.00000000000E+00 -0.45593999997E+02  0.45594000000E+02  0.51100000000E-03 0. -1.
    9900012    2    1    2    0    0  0.17574898369E+02 -0.16113724739E+02 -0.21170514807E+02  0.59301954858E+02  0.50000019751E+02 0.  0.
        -12    1    1    2    0    0 -0.17574898369E+02  0.16113724739E+02  0.21170514807E+02  0.31886045142E+02  0.00000000000E+00 0.  1.
         11    1    3    3    0    0  0.99809445711E+01  0.98748913203E+01 -0.24631992403E+02  0.28352562197E+02  0.51100000000E-03 0. -1.
        -11    1    3    3    0    0 -0.12984334120E+01 -0.18006637247E+02 -0.12686441717E+01  0.18097910723E+02  0.51100000000E-03 0.  1.
        -12    1    3    3    0    0  0.88923872100E+01 -0.79819788127E+01  0.47301217679E+01  0.12851481938E+02  0.00000000000E+00 0.  1.
</event>
<event>
 7    1  0.5755468E-013  0.5930192E+02  0.7816164E-02  0.1266605E+00
        -11   -1    0    0    0    0  0.00000000000E+00  0.00000000000E+00  0.45593999997E+02  0.45594000000E+02  0.51100000000E-03 0.  1.
         11   -1    0    0    0    0 -0.00000000000E+00 -0.00000000000E+00 -0.45593999997E+02  0.45594000000E+02  0.51100000000E-03 0. -1.
    9900012    2    1    2    0    0  0.13081668064E+02 -0.25894318978E+02  0.13231628366E+02  0.59301924922E+02  0.49999965156E+02 0.  0.
        -12    1    1    2    0    0 -0.13081668064E+02  0.25894318978E+02 -0.13231628366E+02  0.31886075078E+02  0.00000000000E+00 0.  1.
         11    1    3    3    0    0  0.91661996199E+01 -0.35562522457E+02  0.12147105307E+02  0.38681576837E+02  0.51100000000E-03 0. -1.
        -11    1    3    3    0    0 -0.23012944234E+01  0.13978506222E+01 -0.69935374280E+01  0.74939647987E+01  0.51100000000E-03 0.  1.
         12    1    3    3    0    0  0.62167628676E+01  0.82703528575E+01  0.80780604874E+01  0.13126383286E+02  0.00000000000E+00 0. -1.
</event>
<event>
 7    1  0.5755468E-013  0.5930195E+02  0.7816164E-02  0.1266605E+00
        -11   -1    0    0    0    0  0.00000000000E+00  0.00000000000E+00  0.45593999997E+02  0.45594000000E+02  0.51100000000E-03 0.  1.
         11   -1    0    0    0    0 -0.00000000000E+00 -0.00000000000E+00 -0.45593999997E+02  0.45594000000E+02  0.51100000000E-03 0. -1.
    9900012    2    1    2    0    0  0.27392065616E+02 -0.68121517028E+01 -0.14832043234E+02  0.59301950135E+02  0.50000011137E+02 0.  0.
        -12    1    1    2    0    0 -0.27392065616E+02  0.68121517028E+01  0.14832043234E+02  0.31886049865E+02  0.00000000000E+00 0.  1.
         11    1    3    3    0    0 -0.40045772961E+01 -0.15496337174E+02 -0.10054604784E+02  0.18901539163E+02  0.51100000000E-03 0. -1.
        -11    1    3    3    0    0  0.78301869217E+01  0.13553982411E+02  0.88729905934E+00  0.15678315161E+02  0.51100000000E-03 0.  1.
         12    1    3    3    0    0  0.23566455990E+02 -0.48697969396E+01 -0.56647375097E+01  0.24722095810E+02  0.00000000000E+00 0. -1.
</event>
<event>
 7    1  0.5755468E-013  0.5930193E+02  0.7816164E-02  0.1266605E+00
        -11   -1    0    0    0    0  0.00000000000E+00  0.00000000000E+00  0.45593999997E+02  0.45594000000E+02  0.51100000000E-03 0.  1.
         11   -1    0    0    0    0 -0.00000000000E+00 -0.00000000000E+00 -0.45593999997E+02  0.45594000000E+02  0.51100000000E-03 0. -1.
    9900012    2    1    2    0    0  0.26224742741E+01 -0.94873408784E+01 -0.30328768821E+02  0.59301933662E+02  0.49999981096E+02 0.  0.
        -12    1    1    2    0    0 -0.26224742741E+01  0.94873408784E+01  0.30328768821E+02  0.31886066338E+02  0.00000000000E+00 0.  1.
         11    1    3    3    0    0 -0.13723332345E+02  0.60073878030E+01 -0.19458626280E+01  0.15106453604E+02  0.51100000000E-03 0. -1.
        -11    1    3    3    0    0  0.61730262140E+01 -0.15173524343E+02 -0.29714672982E+02  0.33930869195E+02  0.51100000000E-03 0.  1.
        -12    1    3    3    0    0  0.10172780405E+02 -0.32120433872E+00  0.13317667889E+01  0.10264610863E+02  0.00000000000E+00 0.  1.
</event>
<event>
 7    1  0.5755468E-013  0.5930195E+02  0.7816164E-02  0.1266605E+00
        -11   -1    0    0    0    0  0.00000000000E+00  0.00000000000E+00  0.45593999997E+02  0.45594000000E+02  0.51100000000E-03 0. -1.
         11   -1    0    0    0    0 -0.00000000000E+00 -0.00000000000E+00 -0.45593999997E+02  0.45594000000E+02  0.51100000000E-03 0.  1.
    9900012    2    1    2    0    0  0.15599280994E+02 -0.27770769331E+02 -0.14721091662E+01  0.59301948157E+02  0.50000007531E+02 0.  0.
        -12    1    1    2    0    0 -0.15599280994E+02  0.27770769331E+02  0.14721091662E+01  0.31886051843E+02  0.00000000000E+00 0.  1.
         11    1    3    3    0    0 -0.64389969824E+01 -0.25569712756E+02  0.36882545117E+01  0.26624689936E+02  0.51100000000E-03 0. -1.
        -11    1    3    3    0    0  0.58434833227E+01  0.27436271236E+01 -0.12619085797E+02  0.14174452856E+02  0.51100000000E-03 0.  1.
         12    1    3    3    0    0  0.16194794653E+02 -0.49446836979E+01  0.74587221195E+01  0.18502805365E+02  0.00000000000E+00 0. -1.
</event>
<event>
 7    1  0.5755468E-013  0.5930194E+02  0.7816164E-02  0.1266605E+00
        -11   -1    0    0    0    0  0.00000000000E+00  0.00000000000E+00  0.45593999997E+02  0.45594000000E+02  0.51100000000E-03 0. -1.
         11   -1    0    0    0    0 -0.00000000000E+00 -0.00000000000E+00 -0.45593999997E+02  0.45594000000E+02  0.51100000000E-03 0.  1.
    9900012    2    1    2    0    0 -0.21782200041E+02  0.33500791963E+01  0.23044163319E+02  0.59301941411E+02  0.49999995228E+02 0.  0.
        -12    1    1    2    0    0  0.21782200041E+02 -0.33500791963E+01 -0.23044163319E+02  0.31886058589E+02  0.00000000000E+00 0.  1.
         11    1    3    3    0    0 -0.12375605556E+02  0.11220281679E+02 -0.28311244951E+01  0.16943010358E+02  0.51100000000E-03 0. -1.
        -11    1    3    3    0    0 -0.87769685717E+01 -0.23746442734E+01  0.32488757560E+02  0.33737123185E+02  0.51100000000E-03 0.  1.
        -12    1    3    3    0    0 -0.62962591324E+00 -0.54955582093E+01 -0.66134697463E+01  0.86218078677E+01  0.00000000000E+00 0.  1.
</event>
<event>
 7    1  0.5755468E-013  0.5930195E+02  0.7816164E-02  0.1266605E+00
        -11   -1    0    0    0    0  0.00000000000E+00  0.00000000000E+00  0.45593999997E+02  0.45594000000E+02  0.51100000000E-03 0. -1.
         11   -1    0    0    0    0 -0.00000000000E+00 -0.00000000000E+00 -0.45593999997E+02  0.45594000000E+02  0.51100000000E-03 0.  1.
    9900012    2    1    2    0    0 -0.20382266116E+02 -0.23439932616E+02 -0.72008847834E+01  0.59301953605E+02  0.50000017466E+02 0.  0.
        -12    1    1    2    0    0  0.20382266116E+02  0.23439932616E+02  0.72008847834E+01  0.31886046395E+02  0.00000000000E+00 0.  1.
         11    1    3    3    0    0 -0.67385159706E+01 -0.21606517436E+02 -0.23718056270E+02  0.32784072149E+02  0.51100000000E-03 0. -1.
        -11    1    3    3    0    0 -0.16260139392E+02 -0.46343672593E+01  0.13690284837E+02  0.21755307218E+02  0.51100000000E-03 0.  1.
         12    1    3    3    0    0  0.26163892474E+01  0.28009520787E+01  0.28268866496E+01  0.47625742379E+01  0.00000000000E+00 0. -1.
</event>
<event>
 7    1  0.5755468E-013  0.5930195E+02  0.7816164E-02  0.1266605E+00
        -11   -1    0    0    0    0  0.00000000000E+00  0.00000000000E+00  0.45593999997E+02  0.45594000000E+02  0.51100000000E-03 0. -1.
         11   -1    0    0    0    0 -0.00000000000E+00 -0.00000000000E+00 -0.45593999997E+02  0.45594000000E+02  0.51100000000E-03 0.  1.
    9900012    2    1    2    0    0 -0.13806593739E+02  0.20978823118E+02  0.19646562974E+02  0.59301945262E+02  0.50000002251E+02 0.  0.
        -12    1    1    2    0    0  0.13806593739E+02 -0.20978823118E+02 -0.19646562974E+02  0.31886054738E+02  0.00000000000E+00 0.  1.
         11    1    3    3    0    0 -0.12717199795E+02  0.21467733275E+02 -0.31681580410E+01  0.25152096696E+02  0.51100000000E-03 0. -1.
        -11    1    3    3    0    0 -0.99318429031E+01 -0.61223985401E+01  0.35134980161E+01  0.12184824000E+02  0.51100000000E-03 0.  1.
         12    1    3    3    0    0  0.88424489591E+01  0.56334883834E+01  0.19301222998E+02  0.21965024566E+02  0.00000000000E+00 0. -1.
</event>
<event>
 7    1  0.5755468E-013  0.5930194E+02  0.7816164E-02  0.1266605E+00
        -11   -1    0    0    0    0  0.00000000000E+00  0.00000000000E+00  0.45593999997E+02  0.45594000000E+02  0.51100000000E-03 0. -1.
         11   -1    0    0    0    0 -0.00000000000E+00 -0.00000000000E+00 -0.45593999997E+02  0.45594000000E+02  0.51100000000E-03 0.  1.
    9900012    2    1    2    0    0  0.23003943010E+02  0.21857756935E+02 -0.31269671309E+01  0.59301939477E+02  0.49999991701E+02 0.  0.
        -12    1    1    2    0    0 -0.23003943010E+02 -0.21857756935E+02  0.31269671309E+01  0.31886060523E+02  0.00000000000E+00 0.  1.
         11    1    3    3    0    0  0.49384614783E+01  0.18976250338E+02 -0.48200043936E+00  0.19614250007E+02  0.51100000000E-03 0. -1.
        -11    1    3    3    0    0  0.91417654068E+00 -0.12329488221E+02  0.76700124999E+01  0.14549264261E+02  0.51100000000E-03 0.  1.
        -12    1    3    3    0    0  0.17151304991E+02  0.15210994818E+02 -0.10314979191E+02  0.25138425208E+02  0.00000000000E+00 0.  1.
</event>
<event>
 7    1  0.5755468E-013  0.5930197E+02  0.7816164E-02  0.1266605E+00
        -11   -1    0    0    0    0  0.00000000000E+00  0.00000000000E+00  0.45593999997E+02  0.45594000000E+02  0.51100000000E-03 0.  1.
         11   -1    0    0    0    0 -0.00000000000E+00 -0.00000000000E+00 -0.45593999997E+02  0.45594000000E+02  0.51100000000E-03 0. -1.
    9900012    2    1    2    0    0 -0.27616865645E+02  0.11367960346E+02 -0.11171253192E+02  0.59301973463E+02  0.50000053682E+02 0.  0.
        -12    1    1    2    0    0  0.27616865645E+02 -0.11367960346E+02  0.11171253192E+02  0.31886026537E+02  0.00000000000E+00 0.  1.
         11    1    3    3    0    0 -0.15984626987E+02 -0.14817321757E+02 -0.14436373356E+02  0.26143262993E+02  0.51100000000E-03 0. -1.
        -11    1    3    3    0    0 -0.42613113190E+01  0.87387319888E+01  0.91244022918E+01  0.13333376481E+02  0.51100000000E-03 0.  1.
         12    1    3    3    0    0 -0.73709273387E+01  0.17446550115E+02 -0.58592821272E+01  0.19825333989E+02  0.00000000000E+00 0. -1.
</event>
<event>
 7    1  0.5755468E-013  0.5930194E+02  0.7816164E-02  0.1266605E+00
        -11   -1    0    0    0    0  0.00000000000E+00  0.00000000000E+00  0.45593999997E+02  0.45594000000E+02  0.51100000000E-03 0.  1.
         11   -1    0    0    0    0 -0.00000000000E+00 -0.00000000000E+00 -0.45593999997E+02  0.45594000000E+02  0.51100000000E-03 0. -1.
    9900012    2    1    2    0    0  0.36887694938E+01  0.28678447612E+02 -0.13440995734E+02  0.59301941226E+02  0.49999994891E+02 0.  0.
        -12    1    1    2    0    0 -0.36887694938E+01 -0.28678447612E+02  0.13440995734E+02  0.31886058774E+02  0.00000000000E+00 0.  1.
         11    1    3    3    0    0 -0.41234272034E+01 -0.67359794945E+00 -0.23853777233E+00  0.41848878873E+01  0.51100000000E-03 0. -1.
        -11    1    3    3    0    0  0.10805441517E+02  0.19304412153E+02 -0.28804567728E+02  0.36319705632E+02  0.51100000000E-03 0.  1.
        -12    1    3    3    0    0 -0.29932448195E+01  0.10047633408E+02  0.15602109766E+02  0.18797347707E+02  0.00000000000E+00 0.  1.
</event>
<event>
 7    1  0.5755468E-013  0.5930192E+02  0.7816164E-02  0.1266605E+00
        -11   -1    0    0    0    0  0.00000000000E+00  0.00000000000E+00  0.45593999997E+02  0.45594000000E+02  0.51100000000E-03 0.  1.
         11   -1    0    0    0    0 -0.00000000000E+00 -0.00000000000E+00 -0.45593999997E+02  0.45594000000E+02  0.51100000000E-03 0. -1.
    9900012    2    1    2    0    0  0.20670779305E+02 -0.26811710925E+01 -0.24129899001E+02  0.59301924335E+02  0.49999964085E+02 0.  0.
        -12    1    1    2    0    0 -0.20670779305E+02  0.26811710925E+01  0.24129899001E+02  0.31886075665E+02  0.00000000000E+00 0.  1.
         11    1    3    3    0    0  0.17783695385E+02  0.12115508127E+02 -0.25110210344E+02  0.33069140033E+02  0.51100000000E-03 0. -1.
        -11    1    3    3    0    0 -0.28459876087E+01 -0.14208404131E+02 -0.72359189711E+01  0.16196818115E+02  0.51100000000E-03 0.  1.
         12    1    3    3    0    0  0.57330715292E+01 -0.58827508870E+00  0.82162303145E+01  0.10035966188E+02  0.00000000000E+00 0. -1.
</event>
<event>
 7    1  0.5755468E-013  0.5930191E+02  0.7816164E-02  0.1266605E+00
        -11   -1    0    0    0    0  0.00000000000E+00  0.00000000000E+00  0.45593999997E+02  0.45594000000E+02  0.51100000000E-03 0.  1.
         11   -1    0    0    0    0 -0.00000000000E+00 -0.00000000000E+00 -0.45593999997E+02  0.45594000000E+02  0.51100000000E-03 0. -1.
    9900012    2    1    2    0    0 -0.26273979094E+01  0.48386875915E+01 -0.31407115323E+02  0.59301905691E+02  0.49999930083E+02 0.  0.
        -12    1    1    2    0    0  0.26273979094E+01 -0.48386875915E+01  0.31407115323E+02  0.31886094309E+02  0.00000000000E+00 0.  1.
         11    1    3    3    0    0 -0.80360192210E+01  0.20866693522E+02 -0.21869522656E+02  0.31277348432E+02  0.51100000000E-03 0. -1.
        -11    1    3    3    0    0  0.22608299088E+01 -0.11813624301E+02 -0.15792807095E+02  0.19851595080E+02  0.51100000000E-03 0.  1.
         12    1    3    3    0    0  0.31477914029E+01 -0.42143816293E+01  0.62552144282E+01  0.81729621788E+01  0.00000000000E+00 0. -1.
</event>
<event>
 7    1  0.5755468E-013  0.5930193E+02  0.7816164E-02  0.1266605E+00
        -11   -1    0    0    0    0  0.00000000000E+00  0.00000000000E+00  0.45593999997E+02  0.45594000000E+02  0.51100000000E-03 0. -1.
         11   -1    0    0    0    0 -0.00000000000E+00 -0.00000000000E+00 -0.45593999997E+02  0.45594000000E+02  0.51100000000E-03 0.  1.
    9900012    2    1    2    0    0 -0.17518094589E+02  0.54661365195E+01  0.26076028920E+02  0.59301928265E+02  0.49999971252E+02 0.  0.
        -12    1    1    2    0    0  0.17518094589E+02 -0.54661365195E+01 -0.26076028920E+02  0.31886071735E+02  0.00000000000E+00 0.  1.
         11    1    3    3    0    0 -0.18624878000E+02 -0.95448906455E+01  0.73771745809E+01  0.22190397090E+02  0.51100000000E-03 0. -1.
        -11    1    3    3    0    0  0.14525368616E+02  0.51832964265E+01  0.91716751698E+01  0.17943592755E+02  0.51100000000E-03 0.  1.
         12    1    3    3    0    0 -0.13418585205E+02  0.98277307385E+01  0.95271791689E+01  0.19167938420E+02  0.00000000000E+00 0. -1.
</event>
<event>
 7    1  0.5755468E-013  0.5930196E+02  0.7816164E-02  0.1266605E+00
        -11   -1    0    0    0    0  0.00000000000E+00  0.00000000000E+00  0.45593999997E+02  0.45594000000E+02  0.51100000000E-03 0.  1.
         11   -1    0    0    0    0 -0.00000000000E+00 -0.00000000000E+00 -0.45593999997E+02  0.45594000000E+02  0.51100000000E-03 0. -1.
    9900012    2    1    2    0    0 -0.13157144661E+02 -0.21151951175E+02 -0.19904874589E+02  0.59301960319E+02  0.50000029711E+02 0.  0.
        -12    1    1    2    0    0  0.13157144661E+02  0.21151951175E+02  0.19904874589E+02  0.31886039681E+02  0.00000000000E+00 0.  1.
         11    1    3    3    0    0 -0.22997750559E+01 -0.15600446732E+02  0.12915779882E+02  0.20383333234E+02  0.51100000000E-03 0. -1.
        -11    1    3    3    0    0 -0.16613156412E+00  0.47974016667E+01 -0.31953444412E+01  0.57665317833E+01  0.51100000000E-03 0.  1.
         12    1    3    3    0    0 -0.10691238041E+02 -0.10348906110E+02 -0.29625310029E+02  0.33152095301E+02  0.00000000000E+00 0. -1.
</event>
<event>
 7    1  0.5755468E-013  0.5930195E+02  0.7816164E-02  0.1266605E+00
        -11   -1    0    0    0    0  0.00000000000E+00  0.00000000000E+00  0.45593999997E+02  0.45594000000E+02  0.51100000000E-03 0. -1.
         11   -1    0    0    0    0 -0.00000000000E+00 -0.00000000000E+00 -0.45593999997E+02  0.45594000000E+02  0.51100000000E-03 0.  1.
    9900012    2    1    2    0    0 -0.71691995482E+01  0.12100925014E+02  0.28616261391E+02  0.59301949377E+02  0.50000009755E+02 0.  0.
        -12    1    1    2    0    0  0.71691995482E+01 -0.12100925014E+02 -0.28616261391E+02  0.31886050623E+02  0.00000000000E+00 0.  1.
         11    1    3    3    0    0  0.20986407770E+02  0.91866200295E+01  0.12802009590E+02  0.26243375325E+02  0.51100000000E-03 0. -1.
        -11    1    3    3    0    0 -0.13007670860E+02 -0.11079321069E+01  0.48291626425E+01  0.13919332844E+02  0.51100000000E-03 0.  1.
         12    1    3    3    0    0 -0.15147936458E+02  0.40222370909E+01  0.10985089159E+02  0.19139241208E+02  0.00000000000E+00 0. -1.
</event>
<event>
 7    1  0.5755468E-013  0.5930193E+02  0.7816164E-02  0.1266605E+00
        -11   -1    0    0    0    0  0.00000000000E+00  0.00000000000E+00  0.45593999997E+02  0.45594000000E+02  0.51100000000E-03 0. -1.
         11   -1    0    0    0    0 -0.00000000000E+00 -0.00000000000E+00 -0.45593999997E+02  0.45594000000E+02  0.51100000000E-03 0.  1.
    9900012    2    1    2    0    0  0.11215871308E+01  0.29712079987E+02  0.11517629955E+02  0.59301930085E+02  0.49999974572E+02 0.  0.
        -12    1    1    2    0    0 -0.11215871308E+01 -0.29712079987E+02 -0.11517629955E+02  0.31886069915E+02  0.00000000000E+00 0.  1.
         11    1    3    3    0    0 -0.42482378968E+01  0.79865382711E+01  0.99518986610E+01  0.13448888653E+02  0.51100000000E-03 0. -1.
        -11    1    3    3    0    0  0.18795104278E+02  0.44153171517E+01 -0.92660212164E+01  0.21415184328E+02  0.51100000000E-03 0.  1.
        -12    1    3    3    0    0 -0.13425279250E+02  0.17310224564E+02  0.10831752511E+02  0.24437857104E+02  0.00000000000E+00 0.  1.
</event>
<event>
 7    1  0.5755468E-013  0.5930193E+02  0.7816164E-02  0.1266605E+00
        -11   -1    0    0    0    0  0.00000000000E+00  0.00000000000E+00  0.45593999997E+02  0.45594000000E+02  0.51100000000E-03 0.  1.
         11   -1    0    0    0    0 -0.00000000000E+00 -0.00000000000E+00 -0.45593999997E+02  0.45594000000E+02  0.51100000000E-03 0. -1.
    9900012    2    1    2    0    0  0.28089637764E+02 -0.11179445275E+01 -0.15048044720E+02  0.59301934084E+02  0.49999981865E+02 0.  0.
        -12    1    1    2    0    0 -0.28089637764E+02  0.11179445275E+01  0.15048044720E+02  0.31886065916E+02  0.00000000000E+00 0.  1.
         11    1    3    3    0    0  0.10580834877E+02 -0.19773585656E+02 -0.10804463545E+02  0.24893476839E+02  0.51100000000E-03 0. -1.
        -11    1    3    3    0    0  0.13612555743E+02  0.16317700911E+02  0.69257149431E+01  0.22350269900E+02  0.51100000000E-03 0.  1.
        -12    1    3    3    0    0  0.38962471446E+01  0.23379402175E+01 -0.11169296118E+02  0.12058187344E+02  0.00000000000E+00 0.  1.
</event>
<event>
 7    1  0.5755468E-013  0.5930195E+02  0.7816164E-02  0.1266605E+00
        -11   -1    0    0    0    0  0.00000000000E+00  0.00000000000E+00  0.45593999997E+02  0.45594000000E+02  0.51100000000E-03 0.  1.
         11   -1    0    0    0    0 -0.00000000000E+00 -0.00000000000E+00 -0.45593999997E+02  0.45594000000E+02  0.51100000000E-03 0. -1.
    9900012    2    1    2    0    0  0.21046205324E+02  0.20993453536E+02  0.11534844403E+02  0.59301945285E+02  0.50000002293E+02 0.  0.
        -12    1    1    2    0    0 -0.21046205324E+02 -0.20993453536E+02 -0.11534844403E+02  0.31886054715E+02  0.00000000000E+00 0.  1.
         11    1    3    3    0    0 -0.39311058794E+01 -0.12419884466E+01 -0.59581523780E+01  0.72453922432E+01  0.51100000000E-03 0. -1.
        -11    1    3    3    0    0 -0.52738500563E+01  0.13024683179E+02  0.14661039472E+02  0.20307681921E+02  0.51100000000E-03 0.  1.
        -12    1    3    3    0    0  0.30251161259E+02  0.92107588033E+01  0.28319573082E+01  0.31748871121E+02  0.00000000000E+00 0.  1.
</event>
<event>
 7    1  0.5755468E-013  0.5930191E+02  0.7816164E-02  0.1266605E+00
        -11   -1    0    0    0    0  0.00000000000E+00  0.00000000000E+00  0.45593999997E+02  0.45594000000E+02  0.51100000000E-03 0. -1.
         11   -1    0    0    0    0 -0.00000000000E+00 -0.00000000000E+00 -0.45593999997E+02  0.45594000000E+02  0.51100000000E-03 0.  1.
    9900012    2    1    2    0    0  0.25585971626E+02 -0.13476023530E+02 -0.13434185227E+02  0.59301913897E+02  0.49999945049E+02 0.  0.
        -12    1    1    2    0    0 -0.25585971626E+02  0.13476023530E+02  0.13434185227E+02  0.31886086103E+02  0.00000000000E+00 0.  1.
         11    1    3    3    0    0  0.61416036243E+01  0.59569005675E+01  0.14529995894E+02  0.16861931693E+02  0.51100000000E-03 0. -1.
        -11    1    3    3    0    0  0.58332831432E+01 -0.16433438369E+02 -0.11595686512E+02  0.20941466873E+02  0.51100000000E-03 0.  1.
        -12    1    3    3    0    0  0.13611084859E+02 -0.29994857287E+01 -0.16368494609E+02  0.21498515331E+02  0.00000000000E+00 0.  1.
</event>
<event>
 7    1  0.5755468E-013  0.5930193E+02  0.7816164E-02  0.1266605E+00
        -11   -1    0    0    0    0  0.00000000000E+00  0.00000000000E+00  0.45593999997E+02  0.45594000000E+02  0.51100000000E-03 0.  1.
         11   -1    0    0    0    0 -0.00000000000E+00 -0.00000000000E+00 -0.45593999997E+02  0.45594000000E+02  0.51100000000E-03 0. -1.
    9900012    2    1    2    0    0 -0.29170852856E+01  0.14354688386E+02 -0.28322336478E+02  0.59301933940E+02  0.49999981603E+02 0.  0.
        -12    1    1    2    0    0  0.29170852856E+01 -0.14354688386E+02  0.28322336478E+02  0.31886066060E+02  0.00000000000E+00 0.  1.
         11    1    3    3    0    0  0.18889124746E+02  0.10154987562E+02 -0.18371473329E+02  0.28238871057E+02  0.51100000000E-03 0. -1.
        -11    1    3    3    0    0 -0.11490959314E+02 -0.51424872650E+01  0.19652401012E+01  0.12741643934E+02  0.51100000000E-03 0.  1.
         12    1    3    3    0    0 -0.10315250717E+02  0.93421880888E+01 -0.11916103249E+02  0.18321418949E+02  0.00000000000E+00 0. -1.
</event>
<event>
 7    1  0.5755468E-013  0.5930192E+02  0.7816164E-02  0.1266605E+00
        -11   -1    0    0    0    0  0.00000000000E+00  0.00000000000E+00  0.45593999997E+02  0.45594000000E+02  0.51100000000E-03 0. -1.
         11   -1    0    0    0    0 -0.00000000000E+00 -0.00000000000E+00 -0.45593999997E+02  0.45594000000E+02  0.51100000000E-03 0.  1.
    9900012    2    1    2    0    0 -0.30021271866E+02 -0.76037136665E+01 -0.75913871925E+01  0.59301915489E+02  0.49999947951E+02 0.  0.
        -12    1    1    2    0    0  0.30021271866E+02  0.76037136665E+01  0.75913871925E+01  0.31886084511E+02  0.00000000000E+00 0.  1.
         11    1    3    3    0    0 -0.30057202312E+02 -0.12914241830E+02 -0.93082269582E+01  0.34012587997E+02  0.51100000000E-03 0. -1.
        -11    1    3    3    0    0  0.10189186977E+02  0.84780833247E+01 -0.31012099253E+01  0.13613042693E+02  0.51100000000E-03 0.  1.
         12    1    3    3    0    0 -0.10153256530E+02 -0.31675551607E+01  0.48180496910E+01  0.11676284798E+02  0.00000000000E+00 0. -1.
</event>
<event>
 7    1  0.5755468E-013  0.5930195E+02  0.7816164E-02  0.1266605E+00
        -11   -1    0    0    0    0  0.00000000000E+00  0.00000000000E+00  0.45593999997E+02  0.45594000000E+02  0.51100000000E-03 0.  1.
         11   -1    0    0    0    0 -0.00000000000E+00 -0.00000000000E+00 -0.45593999997E+02  0.45594000000E+02  0.51100000000E-03 0. -1.
    9900012    2    1    2    0    0  0.20421865626E+02  0.17809427877E+02 -0.16807495343E+02  0.59301949498E+02  0.50000009976E+02 0.  0.
        -12    1    1    2    0    0 -0.20421865626E+02 -0.17809427877E+02  0.16807495343E+02  0.31886050502E+02  0.00000000000E+00 0.  1.
         11    1    3    3    0    0  0.28461662547E+02  0.21094666861E+00 -0.20614255707E+02  0.35143395852E+02  0.51100000000E-03 0. -1.
        -11    1    3    3    0    0 -0.83267613337E+01  0.12993630658E+02 -0.32078620327E+01  0.15762606734E+02  0.51100000000E-03 0.  1.
        -12    1    3    3    0    0  0.28696441320E+00  0.46048505504E+01  0.70146223967E+01  0.83959469111E+01  0.00000000000E+00 0.  1.
</event>
<event>
 7    1  0.5755468E-013  0.5930195E+02  0.7816164E-02  0.1266605E+00
        -11   -1    0    0    0    0  0.00000000000E+00  0.00000000000E+00  0.45593999997E+02  0.45594000000E+02  0.51100000000E-03 0. -1.
         11   -1    0    0    0    0 -0.00000000000E+00 -0.00000000000E+00 -0.45593999997E+02  0.45594000000E+02  0.51100000000E-03 0.  1.
    9900012    2    1    2    0    0 -0.60483598617E+00 -0.27538844087E+02 -0.16061342136E+02  0.59301945503E+02  0.50000002690E+02 0.  0.
        -12    1    1    2    0    0  0.60483598617E+00  0.27538844087E+02  0.16061342136E+02  0.31886054497E+02  0.00000000000E+00 0.  1.
         11    1    3    3    0    0 -0.87719058609E+01 -0.22676016109E+02 -0.10868042570E+02  0.26631980560E+02  0.51100000000E-03 0. -1.
        -11    1    3    3    0    0  0.12866719654E+02 -0.42772174076E+01  0.99404435946E+01  0.16812479964E+02  0.51100000000E-03 0.  1.
        -12    1    3    3    0    0 -0.46996497792E+01 -0.58561057007E+00 -0.15133743161E+02  0.15857484979E+02  0.00000000000E+00 0.  1.
</event>
<event>
 7    1  0.5755468E-013  0.5930193E+02  0.7816164E-02  0.1266605E+00
        -11   -1    0    0    0    0  0.00000000000E+00  0.00000000000E+00  0.45593999997E+02  0.45594000000E+02  0.51100000000E-03 0.  1.
         11   -1    0    0    0    0 -0.00000000000E+00 -0.00000000000E+00 -0.45593999997E+02  0.45594000000E+02  0.51100000000E-03 0. -1.
    9900012    2    1    2    0    0  0.20178336316E+02  0.23297907139E+02 -0.81708990050E+01  0.59301932131E+02  0.49999978304E+02 0.  0.
        -12    1    1    2    0    0 -0.20178336316E+02 -0.23297907139E+02  0.81708990050E+01  0.31886067869E+02  0.00000000000E+00 0.  1.
         11    1    3    3    0    0 -0.19295208731E+01  0.27665012546E+02 -0.91774927350E+01  0.29211339290E+02  0.51100000000E-03 0. -1.
        -11    1    3    3    0    0  0.19835211700E+02  0.18471210891E+01  0.70476164602E+01  0.21130934137E+02  0.51100000000E-03 0.  1.
        -12    1    3    3    0    0  0.22726454898E+01 -0.62142264957E+01 -0.60410227302E+01  0.89596587038E+01  0.00000000000E+00 0.  1.
</event>
<event>
 7    1  0.5755468E-013  0.5930196E+02  0.7816164E-02  0.1266605E+00
        -11   -1    0    0    0    0  0.00000000000E+00  0.00000000000E+00  0.45593999997E+02  0.45594000000E+02  0.51100000000E-03 0. -1.
         11   -1    0    0    0    0 -0.00000000000E+00 -0.00000000000E+00 -0.45593999997E+02  0.45594000000E+02  0.51100000000E-03 0.  1.
    9900012    2    1    2    0    0  0.14877137334E+02 -0.24133647119E+02  0.14593050919E+02  0.59301964284E+02  0.50000036943E+02 0.  0.
        -12    1    1    2    0    0 -0.14877137334E+02  0.24133647119E+02 -0.14593050919E+02  0.31886035716E+02  0.00000000000E+00 0.  1.
         11    1    3    3    0    0  0.24675058489E+01 -0.49641176289E+01 -0.29145091893E+01  0.62630194814E+01  0.51100000000E-03 0. -1.
        -11    1    3    3    0    0  0.25040504354E+02  0.20545919598E+01  0.62171889352E+01  0.25882458248E+02  0.51100000000E-03 0.  1.
        -12    1    3    3    0    0 -0.12630872869E+02 -0.21224121450E+02  0.11290371174E+02  0.27156486555E+02  0.00000000000E+00 0.  1.
</event>
<event>
 7    1  0.5755468E-013  0.5930196E+02  0.7816164E-02  0.1266605E+00
        -11   -1    0    0    0    0  0.00000000000E+00  0.00000000000E+00  0.45593999997E+02  0.45594000000E+02  0.51100000000E-03 0.  1.
         11   -1    0    0    0    0 -0.00000000000E+00 -0.00000000000E+00 -0.45593999997E+02  0.45594000000E+02  0.51100000000E-03 0. -1.
    9900012    2    1    2    0    0  0.23909193010E+02 -0.15888458687E+01 -0.21036775147E+02  0.59301955244E+02  0.50000020455E+02 0.  0.
        -12    1    1    2    0    0 -0.23909193010E+02  0.15888458687E+01  0.21036775147E+02  0.31886044756E+02  0.00000000000E+00 0.  1.
         11    1    3    3    0    0  0.16872830547E+02  0.44310974895E+01 -0.25827539367E+02  0.31167111281E+02  0.51100000000E-03 0. -1.
        -11    1    3    3    0    0  0.11485476116E+02  0.69227052474E+01  0.53480206123E+01  0.14437497507E+02  0.51100000000E-03 0.  1.
         12    1    3    3    0    0 -0.44491136523E+01 -0.12942648606E+02 -0.55725639306E+00  0.13697346455E+02  0.00000000000E+00 0. -1.
</event>
<event>
 7    1  0.5755468E-013  0.5930193E+02  0.7816164E-02  0.1266605E+00
        -11   -1    0    0    0    0  0.00000000000E+00  0.00000000000E+00  0.45593999997E+02  0.45594000000E+02  0.51100000000E-03 0. -1.
         11   -1    0    0    0    0 -0.00000000000E+00 -0.00000000000E+00 -0.45593999997E+02  0.45594000000E+02  0.51100000000E-03 0.  1.
    9900012    2    1    2    0    0  0.27912412221E+01 -0.51205058104E+01  0.31348221219E+02  0.59301928105E+02  0.49999970961E+02 0.  0.
        -12    1    1    2    0    0 -0.27912412221E+01  0.51205058104E+01 -0.31348221219E+02  0.31886071895E+02  0.00000000000E+00 0.  1.
         11    1    3    3    0    0  0.11030566028E+02  0.73884754075E+00  0.22715753461E+02  0.25263110223E+02  0.51100000000E-03 0. -1.
        -11    1    3    3    0    0 -0.15548586164E+02  0.72163366745E-01 -0.59781708125E+01  0.16658399256E+02  0.51100000000E-03 0.  1.
        -12    1    3    3    0    0  0.73092613587E+01 -0.59315167179E+01  0.14610638570E+02  0.17380418626E+02  0.00000000000E+00 0.  1.
</event>
<event>
 7    1  0.5755468E-013  0.5930195E+02  0.7816164E-02  0.1266605E+00
        -11   -1    0    0    0    0  0.00000000000E+00  0.00000000000E+00  0.45593999997E+02  0.45594000000E+02  0.51100000000E-03 0.  1.
         11   -1    0    0    0    0 -0.00000000000E+00 -0.00000000000E+00 -0.45593999997E+02  0.45594000000E+02  0.51100000000E-03 0. -1.
    9900012    2    1    2    0    0 -0.96854408168E+01  0.67465179254E+01 -0.29620883065E+02  0.59301953185E+02  0.50000016701E+02 0.  0.
        -12    1    1    2    0    0  0.96854408168E+01 -0.67465179254E+01  0.29620883065E+02  0.31886046815E+02  0.00000000000E+00 0.  1.
         11    1    3    3    0    0 -0.82763813586E+01  0.83930987966E+01 -0.16119872947E+02  0.19969799696E+02  0.51100000000E-03 0. -1.
        -11    1    3    3    0    0  0.83855723692E+01 -0.50828423888E+01  0.97755252740E+01  0.13846082672E+02  0.51100000000E-03 0.  1.
        -12    1    3    3    0    0 -0.97946318274E+01  0.34362615176E+01 -0.23276535392E+02  0.25486070817E+02  0.00000000000E+00 0.  1.
</event>
<event>
 7    1  0.5755468E-013  0.5930197E+02  0.7816164E-02  0.1266605E+00
        -11   -1    0    0    0    0  0.00000000000E+00  0.00000000000E+00  0.45593999997E+02  0.45594000000E+02  0.51100000000E-03 0.  1.
         11   -1    0    0    0    0 -0.00000000000E+00 -0.00000000000E+00 -0.45593999997E+02  0.45594000000E+02  0.51100000000E-03 0. -1.
    9900012    2    1    2    0    0  0.10432363019E+02  0.85979590518E+01 -0.28878364522E+02  0.59301968019E+02  0.50000043754E+02 0.  0.
        -12    1    1    2    0    0 -0.10432363019E+02 -0.85979590518E+01  0.28878364522E+02  0.31886031981E+02  0.00000000000E+00 0.  1.
         11    1    3    3    0    0  0.12968090881E+02 -0.48786397664E+01 -0.25023658446E+01  0.14079571803E+02  0.51100000000E-03 0. -1.
        -11    1    3    3    0    0  0.72602163238E+00  0.24845470363E+02 -0.18963940423E+02  0.31264285400E+02  0.51100000000E-03 0.  1.
        -12    1    3    3    0    0 -0.32617494952E+01 -0.11368871545E+02 -0.74120582554E+01  0.13958110816E+02  0.00000000000E+00 0.  1.
</event>
<event>
 7    1  0.5755468E-013  0.5930195E+02  0.7816164E-02  0.1266605E+00
        -11   -1    0    0    0    0  0.00000000000E+00  0.00000000000E+00  0.45593999997E+02  0.45594000000E+02  0.51100000000E-03 0.  1.
         11   -1    0    0    0    0 -0.00000000000E+00 -0.00000000000E+00 -0.45593999997E+02  0.45594000000E+02  0.51100000000E-03 0. -1.
    9900012    2    1    2    0    0 -0.26563365900E+02  0.17465802969E+02 -0.24603282379E+01  0.59301954520E+02  0.50000019136E+02 0.  0.
        -12    1    1    2    0    0  0.26563365900E+02 -0.17465802969E+02  0.24603282379E+01  0.31886045480E+02  0.00000000000E+00 0.  1.
         11    1    3    3    0    0 -0.30870341824E+02  0.27433285030E+02  0.23628962652E+01  0.41366005498E+02  0.51100000000E-03 0. -1.
        -11    1    3    3    0    0 -0.93051543253E+00 -0.93342899786E+00 -0.71224237635E+01  0.72433465465E+01  0.51100000000E-03 0.  1.
         12    1    3    3    0    0  0.52374913566E+01 -0.90340530633E+01  0.22991992605E+01  0.10692602476E+02  0.00000000000E+00 0. -1.
</event>
<event>
 7    1  0.5755468E-013  0.5930196E+02  0.7816164E-02  0.1266605E+00
        -11   -1    0    0    0    0  0.00000000000E+00  0.00000000000E+00  0.45593999997E+02  0.45594000000E+02  0.51100000000E-03 0. -1.
         11   -1    0    0    0    0 -0.00000000000E+00 -0.00000000000E+00 -0.45593999997E+02  0.45594000000E+02  0.51100000000E-03 0.  1.
    9900012    2    1    2    0    0  0.12889391939E+02 -0.26972773557E+02 -0.11092914169E+02  0.59301957871E+02  0.50000025247E+02 0.  0.
        -12    1    1    2    0    0 -0.12889391939E+02  0.26972773557E+02  0.11092914169E+02  0.31886042129E+02  0.00000000000E+00 0.  1.
         11    1    3    3    0    0  0.25767469047E+02 -0.56073563074E+01 -0.98306164837E+01  0.28143310512E+02  0.51100000000E-03 0. -1.
        -11    1    3    3    0    0 -0.10492003621E+02 -0.27854473684E+01 -0.51686325997E+01  0.12023128555E+02  0.51100000000E-03 0.  1.
         12    1    3    3    0    0 -0.23860734875E+01 -0.18579969881E+02  0.39063349140E+01  0.19135518805E+02  0.00000000000E+00 0. -1.
</event>
<event>
 7    1  0.5755468E-013  0.5930193E+02  0.7816164E-02  0.1266605E+00
        -11   -1    0    0    0    0  0.00000000000E+00  0.00000000000E+00  0.45593999997E+02  0.45594000000E+02  0.51100000000E-03 0.  1.
         11   -1    0    0    0    0 -0.00000000000E+00 -0.00000000000E+00 -0.45593999997E+02  0.45594000000E+02  0.51100000000E-03 0. -1.
    9900012    2    1    2    0    0 -0.31586691606E+01  0.17860429392E+01 -0.31678922929E+02  0.59301932538E+02  0.49999979045E+02 0.  0.
        -12    1    1    2    0    0  0.31586691606E+01 -0.17860429392E+01  0.31678922929E+02  0.31886067462E+02  0.00000000000E+00 0.  1.
         11    1    3    3    0    0 -0.93410434714E+01  0.19213365337E+02 -0.31303482950E+02  0.37898767075E+02  0.51100000000E-03 0. -1.
        -11    1    3    3    0    0 -0.22241228960E+01 -0.54572757126E+01  0.26581094599E+01  0.64648377413E+01  0.51100000000E-03 0.  1.
         12    1    3    3    0    0  0.84064972068E+01 -0.11970046685E+02 -0.30335494386E+01  0.14938327722E+02  0.00000000000E+00 0. -1.
</event>
<event>
 7    1  0.5755468E-013  0.5930192E+02  0.7816164E-02  0.1266605E+00
        -11   -1    0    0    0    0  0.00000000000E+00  0.00000000000E+00  0.45593999997E+02  0.45594000000E+02  0.51100000000E-03 0. -1.
         11   -1    0    0    0    0 -0.00000000000E+00 -0.00000000000E+00 -0.45593999997E+02  0.45594000000E+02  0.51100000000E-03 0.  1.
    9900012    2    1    2    0    0  0.31335216428E+02  0.17307144234E+01  0.56418933425E+01  0.59301919627E+02  0.49999955500E+02 0.  0.
        -12    1    1    2    0    0 -0.31335216428E+02 -0.17307144234E+01 -0.56418933425E+01  0.31886080373E+02  0.00000000000E+00 0.  1.
         11    1    3    3    0    0  0.13952000941E+02  0.12482764030E+02  0.88766819018E+01  0.20718909477E+02  0.51100000000E-03 0. -1.
        -11    1    3    3    0    0  0.19629803962E+02 -0.43496730746E+01 -0.14943029482E+02  0.25050808166E+02  0.51100000000E-03 0.  1.
        -12    1    3    3    0    0 -0.22465884743E+01 -0.64023765321E+01  0.11708240922E+02  0.13532201984E+02  0.00000000000E+00 0.  1.
</event>
<event>
 7    1  0.5755468E-013  0.5930191E+02  0.7816164E-02  0.1266605E+00
        -11   -1    0    0    0    0  0.00000000000E+00  0.00000000000E+00  0.45593999997E+02  0.45594000000E+02  0.51100000000E-03 0.  1.
         11   -1    0    0    0    0 -0.00000000000E+00 -0.00000000000E+00 -0.45593999997E+02  0.45594000000E+02  0.51100000000E-03 0. -1.
    9900012    2    1    2    0    0 -0.65600632022E+01 -0.12453627634E+02 -0.28611109252E+02  0.59301908313E+02  0.49999934865E+02 0.  0.
        -12    1    1    2    0    0  0.65600632022E+01  0.12453627634E+02  0.28611109252E+02  0.31886091687E+02  0.00000000000E+00 0.  1.
         11    1    3    3    0    0  0.75810006639E+01  0.14999792091E+02 -0.15233990586E+02  0.22683469825E+02  0.51100000000E-03 0. -1.
        -11    1    3    3    0    0 -0.74227006462E+01 -0.25072222060E+02 -0.13627939643E+02  0.29486158500E+02  0.51100000000E-03 0.  1.
         12    1    3    3    0    0 -0.67183632198E+01 -0.23811976652E+01  0.25082097727E+00  0.71322799887E+01  0.00000000000E+00 0. -1.
</event>
<event>
 7    1  0.5755468E-013  0.5930194E+02  0.7816164E-02  0.1266605E+00
        -11   -1    0    0    0    0  0.00000000000E+00  0.00000000000E+00  0.45593999997E+02  0.45594000000E+02  0.51100000000E-03 0.  1.
         11   -1    0    0    0    0 -0.00000000000E+00 -0.00000000000E+00 -0.45593999997E+02  0.45594000000E+02  0.51100000000E-03 0. -1.
    9900012    2    1    2    0    0 -0.45904708544E+01 -0.24596792143E+02 -0.19764766035E+02  0.59301943756E+02  0.49999999504E+02 0.  0.
        -12    1    1    2    0    0  0.45904708544E+01  0.24596792143E+02  0.19764766035E+02  0.31886056244E+02  0.00000000000E+00 0.  1.
         11    1    3    3    0    0  0.12758106378E+02 -0.16831850326E+02  0.89039334145E-01  0.21120804720E+02  0.51100000000E-03 0. -1.
        -11    1    3    3    0    0 -0.16855399855E+02  0.64325715997E+01 -0.82486160740E+01  0.19837392698E+02  0.51100000000E-03 0.  1.
        -12    1    3    3    0    0 -0.49317737753E+00 -0.14197513417E+02 -0.11605189295E+02  0.18343746338E+02  0.00000000000E+00 0.  1.
</event>
<event>
 7    1  0.5755468E-013  0.5930196E+02  0.7816164E-02  0.1266605E+00
        -11   -1    0    0    0    0  0.00000000000E+00  0.00000000000E+00  0.45593999997E+02  0.45594000000E+02  0.51100000000E-03 0. -1.
         11   -1    0    0    0    0 -0.00000000000E+00 -0.00000000000E+00 -0.45593999997E+02  0.45594000000E+02  0.51100000000E-03 0.  1.
    9900012    2    1    2    0    0  0.17280117135E+02 -0.25788254804E+02 -0.72858241752E+01  0.59301956533E+02  0.50000022806E+02 0.  0.
        -12    1    1    2    0    0 -0.17280117135E+02  0.25788254804E+02  0.72858241752E+01  0.31886043467E+02  0.00000000000E+00 0.  1.
         11    1    3    3    0    0  0.17457535942E+02 -0.23585736536E+02  0.14027078902E+02  0.32524013774E+02  0.51100000000E-03 0. -1.
        -11    1    3    3    0    0  0.25180184077E+01  0.22737916345E+01 -0.21283952820E+02  0.21552660926E+02  0.51100000000E-03 0.  1.
        -12    1    3    3    0    0 -0.26954372148E+01 -0.44763099025E+01 -0.28950257929E-01  0.52252818335E+01  0.00000000000E+00 0.  1.
</event>
<event>
 7    1  0.5755468E-013  0.5930192E+02  0.7816164E-02  0.1266605E+00
        -11   -1    0    0    0    0  0.00000000000E+00  0.00000000000E+00  0.45593999997E+02  0.45594000000E+02  0.51100000000E-03 0.  1.
         11   -1    0    0    0    0 -0.00000000000E+00 -0.00000000000E+00 -0.45593999997E+02  0.45594000000E+02  0.51100000000E-03 0. -1.
    9900012    2    1    2    0    0  0.35290991403E+01 -0.27348761981E+02  0.16009772138E+02  0.59301919549E+02  0.49999955356E+02 0.  0.
        -12    1    1    2    0    0 -0.35290991403E+01  0.27348761981E+02 -0.16009772138E+02  0.31886080451E+02  0.00000000000E+00 0.  1.
         11    1    3    3    0    0 -0.29294484126E+01 -0.22075396035E+02  0.15443498639E+02  0.27099934106E+02  0.51100000000E-03 0. -1.
        -11    1    3    3    0    0  0.12827032326E+02  0.52174794248E+01 -0.91084006281E+01  0.16574613482E+02  0.51100000000E-03 0.  1.
        -12    1    3    3    0    0 -0.63684847727E+01 -0.10490845371E+02  0.96746741275E+01  0.15627371960E+02  0.00000000000E+00 0.  1.
</event>
<event>
 7    1  0.5755468E-013  0.5930194E+02  0.7816164E-02  0.1266605E+00
        -11   -1    0    0    0    0  0.00000000000E+00  0.00000000000E+00  0.45593999997E+02  0.45594000000E+02  0.51100000000E-03 0.  1.
         11   -1    0    0    0    0 -0.00000000000E+00 -0.00000000000E+00 -0.45593999997E+02  0.45594000000E+02  0.51100000000E-03 0. -1.
    9900012    2    1    2    0    0 -0.22169167772E+02 -0.10187452356E+02 -0.20529601067E+02  0.59301941837E+02  0.49999996005E+02 0.  0.
        -12    1    1    2    0    0  0.22169167772E+02  0.10187452356E+02  0.20529601067E+02  0.31886058163E+02  0.00000000000E+00 0.  1.
         11    1    3    3    0    0 -0.17724422370E+01 -0.12583520917E+02 -0.25587765680E+02  0.28569569526E+02  0.51100000000E-03 0. -1.
        -11    1    3    3    0    0 -0.99616623260E+01  0.18349974338E+01  0.13792730456E+02  0.17112607796E+02  0.51100000000E-03 0.  1.
        -12    1    3    3    0    0 -0.10435063209E+02  0.56107112771E+00 -0.87345658435E+01  0.13619764515E+02  0.00000000000E+00 0.  1.
</event>
<event>
 7    1  0.5755468E-013  0.5930194E+02  0.7816164E-02  0.1266605E+00
        -11   -1    0    0    0    0  0.00000000000E+00  0.00000000000E+00  0.45593999997E+02  0.45594000000E+02  0.51100000000E-03 0.  1.
         11   -1    0    0    0    0 -0.00000000000E+00 -0.00000000000E+00 -0.45593999997E+02  0.45594000000E+02  0.51100000000E-03 0. -1.
    9900012    2    1    2    0    0 -0.15498633508E+02 -0.24788322910E+02 -0.12729984483E+02  0.59301935674E+02  0.49999984764E+02 0.  0.
        -12    1    1    2    0    0  0.15498633508E+02  0.24788322910E+02  0.12729984483E+02  0.31886064326E+02  0.00000000000E+00 0.  1.
         11    1    3    3    0    0 -0.23046458781E+02 -0.18985297677E+02 -0.17366270797E+01  0.29909808827E+02  0.51100000000E-03 0. -1.
        -11    1    3    3    0    0  0.12550448039E+02 -0.12717890891E+02 -0.38858903807E+01  0.18285476177E+02  0.51100000000E-03 0.  1.
        -12    1    3    3    0    0 -0.50026227664E+01  0.69148656585E+01 -0.71074670227E+01  0.11106650670E+02  0.00000000000E+00 0.  1.
</event>
<event>
 7    1  0.5755468E-013  0.5930194E+02  0.7816164E-02  0.1266605E+00
        -11   -1    0    0    0    0  0.00000000000E+00  0.00000000000E+00  0.45593999997E+02  0.45594000000E+02  0.51100000000E-03 0.  1.
         11   -1    0    0    0    0 -0.00000000000E+00 -0.00000000000E+00 -0.45593999997E+02  0.45594000000E+02  0.51100000000E-03 0. -1.
    9900012    2    1    2    0    0  0.29877424874E+02 -0.11129762101E+02 -0.43467601622E+00  0.59301936199E+02  0.49999985722E+02 0.  0.
        -12    1    1    2    0    0 -0.29877424874E+02  0.11129762101E+02  0.43467601622E+00  0.31886063801E+02  0.00000000000E+00 0.  1.
         11    1    3    3    0    0  0.17710916953E+02 -0.15553598514E+02 -0.22044640978E+02  0.32273165357E+02  0.51100000000E-03 0. -1.
        -11    1    3    3    0    0 -0.14225479740E+01  0.16679182799E+01  0.45025184864E+01  0.50078205946E+01  0.51100000000E-03 0.  1.
         12    1    3    3    0    0  0.13589055895E+02  0.27559181333E+01  0.17107446475E+02  0.22020950247E+02  0.00000000000E+00 0. -1.
</event>
<event>
 7    1  0.5755468E-013  0.5930194E+02  0.7816164E-02  0.1266605E+00
        -11   -1    0    0    0    0  0.00000000000E+00  0.00000000000E+00  0.45593999997E+02  0.45594000000E+02  0.51100000000E-03 0. -1.
         11   -1    0    0    0    0 -0.00000000000E+00 -0.00000000000E+00 -0.45593999997E+02  0.45594000000E+02  0.51100000000E-03 0.  1.
    9900012    2    1    2    0    0  0.17353747259E+02  0.20933715714E+02  0.16653770981E+02  0.59301935875E+02  0.49999985131E+02 0.  0.
        -12    1    1    2    0    0 -0.17353747259E+02 -0.20933715714E+02 -0.16653770981E+02  0.31886064125E+02  0.00000000000E+00 0.  1.
         11    1    3    3    0    0  0.23613716078E+02  0.69766470688E+01  0.10015642846E+02  0.26581841419E+02  0.51100000000E-03 0. -1.
        -11    1    3    3    0    0 -0.11010510178E+02  0.20003450380E+02  0.43023188117E+00  0.22837566885E+02  0.51100000000E-03 0.  1.
        -12    1    3    3    0    0  0.47505413582E+01 -0.60463817349E+01  0.62078962544E+01  0.98825275707E+01  0.00000000000E+00 0.  1.
</event>
<event>
 7    1  0.5755468E-013  0.5930204E+02  0.7816164E-02  0.1266604E+00
        -11   -1    0    0    0    0  0.00000000000E+00  0.00000000000E+00  0.45593999997E+02  0.45594000000E+02  0.51100000000E-03 0. -1.
         11   -1    0    0    0    0 -0.00000000000E+00 -0.00000000000E+00 -0.45593999997E+02  0.45594000000E+02  0.51100000000E-03 0.  1.
    9900012    2    1    2    0    0 -0.97613432710E+01 -0.26516084291E+02 -0.14775930786E+02  0.59302036330E+02  0.50000168336E+02 0.  0.
        -12    1    1    2    0    0  0.97613432710E+01  0.26516084291E+02  0.14775930786E+02  0.31885963670E+02  0.00000000000E+00 0.  1.
         11    1    3    3    0    0 -0.20096565715E+02 -0.38568723854E+01 -0.38712300661E+01  0.20826277647E+02  0.51100000000E-03 0. -1.
        -11    1    3    3    0    0  0.72545633832E+01 -0.23513172258E+02 -0.18136784447E+02  0.30568626234E+02  0.51100000000E-03 0.  1.
         12    1    3    3    0    0  0.30806590605E+01  0.85396035189E+00  0.72320837273E+01  0.79071324492E+01  0.00000000000E+00 0. -1.
</event>
<event>
 7    1  0.5755468E-013  0.5930194E+02  0.7816164E-02  0.1266605E+00
        -11   -1    0    0    0    0  0.00000000000E+00  0.00000000000E+00  0.45593999997E+02  0.45594000000E+02  0.51100000000E-03 0.  1.
         11   -1    0    0    0    0 -0.00000000000E+00 -0.00000000000E+00 -0.45593999997E+02  0.45594000000E+02  0.51100000000E-03 0. -1.
    9900012    2    1    2    0    0 -0.18718729882E+02 -0.45831343539E+01 -0.25403242484E+02  0.59301941956E+02  0.49999996221E+02 0.  0.
        -12    1    1    2    0    0  0.18718729882E+02  0.45831343539E+01  0.25403242484E+02  0.31886058044E+02  0.00000000000E+00 0.  1.
         11    1    3    3    0    0 -0.11954777407E+02  0.14198248229E+02 -0.14219517934E+02  0.23381651912E+02  0.51100000000E-03 0. -1.
        -11    1    3    3    0    0 -0.17229117530E+02 -0.15473607420E+02 -0.74144105742E+01  0.24315602026E+02  0.51100000000E-03 0.  1.
        -12    1    3    3    0    0  0.10465165054E+02 -0.33077751626E+01 -0.37693139759E+01  0.11604688018E+02  0.00000000000E+00 0.  1.
</event>
<event>
 7    1  0.5755468E-013  0.5930211E+02  0.7816164E-02  0.1266604E+00
        -11   -1    0    0    0    0  0.00000000000E+00  0.00000000000E+00  0.45593999997E+02  0.45594000000E+02  0.51100000000E-03 0. -1.
         11   -1    0    0    0    0 -0.00000000000E+00 -0.00000000000E+00 -0.45593999997E+02  0.45594000000E+02  0.51100000000E-03 0.  1.
    9900012    2    1    2    0    0 -0.17279888536E+02 -0.24435173567E+02  0.11001719709E+02  0.59302108267E+02  0.50000299532E+02 0.  0.
        -12    1    1    2    0    0  0.17279888536E+02  0.24435173567E+02 -0.11001719709E+02  0.31885891733E+02  0.00000000000E+00 0.  1.
         11    1    3    3    0    0  0.14752316341E+02  0.36805951188E+01  0.74475406506E+00  0.15222755228E+02  0.51100000000E-03 0. -1.
        -11    1    3    3    0    0 -0.27251162901E+02 -0.25487342082E+02  0.79194388632E+01  0.38143780594E+02  0.51100000000E-03 0.  1.
        -12    1    3    3    0    0 -0.47810419765E+01 -0.26284266039E+01  0.23375267808E+01  0.59355724445E+01  0.00000000000E+00 0.  1.
</event>
<event>
 7    1  0.5755468E-013  0.5930196E+02  0.7816164E-02  0.1266605E+00
        -11   -1    0    0    0    0  0.00000000000E+00  0.00000000000E+00  0.45593999997E+02  0.45594000000E+02  0.51100000000E-03 0.  1.
         11   -1    0    0    0    0 -0.00000000000E+00 -0.00000000000E+00 -0.45593999997E+02  0.45594000000E+02  0.51100000000E-03 0. -1.
    9900012    2    1    2    0    0  0.28944221864E+02  0.87104723316E+01 -0.10152808283E+02  0.59301955661E+02  0.50000021216E+02 0.  0.
        -12    1    1    2    0    0 -0.28944221864E+02 -0.87104723316E+01  0.10152808283E+02  0.31886044339E+02  0.00000000000E+00 0.  1.
         11    1    3    3    0    0  0.13659342001E+02 -0.41593251592E+01 -0.26452917850E+02  0.30060513514E+02  0.51100000000E-03 0. -1.
        -11    1    3    3    0    0  0.14148201441E+02  0.14016089858E+02  0.91597010866E+01  0.21920823506E+02  0.51100000000E-03 0.  1.
         12    1    3    3    0    0  0.11366784226E+01 -0.11462923675E+01  0.71404084799E+01  0.73206186411E+01  0.00000000000E+00 0. -1.
</event>
<event>
 7    1  0.5755468E-013  0.5930194E+02  0.7816164E-02  0.1266605E+00
        -11   -1    0    0    0    0  0.00000000000E+00  0.00000000000E+00  0.45593999997E+02  0.45594000000E+02  0.51100000000E-03 0.  1.
         11   -1    0    0    0    0 -0.00000000000E+00 -0.00000000000E+00 -0.45593999997E+02  0.45594000000E+02  0.51100000000E-03 0. -1.
    9900012    2    1    2    0    0 -0.15458148385E+02 -0.25326121764E+02 -0.11677081048E+02  0.59301936949E+02  0.49999987090E+02 0.  0.
        -12    1    1    2    0    0  0.15458148385E+02  0.25326121764E+02  0.11677081048E+02  0.31886063051E+02  0.00000000000E+00 0.  1.
         11    1    3    3    0    0  0.25016427805E+01 -0.10941902708E+02 -0.24372397729E+02  0.26832763979E+02  0.51100000000E-03 0. -1.
        -11    1    3    3    0    0 -0.15487915450E+02 -0.61556190675E+01  0.16151165503E+02  0.23208345879E+02  0.51100000000E-03 0.  1.
        -12    1    3    3    0    0 -0.24718757164E+01 -0.82285999883E+01 -0.34558488218E+01  0.92608270907E+01  0.00000000000E+00 0.  1.
</event>
<event>
 7    1  0.5755468E-013  0.5930194E+02  0.7816164E-02  0.1266605E+00
        -11   -1    0    0    0    0  0.00000000000E+00  0.00000000000E+00  0.45593999997E+02  0.45594000000E+02  0.51100000000E-03 0.  1.
         11   -1    0    0    0    0 -0.00000000000E+00 -0.00000000000E+00 -0.45593999997E+02  0.45594000000E+02  0.51100000000E-03 0. -1.
    9900012    2    1    2    0    0 -0.29977391869E+02 -0.50068276989E+01 -0.96441023063E+01  0.59301936333E+02  0.49999985966E+02 0.  0.
        -12    1    1    2    0    0  0.29977391869E+02  0.50068276989E+01  0.96441023063E+01  0.31886063667E+02  0.00000000000E+00 0.  1.
         11    1    3    3    0    0 -0.15990959407E+02 -0.17069592740E+02 -0.19042164446E+02  0.30160998095E+02  0.51100000000E-03 0.  1.
        -11    1    3    3    0    0 -0.18858161710E+02  0.10064136686E+02  0.10414936618E+02  0.23777889211E+02  0.51100000000E-03 0. -1.
         12    1    3    3    0    0  0.48717292476E+01  0.19986283544E+01 -0.10168744783E+01  0.53630490270E+01  0.00000000000E+00 0. -1.
</event>
<event>
 7    1  0.5755468E-013  0.5930194E+02  0.7816164E-02  0.1266605E+00
        -11   -1    0    0    0    0  0.00000000000E+00  0.00000000000E+00  0.45593999997E+02  0.45594000000E+02  0.51100000000E-03 0.  1.
         11   -1    0    0    0    0 -0.00000000000E+00 -0.00000000000E+00 -0.45593999997E+02  0.45594000000E+02  0.51100000000E-03 0. -1.
    9900012    2    1    2    0    0 -0.17685369948E+02  0.23791625394E+02 -0.11743397625E+02  0.59301935067E+02  0.49999983659E+02 0.  0.
        -12    1    1    2    0    0  0.17685369948E+02 -0.23791625394E+02  0.11743397625E+02  0.31886064933E+02  0.00000000000E+00 0.  1.
         11    1    3    3    0    0  0.60663367501E+01  0.18452419149E+01  0.53867951148E+01  0.83200313197E+01  0.51100000000E-03 0. -1.
        -11    1    3    3    0    0 -0.14328643683E+02  0.28948211846E+02 -0.21109071848E+02  0.38586291781E+02  0.51100000000E-03 0.  1.
        -12    1    3    3    0    0 -0.94230630156E+01 -0.70018283669E+01  0.39788791080E+01  0.12395611967E+02  0.00000000000E+00 0.  1.
</event>
<event>
 7    1  0.5755468E-013  0.5930202E+02  0.7816164E-02  0.1266604E+00
        -11   -1    0    0    0    0  0.00000000000E+00  0.00000000000E+00  0.45593999997E+02  0.45594000000E+02  0.51100000000E-03 0.  1.
         11   -1    0    0    0    0 -0.00000000000E+00 -0.00000000000E+00 -0.45593999997E+02  0.45594000000E+02  0.51100000000E-03 0. -1.
    9900012    2    1    2    0    0 -0.18263404813E+02  0.18065378850E+02 -0.18889305716E+02  0.59302019714E+02  0.50000138034E+02 0.  0.
        -12    1    1    2    0    0  0.18263404813E+02 -0.18065378850E+02  0.18889305716E+02  0.31885980286E+02  0.00000000000E+00 0.  1.
         11    1    3    3    0    0 -0.29445801379E+02 -0.11346101048E+01 -0.20172554358E+02  0.35710985824E+02  0.51100000000E-03 0. -1.
        -11    1    3    3    0    0  0.22691923254E+01 -0.97669598133E-01  0.46650533809E+00  0.23187066765E+01  0.51100000000E-03 0.  1.
         12    1    3    3    0    0  0.89132042411E+01  0.19297658553E+02  0.81674330323E+00  0.21272327214E+02  0.00000000000E+00 0. -1.
</event>
<event>
 7    1  0.5755468E-013  0.5930195E+02  0.7816164E-02  0.1266605E+00
        -11   -1    0    0    0    0  0.00000000000E+00  0.00000000000E+00  0.45593999997E+02  0.45594000000E+02  0.51100000000E-03 0. -1.
         11   -1    0    0    0    0 -0.00000000000E+00 -0.00000000000E+00 -0.45593999997E+02  0.45594000000E+02  0.51100000000E-03 0.  1.
    9900012    2    1    2    0    0 -0.68606005129E+01  0.19642401762E+02  0.24162540737E+02  0.59301950367E+02  0.50000011561E+02 0.  0.
        -12    1    1    2    0    0  0.68606005129E+01 -0.19642401762E+02 -0.24162540737E+02  0.31886049633E+02  0.00000000000E+00 0.  1.
         11    1    3    3    0    0 -0.19969972909E+02  0.20898448966E+02  0.29250240559E+02  0.41123248415E+02  0.51100000000E-03 0. -1.
        -11    1    3    3    0    0  0.30035856596E+00  0.17134848885E+01 -0.47139176464E+01  0.50246657172E+01  0.51100000000E-03 0.  1.
         12    1    3    3    0    0  0.12809013830E+02 -0.29695320926E+01 -0.37378217586E+00  0.13154036235E+02  0.00000000000E+00 0. -1.
</event>
<event>
 7    1  0.5755468E-013  0.5930195E+02  0.7816164E-02  0.1266605E+00
        -11   -1    0    0    0    0  0.00000000000E+00  0.00000000000E+00  0.45593999997E+02  0.45594000000E+02  0.51100000000E-03 0.  1.
         11   -1    0    0    0    0 -0.00000000000E+00 -0.00000000000E+00 -0.45593999997E+02  0.45594000000E+02  0.51100000000E-03 0. -1.
    9900012    2    1    2    0    0  0.72051614585E+01 -0.12565636952E+02 -0.28406173792E+02  0.59301948298E+02  0.50000007788E+02 0.  0.
        -12    1    1    2    0    0 -0.72051614585E+01  0.12565636952E+02  0.28406173792E+02  0.31886051702E+02  0.00000000000E+00 0.  1.
         11    1    3    3    0    0  0.34606965161E+01 -0.27431563435E+02 -0.31762287159E+02  0.42110687227E+02  0.51100000000E-03 0. -1.
        -11    1    3    3    0    0 -0.56450932759E+00  0.55097770579E+00  0.20362390858E+01  0.21836934512E+01  0.51100000000E-03 0.  1.
         12    1    3    3    0    0  0.43089742700E+01  0.14314948777E+02  0.13198742818E+01  0.15007567620E+02  0.00000000000E+00 0. -1.
</event>
<event>
 7    1  0.5755468E-013  0.5930194E+02  0.7816164E-02  0.1266605E+00
        -11   -1    0    0    0    0  0.00000000000E+00  0.00000000000E+00  0.45593999997E+02  0.45594000000E+02  0.51100000000E-03 0.  1.
         11   -1    0    0    0    0 -0.00000000000E+00 -0.00000000000E+00 -0.45593999997E+02  0.45594000000E+02  0.51100000000E-03 0. -1.
    9900012    2    1    2    0    0  0.47705250011E+01 -0.82834120844E+01 -0.30419531726E+02  0.59301941370E+02  0.49999995152E+02 0.  0.
        -12    1    1    2    0    0 -0.47705250011E+01  0.82834120844E+01  0.30419531726E+02  0.31886058630E+02  0.00000000000E+00 0.  1.
         11    1    3    3    0    0  0.90975585877E+01 -0.71320858058E+01 -0.16999259630E+02  0.20557408602E+02  0.51100000000E-03 0. -1.
        -11    1    3    3    0    0 -0.13773813529E+02  0.13204186487E+02 -0.57722942120E+01  0.19934589553E+02  0.51100000000E-03 0.  1.
        -12    1    3    3    0    0  0.94467799423E+01 -0.14355512766E+02 -0.76479778843E+01  0.18809943215E+02  0.00000000000E+00 0.  1.
</event>
<event>
 7    1  0.5755468E-013  0.5930196E+02  0.7816164E-02  0.1266605E+00
        -11   -1    0    0    0    0  0.00000000000E+00  0.00000000000E+00  0.45593999997E+02  0.45594000000E+02  0.51100000000E-03 0. -1.
         11   -1    0    0    0    0 -0.00000000000E+00 -0.00000000000E+00 -0.45593999997E+02  0.45594000000E+02  0.51100000000E-03 0.  1.
    9900012    2    1    2    0    0 -0.20350847548E+02 -0.17709680957E+02  0.16997924648E+02  0.59301964846E+02  0.50000037967E+02 0.  0.
        -12    1    1    2    0    0  0.20350847548E+02  0.17709680957E+02 -0.16997924648E+02  0.31886035154E+02  0.00000000000E+00 0.  1.
         11    1    3    3    0    0 -0.12481830425E+02  0.53484029692E+01  0.37721119354E+01  0.14093627418E+02  0.51100000000E-03 0. -1.
        -11    1    3    3    0    0  0.31979515545E+01 -0.29995361418E+02  0.89625503371E+01  0.31468649630E+02  0.51100000000E-03 0.  1.
        -12    1    3    3    0    0 -0.11066968678E+02  0.69372774919E+01  0.42632623750E+01  0.13739687798E+02  0.00000000000E+00 0.  1.
</event>
<event>
 7    1  0.5755468E-013  0.5930195E+02  0.7816164E-02  0.1266605E+00
        -11   -1    0    0    0    0  0.00000000000E+00  0.00000000000E+00  0.45593999997E+02  0.45594000000E+02  0.51100000000E-03 0.  1.
         11   -1    0    0    0    0 -0.00000000000E+00 -0.00000000000E+00 -0.45593999997E+02  0.45594000000E+02  0.51100000000E-03 0. -1.
    9900012    2    1    2    0    0  0.30557441398E+02 -0.76204233901E+01 -0.49892045766E+01  0.59301949135E+02  0.50000009314E+02 0.  0.
        -12    1    1    2    0    0 -0.30557441398E+02  0.76204233901E+01  0.49892045766E+01  0.31886050865E+02  0.00000000000E+00 0.  1.
         11    1    3    3    0    0 -0.61680890211E+01  0.94648150991E+01  0.54806636410E+01  0.12556501154E+02  0.51100000000E-03 0.  1.
        -11    1    3    3    0    0  0.35562689019E+02 -0.10971938926E+02 -0.34681481732E+01  0.37378019558E+02  0.51100000000E-03 0. -1.
         12    1    3    3    0    0  0.11628414004E+01 -0.61132995627E+01 -0.70017200444E+01  0.93674284223E+01  0.00000000000E+00 0. -1.
</event>
<event>
 7    1  0.5755468E-013  0.5930189E+02  0.7816164E-02  0.1266605E+00
        -11   -1    0    0    0    0  0.00000000000E+00  0.00000000000E+00  0.45593999997E+02  0.45594000000E+02  0.51100000000E-03 0.  1.
         11   -1    0    0    0    0 -0.00000000000E+00 -0.00000000000E+00 -0.45593999997E+02  0.45594000000E+02  0.51100000000E-03 0. -1.
    9900012    2    1    2    0    0  0.13002563044E+02 -0.18208820904E+02 -0.22717749657E+02  0.59301890894E+02  0.49999903096E+02 0.  0.
        -12    1    1    2    0    0 -0.13002563044E+02  0.18208820904E+02  0.22717749657E+02  0.31886109106E+02  0.00000000000E+00 0.  1.
         11    1    3    3    0    0  0.18879148960E+02 -0.80797743156E+01 -0.17309825840E+01  0.20608282787E+02  0.51100000000E-03 0. -1.
        -11    1    3    3    0    0  0.14034810728E+01  0.91928242676E+01 -0.14171235032E+02  0.16949975803E+02  0.51100000000E-03 0.  1.
         12    1    3    3    0    0 -0.72800669891E+01 -0.19321870856E+02 -0.68155320413E+01  0.21743632304E+02  0.00000000000E+00 0. -1.
</event>
<event>
 7    1  0.5755468E-013  0.5930194E+02  0.7816164E-02  0.1266605E+00
        -11   -1    0    0    0    0  0.00000000000E+00  0.00000000000E+00  0.45593999997E+02  0.45594000000E+02  0.51100000000E-03 0.  1.
         11   -1    0    0    0    0 -0.00000000000E+00 -0.00000000000E+00 -0.45593999997E+02  0.45594000000E+02  0.51100000000E-03 0. -1.
    9900012    2    1    2    0    0 -0.23302036562E+02 -0.48707043996E+01 -0.21213488441E+02  0.59301940960E+02  0.49999994404E+02 0.  0.
        -12    1    1    2    0    0  0.23302036562E+02  0.48707043996E+01  0.21213488441E+02  0.31886059040E+02  0.00000000000E+00 0.  1.
         11    1    3    3    0    0 -0.57694845145E+01 -0.15653011770E+02  0.78749996502E+01  0.18447746442E+02  0.51100000000E-03 0. -1.
        -11    1    3    3    0    0 -0.49305489441E+01  0.14218039824E+02 -0.11468103049E+02  0.18920368842E+02  0.51100000000E-03 0.  1.
         12    1    3    3    0    0 -0.12602003103E+02 -0.34357324536E+01 -0.17620385042E+02  0.21933825675E+02  0.00000000000E+00 0. -1.
</event>
<event>
 7    1  0.5755468E-013  0.5930188E+02  0.7816164E-02  0.1266605E+00
        -11   -1    0    0    0    0  0.00000000000E+00  0.00000000000E+00  0.45593999997E+02  0.45594000000E+02  0.51100000000E-03 0.  1.
         11   -1    0    0    0    0 -0.00000000000E+00 -0.00000000000E+00 -0.45593999997E+02  0.45594000000E+02  0.51100000000E-03 0. -1.
    9900012    2    1    2    0    0  0.41797227689E+01 -0.27434369998E+02 -0.15703821468E+02  0.59301878437E+02  0.49999880378E+02 0.  0.
        -12    1    1    2    0    0 -0.41797227689E+01  0.27434369998E+02  0.15703821468E+02  0.31886121563E+02  0.00000000000E+00 0.  1.
         11    1    3    3    0    0 -0.92796053405E+01 -0.93181246600E+01  0.12971232845E+02  0.18471367146E+02  0.51100000000E-03 0. -1.
        -11    1    3    3    0    0  0.66291292094E+01  0.26765560617E+01 -0.78980962837E+01  0.10653132478E+02  0.51100000000E-03 0.  1.
         12    1    3    3    0    0  0.68301989000E+01 -0.20792801400E+02 -0.20776958029E+02  0.30177378813E+02  0.00000000000E+00 0. -1.
</event>
<event>
 7    1  0.5755468E-013  0.5930194E+02  0.7816164E-02  0.1266605E+00
        -11   -1    0    0    0    0  0.00000000000E+00  0.00000000000E+00  0.45593999997E+02  0.45594000000E+02  0.51100000000E-03 0. -1.
         11   -1    0    0    0    0 -0.00000000000E+00 -0.00000000000E+00 -0.45593999997E+02  0.45594000000E+02  0.51100000000E-03 0.  1.
    9900012    2    1    2    0    0  0.38541028111E+01  0.15959878545E+02  0.27334028995E+02  0.59301937641E+02  0.49999988352E+02 0.  0.
        -12    1    1    2    0    0 -0.38541028111E+01 -0.15959878545E+02 -0.27334028995E+02  0.31886062359E+02  0.00000000000E+00 0.  1.
         11    1    3    3    0    0  0.24997586332E+01 -0.78239718603E+01  0.56015254343E+01  0.99418517565E+01  0.51100000000E-03 0. -1.
        -11    1    3    3    0    0 -0.11006276727E+02  0.18205482368E+02 -0.26718450188E+01  0.21440999783E+02  0.51100000000E-03 0.  1.
        -12    1    3    3    0    0  0.12360620905E+02  0.55783680375E+01  0.24404348580E+02  0.27919086101E+02  0.00000000000E+00 0.  1.
</event>
<event>
 7    1  0.5755468E-013  0.5930193E+02  0.7816164E-02  0.1266605E+00
        -11   -1    0    0    0    0  0.00000000000E+00  0.00000000000E+00  0.45593999997E+02  0.45594000000E+02  0.51100000000E-03 0.  1.
         11   -1    0    0    0    0 -0.00000000000E+00 -0.00000000000E+00 -0.45593999997E+02  0.45594000000E+02  0.51100000000E-03 0. -1.
    9900012    2    1    2    0    0 -0.30953429450E+02 -0.53716183384E+01 -0.54545463056E+01  0.59301934804E+02  0.49999983179E+02 0.  0.
        -12    1    1    2    0    0  0.30953429450E+02  0.53716183384E+01  0.54545463056E+01  0.31886065196E+02  0.00000000000E+00 0.  1.
         11    1    3    3    0    0 -0.55492339988E+01 -0.11010786928E+02 -0.21767196694E+02  0.25016839907E+02  0.51100000000E-03 0. -1.
        -11    1    3    3    0    0 -0.19135650340E+02 -0.19219306275E+01  0.14971333553E+02  0.24372274409E+02  0.51100000000E-03 0.  1.
        -12    1    3    3    0    0 -0.62685451111E+01  0.75610992168E+01  0.13413168352E+01  0.99128204880E+01  0.00000000000E+00 0.  1.
</event>
<event>
 7    1  0.5755468E-013  0.5930192E+02  0.7816164E-02  0.1266605E+00
        -11   -1    0    0    0    0  0.00000000000E+00  0.00000000000E+00  0.45593999997E+02  0.45594000000E+02  0.51100000000E-03 0.  1.
         11   -1    0    0    0    0 -0.00000000000E+00 -0.00000000000E+00 -0.45593999997E+02  0.45594000000E+02  0.51100000000E-03 0. -1.
    9900012    2    1    2    0    0  0.12604301101E+02  0.18299068769E+02 -0.22869146140E+02  0.59301918879E+02  0.49999954135E+02 0.  0.
        -12    1    1    2    0    0 -0.12604301101E+02 -0.18299068769E+02  0.22869146140E+02  0.31886081121E+02  0.00000000000E+00 0.  1.
         11    1    3    3    0    0  0.80546070256E+01  0.18439155470E+02 -0.26084077547E+02  0.32943258044E+02  0.51100000000E-03 0. -1.
        -11    1    3    3    0    0 -0.59668747767E+01 -0.28478137106E+01  0.11112765225E+02  0.12930861872E+02  0.51100000000E-03 0.  1.
        -12    1    3    3    0    0  0.10516568852E+02  0.27077270100E+01 -0.78978338182E+01  0.13427798963E+02  0.00000000000E+00 0.  1.
</event>
<event>
 7    1  0.5755468E-013  0.5930197E+02  0.7816164E-02  0.1266605E+00
        -11   -1    0    0    0    0  0.00000000000E+00  0.00000000000E+00  0.45593999997E+02  0.45594000000E+02  0.51100000000E-03 0. -1.
         11   -1    0    0    0    0 -0.00000000000E+00 -0.00000000000E+00 -0.45593999997E+02  0.45594000000E+02  0.51100000000E-03 0.  1.
    9900012    2    1    2    0    0  0.18922471047E+02 -0.14948996562E+01  0.25620777948E+02  0.59301970173E+02  0.50000047682E+02 0.  0.
        -12    1    1    2    0    0 -0.18922471047E+02  0.14948996562E+01 -0.25620777948E+02  0.31886029827E+02  0.00000000000E+00 0.  1.
         11    1    3    3    0    0  0.16131269891E+02  0.18036487095E+02  0.99503864610E+01  0.26163771249E+02  0.51100000000E-03 0. -1.
        -11    1    3    3    0    0  0.94151778148E+01 -0.17918633671E+02  0.56443201377E+01  0.21013837251E+02  0.51100000000E-03 0.  1.
        -12    1    3    3    0    0 -0.66239766590E+01 -0.16127530799E+01  0.10026071349E+02  0.12124361673E+02  0.00000000000E+00 0.  1.
</event>
<event>
 7    1  0.5755468E-013  0.5930194E+02  0.7816164E-02  0.1266605E+00
        -11   -1    0    0    0    0  0.00000000000E+00  0.00000000000E+00  0.45593999997E+02  0.45594000000E+02  0.51100000000E-03 0.  1.
         11   -1    0    0    0    0 -0.00000000000E+00 -0.00000000000E+00 -0.45593999997E+02  0.45594000000E+02  0.51100000000E-03 0. -1.
    9900012    2    1    2    0    0 -0.72441170695E+01 -0.92781517081E+01 -0.29633760205E+02  0.59301936036E+02  0.49999985425E+02 0.  0.
        -12    1    1    2    0    0  0.72441170695E+01  0.92781517081E+01  0.29633760205E+02  0.31886063964E+02  0.00000000000E+00 0.  1.
         11    1    3    3    0    0 -0.46467517856E+01 -0.97809848877E+01  0.59501289313E+01  0.12355727502E+02  0.51100000000E-03 0. -1.
        -11    1    3    3    0    0 -0.95972116155E+00  0.13947219097E+02 -0.77320753999E+01  0.15975949909E+02  0.51100000000E-03 0.  1.
         12    1    3    3    0    0 -0.16376441223E+01 -0.13444385917E+02 -0.27851813736E+02  0.30970258626E+02  0.00000000000E+00 0. -1.
</event>
<event>
 7    1  0.5755468E-013  0.5930192E+02  0.7816164E-02  0.1266605E+00
        -11   -1    0    0    0    0  0.00000000000E+00  0.00000000000E+00  0.45593999997E+02  0.45594000000E+02  0.51100000000E-03 0. -1.
         11   -1    0    0    0    0 -0.00000000000E+00 -0.00000000000E+00 -0.45593999997E+02  0.45594000000E+02  0.51100000000E-03 0.  1.
    9900012    2    1    2    0    0 -0.16689329828E+02 -0.70342275533E+01  0.26243246664E+02  0.59301920234E+02  0.49999956606E+02 0.  0.
        -12    1    1    2    0    0  0.16689329828E+02  0.70342275533E+01 -0.26243246664E+02  0.31886079766E+02  0.00000000000E+00 0.  1.
         11    1    3    3    0    0  0.93302884652E+01 -0.18959151212E+02  0.14791610708E+01  0.21182342063E+02  0.51100000000E-03 0. -1.
        -11    1    3    3    0    0 -0.12019367571E+02  0.71490189579E+01  0.97891930712E+01  0.17070499996E+02  0.51100000000E-03 0.  1.
         12    1    3    3    0    0 -0.14000250722E+02  0.47759047008E+01  0.14974892522E+02  0.21049078175E+02  0.00000000000E+00 0. -1.
</event>
<event>
 7    1  0.5755468E-013  0.5930194E+02  0.7816164E-02  0.1266605E+00
        -11   -1    0    0    0    0  0.00000000000E+00  0.00000000000E+00  0.45593999997E+02  0.45594000000E+02  0.51100000000E-03 0.  1.
         11   -1    0    0    0    0 -0.00000000000E+00 -0.00000000000E+00 -0.45593999997E+02  0.45594000000E+02  0.51100000000E-03 0. -1.
    9900012    2    1    2    0    0 -0.93800361449E+01 -0.29958408875E+02 -0.55883234620E+01  0.59301941925E+02  0.49999996166E+02 0.  0.
        -12    1    1    2    0    0  0.93800361449E+01  0.29958408875E+02  0.55883234620E+01  0.31886058075E+02  0.00000000000E+00 0.  1.
         11    1    3    3    0    0  0.53529875889E+01 -0.10418214115E+02 -0.32240375616E+01  0.12148583454E+02  0.51100000000E-03 0. -1.
        -11    1    3    3    0    0 -0.26003990622E+02 -0.18095573608E+02 -0.10277949882E+02  0.33306059006E+02  0.51100000000E-03 0.  1.
        -12    1    3    3    0    0  0.11270966889E+02 -0.14446211522E+01  0.79136639813E+01  0.13847299465E+02  0.00000000000E+00 0.  1.
</event>
<event>
 7    1  0.5755468E-013  0.5930195E+02  0.7816164E-02  0.1266605E+00
        -11   -1    0    0    0    0  0.00000000000E+00  0.00000000000E+00  0.45593999997E+02  0.45594000000E+02  0.51100000000E-03 0.  1.
         11   -1    0    0    0    0 -0.00000000000E+00 -0.00000000000E+00 -0.45593999997E+02  0.45594000000E+02  0.51100000000E-03 0. -1.
    9900012    2    1    2    0    0  0.39436308600E+01  0.31092292081E+02 -0.58683487251E+01  0.59301947125E+02  0.50000005649E+02 0.  0.
        -12    1    1    2    0    0 -0.39436308600E+01 -0.31092292081E+02  0.58683487251E+01  0.31886052875E+02  0.00000000000E+00 0.  1.
         11    1    3    3    0    0  0.16246021737E+02  0.17858449955E+02  0.84828523189E+01  0.25589377499E+02  0.51100000000E-03 0. -1.
        -11    1    3    3    0    0 -0.11407455510E+02 -0.10311223954E+01 -0.15613126506E+02  0.19363960705E+02  0.51100000000E-03 0.  1.
         12    1    3    3    0    0 -0.89493536711E+00  0.14264964521E+02  0.12619254623E+01  0.14348608921E+02  0.00000000000E+00 0. -1.
</event>
<event>
 7    1  0.5755468E-013  0.5930196E+02  0.7816164E-02  0.1266605E+00
        -11   -1    0    0    0    0  0.00000000000E+00  0.00000000000E+00  0.45593999997E+02  0.45594000000E+02  0.51100000000E-03 0.  1.
         11   -1    0    0    0    0 -0.00000000000E+00 -0.00000000000E+00 -0.45593999997E+02  0.45594000000E+02  0.51100000000E-03 0. -1.
    9900012    2    1    2    0    0  0.28137351724E+02  0.14855593474E+02 -0.20784811368E+01  0.59301963818E+02  0.50000036094E+02 0.  0.
        -12    1    1    2    0    0 -0.28137351724E+02 -0.14855593474E+02  0.20784811368E+01  0.31886036182E+02  0.00000000000E+00 0.  1.
         11    1    3    3    0    0  0.13859507035E+02 -0.20970416811E+01 -0.24785860943E+00  0.14019449105E+02  0.51100000000E-03 0. -1.
        -11    1    3    3    0    0  0.12192346433E+02  0.29741870039E+02  0.32908833545E+00  0.32145613143E+02  0.51100000000E-03 0.  1.
        -12    1    3    3    0    0  0.20854982569E+01 -0.12789234883E+02 -0.21597108628E+01  0.13136901571E+02  0.00000000000E+00 0.  1.
</event>
<event>
 7    1  0.5755468E-013  0.5930194E+02  0.7816164E-02  0.1266605E+00
        -11   -1    0    0    0    0  0.00000000000E+00  0.00000000000E+00  0.45593999997E+02  0.45594000000E+02  0.51100000000E-03 0. -1.
         11   -1    0    0    0    0 -0.00000000000E+00 -0.00000000000E+00 -0.45593999997E+02  0.45594000000E+02  0.51100000000E-03 0.  1.
    9900012    2    1    2    0    0  0.17682497354E+02 -0.20482971261E+02 -0.16867073681E+02  0.59301937231E+02  0.49999987605E+02 0.  0.
        -12    1    1    2    0    0 -0.17682497354E+02  0.20482971261E+02  0.16867073681E+02  0.31886062769E+02  0.00000000000E+00 0.  1.
         11    1    3    3    0    0 -0.37199445946E+01 -0.20458614419E+02 -0.23833668014E+02  0.31629679464E+02  0.51100000000E-03 0. -1.
        -11    1    3    3    0    0  0.10344243921E+02  0.44786157377E+01 -0.34908481847E+01  0.11800313662E+02  0.51100000000E-03 0.  1.
         12    1    3    3    0    0  0.11058198028E+02 -0.45029725792E+01  0.10457442518E+02  0.15871944105E+02  0.00000000000E+00 0. -1.
</event>
<event>
 7    1  0.5755468E-013  0.5930194E+02  0.7816164E-02  0.1266605E+00
        -11   -1    0    0    0    0  0.00000000000E+00  0.00000000000E+00  0.45593999997E+02  0.45594000000E+02  0.51100000000E-03 0.  1.
         11   -1    0    0    0    0 -0.00000000000E+00 -0.00000000000E+00 -0.45593999997E+02  0.45594000000E+02  0.51100000000E-03 0. -1.
    9900012    2    1    2    0    0 -0.27614714294E+02  0.36887371509E+01 -0.15509411946E+02  0.59301935862E+02  0.49999985107E+02 0.  0.
        -12    1    1    2    0    0  0.27614714294E+02 -0.36887371509E+01  0.15509411946E+02  0.31886064138E+02  0.00000000000E+00 0.  1.
         11    1    3    3    0    0  0.60038716405E+01  0.54051259448E+01 -0.79494253911E+01  0.11333808957E+02  0.51100000000E-03 0. -1.
        -11    1    3    3    0    0 -0.31036953389E+02  0.93200390564E+01 -0.13577409124E+02  0.35135475555E+02  0.51100000000E-03 0.  1.
        -12    1    3    3    0    0 -0.25816325459E+01 -0.11036427850E+02  0.60174225692E+01  0.12832651350E+02  0.00000000000E+00 0.  1.
</event>
<event>
 7    1  0.5755468E-013  0.5930194E+02  0.7816164E-02  0.1266605E+00
        -11   -1    0    0    0    0  0.00000000000E+00  0.00000000000E+00  0.45593999997E+02  0.45594000000E+02  0.51100000000E-03 0. -1.
         11   -1    0    0    0    0 -0.00000000000E+00 -0.00000000000E+00 -0.45593999997E+02  0.45594000000E+02  0.51100000000E-03 0.  1.
    9900012    2    1    2    0    0  0.83183356441E+01  0.41013745759E+01  0.30507451519E+02  0.59301943808E+02  0.49999999599E+02 0.  0.
        -12    1    1    2    0    0 -0.83183356441E+01 -0.41013745759E+01 -0.30507451519E+02  0.31886056192E+02  0.00000000000E+00 0.  1.
         11    1    3    3    0    0  0.44998608927E+01 -0.14037596965E+02  0.21598974635E+02  0.26149925089E+02  0.51100000000E-03 0. -1.
        -11    1    3    3    0    0 -0.76607435356E+01  0.22483596114E+01 -0.47220518063E+01  0.92757687542E+01  0.51100000000E-03 0.  1.
         12    1    3    3    0    0  0.11479218287E+02  0.15890611930E+02  0.13630528691E+02  0.23876249964E+02  0.00000000000E+00 0. -1.
</event>
<event>
 7    1  0.5755468E-013  0.5930193E+02  0.7816164E-02  0.1266605E+00
        -11   -1    0    0    0    0  0.00000000000E+00  0.00000000000E+00  0.45593999997E+02  0.45594000000E+02  0.51100000000E-03 0. -1.
         11   -1    0    0    0    0 -0.00000000000E+00 -0.00000000000E+00 -0.45593999997E+02  0.45594000000E+02  0.51100000000E-03 0.  1.
    9900012    2    1    2    0    0 -0.30640623004E+02  0.85630351658E+01 -0.21326037853E+01  0.59301931753E+02  0.49999977615E+02 0.  0.
        -12    1    1    2    0    0  0.30640623004E+02 -0.85630351658E+01  0.21326037853E+01  0.31886068247E+02  0.00000000000E+00 0.  1.
         11    1    3    3    0    0 -0.15092661571E+02  0.58319281886E+01 -0.23264699489E+02  0.28338067370E+02  0.51100000000E-03 0. -1.
        -11    1    3    3    0    0 -0.15841986044E+02 -0.12342112196E+01  0.21753973073E+02  0.26939323374E+02  0.51100000000E-03 0.  1.
         12    1    3    3    0    0  0.29402461116E+00  0.39653181968E+01 -0.62187736911E+00  0.40245410093E+01  0.00000000000E+00 0. -1.
</event>
<event>
 7    1  0.5755468E-013  0.5930195E+02  0.7816164E-02  0.1266605E+00
        -11   -1    0    0    0    0  0.00000000000E+00  0.00000000000E+00  0.45593999997E+02  0.45594000000E+02  0.51100000000E-03 0.  1.
         11   -1    0    0    0    0 -0.00000000000E+00 -0.00000000000E+00 -0.45593999997E+02  0.45594000000E+02  0.51100000000E-03 0. -1.
    9900012    2    1    2    0    0  0.31306516142E+02  0.60780068989E+00 -0.60210227170E+01  0.59301951496E+02  0.50000013620E+02 0.  0.
        -12    1    1    2    0    0 -0.31306516142E+02 -0.60780068989E+00  0.60210227170E+01  0.31886048504E+02  0.00000000000E+00 0.  1.
         11    1    3    3    0    0  0.18873959274E+02  0.56388133249E+01 -0.42969469889E+01  0.20161505601E+02  0.51100000000E-03 0. -1.
        -11    1    3    3    0    0 -0.58768945296E+01  0.63563841252E+01  0.11082030148E+02  0.14062464255E+02  0.51100000000E-03 0.  1.
        -12    1    3    3    0    0  0.18309451398E+02 -0.11387396760E+02 -0.12806105876E+02  0.25077981640E+02  0.00000000000E+00 0.  1.
</event>
<event>
 7    1  0.5755468E-013  0.5930194E+02  0.7816164E-02  0.1266605E+00
        -11   -1    0    0    0    0  0.00000000000E+00  0.00000000000E+00  0.45593999997E+02  0.45594000000E+02  0.51100000000E-03 0.  1.
         11   -1    0    0    0    0 -0.00000000000E+00 -0.00000000000E+00 -0.45593999997E+02  0.45594000000E+02  0.51100000000E-03 0. -1.
    9900012    2    1    2    0    0  0.91288344336E+01  0.14024261607E+01 -0.30519150164E+02  0.59301938092E+02  0.49999989175E+02 0.  0.
        -12    1    1    2    0    0 -0.91288344336E+01 -0.14024261607E+01  0.30519150164E+02  0.31886061908E+02  0.00000000000E+00 0.  1.
         11    1    3    3    0    0  0.28385361083E+01 -0.16620906559E+02 -0.26354916920E+02  0.31287273262E+02  0.51100000000E-03 0. -1.
        -11    1    3    3    0    0 -0.53669539600E+01  0.84381217686E+01  0.40999601572E+01  0.10808134314E+02  0.51100000000E-03 0.  1.
         12    1    3    3    0    0  0.11657252285E+02  0.95852109510E+01 -0.82641934019E+01  0.17206530516E+02  0.00000000000E+00 0. -1.
</event>
<event>
 7    1  0.5755468E-013  0.5930193E+02  0.7816164E-02  0.1266605E+00
        -11   -1    0    0    0    0  0.00000000000E+00  0.00000000000E+00  0.45593999997E+02  0.45594000000E+02  0.51100000000E-03 0.  1.
         11   -1    0    0    0    0 -0.00000000000E+00 -0.00000000000E+00 -0.45593999997E+02  0.45594000000E+02  0.51100000000E-03 0. -1.
    9900012    2    1    2    0    0  0.58226906704E+00  0.10338706257E+02 -0.30157808426E+02  0.59301932613E+02  0.49999979183E+02 0.  0.
        -12    1    1    2    0    0 -0.58226906704E+00 -0.10338706257E+02  0.30157808426E+02  0.31886067387E+02  0.00000000000E+00 0.  1.
         11    1    3    3    0    0  0.13946211928E+02  0.14861560380E+02 -0.25743274154E+02  0.32834112878E+02  0.51100000000E-03 0. -1.
        -11    1    3    3    0    0 -0.65634600320E+01 -0.12689180379E+02  0.13990014561E+01  0.14354494474E+02  0.51100000000E-03 0.  1.
         12    1    3    3    0    0 -0.68004828288E+01  0.81663262555E+01 -0.58135357283E+01  0.12113325261E+02  0.00000000000E+00 0. -1.
</event>
<event>
 7    1  0.5755468E-013  0.5930196E+02  0.7816164E-02  0.1266605E+00
        -11   -1    0    0    0    0  0.00000000000E+00  0.00000000000E+00  0.45593999997E+02  0.45594000000E+02  0.51100000000E-03 0.  1.
         11   -1    0    0    0    0 -0.00000000000E+00 -0.00000000000E+00 -0.45593999997E+02  0.45594000000E+02  0.51100000000E-03 0. -1.
    9900012    2    1    2    0    0 -0.54559024752E+01 -0.31403799846E+02  0.86852506852E+00  0.59301955209E+02  0.50000020393E+02 0.  0.
        -12    1    1    2    0    0  0.54559024752E+01  0.31403799846E+02 -0.86852506852E+00  0.31886044791E+02  0.00000000000E+00 0.  1.
         11    1    3    3    0    0  0.72850740387E+01 -0.14491687239E+02  0.13108130953E+02  0.20854361657E+02  0.51100000000E-03 0.  1.
        -11    1    3    3    0    0 -0.21173751439E+02 -0.10742988133E+02 -0.20147722104E+01  0.23828530198E+02  0.51100000000E-03 0. -1.
         12    1    3    3    0    0  0.84327749256E+01 -0.61691244733E+01 -0.10224833674E+02  0.14619063355E+02  0.00000000000E+00 0. -1.
</event>
<event>
 7    1  0.5755468E-013  0.5930194E+02  0.7816164E-02  0.1266605E+00
        -11   -1    0    0    0    0  0.00000000000E+00  0.00000000000E+00  0.45593999997E+02  0.45594000000E+02  0.51100000000E-03 0.  1.
         11   -1    0    0    0    0 -0.00000000000E+00 -0.00000000000E+00 -0.45593999997E+02  0.45594000000E+02  0.51100000000E-03 0. -1.
    9900012    2    1    2    0    0  0.42988729325E+01 -0.31387324170E+02 -0.36161334745E+01  0.59301939592E+02  0.49999991911E+02 0.  0.
        -12    1    1    2    0    0 -0.42988729325E+01  0.31387324170E+02  0.36161334745E+01  0.31886060408E+02  0.00000000000E+00 0.  1.
         11    1    3    3    0    0  0.26128946843E+01 -0.22362720433E+02  0.17653124841E+02  0.28610335558E+02  0.51100000000E-03 0. -1.
        -11    1    3    3    0    0  0.70068717552E+01  0.32053741679E+01 -0.34718930250E+01  0.84513145006E+01  0.51100000000E-03 0.  1.
         12    1    3    3    0    0 -0.53208935070E+01 -0.12229977904E+02 -0.17797365291E+02  0.22240289534E+02  0.00000000000E+00 0. -1.
</event>
<event>
 7    1  0.5755468E-013  0.5930196E+02  0.7816164E-02  0.1266605E+00
        -11   -1    0    0    0    0  0.00000000000E+00  0.00000000000E+00  0.45593999997E+02  0.45594000000E+02  0.51100000000E-03 0. -1.
         11   -1    0    0    0    0 -0.00000000000E+00 -0.00000000000E+00 -0.45593999997E+02  0.45594000000E+02  0.51100000000E-03 0.  1.
    9900012    2    1    2    0    0  0.20786354775E+02  0.24137632539E+02 -0.14219560127E+01  0.59301955901E+02  0.50000021653E+02 0.  0.
        -12    1    1    2    0    0 -0.20786354775E+02 -0.24137632539E+02  0.14219560127E+01  0.31886044099E+02  0.00000000000E+00 0.  1.
         11    1    3    3    0    0  0.19520912879E+02  0.12437728761E+02  0.12404144988E+02  0.26260730178E+02  0.51100000000E-03 0.  1.
        -11    1    3    3    0    0  0.79360041168E+01  0.13699054138E+02 -0.18729618239E+02  0.24524331698E+02  0.51100000000E-03 0. -1.
        -12    1    3    3    0    0 -0.66705622212E+01 -0.19991503593E+01  0.49035172383E+01  0.85168940238E+01  0.00000000000E+00 0.  1.
</event>
<event>
 7    1  0.5755468E-013  0.5930192E+02  0.7816164E-02  0.1266605E+00
        -11   -1    0    0    0    0  0.00000000000E+00  0.00000000000E+00  0.45593999997E+02  0.45594000000E+02  0.51100000000E-03 0.  1.
         11   -1    0    0    0    0 -0.00000000000E+00 -0.00000000000E+00 -0.45593999997E+02  0.45594000000E+02  0.51100000000E-03 0. -1.
    9900012    2    1    2    0    0  0.97932995722E+01 -0.46353198443E+01 -0.29988779409E+02  0.59301924716E+02  0.49999964780E+02 0.  0.
        -12    1    1    2    0    0 -0.97932995722E+01  0.46353198443E+01  0.29988779409E+02  0.31886075284E+02  0.00000000000E+00 0.  1.
         11    1    3    3    0    0 -0.54816491868E+01 -0.20683469041E+01 -0.34191081177E+02  0.34689430221E+02  0.51100000000E-03 0. -1.
        -11    1    3    3    0    0  0.64782846702E+01 -0.13945140793E+01  0.11400000334E+02  0.13186085457E+02  0.51100000000E-03 0.  1.
        -12    1    3    3    0    0  0.87966640888E+01 -0.11724588609E+01 -0.71976985657E+01  0.11426409038E+02  0.00000000000E+00 0.  1.
</event>
<event>
 7    1  0.5755468E-013  0.5930194E+02  0.7816164E-02  0.1266605E+00
        -11   -1    0    0    0    0  0.00000000000E+00  0.00000000000E+00  0.45593999997E+02  0.45594000000E+02  0.51100000000E-03 0. -1.
         11   -1    0    0    0    0 -0.00000000000E+00 -0.00000000000E+00 -0.45593999997E+02  0.45594000000E+02  0.51100000000E-03 0.  1.
    9900012    2    1    2    0    0  0.27857896974E+02  0.39605644696E+01  0.14999067670E+02  0.59301944651E+02  0.50000001137E+02 0.  0.
        -12    1    1    2    0    0 -0.27857896974E+02 -0.39605644696E+01 -0.14999067670E+02  0.31886055349E+02  0.00000000000E+00 0.  1.
         11    1    3    3    0    0  0.47957168281E+01  0.92627209249E+01  0.12738556397E+02  0.16464134298E+02  0.51100000000E-03 0. -1.
        -11    1    3    3    0    0  0.84442673080E+01 -0.59607943550E+01 -0.16239794489E+02  0.19250133636E+02  0.51100000000E-03 0.  1.
        -12    1    3    3    0    0  0.14617912838E+02  0.65863789965E+00  0.18500305762E+02  0.23587676717E+02  0.00000000000E+00 0.  1.
</event>
<event>
 7    1  0.5755468E-013  0.5930198E+02  0.7816164E-02  0.1266605E+00
        -11   -1    0    0    0    0  0.00000000000E+00  0.00000000000E+00  0.45593999997E+02  0.45594000000E+02  0.51100000000E-03 0. -1.
         11   -1    0    0    0    0 -0.00000000000E+00 -0.00000000000E+00 -0.45593999997E+02  0.45594000000E+02  0.51100000000E-03 0.  1.
    9900012    2    1    2    0    0  0.15184968647E+01  0.29854906212E+02  0.11094916252E+02  0.59301977603E+02  0.50000061233E+02 0.  0.
        -12    1    1    2    0    0 -0.15184968647E+01 -0.29854906212E+02 -0.11094916252E+02  0.31886022397E+02  0.00000000000E+00 0.  1.
         11    1    3    3    0    0  0.19181241759E+02  0.10634300214E+02  0.78645120136E+01  0.23299333165E+02  0.51100000000E-03 0. -1.
        -11    1    3    3    0    0 -0.58481212640E+01  0.13310609803E+02 -0.97316856631E+01  0.17495101079E+02  0.51100000000E-03 0.  1.
        -12    1    3    3    0    0 -0.11814623631E+02  0.59099961949E+01  0.12962089902E+02  0.18507543359E+02  0.00000000000E+00 0.  1.
</event>
<event>
 7    1  0.5755468E-013  0.5930197E+02  0.7816164E-02  0.1266605E+00
        -11   -1    0    0    0    0  0.00000000000E+00  0.00000000000E+00  0.45593999997E+02  0.45594000000E+02  0.51100000000E-03 0. -1.
         11   -1    0    0    0    0 -0.00000000000E+00 -0.00000000000E+00 -0.45593999997E+02  0.45594000000E+02  0.51100000000E-03 0.  1.
    9900012    2    1    2    0    0 -0.30928859461E+00 -0.10363025226E+02  0.30153454414E+02  0.59301972271E+02  0.50000051509E+02 0.  0.
        -12    1    1    2    0    0  0.30928859461E+00  0.10363025226E+02 -0.30153454414E+02  0.31886027729E+02  0.00000000000E+00 0.  1.
         11    1    3    3    0    0 -0.14926380307E+02 -0.15939964777E+02  0.27568971315E+02  0.35169979895E+02  0.51100000000E-03 0. -1.
        -11    1    3    3    0    0  0.12792237355E+02  0.99536322083E+01  0.69973383158E+01  0.17654429315E+02  0.51100000000E-03 0.  1.
        -12    1    3    3    0    0  0.18248543581E+01 -0.43766926568E+01 -0.44128552173E+01  0.64775630609E+01  0.00000000000E+00 0.  1.
</event>
<event>
 7    1  0.5755468E-013  0.5930198E+02  0.7816164E-02  0.1266605E+00
        -11   -1    0    0    0    0  0.00000000000E+00  0.00000000000E+00  0.45593999997E+02  0.45594000000E+02  0.51100000000E-03 0. -1.
         11   -1    0    0    0    0 -0.00000000000E+00 -0.00000000000E+00 -0.45593999997E+02  0.45594000000E+02  0.51100000000E-03 0.  1.
    9900012    2    1    2    0    0 -0.21647507681E+02  0.98919894041E+00  0.23390706447E+02  0.59301980313E+02  0.50000066176E+02 0.  0.
        -12    1    1    2    0    0  0.21647507681E+02 -0.98919894041E+00 -0.23390706447E+02  0.31886019687E+02  0.00000000000E+00 0.  1.
         11    1    3    3    0    0 -0.57697927386E+01  0.52550054015E+01  0.19218529170E+02  0.20742648185E+02  0.51100000000E-03 0. -1.
        -11    1    3    3    0    0 -0.14841232347E+02  0.78013412504E+01 -0.10307811465E+02  0.19681821062E+02  0.51100000000E-03 0.  1.
        -12    1    3    3    0    0 -0.10364825956E+01 -0.12067147711E+02  0.14479988742E+02  0.18877511066E+02  0.00000000000E+00 0.  1.
</event>
<event>
 7    1  0.5755468E-013  0.5930195E+02  0.7816164E-02  0.1266605E+00
        -11   -1    0    0    0    0  0.00000000000E+00  0.00000000000E+00  0.45593999997E+02  0.45594000000E+02  0.51100000000E-03 0.  1.
         11   -1    0    0    0    0 -0.00000000000E+00 -0.00000000000E+00 -0.45593999997E+02  0.45594000000E+02  0.51100000000E-03 0. -1.
    9900012    2    1    2    0    0 -0.63335630524E+01  0.19775898312E+01 -0.31188067878E+02  0.59301945675E+02  0.50000003004E+02 0.  0.
        -12    1    1    2    0    0  0.63335630524E+01 -0.19775898312E+01  0.31188067878E+02  0.31886054325E+02  0.00000000000E+00 0.  1.
         11    1    3    3    0    0  0.91240943268E+01 -0.39319202811E+00 -0.71750732549E+01  0.11614016262E+02  0.51100000000E-03 0. -1.
        -11    1    3    3    0    0 -0.20164806601E+02  0.16545148995E+02 -0.17393989642E+02  0.31351431489E+02  0.51100000000E-03 0.  1.
        -12    1    3    3    0    0  0.47071492216E+01 -0.14174367135E+02 -0.66190049804E+01  0.16336497924E+02  0.00000000000E+00 0.  1.
</event>
<event>
 7    1  0.5755468E-013  0.5930184E+02  0.7816164E-02  0.1266605E+00
        -11   -1    0    0    0    0  0.00000000000E+00  0.00000000000E+00  0.45593999997E+02  0.45594000000E+02  0.51100000000E-03 0. -1.
         11   -1    0    0    0    0 -0.00000000000E+00 -0.00000000000E+00 -0.45593999997E+02  0.45594000000E+02  0.51100000000E-03 0.  1.
    9900012    2    1    2    0    0 -0.11809386253E+02 -0.23366090520E+02  0.18201420817E+02  0.59301835138E+02  0.49999801410E+02 0.  0.
        -12    1    1    2    0    0  0.11809386253E+02  0.23366090520E+02 -0.18201420817E+02  0.31886164862E+02  0.00000000000E+00 0.  1.
         11    1    3    3    0    0 -0.99869629177E+01 -0.22822654823E+02 -0.83054607897E+00  0.24925946493E+02  0.51100000000E-03 0. -1.
        -11    1    3    3    0    0 -0.98896846204E+01  0.49322403637E+01  0.21626441763E+02  0.24286536198E+02  0.51100000000E-03 0.  1.
        -12    1    3    3    0    0  0.80672612855E+01 -0.54756760608E+01 -0.25944748668E+01  0.10089352447E+02  0.00000000000E+00 0.  1.
</event>
<event>
 7    1  0.5755468E-013  0.5930193E+02  0.7816164E-02  0.1266605E+00
        -11   -1    0    0    0    0  0.00000000000E+00  0.00000000000E+00  0.45593999997E+02  0.45594000000E+02  0.51100000000E-03 0.  1.
         11   -1    0    0    0    0 -0.00000000000E+00 -0.00000000000E+00 -0.45593999997E+02  0.45594000000E+02  0.51100000000E-03 0. -1.
    9900012    2    1    2    0    0 -0.30172895469E+02 -0.84111590823E+01 -0.59640909254E+01  0.59301927827E+02  0.49999970454E+02 0.  0.
        -12    1    1    2    0    0  0.30172895469E+02  0.84111590823E+01  0.59640909254E+01  0.31886072173E+02  0.00000000000E+00 0.  1.
         11    1    3    3    0    0 -0.15863312828E+02 -0.49998332471E+01 -0.24888375497E+02  0.29934499520E+02  0.51100000000E-03 0. -1.
        -11    1    3    3    0    0 -0.83692086900E+01  0.17769290958E+01  0.19665051303E+02  0.21445637647E+02  0.51100000000E-03 0.  1.
         12    1    3    3    0    0 -0.59403739506E+01 -0.51882549310E+01 -0.74076673083E+00  0.79217906594E+01  0.00000000000E+00 0. -1.
</event>
<event>
 7    1  0.5755468E-013  0.5930193E+02  0.7816164E-02  0.1266605E+00
        -11   -1    0    0    0    0  0.00000000000E+00  0.00000000000E+00  0.45593999997E+02  0.45594000000E+02  0.51100000000E-03 0. -1.
         11   -1    0    0    0    0 -0.00000000000E+00 -0.00000000000E+00 -0.45593999997E+02  0.45594000000E+02  0.51100000000E-03 0.  1.
    9900012    2    1    2    0    0 -0.11536458165E+02  0.73440497328E+01  0.28804453823E+02  0.59301929475E+02  0.49999973460E+02 0.  0.
        -12    1    1    2    0    0  0.11536458165E+02 -0.73440497328E+01 -0.28804453823E+02  0.31886070525E+02  0.00000000000E+00 0.  1.
         11    1    3    3    0    0  0.76541653831E+01 -0.79810027578E-01  0.12171701809E+01  0.77507496968E+01  0.51100000000E-03 0. -1.
        -11    1    3    3    0    0 -0.13365343860E+02  0.73948439397E+01  0.37254595568E+02  0.40264389037E+02  0.51100000000E-03 0.  1.
        -12    1    3    3    0    0 -0.58252796887E+01  0.29015820687E-01 -0.96673119254E+01  0.11286790741E+02  0.00000000000E+00 0.  1.
</event>
<event>
 7    1  0.5755468E-013  0.5930197E+02  0.7816164E-02  0.1266605E+00
        -11   -1    0    0    0    0  0.00000000000E+00  0.00000000000E+00  0.45593999997E+02  0.45594000000E+02  0.51100000000E-03 0.  1.
         11   -1    0    0    0    0 -0.00000000000E+00 -0.00000000000E+00 -0.45593999997E+02  0.45594000000E+02  0.51100000000E-03 0. -1.
    9900012    2    1    2    0    0 -0.88323508944E+01  0.34645075872E+01 -0.30441842621E+02  0.59301968305E+02  0.50000044275E+02 0.  0.
        -12    1    1    2    0    0  0.88323508944E+01 -0.34645075872E+01  0.30441842621E+02  0.31886031695E+02  0.00000000000E+00 0.  1.
         11    1    3    3    0    0 -0.47866761764E+01 -0.12858617513E+00 -0.34639610571E+02  0.34969006620E+02  0.51100000000E-03 0. -1.
        -11    1    3    3    0    0  0.36147865925E+01 -0.85706069770E+01 -0.18884122624E+00  0.93036362425E+01  0.51100000000E-03 0.  1.
         12    1    3    3    0    0 -0.76604613105E+01  0.12163700739E+02  0.43866091769E+01  0.15029325442E+02  0.00000000000E+00 0. -1.
</event>
<event>
 7    1  0.5755468E-013  0.5930202E+02  0.7816164E-02  0.1266604E+00
        -11   -1    0    0    0    0  0.00000000000E+00  0.00000000000E+00  0.45593999997E+02  0.45594000000E+02  0.51100000000E-03 0.  1.
         11   -1    0    0    0    0 -0.00000000000E+00 -0.00000000000E+00 -0.45593999997E+02  0.45594000000E+02  0.51100000000E-03 0. -1.
    9900012    2    1    2    0    0 -0.12971831229E+02  0.85903551766E+01 -0.27832587951E+02  0.59302022525E+02  0.50000143160E+02 0.  0.
        -12    1    1    2    0    0  0.12971831229E+02 -0.85903551766E+01  0.27832587951E+02  0.31885977475E+02  0.00000000000E+00 0.  1.
         11    1    3    3    0    0 -0.12878799004E+02  0.61957126895E+01 -0.27030754336E+02  0.30576330711E+02  0.51100000000E-03 0. -1.
        -11    1    3    3    0    0  0.10449079815E+02 -0.66225337909E+01  0.54392732038E+01  0.13513952643E+02  0.51100000000E-03 0.  1.
        -12    1    3    3    0    0 -0.10542112040E+02  0.90171762780E+01 -0.62411068180E+01  0.15211739171E+02  0.00000000000E+00 0.  1.
</event>
<event>
 7    1  0.5755468E-013  0.5930194E+02  0.7816164E-02  0.1266605E+00
        -11   -1    0    0    0    0  0.00000000000E+00  0.00000000000E+00  0.45593999997E+02  0.45594000000E+02  0.51100000000E-03 0. -1.
         11   -1    0    0    0    0 -0.00000000000E+00 -0.00000000000E+00 -0.45593999997E+02  0.45594000000E+02  0.51100000000E-03 0.  1.
    9900012    2    1    2    0    0  0.19508795801E+02 -0.23328880310E+02  0.95859969504E+01  0.59301935526E+02  0.49999984494E+02 0.  0.
        -12    1    1    2    0    0 -0.19508795801E+02  0.23328880310E+02 -0.95859969504E+01  0.31886064474E+02  0.00000000000E+00 0.  1.
         11    1    3    3    0    0  0.71015064932E+01 -0.10282258755E+02  0.90479415674E+01  0.15427944985E+02  0.51100000000E-03 0. -1.
        -11    1    3    3    0    0 -0.90342260701E+01 -0.17209351995E+02 -0.71627481978E+01  0.20714342828E+02  0.51100000000E-03 0.  1.
        -12    1    3    3    0    0  0.21441515378E+02  0.41627304401E+01  0.77008035808E+01  0.23159647713E+02  0.00000000000E+00 0.  1.
</event>
<event>
 7    1  0.5755468E-013  0.5930193E+02  0.7816164E-02  0.1266605E+00
        -11   -1    0    0    0    0  0.00000000000E+00  0.00000000000E+00  0.45593999997E+02  0.45594000000E+02  0.51100000000E-03 0.  1.
         11   -1    0    0    0    0 -0.00000000000E+00 -0.00000000000E+00 -0.45593999997E+02  0.45594000000E+02  0.51100000000E-03 0. -1.
    9900012    2    1    2    0    0 -0.20997607846E+02 -0.74256131263E+01 -0.22818458245E+02  0.59301932475E+02  0.49999978930E+02 0.  0.
        -12    1    1    2    0    0  0.20997607846E+02  0.74256131263E+01  0.22818458245E+02  0.31886067525E+02  0.00000000000E+00 0.  1.
         11    1    3    3    0    0  0.75880218726E+01 -0.69514699875E+01  0.10210065035E+02  0.14496428498E+02  0.51100000000E-03 0. -1.
        -11    1    3    3    0    0 -0.13275233408E+02 -0.10513171794E+01 -0.82268035231E+01  0.15653031218E+02  0.51100000000E-03 0.  1.
         12    1    3    3    0    0 -0.15310396311E+02  0.57717404068E+00 -0.24801719756E+02  0.29152472759E+02  0.00000000000E+00 0. -1.
</event>
<event>
 7    1  0.5755468E-013  0.5930194E+02  0.7816164E-02  0.1266605E+00
        -11   -1    0    0    0    0  0.00000000000E+00  0.00000000000E+00  0.45593999997E+02  0.45594000000E+02  0.51100000000E-03 0. -1.
         11   -1    0    0    0    0 -0.00000000000E+00 -0.00000000000E+00 -0.45593999997E+02  0.45594000000E+02  0.51100000000E-03 0.  1.
    9900012    2    1    2    0    0  0.27430768500E+01  0.17894678954E+02  0.26248361943E+02  0.59301944895E+02  0.50000001581E+02 0.  0.
        -12    1    1    2    0    0 -0.27430768500E+01 -0.17894678954E+02 -0.26248361943E+02  0.31886055105E+02  0.00000000000E+00 0.  1.
         11    1    3    3    0    0  0.29792556472E+01  0.89536112350E+01  0.10378877885E+02  0.14027267188E+02  0.51100000000E-03 0. -1.
        -11    1    3    3    0    0  0.15314220456E+02 -0.96947554918E+01  0.71551726846E+01  0.19486152228E+02  0.51100000000E-03 0.  1.
        -12    1    3    3    0    0 -0.15550399253E+02  0.18635823211E+02  0.87143113741E+01  0.25788525479E+02  0.00000000000E+00 0.  1.
</event>
<event>
 7    1  0.5755468E-013  0.5930190E+02  0.7816164E-02  0.1266605E+00
        -11   -1    0    0    0    0  0.00000000000E+00  0.00000000000E+00  0.45593999997E+02  0.45594000000E+02  0.51100000000E-03 0.  1.
         11   -1    0    0    0    0 -0.00000000000E+00 -0.00000000000E+00 -0.45593999997E+02  0.45594000000E+02  0.51100000000E-03 0. -1.
    9900012    2    1    2    0    0  0.26613840799E+02 -0.13850619421E+02 -0.10797551625E+02  0.59301901125E+02  0.49999921755E+02 0.  0.
        -12    1    1    2    0    0 -0.26613840799E+02  0.13850619421E+02  0.10797551625E+02  0.31886098875E+02  0.00000000000E+00 0.  1.
         11    1    3    3    0    0  0.19451051123E+02  0.37299098996E+01 -0.17685897393E+02  0.26552713318E+02  0.51100000000E-03 0. -1.
        -11    1    3    3    0    0 -0.83216049248E+01 -0.12534119742E+02  0.66813979148E+01  0.16461905861E+02  0.51100000000E-03 0.  1.
         12    1    3    3    0    0  0.15484394600E+02 -0.50464095783E+01  0.20694785368E+00  0.16287281946E+02  0.00000000000E+00 0. -1.
</event>
<event>
 7    1  0.5755468E-013  0.5930195E+02  0.7816164E-02  0.1266605E+00
        -11   -1    0    0    0    0  0.00000000000E+00  0.00000000000E+00  0.45593999997E+02  0.45594000000E+02  0.51100000000E-03 0. -1.
         11   -1    0    0    0    0 -0.00000000000E+00 -0.00000000000E+00 -0.45593999997E+02  0.45594000000E+02  0.51100000000E-03 0.  1.
    9900012    2    1    2    0    0 -0.50730962571E+01  0.30249899243E+02  0.87136490487E+01  0.59301946786E+02  0.50000005030E+02 0.  0.
        -12    1    1    2    0    0  0.50730962571E+01 -0.30249899243E+02 -0.87136490487E+01  0.31886053214E+02  0.00000000000E+00 0.  1.
         11    1    3    3    0    0  0.55629852667E+01  0.30897048722E+02  0.21240841693E+02  0.37904455950E+02  0.51100000000E-03 0. -1.
        -11    1    3    3    0    0 -0.11286329875E+02  0.43810208075E+01 -0.74127009176E+01  0.14195869840E+02  0.51100000000E-03 0.  1.
         12    1    3    3    0    0  0.65024835112E+00 -0.50281702865E+01 -0.51144917265E+01  0.72016209959E+01  0.00000000000E+00 0. -1.
</event>
<event>
 7    1  0.5755468E-013  0.5930195E+02  0.7816164E-02  0.1266605E+00
        -11   -1    0    0    0    0  0.00000000000E+00  0.00000000000E+00  0.45593999997E+02  0.45594000000E+02  0.51100000000E-03 0. -1.
         11   -1    0    0    0    0 -0.00000000000E+00 -0.00000000000E+00 -0.45593999997E+02  0.45594000000E+02  0.51100000000E-03 0.  1.
    9900012    2    1    2    0    0 -0.31819855191E+02  0.14694430875E+01  0.14344544623E+01  0.59301951218E+02  0.50000013113E+02 0.  0.
        -12    1    1    2    0    0  0.31819855191E+02 -0.14694430875E+01 -0.14344544623E+01  0.31886048782E+02  0.00000000000E+00 0.  1.
         11    1    3    3    0    0 -0.26888282615E+02  0.15477775923E+02 -0.11237607170E+02  0.32997349964E+02  0.51100000000E-03 0. -1.
        -11    1    3    3    0    0 -0.66107297915E+01 -0.92081470366E+01 -0.13247690432E+01  0.11412569102E+02  0.51100000000E-03 0.  1.
         12    1    3    3    0    0  0.16791572155E+01 -0.48001857986E+01  0.13996830676E+02  0.14892032152E+02  0.00000000000E+00 0. -1.
</event>
<event>
 7    1  0.5755468E-013  0.5930193E+02  0.7816164E-02  0.1266605E+00
        -11   -1    0    0    0    0  0.00000000000E+00  0.00000000000E+00  0.45593999997E+02  0.45594000000E+02  0.51100000000E-03 0. -1.
         11   -1    0    0    0    0 -0.00000000000E+00 -0.00000000000E+00 -0.45593999997E+02  0.45594000000E+02  0.51100000000E-03 0.  1.
    9900012    2    1    2    0    0  0.27136100009E+02  0.15214656508E+02 -0.69905460131E+01  0.59301930472E+02  0.49999975278E+02 0.  0.
        -12    1    1    2    0    0 -0.27136100009E+02 -0.15214656508E+02  0.69905460131E+01  0.31886069528E+02  0.00000000000E+00 0.  1.
         11    1    3    3    0    0  0.36656373930E+02  0.13113356832E+01 -0.13572045494E+02  0.39110225903E+02  0.51100000000E-03 0. -1.
        -11    1    3    3    0    0 -0.95090516435E+01  0.62602358355E+01  0.31420907064E+01  0.11810391617E+02  0.51100000000E-03 0.  1.
         12    1    3    3    0    0 -0.11222278122E-01  0.76430849896E+01  0.34394087744E+01  0.83813129529E+01  0.00000000000E+00 0. -1.
</event>
<event>
 7    1  0.5755468E-013  0.5930194E+02  0.7816164E-02  0.1266605E+00
        -11   -1    0    0    0    0  0.00000000000E+00  0.00000000000E+00  0.45593999997E+02  0.45594000000E+02  0.51100000000E-03 0.  1.
         11   -1    0    0    0    0 -0.00000000000E+00 -0.00000000000E+00 -0.45593999997E+02  0.45594000000E+02  0.51100000000E-03 0. -1.
    9900012    2    1    2    0    0  0.31098539493E+02  0.68133372765E+01 -0.17833192958E+01  0.59301937980E+02  0.49999988971E+02 0.  0.
        -12    1    1    2    0    0 -0.31098539493E+02 -0.68133372765E+01  0.17833192958E+01  0.31886062020E+02  0.00000000000E+00 0.  1.
         11    1    3    3    0    0  0.32663901202E+02  0.77660346087E+01  0.46652742099E+01  0.33896998672E+02  0.51100000000E-03 0. -1.
        -11    1    3    3    0    0 -0.10821148976E+01 -0.12717601383E+02 -0.26814974508E+01  0.13042192547E+02  0.51100000000E-03 0.  1.
         12    1    3    3    0    0 -0.48324681171E+00  0.11764904051E+02 -0.37670960548E+01  0.12362746761E+02  0.00000000000E+00 0. -1.
</event>
<event>
 7    1  0.5755468E-013  0.5930194E+02  0.7816164E-02  0.1266605E+00
        -11   -1    0    0    0    0  0.00000000000E+00  0.00000000000E+00  0.45593999997E+02  0.45594000000E+02  0.51100000000E-03 0.  1.
         11   -1    0    0    0    0 -0.00000000000E+00 -0.00000000000E+00 -0.45593999997E+02  0.45594000000E+02  0.51100000000E-03 0. -1.
    9900012    2    1    2    0    0  0.69778006898E+01 -0.64337051852E+01 -0.30440738220E+02  0.59301940220E+02  0.49999993056E+02 0.  0.
        -12    1    1    2    0    0 -0.69778006898E+01  0.64337051852E+01  0.30440738220E+02  0.31886059780E+02  0.00000000000E+00 0.  1.
         11    1    3    3    0    0 -0.60159183968E+01  0.45536024295E+01 -0.30567117828E+02  0.31484524164E+02  0.51100000000E-03 0. -1.
        -11    1    3    3    0    0  0.13819494400E+01 -0.14310800866E+02  0.43518759450E+01  0.15021572160E+02  0.51100000000E-03 0.  1.
        -12    1    3    3    0    0  0.11611769647E+02  0.33234932510E+01 -0.42254963373E+01  0.12795843896E+02  0.00000000000E+00 0.  1.
</event>
<event>
 7    1  0.5755468E-013  0.5930194E+02  0.7816164E-02  0.1266605E+00
        -11   -1    0    0    0    0  0.00000000000E+00  0.00000000000E+00  0.45593999997E+02  0.45594000000E+02  0.51100000000E-03 0. -1.
         11   -1    0    0    0    0 -0.00000000000E+00 -0.00000000000E+00 -0.45593999997E+02  0.45594000000E+02  0.51100000000E-03 0.  1.
    9900012    2    1    2    0    0 -0.27953524488E+02  0.12824033259E+02  0.84181496309E+01  0.59301943431E+02  0.49999998911E+02 0.  0.
        -12    1    1    2    0    0  0.27953524488E+02 -0.12824033259E+02 -0.84181496309E+01  0.31886056569E+02  0.00000000000E+00 0.  1.
         11    1    3    3    0    0 -0.11413872976E+01 -0.47086994142E+01  0.39728074124E+01  0.62656056478E+01  0.51100000000E-03 0. -1.
        -11    1    3    3    0    0  0.29293179931E+01  0.18149955509E+02 -0.89075522212E+01  0.20429054695E+02  0.51100000000E-03 0.  1.
        -12    1    3    3    0    0 -0.29741455184E+02 -0.61722283605E+00  0.13352894440E+02  0.32607283088E+02  0.00000000000E+00 0.  1.
</event>
<event>
 7    1  0.5755468E-013  0.5930194E+02  0.7816164E-02  0.1266605E+00
        -11   -1    0    0    0    0  0.00000000000E+00  0.00000000000E+00  0.45593999997E+02  0.45594000000E+02  0.51100000000E-03 0. -1.
         11   -1    0    0    0    0 -0.00000000000E+00 -0.00000000000E+00 -0.45593999997E+02  0.45594000000E+02  0.51100000000E-03 0.  1.
    9900012    2    1    2    0    0  0.92696272710E+01 -0.30360576011E+02 -0.30050676290E+01  0.59301937262E+02  0.49999987661E+02 0.  0.
        -12    1    1    2    0    0 -0.92696272710E+01  0.30360576011E+02  0.30050676290E+01  0.31886062738E+02  0.00000000000E+00 0.  1.
         11    1    3    3    0    0  0.31913482620E+01 -0.53990129228E+01  0.21134460735E+01  0.66182096398E+01  0.51100000000E-03 0. -1.
        -11    1    3    3    0    0  0.60424513133E+00  0.10791767995E+02 -0.11690534911E+02  0.15921556940E+02  0.51100000000E-03 0.  1.
        -12    1    3    3    0    0  0.54740338776E+01 -0.35753331084E+02  0.65720212082E+01  0.36762170682E+02  0.00000000000E+00 0.  1.
</event>
<event>
 7    1  0.5755468E-013  0.5930192E+02  0.7816164E-02  0.1266605E+00
        -11   -1    0    0    0    0  0.00000000000E+00  0.00000000000E+00  0.45593999997E+02  0.45594000000E+02  0.51100000000E-03 0.  1.
         11   -1    0    0    0    0 -0.00000000000E+00 -0.00000000000E+00 -0.45593999997E+02  0.45594000000E+02  0.51100000000E-03 0. -1.
    9900012    2    1    2    0    0  0.12400407137E+02 -0.28561724889E+02 -0.68687513779E+01  0.59301921983E+02  0.49999959796E+02 0.  0.
        -12    1    1    2    0    0 -0.12400407137E+02  0.28561724889E+02  0.68687513779E+01  0.31886078017E+02  0.00000000000E+00 0.  1.
         11    1    3    3    0    0  0.15586870548E+02 -0.61301522915E+01 -0.70943401763E+01  0.18189528949E+02  0.51100000000E-03 0. -1.
        -11    1    3    3    0    0 -0.36781391478E+01 -0.20454689439E+01  0.15226307048E+02  0.15797249044E+02  0.51100000000E-03 0.  1.
        -12    1    3    3    0    0  0.49167573665E+00 -0.20386103654E+02 -0.15000718249E+02  0.25315143990E+02  0.00000000000E+00 0.  1.
</event>
<event>
 7    1  0.5755468E-013  0.5930181E+02  0.7816164E-02  0.1266605E+00
        -11   -1    0    0    0    0  0.00000000000E+00  0.00000000000E+00  0.45593999997E+02  0.45594000000E+02  0.51100000000E-03 0.  1.
         11   -1    0    0    0    0 -0.00000000000E+00 -0.00000000000E+00 -0.45593999997E+02  0.45594000000E+02  0.51100000000E-03 0. -1.
    9900012    2    1    2    0    0 -0.75258140121E+01 -0.30935611431E+02 -0.17546989965E+01  0.59301813340E+02  0.49999761657E+02 0.  0.
        -12    1    1    2    0    0  0.75258140121E+01  0.30935611431E+02  0.17546989965E+01  0.31886186660E+02  0.00000000000E+00 0.  1.
         11    1    3    3    0    0 -0.37668073394E+01 -0.87856210251E+01 -0.78540168342E+01  0.12371804841E+02  0.51100000000E-03 0. -1.
        -11    1    3    3    0    0 -0.28710144897E+00  0.12098983725E+02  0.18909461738E+01  0.12249224959E+02  0.51100000000E-03 0.  1.
        -12    1    3    3    0    0 -0.34719052238E+01 -0.34248974130E+02  0.42083716639E+01  0.34680783540E+02  0.00000000000E+00 0.  1.
</event>
<event>
 7    1  0.5755468E-013  0.5930194E+02  0.7816164E-02  0.1266605E+00
        -11   -1    0    0    0    0  0.00000000000E+00  0.00000000000E+00  0.45593999997E+02  0.45594000000E+02  0.51100000000E-03 0. -1.
         11   -1    0    0    0    0 -0.00000000000E+00 -0.00000000000E+00 -0.45593999997E+02  0.45594000000E+02  0.51100000000E-03 0.  1.
    9900012    2    1    2    0    0  0.26581359204E+02 -0.35932519499E+01  0.17240661283E+02  0.59301944769E+02  0.50000001352E+02 0.  0.
        -12    1    1    2    0    0 -0.26581359204E+02  0.35932519499E+01 -0.17240661283E+02  0.31886055231E+02  0.00000000000E+00 0.  1.
         11    1    3    3    0    0  0.80499281377E+01  0.70905505054E+01 -0.22720576503E+01  0.10965377135E+02  0.51100000000E-03 0. -1.
        -11    1    3    3    0    0  0.30106900148E+02 -0.12138273351E+02  0.15730435439E+02  0.36072284594E+02  0.51100000000E-03 0.  1.
        -12    1    3    3    0    0 -0.11575469081E+02  0.14544708962E+01  0.37822834945E+01  0.12264283039E+02  0.00000000000E+00 0.  1.
</event>
<event>
 7    1  0.5755468E-013  0.5930193E+02  0.7816164E-02  0.1266605E+00
        -11   -1    0    0    0    0  0.00000000000E+00  0.00000000000E+00  0.45593999997E+02  0.45594000000E+02  0.51100000000E-03 0.  1.
         11   -1    0    0    0    0 -0.00000000000E+00 -0.00000000000E+00 -0.45593999997E+02  0.45594000000E+02  0.51100000000E-03 0. -1.
    9900012    2    1    2    0    0 -0.26444631326E+02  0.14036480645E+02 -0.10971798332E+02  0.59301926653E+02  0.49999968313E+02 0.  0.
        -12    1    1    2    0    0  0.26444631326E+02 -0.14036480645E+02  0.10971798332E+02  0.31886073347E+02  0.00000000000E+00 0.  1.
         11    1    3    3    0    0 -0.24128745310E+02 -0.91536622089E+01  0.78767922076E+01  0.26982026199E+02  0.51100000000E-03 0. -1.
        -11    1    3    3    0    0  0.47916247021E+01  0.12765546016E+02 -0.95698748203E+01  0.16658371371E+02  0.51100000000E-03 0.  1.
         12    1    3    3    0    0 -0.71075107180E+01  0.10424596837E+02 -0.92787157191E+01  0.15661529083E+02  0.00000000000E+00 0. -1.
</event>
<event>
 7    1  0.5755468E-013  0.5930203E+02  0.7816164E-02  0.1266604E+00
        -11   -1    0    0    0    0  0.00000000000E+00  0.00000000000E+00  0.45593999997E+02  0.45594000000E+02  0.51100000000E-03 0.  1.
         11   -1    0    0    0    0 -0.00000000000E+00 -0.00000000000E+00 -0.45593999997E+02  0.45594000000E+02  0.51100000000E-03 0. -1.
    9900012    2    1    2    0    0  0.86336305069E+01 -0.22937349250E+02 -0.20397396455E+02  0.59302025835E+02  0.50000149196E+02 0.  0.
        -12    1    1    2    0    0 -0.86336305069E+01  0.22937349250E+02  0.20397396455E+02  0.31885974165E+02  0.00000000000E+00 0.  1.
         11    1    3    3    0    0 -0.31173998907E+01  0.12817830415E+00  0.75184876883E+00  0.32093439498E+01  0.51100000000E-03 0. -1.
        -11    1    3    3    0    0  0.25336436139E+02 -0.22983127274E+02 -0.24528777974E+02  0.42092993296E+02  0.51100000000E-03 0.  1.
        -12    1    3    3    0    0 -0.13585405741E+02 -0.82400280469E-01  0.33795327504E+01  0.13999688588E+02  0.00000000000E+00 0.  1.
</event>
<event>
 7    1  0.5755468E-013  0.5930196E+02  0.7816164E-02  0.1266605E+00
        -11   -1    0    0    0    0  0.00000000000E+00  0.00000000000E+00  0.45593999997E+02  0.45594000000E+02  0.51100000000E-03 0.  1.
         11   -1    0    0    0    0 -0.00000000000E+00 -0.00000000000E+00 -0.45593999997E+02  0.45594000000E+02  0.51100000000E-03 0. -1.
    9900012    2    1    2    0    0  0.31557719112E+02 -0.42628563969E+01  0.16303548346E+01  0.59301958586E+02  0.50000026550E+02 0.  0.
        -12    1    1    2    0    0 -0.31557719112E+02  0.42628563969E+01 -0.16303548346E+01  0.31886041414E+02  0.00000000000E+00 0.  1.
         11    1    3    3    0    0  0.15638843936E+02  0.20649421421E+02 -0.57753597644E+01  0.26539156455E+02  0.51100000000E-03 0. -1.
        -11    1    3    3    0    0  0.10270731445E+02 -0.99056813919E+01  0.86398589435E+01  0.16681055455E+02  0.51100000000E-03 0.  1.
         12    1    3    3    0    0  0.56481437305E+01 -0.15006596426E+02 -0.12341443445E+01  0.16081746676E+02  0.00000000000E+00 0. -1.
</event>
<event>
 7    1  0.6746202E-013  0.5930227E+02  0.7816164E-02  0.1266604E+00
        -11   -1    0    0    0    0  0.00000000000E+00  0.00000000000E+00  0.45593999997E+02  0.45594000000E+02  0.51100000000E-03 0.  1.
         11   -1    0    0    0    0 -0.00000000000E+00 -0.00000000000E+00 -0.45593999997E+02  0.45594000000E+02  0.51100000000E-03 0. -1.
    9900012    2    1    2    0    0  0.55946403519E+01  0.31279947340E+02 -0.26390347064E+01  0.59302272622E+02  0.50000599274E+02 0.  0.
        -12    1    1    2    0    0 -0.55946403519E+01 -0.31279947340E+02  0.26390347064E+01  0.31885727378E+02  0.00000000000E+00 0.  1.
         11    1    3    3    0    0  0.11233866253E+02  0.38498479794E+02 -0.26273411522E+01  0.40189994019E+02  0.51100000000E-03 0. -1.
        -11    1    3    3    0    0  0.16754948033E+01 -0.87272510490E+01  0.49244082940E+01  0.10159822391E+02  0.51100000000E-03 0.  1.
         12    1    3    3    0    0 -0.73147207043E+01  0.15087185947E+01 -0.49361018482E+01  0.89524562125E+01  0.00000000000E+00 0. -1.
</event>
<event>
 7    1  0.5755468E-013  0.5930193E+02  0.7816164E-02  0.1266605E+00
        -11   -1    0    0    0    0  0.00000000000E+00  0.00000000000E+00  0.45593999997E+02  0.45594000000E+02  0.51100000000E-03 0.  1.
         11   -1    0    0    0    0 -0.00000000000E+00 -0.00000000000E+00 -0.45593999997E+02  0.45594000000E+02  0.51100000000E-03 0. -1.
    9900012    2    1    2    0    0 -0.11259371425E+02  0.21765030677E+02 -0.20401751283E+02  0.59301929990E+02  0.49999974399E+02 0.  0.
        -12    1    1    2    0    0  0.11259371425E+02 -0.21765030677E+02  0.20401751283E+02  0.31886070010E+02  0.00000000000E+00 0.  1.
         11    1    3    3    0    0  0.34026589984E+01  0.57856387137E+01 -0.67370271848E+01  0.95099547389E+01  0.51100000000E-03 0. -1.
        -11    1    3    3    0    0 -0.21492792290E+02  0.21526759463E+02  0.33831879451E+01  0.30606983751E+02  0.51100000000E-03 0.  1.
        -12    1    3    3    0    0  0.68307618665E+01 -0.55473674995E+01 -0.17047912043E+02  0.19184991500E+02  0.00000000000E+00 0.  1.
</event>
<event>
 7    1  0.5755468E-013  0.5930197E+02  0.7816164E-02  0.1266605E+00
        -11   -1    0    0    0    0  0.00000000000E+00  0.00000000000E+00  0.45593999997E+02  0.45594000000E+02  0.51100000000E-03 0.  1.
         11   -1    0    0    0    0 -0.00000000000E+00 -0.00000000000E+00 -0.45593999997E+02  0.45594000000E+02  0.51100000000E-03 0. -1.
    9900012    2    1    2    0    0 -0.49109806051E+01  0.24219931666E+02 -0.20149345358E+02  0.59301969536E+02  0.50000046520E+02 0.  0.
        -12    1    1    2    0    0  0.49109806051E+01 -0.24219931666E+02  0.20149345358E+02  0.31886030464E+02  0.00000000000E+00 0.  1.
         11    1    3    3    0    0 -0.12364227532E+02  0.12525517873E+02  0.27211413952E+01  0.17809192323E+02  0.51100000000E-03 0. -1.
        -11    1    3    3    0    0  0.22089381571E+01 -0.10939925142E+02 -0.96917040080E+01  0.14781424043E+02  0.51100000000E-03 0.  1.
        -12    1    3    3    0    0  0.52443087697E+01  0.22634338935E+02 -0.13178782745E+02  0.26711353169E+02  0.00000000000E+00 0.  1.
</event>
<event>
 7    1  0.5755468E-013  0.5930194E+02  0.7816164E-02  0.1266605E+00
        -11   -1    0    0    0    0  0.00000000000E+00  0.00000000000E+00  0.45593999997E+02  0.45594000000E+02  0.51100000000E-03 0. -1.
         11   -1    0    0    0    0 -0.00000000000E+00 -0.00000000000E+00 -0.45593999997E+02  0.45594000000E+02  0.51100000000E-03 0.  1.
    9900012    2    1    2    0    0  0.13513176161E+01  0.94558353825E+01  0.30421735328E+02  0.59301939370E+02  0.49999991506E+02 0.  0.
        -12    1    1    2    0    0 -0.13513176161E+01 -0.94558353825E+01 -0.30421735328E+02  0.31886060630E+02  0.00000000000E+00 0.  1.
         11    1    3    3    0    0 -0.15012417639E+02 -0.44747707477E+01  0.57726674444E+01  0.16694907795E+02  0.51100000000E-03 0. -1.
        -11    1    3    3    0    0  0.15035825388E+01  0.61916195100E+01  0.25050033271E+02  0.25847651339E+02  0.51100000000E-03 0.  1.
        -12    1    3    3    0    0  0.14860152716E+02  0.77389866202E+01 -0.40096538698E+00  0.16759380236E+02  0.00000000000E+00 0.  1.
</event>
<event>
 7    1  0.5755468E-013  0.5930190E+02  0.7816164E-02  0.1266605E+00
        -11   -1    0    0    0    0  0.00000000000E+00  0.00000000000E+00  0.45593999997E+02  0.45594000000E+02  0.51100000000E-03 0.  1.
         11   -1    0    0    0    0 -0.00000000000E+00 -0.00000000000E+00 -0.45593999997E+02  0.45594000000E+02  0.51100000000E-03 0. -1.
    9900012    2    1    2    0    0 -0.13970566149E+02 -0.92323410754E+01 -0.27135037208E+02  0.59301904527E+02  0.49999927960E+02 0.  0.
        -12    1    1    2    0    0  0.13970566149E+02  0.92323410754E+01  0.27135037208E+02  0.31886095473E+02  0.00000000000E+00 0.  1.
         11    1    3    3    0    0 -0.15948688323E+02 -0.19008965448E+02 -0.25266309595E+01  0.24941637695E+02  0.51100000000E-03 0. -1.
        -11    1    3    3    0    0  0.42291673132E+01  0.15564451763E+02 -0.11357767515E+02  0.19726553121E+02  0.51100000000E-03 0.  1.
         12    1    3    3    0    0 -0.22510451386E+01 -0.57878273909E+01 -0.13250638733E+02  0.14633713711E+02  0.00000000000E+00 0. -1.
</event>
<event>
 7    1  0.5755468E-013  0.5930195E+02  0.7816164E-02  0.1266605E+00
        -11   -1    0    0    0    0  0.00000000000E+00  0.00000000000E+00  0.45593999997E+02  0.45594000000E+02  0.51100000000E-03 0. -1.
         11   -1    0    0    0    0 -0.00000000000E+00 -0.00000000000E+00 -0.45593999997E+02  0.45594000000E+02  0.51100000000E-03 0.  1.
    9900012    2    1    2    0    0 -0.11585465325E+02 -0.29402410688E+02  0.42421061462E+01  0.59301949357E+02  0.50000009719E+02 0.  0.
        -12    1    1    2    0    0  0.11585465325E+02  0.29402410688E+02 -0.42421061462E+01  0.31886050643E+02  0.00000000000E+00 0.  1.
         11    1    3    3    0    0 -0.57847495391E+01  0.30849532455E+01  0.42774437331E+01  0.78279492147E+01  0.51100000000E-03 0. -1.
        -11    1    3    3    0    0  0.14042013403E+02 -0.26579281531E+02 -0.42093417208E+01  0.30353828508E+02  0.51100000000E-03 0.  1.
        -12    1    3    3    0    0 -0.19842729189E+02 -0.59080824021E+01  0.41740041338E+01  0.21120171634E+02  0.00000000000E+00 0.  1.
</event>
<event>
 7    1  0.5755468E-013  0.5930200E+02  0.7816164E-02  0.1266605E+00
        -11   -1    0    0    0    0  0.00000000000E+00  0.00000000000E+00  0.45593999997E+02  0.45594000000E+02  0.51100000000E-03 0. -1.
         11   -1    0    0    0    0 -0.00000000000E+00 -0.00000000000E+00 -0.45593999997E+02  0.45594000000E+02  0.51100000000E-03 0.  1.
    9900012    2    1    2    0    0  0.24317551263E+02  0.20615600720E+02  0.60864159590E+00  0.59302004060E+02  0.50000109485E+02 0.  0.
        -12    1    1    2    0    0 -0.24317551263E+02 -0.20615600720E+02 -0.60864159590E+00  0.31885995940E+02  0.00000000000E+00 0.  1.
         11    1    3    3    0    0 -0.14983586082E+01  0.23035920877E+02 -0.42992662072E+01  0.23481533582E+02  0.51100000000E-03 0. -1.
        -11    1    3    3    0    0  0.18940502563E+02 -0.89247417179E+01 -0.56047083563E+01  0.21675018064E+02  0.51100000000E-03 0.  1.
         12    1    3    3    0    0  0.68754073087E+01  0.65044215607E+01  0.10512616159E+02  0.14145452415E+02  0.00000000000E+00 0. -1.
</event>
<event>
 7    1  0.5755468E-013  0.5930196E+02  0.7816164E-02  0.1266605E+00
        -11   -1    0    0    0    0  0.00000000000E+00  0.00000000000E+00  0.45593999997E+02  0.45594000000E+02  0.51100000000E-03 0. -1.
         11   -1    0    0    0    0 -0.00000000000E+00 -0.00000000000E+00 -0.45593999997E+02  0.45594000000E+02  0.51100000000E-03 0.  1.
    9900012    2    1    2    0    0 -0.20290832216E+01 -0.35882520583E+01  0.31618458254E+02  0.59301958635E+02  0.50000026640E+02 0.  0.
        -12    1    1    2    0    0  0.20290832216E+01  0.35882520583E+01 -0.31618458254E+02  0.31886041365E+02  0.00000000000E+00 0.  1.
         11    1    3    3    0    0  0.60883140530E+01  0.88687137935E+01  0.22377930317E+02  0.24829285489E+02  0.51100000000E-03 0. -1.
        -11    1    3    3    0    0 -0.12246204658E+02 -0.16341760165E+02 -0.33226133574E+01  0.20689669248E+02  0.51100000000E-03 0.  1.
        -12    1    3    3    0    0  0.41288073836E+01  0.38847943130E+01  0.12563141294E+02  0.13783003898E+02  0.00000000000E+00 0.  1.
</event>
<event>
 7    1  0.5755468E-013  0.5930194E+02  0.7816164E-02  0.1266605E+00
        -11   -1    0    0    0    0  0.00000000000E+00  0.00000000000E+00  0.45593999997E+02  0.45594000000E+02  0.51100000000E-03 0.  1.
         11   -1    0    0    0    0 -0.00000000000E+00 -0.00000000000E+00 -0.45593999997E+02  0.45594000000E+02  0.51100000000E-03 0. -1.
    9900012    2    1    2    0    0  0.45398314750E+00  0.11518327253E+02 -0.29729495908E+02  0.59301938934E+02  0.49999990710E+02 0.  0.
        -12    1    1    2    0    0 -0.45398314750E+00 -0.11518327253E+02  0.29729495908E+02  0.31886061066E+02  0.00000000000E+00 0.  1.
         11    1    3    3    0    0 -0.24310202935E+01 -0.88003767893E+01 -0.15523151130E+02  0.18009017534E+02  0.51100000000E-03 0. -1.
        -11    1    3    3    0    0  0.16789114488E+02  0.18037404494E+02 -0.99401093141E+01  0.26571189277E+02  0.51100000000E-03 0.  1.
        -12    1    3    3    0    0 -0.13904111047E+02  0.22812995482E+01 -0.42662354638E+01  0.14721732122E+02  0.00000000000E+00 0.  1.
</event>
<event>
 7    1  0.5755468E-013  0.5930194E+02  0.7816164E-02  0.1266605E+00
        -11   -1    0    0    0    0  0.00000000000E+00  0.00000000000E+00  0.45593999997E+02  0.45594000000E+02  0.51100000000E-03 0. -1.
         11   -1    0    0    0    0 -0.00000000000E+00 -0.00000000000E+00 -0.45593999997E+02  0.45594000000E+02  0.51100000000E-03 0.  1.
    9900012    2    1    2    0    0  0.23293507565E+02  0.13769823524E+02  0.16867883639E+02  0.59301936696E+02  0.49999986628E+02 0.  0.
        -12    1    1    2    0    0 -0.23293507565E+02 -0.13769823524E+02 -0.16867883639E+02  0.31886063304E+02  0.00000000000E+00 0.  1.
         11    1    3    3    0    0  0.17048290042E+02  0.14676562685E+02  0.17698674774E+02  0.28623220899E+02  0.51100000000E-03 0. -1.
        -11    1    3    3    0    0 -0.47814606000E+01 -0.11004686295E+02  0.69057253342E+01  0.13843934722E+02  0.51100000000E-03 0.  1.
        -12    1    3    3    0    0  0.11026678124E+02  0.10097947134E+02 -0.77365164697E+01  0.16834781076E+02  0.00000000000E+00 0.  1.
</event>
<event>
 7    1  0.5755468E-013  0.5930191E+02  0.7816164E-02  0.1266605E+00
        -11   -1    0    0    0    0  0.00000000000E+00  0.00000000000E+00  0.45593999997E+02  0.45594000000E+02  0.51100000000E-03 0.  1.
         11   -1    0    0    0    0 -0.00000000000E+00 -0.00000000000E+00 -0.45593999997E+02  0.45594000000E+02  0.51100000000E-03 0. -1.
    9900012    2    1    2    0    0  0.24351417639E+02 -0.18993400196E+02 -0.79361260841E+01  0.59301907589E+02  0.49999933545E+02 0.  0.
        -12    1    1    2    0    0 -0.24351417639E+02  0.18993400196E+02  0.79361260841E+01  0.31886092411E+02  0.00000000000E+00 0.  1.
         11    1    3    3    0    0  0.15572031118E+01  0.93577963225E+01  0.11013585571E+01  0.95501949968E+01  0.51100000000E-03 0.  1.
        -11    1    3    3    0    0  0.65647922101E+01 -0.20399193020E+02 -0.19410555720E+02  0.28913547798E+02  0.51100000000E-03 0. -1.
        -12    1    3    3    0    0  0.16229422317E+02 -0.79520034979E+01  0.10373071079E+02  0.20838164794E+02  0.00000000000E+00 0.  1.
</event>
<event>
 7    1  0.5755468E-013  0.5930195E+02  0.7816164E-02  0.1266605E+00
        -11   -1    0    0    0    0  0.00000000000E+00  0.00000000000E+00  0.45593999997E+02  0.45594000000E+02  0.51100000000E-03 0.  1.
         11   -1    0    0    0    0 -0.00000000000E+00 -0.00000000000E+00 -0.45593999997E+02  0.45594000000E+02  0.51100000000E-03 0. -1.
    9900012    2    1    2    0    0  0.21612574075E+02 -0.22931484157E+02 -0.48748335158E+01  0.59301947789E+02  0.50000006859E+02 0.  0.
        -12    1    1    2    0    0 -0.21612574075E+02  0.22931484157E+02  0.48748335158E+01  0.31886052211E+02  0.00000000000E+00 0.  1.
         11    1    3    3    0    0  0.19925853744E+02  0.51283584376E+01  0.40199714934E+00  0.20579147447E+02  0.51100000000E-03 0. -1.
        -11    1    3    3    0    0 -0.47092343870E+01 -0.21237048430E+02  0.73933754369E+01  0.22975010666E+02  0.51100000000E-03 0.  1.
         12    1    3    3    0    0  0.63959547183E+01 -0.68227941654E+01 -0.12670206102E+02  0.15747789675E+02  0.00000000000E+00 0. -1.
</event>
<event>
 7    1  0.5755468E-013  0.5930203E+02  0.7816164E-02  0.1266604E+00
        -11   -1    0    0    0    0  0.00000000000E+00  0.00000000000E+00  0.45593999997E+02  0.45594000000E+02  0.51100000000E-03 0. -1.
         11   -1    0    0    0    0 -0.00000000000E+00 -0.00000000000E+00 -0.45593999997E+02  0.45594000000E+02  0.51100000000E-03 0.  1.
    9900012    2    1    2    0    0 -0.25360661114E+01 -0.77209466203E+01  0.30832943695E+02  0.59302030281E+02  0.50000157305E+02 0.  0.
        -12    1    1    2    0    0  0.25360661114E+01  0.77209466203E+01 -0.30832943695E+02  0.31885969719E+02  0.00000000000E+00 0.  1.
         11    1    3    3    0    0 -0.85473121913E+00 -0.17819219255E+02 -0.76780535275E+01  0.19421834273E+02  0.51100000000E-03 0.  1.
        -11    1    3    3    0    0 -0.43912051751E+00  0.55946335305E+01  0.23398703368E+02  0.24062254066E+02  0.51100000000E-03 0. -1.
        -12    1    3    3    0    0 -0.12422143748E+01  0.45036391037E+01  0.15112293855E+02  0.15817941942E+02  0.00000000000E+00 0.  1.
</event>
<event>
 7    1  0.5755468E-013  0.5930195E+02  0.7816164E-02  0.1266605E+00
        -11   -1    0    0    0    0  0.00000000000E+00  0.00000000000E+00  0.45593999997E+02  0.45594000000E+02  0.51100000000E-03 0.  1.
         11   -1    0    0    0    0 -0.00000000000E+00 -0.00000000000E+00 -0.45593999997E+02  0.45594000000E+02  0.51100000000E-03 0. -1.
    9900012    2    1    2    0    0  0.77994573536E+01  0.28856156336E+02  0.11100053093E+02  0.59301945491E+02  0.50000002669E+02 0.  0.
        -12    1    1    2    0    0 -0.77994573536E+01 -0.28856156336E+02 -0.11100053093E+02  0.31886054509E+02  0.00000000000E+00 0.  1.
         11    1    3    3    0    0  0.66557427342E+01  0.39677233883E+02  0.18874198485E+02  0.44438915026E+02  0.51100000000E-03 0. -1.
        -11    1    3    3    0    0  0.14997460681E+01 -0.95744952520E+01 -0.33516812471E+01  0.10254460739E+02  0.51100000000E-03 0.  1.
         12    1    3    3    0    0 -0.35603144863E+00 -0.12465822950E+01 -0.44224641451E+01  0.46085697266E+01  0.00000000000E+00 0. -1.
</event>
<event>
 7    1  0.5755468E-013  0.5930199E+02  0.7816164E-02  0.1266605E+00
        -11   -1    0    0    0    0  0.00000000000E+00  0.00000000000E+00  0.45593999997E+02  0.45594000000E+02  0.51100000000E-03 0. -1.
         11   -1    0    0    0    0 -0.00000000000E+00 -0.00000000000E+00 -0.45593999997E+02  0.45594000000E+02  0.51100000000E-03 0.  1.
    9900012    2    1    2    0    0  0.19241113651E+01 -0.31765116676E+02 -0.19981701184E+01  0.59301991693E+02  0.50000086929E+02 0.  0.
        -12    1    1    2    0    0 -0.19241113651E+01  0.31765116676E+02  0.19981701184E+01  0.31886008307E+02  0.00000000000E+00 0.  1.
         11    1    3    3    0    0  0.45455146701E+01 -0.33031513218E+02  0.18482859170E+02  0.38122941288E+02  0.51100000000E-03 0. -1.
        -11    1    3    3    0    0  0.93081502985E+00 -0.57910503081E+00 -0.21193573304E+01  0.23860961866E+01  0.51100000000E-03 0.  1.
         12    1    3    3    0    0 -0.35522183348E+01  0.18455015733E+01 -0.18361671958E+02  0.18792954218E+02  0.00000000000E+00 0. -1.
</event>
<event>
 7    1  0.5755468E-013  0.5930190E+02  0.7816164E-02  0.1266605E+00
        -11   -1    0    0    0    0  0.00000000000E+00  0.00000000000E+00  0.45593999997E+02  0.45594000000E+02  0.51100000000E-03 0.  1.
         11   -1    0    0    0    0 -0.00000000000E+00 -0.00000000000E+00 -0.45593999997E+02  0.45594000000E+02  0.51100000000E-03 0. -1.
    9900012    2    1    2    0    0 -0.23861960707E+02  0.15385607077E+02 -0.14512519143E+02  0.59301901370E+02  0.49999922203E+02 0.  0.
        -12    1    1    2    0    0  0.23861960707E+02 -0.15385607077E+02  0.14512519143E+02  0.31886098630E+02  0.00000000000E+00 0.  1.
         11    1    3    3    0    0 -0.10861593253E+02  0.19441345976E+02  0.97717957764E+01  0.24319295514E+02  0.51100000000E-03 0.  1.
        -11    1    3    3    0    0 -0.17982918821E+02 -0.67889368406E+01 -0.16422587356E+02  0.25281938384E+02  0.51100000000E-03 0. -1.
         12    1    3    3    0    0  0.49825513664E+01  0.27331979416E+01 -0.78617275639E+01  0.97006674716E+01  0.00000000000E+00 0. -1.
</event>
<event>
 7    1  0.5755468E-013  0.5930196E+02  0.7816164E-02  0.1266605E+00
        -11   -1    0    0    0    0  0.00000000000E+00  0.00000000000E+00  0.45593999997E+02  0.45594000000E+02  0.51100000000E-03 0.  1.
         11   -1    0    0    0    0 -0.00000000000E+00 -0.00000000000E+00 -0.45593999997E+02  0.45594000000E+02  0.51100000000E-03 0. -1.
    9900012    2    1    2    0    0 -0.19446658335E+02  0.24964307490E+02  0.39154264018E+01  0.59301957085E+02  0.50000023813E+02 0.  0.
        -12    1    1    2    0    0  0.19446658335E+02 -0.24964307490E+02 -0.39154264018E+01  0.31886042915E+02  0.00000000000E+00 0.  1.
         11    1    3    3    0    0 -0.38191708849E+01  0.12808609524E+02 -0.36351722969E+01  0.13851390619E+02  0.51100000000E-03 0. -1.
        -11    1    3    3    0    0 -0.23300323196E+02 -0.18249168413E+01  0.15080347890E+02  0.27814605430E+02  0.51100000000E-03 0.  1.
        -12    1    3    3    0    0  0.76728357454E+01  0.13980614807E+02 -0.75297491910E+01  0.17635961036E+02  0.00000000000E+00 0.  1.
</event>
<event>
 7    1  0.5755468E-013  0.5930196E+02  0.7816164E-02  0.1266605E+00
        -11   -1    0    0    0    0  0.00000000000E+00  0.00000000000E+00  0.45593999997E+02  0.45594000000E+02  0.51100000000E-03 0.  1.
         11   -1    0    0    0    0 -0.00000000000E+00 -0.00000000000E+00 -0.45593999997E+02  0.45594000000E+02  0.51100000000E-03 0. -1.
    9900012    2    1    2    0    0 -0.99819052606E+01 -0.28719089113E+02 -0.96070348570E+01  0.59301958683E+02  0.50000026727E+02 0.  0.
        -12    1    1    2    0    0  0.99819052606E+01  0.28719089113E+02  0.96070348570E+01  0.31886041317E+02  0.00000000000E+00 0.  1.
         11    1    3    3    0    0 -0.97010426511E+01 -0.20831876425E+02 -0.16994618166E+02  0.28581363697E+02  0.51100000000E-03 0. -1.
        -11    1    3    3    0    0  0.76973939691E+01 -0.10780105292E+02  0.14505964381E+02  0.19643918827E+02  0.51100000000E-03 0.  1.
         12    1    3    3    0    0 -0.79782565786E+01  0.28928926034E+01 -0.71183810714E+01  0.11076676159E+02  0.00000000000E+00 0. -1.
</event>
<event>
 7    1  0.5755468E-013  0.5930193E+02  0.7816164E-02  0.1266605E+00
        -11   -1    0    0    0    0  0.00000000000E+00  0.00000000000E+00  0.45593999997E+02  0.45594000000E+02  0.51100000000E-03 0.  1.
         11   -1    0    0    0    0 -0.00000000000E+00 -0.00000000000E+00 -0.45593999997E+02  0.45594000000E+02  0.51100000000E-03 0. -1.
    9900012    2    1    2    0    0 -0.23314181759E+02  0.17229590961E+02 -0.13278231963E+02  0.59301932198E+02  0.49999978426E+02 0.  0.
        -12    1    1    2    0    0  0.23314181759E+02 -0.17229590961E+02  0.13278231963E+02  0.31886067802E+02  0.00000000000E+00 0.  1.
         11    1    3    3    0    0 -0.15680841036E+02 -0.17324868783E+01  0.30079823376E+01  0.16060455921E+02  0.51100000000E-03 0. -1.
        -11    1    3    3    0    0  0.66191918860E+01 -0.41343748668E+01 -0.13970866264E+02  0.16002870404E+02  0.51100000000E-03 0.  1.
        -12    1    3    3    0    0 -0.14252532608E+02  0.23096452706E+02 -0.23153480372E+01  0.27238605873E+02  0.00000000000E+00 0.  1.
</event>
<event>
 7    1  0.5755468E-013  0.5930198E+02  0.7816164E-02  0.1266605E+00
        -11   -1    0    0    0    0  0.00000000000E+00  0.00000000000E+00  0.45593999997E+02  0.45594000000E+02  0.51100000000E-03 0.  1.
         11   -1    0    0    0    0 -0.00000000000E+00 -0.00000000000E+00 -0.45593999997E+02  0.45594000000E+02  0.51100000000E-03 0. -1.
    9900012    2    1    2    0    0 -0.87785004131E+01  0.39039853359E+01 -0.30404193815E+02  0.59301981551E+02  0.50000068434E+02 0.  0.
        -12    1    1    2    0    0  0.87785004131E+01 -0.39039853359E+01  0.30404193815E+02  0.31886018449E+02  0.00000000000E+00 0.  1.
         11    1    3    3    0    0 -0.27683797845E+01  0.73210239150E+01  0.92581205120E+01  0.12123288063E+02  0.51100000000E-03 0.  1.
        -11    1    3    3    0    0  0.62431063898E+01 -0.64956834497E+01 -0.50402735007E+01  0.10323499314E+02  0.51100000000E-03 0. -1.
         12    1    3    3    0    0 -0.12253227018E+02  0.30786448707E+01 -0.34622040826E+02  0.36855194173E+02  0.00000000000E+00 0. -1.
</event>
<event>
 7    1  0.5755468E-013  0.5930195E+02  0.7816164E-02  0.1266605E+00
        -11   -1    0    0    0    0  0.00000000000E+00  0.00000000000E+00  0.45593999997E+02  0.45594000000E+02  0.51100000000E-03 0.  1.
         11   -1    0    0    0    0 -0.00000000000E+00 -0.00000000000E+00 -0.45593999997E+02  0.45594000000E+02  0.51100000000E-03 0. -1.
    9900012    2    1    2    0    0 -0.42663084366E+01  0.10022578742E+02 -0.29967762648E+02  0.59301948654E+02  0.50000008438E+02 0.  0.
        -12    1    1    2    0    0  0.42663084366E+01 -0.10022578742E+02  0.29967762648E+02  0.31886051346E+02  0.00000000000E+00 0.  1.
         11    1    3    3    0    0 -0.15481313815E+02  0.23372762918E+02 -0.25689706397E+02  0.38025230294E+02  0.51100000000E-03 0. -1.
        -11    1    3    3    0    0 -0.19644135713E+01 -0.46555937559E+01 -0.10670624372E+01  0.51645035003E+01  0.51100000000E-03 0.  1.
         12    1    3    3    0    0  0.13179418949E+02 -0.86945904207E+01 -0.32109938134E+01  0.16112214860E+02  0.00000000000E+00 0. -1.
</event>
<event>
 7    1  0.5755468E-013  0.5930195E+02  0.7816164E-02  0.1266605E+00
        -11   -1    0    0    0    0  0.00000000000E+00  0.00000000000E+00  0.45593999997E+02  0.45594000000E+02  0.51100000000E-03 0. -1.
         11   -1    0    0    0    0 -0.00000000000E+00 -0.00000000000E+00 -0.45593999997E+02  0.45594000000E+02  0.51100000000E-03 0.  1.
    9900012    2    1    2    0    0  0.39906360929E+01  0.20141269758E+02 -0.24395174540E+02  0.59301945608E+02  0.50000002881E+02 0.  0.
        -12    1    1    2    0    0 -0.39906360929E+01 -0.20141269758E+02  0.24395174540E+02  0.31886054392E+02  0.00000000000E+00 0.  1.
         11    1    3    3    0    0  0.14494470862E+02  0.19136583238E+01 -0.27114722462E+02  0.30805193527E+02  0.51100000000E-03 0.  1.
        -11    1    3    3    0    0 -0.15705968955E+02  0.12875240324E+02  0.45486028518E+01  0.20811993235E+02  0.51100000000E-03 0. -1.
         12    1    3    3    0    0  0.52021341864E+01  0.53523711102E+01 -0.18290549293E+01  0.76847588465E+01  0.00000000000E+00 0. -1.
</event>
<event>
 7    1  0.5755468E-013  0.5930194E+02  0.7816164E-02  0.1266605E+00
        -11   -1    0    0    0    0  0.00000000000E+00  0.00000000000E+00  0.45593999997E+02  0.45594000000E+02  0.51100000000E-03 0. -1.
         11   -1    0    0    0    0 -0.00000000000E+00 -0.00000000000E+00 -0.45593999997E+02  0.45594000000E+02  0.51100000000E-03 0.  1.
    9900012    2    1    2    0    0 -0.97794598991E+01  0.15781107215E+02  0.25923733354E+02  0.59301935146E+02  0.49999983802E+02 0.  0.
        -12    1    1    2    0    0  0.97794598991E+01 -0.15781107215E+02 -0.25923733354E+02  0.31886064854E+02  0.00000000000E+00 0.  1.
         11    1    3    3    0    0  0.11697704541E+02  0.13367039676E+02 -0.41842083165E+01  0.18248880533E+02  0.51100000000E-03 0. -1.
        -11    1    3    3    0    0 -0.49796297982E+01 -0.37053785850E+01  0.19597737818E+02  0.20557185392E+02  0.51100000000E-03 0.  1.
         12    1    3    3    0    0 -0.16497534642E+02  0.61194461242E+01  0.10510203852E+02  0.20495869221E+02  0.00000000000E+00 0. -1.
</event>
<event>
 7    1  0.5755468E-013  0.5930194E+02  0.7816164E-02  0.1266605E+00
        -11   -1    0    0    0    0  0.00000000000E+00  0.00000000000E+00  0.45593999997E+02  0.45594000000E+02  0.51100000000E-03 0. -1.
         11   -1    0    0    0    0 -0.00000000000E+00 -0.00000000000E+00 -0.45593999997E+02  0.45594000000E+02  0.51100000000E-03 0.  1.
    9900012    2    1    2    0    0 -0.14135055452E+02 -0.21563439524E+02  0.18760047429E+02  0.59301935704E+02  0.49999984820E+02 0.  0.
        -12    1    1    2    0    0  0.14135055452E+02  0.21563439524E+02 -0.18760047429E+02  0.31886064296E+02  0.00000000000E+00 0.  1.
         11    1    3    3    0    0 -0.97198147925E+01 -0.21427256665E+02 -0.32818259362E+01  0.23756525620E+02  0.51100000000E-03 0. -1.
        -11    1    3    3    0    0 -0.13158188116E+02  0.78695872643E+01  0.84358347888E+01  0.17499475051E+02  0.51100000000E-03 0.  1.
        -12    1    3    3    0    0  0.87429474563E+01 -0.80057701233E+01  0.13606038576E+02  0.18045935033E+02  0.00000000000E+00 0.  1.
</event>
<event>
 7    1  0.5755468E-013  0.5930194E+02  0.7816164E-02  0.1266605E+00
        -11   -1    0    0    0    0  0.00000000000E+00  0.00000000000E+00  0.45593999997E+02  0.45594000000E+02  0.51100000000E-03 0.  1.
         11   -1    0    0    0    0 -0.00000000000E+00 -0.00000000000E+00 -0.45593999997E+02  0.45594000000E+02  0.51100000000E-03 0. -1.
    9900012    2    1    2    0    0  0.93328733299E+01 -0.72372543260E+00 -0.30481047942E+02  0.59301943694E+02  0.49999999391E+02 0.  0.
        -12    1    1    2    0    0 -0.93328733299E+01  0.72372543260E+00  0.30481047942E+02  0.31886056306E+02  0.00000000000E+00 0.  1.
         11    1    3    3    0    0  0.61365587069E+01  0.23390883988E+01 -0.18560645675E+02  0.19688226315E+02  0.51100000000E-03 0. -1.
        -11    1    3    3    0    0 -0.98924448212E+00 -0.20149704151E+02 -0.58775603356E+01  0.21012731802E+02  0.51100000000E-03 0.  1.
        -12    1    3    3    0    0  0.41855591051E+01  0.17086890320E+02 -0.60428419312E+01  0.18600985577E+02  0.00000000000E+00 0.  1.
</event>
<event>
 7    1  0.5755468E-013  0.5930197E+02  0.7816164E-02  0.1266605E+00
        -11   -1    0    0    0    0  0.00000000000E+00  0.00000000000E+00  0.45593999997E+02  0.45594000000E+02  0.51100000000E-03 0. -1.
         11   -1    0    0    0    0 -0.00000000000E+00 -0.00000000000E+00 -0.45593999997E+02  0.45594000000E+02  0.51100000000E-03 0.  1.
    9900012    2    1    2    0    0  0.82543527644E+01  0.46322609133E+01  0.30448759442E+02  0.59301966501E+02  0.50000040986E+02 0.  0.
        -12    1    1    2    0    0 -0.82543527644E+01 -0.46322609133E+01 -0.30448759442E+02  0.31886033499E+02  0.00000000000E+00 0.  1.
         11    1    3    3    0    0 -0.28902728285E+01 -0.10049531459E+02  0.46837745371E+01  0.11457945005E+02  0.51100000000E-03 0. -1.
        -11    1    3    3    0    0  0.12274396435E+02  0.12632153464E+02 -0.39385835232E+01  0.18048394649E+02  0.51100000000E-03 0.  1.
        -12    1    3    3    0    0 -0.11297708419E+01  0.20496389074E+01  0.29703568428E+02  0.29795626847E+02  0.00000000000E+00 0.  1.
</event>
<event>
 7    1  0.5755468E-013  0.5930193E+02  0.7816164E-02  0.1266605E+00
        -11   -1    0    0    0    0  0.00000000000E+00  0.00000000000E+00  0.45593999997E+02  0.45594000000E+02  0.51100000000E-03 0. -1.
         11   -1    0    0    0    0 -0.00000000000E+00 -0.00000000000E+00 -0.45593999997E+02  0.45594000000E+02  0.51100000000E-03 0.  1.
    9900012    2    1    2    0    0 -0.26270035817E+02 -0.15105172183E+02  0.99217229185E+01  0.59301927897E+02  0.49999970581E+02 0.  0.
        -12    1    1    2    0    0  0.26270035817E+02  0.15105172183E+02 -0.99217229185E+01  0.31886072103E+02  0.00000000000E+00 0.  1.
         11    1    3    3    0    0 -0.24284231228E+01  0.13868886136E+02  0.12556369372E+01  0.14135765487E+02  0.51100000000E-03 0. -1.
        -11    1    3    3    0    0 -0.13080268908E+02 -0.24583417604E+02  0.15310769043E+02  0.31778255219E+02  0.51100000000E-03 0.  1.
        -12    1    3    3    0    0 -0.10761343786E+02 -0.43906407156E+01 -0.66446830617E+01  0.13387907191E+02  0.00000000000E+00 0.  1.
</event>
<event>
 7    1  0.5755468E-013  0.5930193E+02  0.7816164E-02  0.1266605E+00
        -11   -1    0    0    0    0  0.00000000000E+00  0.00000000000E+00  0.45593999997E+02  0.45594000000E+02  0.51100000000E-03 0. -1.
         11   -1    0    0    0    0 -0.00000000000E+00 -0.00000000000E+00 -0.45593999997E+02  0.45594000000E+02  0.51100000000E-03 0.  1.
    9900012    2    1    2    0    0  0.23912593258E+02  0.18601794521E+02  0.99439660324E+01  0.59301931943E+02  0.49999977960E+02 0.  0.
        -12    1    1    2    0    0 -0.23912593258E+02 -0.18601794521E+02 -0.99439660324E+01  0.31886068057E+02  0.00000000000E+00 0.  1.
         11    1    3    3    0    0  0.32564954195E+02  0.13380118970E+02  0.15213324856E+02  0.38352953978E+02  0.51100000000E-03 0. -1.
        -11    1    3    3    0    0  0.17302084093E+01  0.44219308084E+01 -0.87616763204E+01  0.99656442551E+01  0.51100000000E-03 0.  1.
         12    1    3    3    0    0 -0.10382569346E+02  0.79974474227E+00  0.34923174965E+01  0.10983333710E+02  0.00000000000E+00 0. -1.
</event>
<event>
 7    1  0.5755468E-013  0.5930196E+02  0.7816164E-02  0.1266605E+00
        -11   -1    0    0    0    0  0.00000000000E+00  0.00000000000E+00  0.45593999997E+02  0.45594000000E+02  0.51100000000E-03 0.  1.
         11   -1    0    0    0    0 -0.00000000000E+00 -0.00000000000E+00 -0.45593999997E+02  0.45594000000E+02  0.51100000000E-03 0. -1.
    9900012    2    1    2    0    0  0.26071236489E+02  0.15036466239E+02 -0.10531624346E+02  0.59301956025E+02  0.50000021880E+02 0.  0.
        -12    1    1    2    0    0 -0.26071236489E+02 -0.15036466239E+02  0.10531624346E+02  0.31886043975E+02  0.00000000000E+00 0.  1.
         11    1    3    3    0    0  0.42691485050E+01  0.46690235838E+01  0.38053672157E+01  0.73828334731E+01  0.51100000000E-03 0. -1.
        -11    1    3    3    0    0 -0.10866573085E+02 -0.27330644067E+01 -0.12335382978E+02  0.16664744976E+02  0.51100000000E-03 0.  1.
        -12    1    3    3    0    0  0.32668661069E+02  0.13100507062E+02 -0.20016085837E+01  0.35254377575E+02  0.00000000000E+00 0.  1.
</event>
<event>
 7    1  0.6367959E-013  0.5930193E+02  0.7816164E-02  0.1266605E+00
        -11   -1    0    0    0    0  0.00000000000E+00  0.00000000000E+00  0.45593999997E+02  0.45594000000E+02  0.51100000000E-03 0. -1.
         11   -1    0    0    0    0 -0.00000000000E+00 -0.00000000000E+00 -0.45593999997E+02  0.45594000000E+02  0.51100000000E-03 0.  1.
    9900012    2    1    2    0    0  0.21400747959E+02 -0.15508936436E+02  0.17838222106E+02  0.59301932658E+02  0.49999979265E+02 0.  0.
        -12    1    1    2    0    0 -0.21400747959E+02  0.15508936436E+02 -0.17838222106E+02  0.31886067342E+02  0.00000000000E+00 0.  1.
         11    1    3    3    0    0  0.21226218942E+02 -0.21216787136E+02  0.67448510994E+01  0.30760322553E+02  0.51100000000E-03 0. -1.
        -11    1    3    3    0    0 -0.25054811080E+01  0.60964891366E+00  0.18768992222E+02  0.18945294314E+02  0.51100000000E-03 0.  1.
        -12    1    3    3    0    0  0.26800101248E+01  0.50982017861E+01 -0.76756212150E+01  0.95963157908E+01  0.00000000000E+00 0.  1.
</event>
<event>
 7    1  0.5755468E-013  0.5930194E+02  0.7816164E-02  0.1266605E+00
        -11   -1    0    0    0    0  0.00000000000E+00  0.00000000000E+00  0.45593999997E+02  0.45594000000E+02  0.51100000000E-03 0.  1.
         11   -1    0    0    0    0 -0.00000000000E+00 -0.00000000000E+00 -0.45593999997E+02  0.45594000000E+02  0.51100000000E-03 0. -1.
    9900012    2    1    2    0    0  0.13244893589E+02  0.10864686654E+01 -0.28984704987E+02  0.59301941236E+02  0.49999994908E+02 0.  0.
        -12    1    1    2    0    0 -0.13244893589E+02 -0.10864686654E+01  0.28984704987E+02  0.31886058764E+02  0.00000000000E+00 0.  1.
         11    1    3    3    0    0 -0.44756494437E+01  0.12594441100E+02 -0.25773092437E+02  0.29032803491E+02  0.51100000000E-03 0. -1.
        -11    1    3    3    0    0  0.13935304647E+02 -0.13157872639E+02 -0.10528789976E+02  0.21867275701E+02  0.51100000000E-03 0.  1.
        -12    1    3    3    0    0  0.37852383856E+01  0.16499002042E+01  0.73171774252E+01  0.84018620431E+01  0.00000000000E+00 0.  1.
</event>
<event>
 7    1  0.5755468E-013  0.5930179E+02  0.7816164E-02  0.1266605E+00
        -11   -1    0    0    0    0  0.00000000000E+00  0.00000000000E+00  0.45593999997E+02  0.45594000000E+02  0.51100000000E-03 0.  1.
         11   -1    0    0    0    0 -0.00000000000E+00 -0.00000000000E+00 -0.45593999997E+02  0.45594000000E+02  0.51100000000E-03 0. -1.
    9900012    2    1    2    0    0 -0.16487891995E+02 -0.16108594062E+01 -0.27244908726E+02  0.59301788216E+02  0.49999715836E+02 0.  0.
        -12    1    1    2    0    0  0.16487891995E+02  0.16108594062E+01  0.27244908726E+02  0.31886211784E+02  0.00000000000E+00 0.  1.
         11    1    3    3    0    0 -0.17486127835E+02  0.19379336252E+02 -0.23291261708E+02  0.34982941735E+02  0.51100000000E-03 0. -1.
        -11    1    3    3    0    0 -0.17109805840E+01 -0.29780718501E+01  0.32527100981E+01  0.47303794506E+01  0.51100000000E-03 0.  1.
         12    1    3    3    0    0  0.27092164240E+01 -0.18012123808E+02 -0.72063571153E+01  0.19588467030E+02  0.00000000000E+00 0. -1.
</event>
<event>
 7    1  0.5755468E-013  0.5930204E+02  0.7816164E-02  0.1266604E+00
        -11   -1    0    0    0    0  0.00000000000E+00  0.00000000000E+00  0.45593999997E+02  0.45594000000E+02  0.51100000000E-03 0.  1.
         11   -1    0    0    0    0 -0.00000000000E+00 -0.00000000000E+00 -0.45593999997E+02  0.45594000000E+02  0.51100000000E-03 0. -1.
    9900012    2    1    2    0    0  0.11261327956E+02  0.77299115754E+01 -0.28812248350E+02  0.59302036077E+02  0.50000167876E+02 0.  0.
        -12    1    1    2    0    0 -0.11261327956E+02 -0.77299115754E+01  0.28812248350E+02  0.31885963923E+02  0.00000000000E+00 0.  1.
         11    1    3    3    0    0  0.12898039694E+02 -0.30381246523E+01 -0.36794071761E+02  0.39107458961E+02  0.51100000000E-03 0. -1.
        -11    1    3    3    0    0 -0.51572984282E+01  0.65157251495E+01 -0.22144000517E+01  0.85997656451E+01  0.51100000000E-03 0.  1.
         12    1    3    3    0    0  0.35205866897E+01  0.42523110783E+01  0.10196223463E+02  0.11594811471E+02  0.00000000000E+00 0. -1.
</event>
<event>
 7    1  0.5755468E-013  0.5930192E+02  0.7816164E-02  0.1266605E+00
        -11   -1    0    0    0    0  0.00000000000E+00  0.00000000000E+00  0.45593999997E+02  0.45594000000E+02  0.51100000000E-03 0.  1.
         11   -1    0    0    0    0 -0.00000000000E+00 -0.00000000000E+00 -0.45593999997E+02  0.45594000000E+02  0.51100000000E-03 0. -1.
    9900012    2    1    2    0    0 -0.31260400900E+01  0.26754420829E+02 -0.17063144751E+02  0.59301920446E+02  0.49999956993E+02 0.  0.
        -12    1    1    2    0    0  0.31260400900E+01 -0.26754420829E+02  0.17063144751E+02  0.31886079554E+02  0.00000000000E+00 0.  1.
         11    1    3    3    0    0  0.32853852139E+01  0.19301713675E+02 -0.76896704979E+01  0.21035230910E+02  0.51100000000E-03 0. -1.
        -11    1    3    3    0    0 -0.19576475950E+02 -0.32987899690E+01 -0.72601941036E+01  0.21138373744E+02  0.51100000000E-03 0.  1.
        -12    1    3    3    0    0  0.13165050646E+02  0.10751497123E+02 -0.21132801497E+01  0.17128315792E+02  0.00000000000E+00 0.  1.
</event>
<event>
 7    1  0.5755468E-013  0.5930195E+02  0.7816164E-02  0.1266605E+00
        -11   -1    0    0    0    0  0.00000000000E+00  0.00000000000E+00  0.45593999997E+02  0.45594000000E+02  0.51100000000E-03 0. -1.
         11   -1    0    0    0    0 -0.00000000000E+00 -0.00000000000E+00 -0.45593999997E+02  0.45594000000E+02  0.51100000000E-03 0.  1.
    9900012    2    1    2    0    0  0.12501327162E+02  0.25658606597E+02 -0.14215229947E+02  0.59301952335E+02  0.50000015150E+02 0.  0.
        -12    1    1    2    0    0 -0.12501327162E+02 -0.25658606597E+02  0.14215229947E+02  0.31886047665E+02  0.00000000000E+00 0.  1.
         11    1    3    3    0    0 -0.55050144937E+01  0.57163475875E+01  0.13342301786E+01  0.80474831312E+01  0.51100000000E-03 0. -1.
        -11    1    3    3    0    0  0.24091572861E+02  0.28129850926E+02 -0.17344384078E+02  0.40896455291E+02  0.51100000000E-03 0.  1.
        -12    1    3    3    0    0 -0.60852312053E+01 -0.81875919169E+01  0.17949239528E+01  0.10358013913E+02  0.00000000000E+00 0.  1.
</event>
<event>
 7    1  0.5755468E-013  0.5930195E+02  0.7816164E-02  0.1266605E+00
        -11   -1    0    0    0    0  0.00000000000E+00  0.00000000000E+00  0.45593999997E+02  0.45594000000E+02  0.51100000000E-03 0. -1.
         11   -1    0    0    0    0 -0.00000000000E+00 -0.00000000000E+00 -0.45593999997E+02  0.45594000000E+02  0.51100000000E-03 0.  1.
    9900012    2    1    2    0    0  0.27022553199E+02  0.15108305751E+02 -0.76315729707E+01  0.59301949914E+02  0.50000010736E+02 0.  0.
        -12    1    1    2    0    0 -0.27022553199E+02 -0.15108305751E+02  0.76315729707E+01  0.31886050086E+02  0.00000000000E+00 0.  1.
         11    1    3    3    0    0  0.93842523332E+01  0.19029129198E+02 -0.10034002869E+02  0.23470261262E+02  0.51100000000E-03 0. -1.
        -11    1    3    3    0    0 -0.53274244612E+01 -0.10261206630E+02 -0.16034003767E+01  0.11672390755E+02  0.51100000000E-03 0.  1.
         12    1    3    3    0    0  0.22965725327E+02  0.63403831835E+01  0.40058302746E+01  0.24159297898E+02  0.00000000000E+00 0. -1.
</event>
<event>
 7    1  0.5755468E-013  0.5930202E+02  0.7816164E-02  0.1266604E+00
        -11   -1    0    0    0    0  0.00000000000E+00  0.00000000000E+00  0.45593999997E+02  0.45594000000E+02  0.51100000000E-03 0.  1.
         11   -1    0    0    0    0 -0.00000000000E+00 -0.00000000000E+00 -0.45593999997E+02  0.45594000000E+02  0.51100000000E-03 0. -1.
    9900012    2    1    2    0    0  0.16732167058E+02 -0.10435489326E+02 -0.25056946545E+02  0.59302024680E+02  0.50000147091E+02 0.  0.
        -12    1    1    2    0    0 -0.16732167058E+02  0.10435489326E+02  0.25056946545E+02  0.31885975320E+02  0.00000000000E+00 0.  1.
         11    1    3    3    0    0  0.11244767953E+02 -0.17679378887E+02 -0.36030862299E+02  0.41680070566E+02  0.51100000000E-03 0. -1.
        -11    1    3    3    0    0  0.66168144147E+01  0.34682942820E+01  0.11429845714E+02  0.13654767355E+02  0.51100000000E-03 0.  1.
        -12    1    3    3    0    0 -0.11294153095E+01  0.37755952791E+01 -0.45592995995E+00  0.39671867591E+01  0.00000000000E+00 0.  1.
</event>
<event>
 7    1  0.5755468E-013  0.5930195E+02  0.7816164E-02  0.1266605E+00
        -11   -1    0    0    0    0  0.00000000000E+00  0.00000000000E+00  0.45593999997E+02  0.45594000000E+02  0.51100000000E-03 0.  1.
         11   -1    0    0    0    0 -0.00000000000E+00 -0.00000000000E+00 -0.45593999997E+02  0.45594000000E+02  0.51100000000E-03 0. -1.
    9900012    2    1    2    0    0 -0.42795622296E+01  0.22738228534E+01 -0.31515634770E+02  0.59301950414E+02  0.50000011648E+02 0.  0.
        -12    1    1    2    0    0  0.42795622296E+01 -0.22738228534E+01  0.31515634770E+02  0.31886049586E+02  0.00000000000E+00 0.  1.
         11    1    3    3    0    0  0.21168308028E+01  0.16280340710E+02 -0.15808580383E+02  0.22791263244E+02  0.51100000000E-03 0. -1.
        -11    1    3    3    0    0  0.61049835910E+01 -0.18558715740E+02 -0.78184967083E+01  0.21043422858E+02  0.51100000000E-03 0.  1.
        -12    1    3    3    0    0 -0.12501376623E+02  0.45521978835E+01 -0.78885576787E+01  0.15467264312E+02  0.00000000000E+00 0.  1.
</event>
<event>
 7    1  0.5755468E-013  0.5930192E+02  0.7816164E-02  0.1266605E+00
        -11   -1    0    0    0    0  0.00000000000E+00  0.00000000000E+00  0.45593999997E+02  0.45594000000E+02  0.51100000000E-03 0. -1.
         11   -1    0    0    0    0 -0.00000000000E+00 -0.00000000000E+00 -0.45593999997E+02  0.45594000000E+02  0.51100000000E-03 0.  1.
    9900012    2    1    2    0    0  0.19205741012E+02  0.21264089749E+02  0.13989277965E+02  0.59301923122E+02  0.49999961873E+02 0.  0.
        -12    1    1    2    0    0 -0.19205741012E+02 -0.21264089749E+02 -0.13989277965E+02  0.31886076878E+02  0.00000000000E+00 0.  1.
         11    1    3    3    0    0  0.72222943728E+00  0.23200374148E+02  0.11050861109E+02  0.25707985286E+02  0.51100000000E-03 0. -1.
        -11    1    3    3    0    0 -0.18112534592E+01 -0.11064201102E+02  0.10868847123E+01  0.11264035856E+02  0.51100000000E-03 0.  1.
        -12    1    3    3    0    0  0.20294765034E+02  0.91279167041E+01  0.18515321437E+01  0.22329901980E+02  0.00000000000E+00 0.  1.
</event>
<event>
 7    1  0.5755468E-013  0.5930195E+02  0.7816164E-02  0.1266605E+00
        -11   -1    0    0    0    0  0.00000000000E+00  0.00000000000E+00  0.45593999997E+02  0.45594000000E+02  0.51100000000E-03 0. -1.
         11   -1    0    0    0    0 -0.00000000000E+00 -0.00000000000E+00 -0.45593999997E+02  0.45594000000E+02  0.51100000000E-03 0.  1.
    9900012    2    1    2    0    0  0.15122996877E+02 -0.24573478986E+02  0.13570540839E+02  0.59301945326E+02  0.50000002368E+02 0.  0.
        -12    1    1    2    0    0 -0.15122996877E+02  0.24573478986E+02 -0.13570540839E+02  0.31886054674E+02  0.00000000000E+00 0.  1.
         11    1    3    3    0    0  0.19398116086E+02 -0.21130260217E+02 -0.64640282996E+01  0.29403375089E+02  0.51100000000E-03 0. -1.
        -11    1    3    3    0    0 -0.45919301133E+01 -0.10261441647E+02  0.20147866330E+02  0.23072050727E+02  0.51100000000E-03 0.  1.
        -12    1    3    3    0    0  0.31681090452E+00  0.68182228783E+01 -0.11329719147E+00  0.68265195101E+01  0.00000000000E+00 0.  1.
</event>
<event>
 7    1  0.5755468E-013  0.5930194E+02  0.7816164E-02  0.1266605E+00
        -11   -1    0    0    0    0  0.00000000000E+00  0.00000000000E+00  0.45593999997E+02  0.45594000000E+02  0.51100000000E-03 0.  1.
         11   -1    0    0    0    0 -0.00000000000E+00 -0.00000000000E+00 -0.45593999997E+02  0.45594000000E+02  0.51100000000E-03 0. -1.
    9900012    2    1    2    0    0 -0.23054790641E+02  0.52358905629E+01 -0.21395867245E+02  0.59301936326E+02  0.49999985953E+02 0.  0.
        -12    1    1    2    0    0  0.23054790641E+02 -0.52358905629E+01  0.21395867245E+02  0.31886063674E+02  0.00000000000E+00 0.  1.
         11    1    3    3    0    0  0.69817438162E+01  0.23572675515E+01 -0.57089569425E+01  0.93216761721E+01  0.51100000000E-03 0. -1.
        -11    1    3    3    0    0 -0.33379361938E+02 -0.79695476379E+01 -0.55540998777E+01  0.34764112510E+02  0.51100000000E-03 0.  1.
         12    1    3    3    0    0  0.33428274801E+01  0.10848170649E+02 -0.10132810424E+02  0.15216147643E+02  0.00000000000E+00 0. -1.
</event>
<event>
 7    1  0.5755468E-013  0.5930195E+02  0.7816164E-02  0.1266605E+00
        -11   -1    0    0    0    0  0.00000000000E+00  0.00000000000E+00  0.45593999997E+02  0.45594000000E+02  0.51100000000E-03 0.  1.
         11   -1    0    0    0    0 -0.00000000000E+00 -0.00000000000E+00 -0.45593999997E+02  0.45594000000E+02  0.51100000000E-03 0. -1.
    9900012    2    1    2    0    0  0.35487182322E+01 -0.26391696306E+02 -0.17538682003E+02  0.59301946600E+02  0.50000004692E+02 0.  0.
        -12    1    1    2    0    0 -0.35487182322E+01  0.26391696306E+02  0.17538682003E+02  0.31886053400E+02  0.00000000000E+00 0.  1.
         11    1    3    3    0    0 -0.59111140564E+01 -0.35710462104E+02 -0.24991117428E+02  0.43985614963E+02  0.51100000000E-03 0. -1.
        -11    1    3    3    0    0  0.30266744669E+01  0.40390071009E+01  0.25078659496E+01  0.56359319169E+01  0.51100000000E-03 0.  1.
         12    1    3    3    0    0  0.64331578218E+01  0.52797586967E+01  0.49445694759E+01  0.96803997210E+01  0.00000000000E+00 0. -1.
</event>
<event>
 7    1  0.5755468E-013  0.5930200E+02  0.7816164E-02  0.1266605E+00
        -11   -1    0    0    0    0  0.00000000000E+00  0.00000000000E+00  0.45593999997E+02  0.45594000000E+02  0.51100000000E-03 0. -1.
         11   -1    0    0    0    0 -0.00000000000E+00 -0.00000000000E+00 -0.45593999997E+02  0.45594000000E+02  0.51100000000E-03 0.  1.
    9900012    2    1    2    0    0 -0.10450182132E+02 -0.99567522460E+01  0.28431914393E+02  0.59302000283E+02  0.50000102596E+02 0.  0.
        -12    1    1    2    0    0  0.10450182132E+02  0.99567522460E+01 -0.28431914393E+02  0.31885999717E+02  0.00000000000E+00 0.  1.
         11    1    3    3    0    0  0.99226826843E+01 -0.53584068274E+01 -0.26626118516E+01  0.11587133274E+02  0.51100000000E-03 0. -1.
        -11    1    3    3    0    0 -0.25240794839E+02  0.19652935882E+01  0.30329347802E+02  0.39507334020E+02  0.51100000000E-03 0.  1.
         12    1    3    3    0    0  0.48679300232E+01 -0.65636390067E+01  0.76517844313E+00  0.82075329893E+01  0.00000000000E+00 0. -1.
</event>
<event>
 7    1  0.5755468E-013  0.5930193E+02  0.7816164E-02  0.1266605E+00
        -11   -1    0    0    0    0  0.00000000000E+00  0.00000000000E+00  0.45593999997E+02  0.45594000000E+02  0.51100000000E-03 0.  1.
         11   -1    0    0    0    0 -0.00000000000E+00 -0.00000000000E+00 -0.45593999997E+02  0.45594000000E+02  0.51100000000E-03 0. -1.
    9900012    2    1    2    0    0  0.58278035294E+01  0.29716992767E+02  0.99829256795E+01  0.59301925325E+02  0.49999965890E+02 0.  0.
        -12    1    1    2    0    0 -0.58278035294E+01 -0.29716992767E+02 -0.99829256795E+01  0.31886074675E+02  0.00000000000E+00 0.  1.
         11    1    3    3    0    0  0.16695036020E+02  0.13992236855E+02 -0.53621701130E+01  0.22433452442E+02  0.51100000000E-03 0. -1.
        -11    1    3    3    0    0  0.65842214610E+01  0.19055595352E+01  0.12726016014E+02  0.14454570669E+02  0.51100000000E-03 0.  1.
         12    1    3    3    0    0 -0.17451453951E+02  0.13819196377E+02  0.26190797786E+01  0.22413902213E+02  0.00000000000E+00 0. -1.
</event>
<event>
 7    1  0.5755468E-013  0.5930189E+02  0.7816164E-02  0.1266605E+00
        -11   -1    0    0    0    0  0.00000000000E+00  0.00000000000E+00  0.45593999997E+02  0.45594000000E+02  0.51100000000E-03 0. -1.
         11   -1    0    0    0    0 -0.00000000000E+00 -0.00000000000E+00 -0.45593999997E+02  0.45594000000E+02  0.51100000000E-03 0.  1.
    9900012    2    1    2    0    0  0.13173955504E+02  0.10805879539E+02  0.26951886584E+02  0.59301885048E+02  0.49999892436E+02 0.  0.
        -12    1    1    2    0    0 -0.13173955504E+02 -0.10805879539E+02 -0.26951886584E+02  0.31886114952E+02  0.00000000000E+00 0.  1.
         11    1    3    3    0    0  0.58145045105E+01 -0.11377300902E+02  0.16506656453E+02  0.20873934608E+02  0.51100000000E-03 0. -1.
        -11    1    3    3    0    0 -0.44518465380E+00 -0.24995759318E+01 -0.68428848302E+01  0.72987082608E+01  0.51100000000E-03 0.  1.
         12    1    3    3    0    0  0.78046356475E+01  0.24682756373E+02  0.17288114962E+02  0.31129242180E+02  0.00000000000E+00 0. -1.
</event>
<event>
 7    1  0.5755468E-013  0.5930187E+02  0.7816164E-02  0.1266605E+00
        -11   -1    0    0    0    0  0.00000000000E+00  0.00000000000E+00  0.45593999997E+02  0.45594000000E+02  0.51100000000E-03 0. -1.
         11   -1    0    0    0    0 -0.00000000000E+00 -0.00000000000E+00 -0.45593999997E+02  0.45594000000E+02  0.51100000000E-03 0.  1.
    9900012    2    1    2    0    0 -0.52610974541E+01  0.12094743702E+02  0.29030382565E+02  0.59301873181E+02  0.49999870792E+02 0.  0.
        -12    1    1    2    0    0  0.52610974541E+01 -0.12094743702E+02 -0.29030382565E+02  0.31886126819E+02  0.00000000000E+00 0.  1.
         11    1    3    3    0    0  0.70694938592E+01  0.24527051656E+02  0.19121730523E+02  0.31893488125E+02  0.51100000000E-03 0. -1.
        -11    1    3    3    0    0  0.36441153599E+00 -0.11679287018E+02  0.88287144328E+01  0.14645297533E+02  0.51100000000E-03 0.  1.
         12    1    3    3    0    0 -0.12695002849E+02 -0.75302093493E+00  0.10799376095E+01  0.12763087523E+02  0.00000000000E+00 0. -1.
</event>
<event>
 7    1  0.5755468E-013  0.5930188E+02  0.7816164E-02  0.1266605E+00
        -11   -1    0    0    0    0  0.00000000000E+00  0.00000000000E+00  0.45593999997E+02  0.45594000000E+02  0.51100000000E-03 0.  1.
         11   -1    0    0    0    0 -0.00000000000E+00 -0.00000000000E+00 -0.45593999997E+02  0.45594000000E+02  0.51100000000E-03 0. -1.
    9900012    2    1    2    0    0 -0.30102226715E+01  0.11185607557E+02 -0.29707667003E+02  0.59301878635E+02  0.49999880739E+02 0.  0.
        -12    1    1    2    0    0  0.30102226715E+01 -0.11185607557E+02  0.29707667003E+02  0.31886121365E+02  0.00000000000E+00 0.  1.
         11    1    3    3    0    0  0.82243409708E+01  0.14465926507E+02 -0.29751782283E+02  0.34089167831E+02  0.51100000000E-03 0. -1.
        -11    1    3    3    0    0  0.34839769232E+01 -0.86957557806E+01  0.13968290834E+01  0.94712932352E+01  0.51100000000E-03 0.  1.
         12    1    3    3    0    0 -0.14718540566E+02  0.54154368306E+01 -0.13527138036E+01  0.15741417569E+02  0.00000000000E+00 0. -1.
</event>
<event>
 7    1  0.5755468E-013  0.5930194E+02  0.7816164E-02  0.1266605E+00
        -11   -1    0    0    0    0  0.00000000000E+00  0.00000000000E+00  0.45593999997E+02  0.45594000000E+02  0.51100000000E-03 0.  1.
         11   -1    0    0    0    0 -0.00000000000E+00 -0.00000000000E+00 -0.45593999997E+02  0.45594000000E+02  0.51100000000E-03 0. -1.
    9900012    2    1    2    0    0 -0.20036117652E+02 -0.10925207936E+02 -0.22269140592E+02  0.59301940323E+02  0.49999993243E+02 0.  0.
        -12    1    1    2    0    0  0.20036117652E+02  0.10925207936E+02  0.22269140592E+02  0.31886059677E+02  0.00000000000E+00 0.  1.
         11    1    3    3    0    0 -0.11450054739E+02  0.71047500483E+01 -0.18948894421E+02  0.23251705890E+02  0.51100000000E-03 0. -1.
        -11    1    3    3    0    0  0.10188637682E+02 -0.12538868546E+02  0.28785017487E+00  0.16159035250E+02  0.51100000000E-03 0.  1.
        -12    1    3    3    0    0 -0.18774700595E+02 -0.54910894380E+01 -0.36080963458E+01  0.19891199182E+02  0.00000000000E+00 0.  1.
</event>
<event>
 7    1  0.5755468E-013  0.5930196E+02  0.7816164E-02  0.1266605E+00
        -11   -1    0    0    0    0  0.00000000000E+00  0.00000000000E+00  0.45593999997E+02  0.45594000000E+02  0.51100000000E-03 0.  1.
         11   -1    0    0    0    0 -0.00000000000E+00 -0.00000000000E+00 -0.45593999997E+02  0.45594000000E+02  0.51100000000E-03 0. -1.
    9900012    2    1    2    0    0 -0.10294707962E+02  0.27147200530E+02  0.13182112910E+02  0.59301959020E+02  0.50000027342E+02 0.  0.
        -12    1    1    2    0    0  0.10294707962E+02 -0.27147200530E+02 -0.13182112910E+02  0.31886040980E+02  0.00000000000E+00 0.  1.
         11    1    3    3    0    0 -0.22143618822E+02  0.14355214762E+01  0.80888438103E+01  0.23618424395E+02  0.51100000000E-03 0. -1.
        -11    1    3    3    0    0  0.70397631493E+01  0.12407792219E+01  0.78213115392E+01  0.10595787499E+02  0.51100000000E-03 0.  1.
         12    1    3    3    0    0  0.48091477114E+01  0.24470899832E+02 -0.27280424394E+01  0.25087747125E+02  0.00000000000E+00 0. -1.
</event>
<event>
 7    1  0.5755468E-013  0.5930195E+02  0.7816164E-02  0.1266605E+00
        -11   -1    0    0    0    0  0.00000000000E+00  0.00000000000E+00  0.45593999997E+02  0.45594000000E+02  0.51100000000E-03 0. -1.
         11   -1    0    0    0    0 -0.00000000000E+00 -0.00000000000E+00 -0.45593999997E+02  0.45594000000E+02  0.51100000000E-03 0.  1.
    9900012    2    1    2    0    0  0.48996131935E+01 -0.13522149009E+01  0.31478331447E+02  0.59301952185E+02  0.50000014876E+02 0.  0.
        -12    1    1    2    0    0 -0.48996131935E+01  0.13522149009E+01 -0.31478331447E+02  0.31886047815E+02  0.00000000000E+00 0.  1.
         11    1    3    3    0    0  0.75484024229E+01  0.91077577493E+01  0.10198322959E+02  0.15618432117E+02  0.51100000000E-03 0. -1.
        -11    1    3    3    0    0 -0.71112321819E+01 -0.20220877372E+02  0.24427847010E+02  0.32498818666E+02  0.51100000000E-03 0.  1.
        -12    1    3    3    0    0  0.44624429525E+01  0.97609047220E+01 -0.31478385216E+01  0.11184701402E+02  0.00000000000E+00 0.  1.
</event>
<event>
 7    1  0.5755468E-013  0.5930193E+02  0.7816164E-02  0.1266605E+00
        -11   -1    0    0    0    0  0.00000000000E+00  0.00000000000E+00  0.45593999997E+02  0.45594000000E+02  0.51100000000E-03 0. -1.
         11   -1    0    0    0    0 -0.00000000000E+00 -0.00000000000E+00 -0.45593999997E+02  0.45594000000E+02  0.51100000000E-03 0.  1.
    9900012    2    1    2    0    0  0.19215459145E+01  0.11179347595E+02  0.29800193100E+02  0.59301926862E+02  0.49999968695E+02 0.  0.
        -12    1    1    2    0    0 -0.19215459145E+01 -0.11179347595E+02 -0.29800193100E+02  0.31886073138E+02  0.00000000000E+00 0.  1.
         11    1    3    3    0    0 -0.16000877124E+02  0.20191239769E+01  0.23497532995E+02  0.28499806797E+02  0.51100000000E-03 0. -1.
        -11    1    3    3    0    0  0.14353927654E+02 -0.24780699105E+01 -0.37201031275E+01  0.15033803149E+02  0.51100000000E-03 0.  1.
         12    1    3    3    0    0  0.35684953842E+01  0.11638293529E+02  0.10022763232E+02  0.15768316916E+02  0.00000000000E+00 0. -1.
</event>
<event>
 7    1  0.5755468E-013  0.5930196E+02  0.7816164E-02  0.1266605E+00
        -11   -1    0    0    0    0  0.00000000000E+00  0.00000000000E+00  0.45593999997E+02  0.45594000000E+02  0.51100000000E-03 0.  1.
         11   -1    0    0    0    0 -0.00000000000E+00 -0.00000000000E+00 -0.45593999997E+02  0.45594000000E+02  0.51100000000E-03 0. -1.
    9900012    2    1    2    0    0  0.24556567070E+02  0.16815199799E+02  0.11443048463E+02  0.59301964049E+02  0.50000036514E+02 0.  0.
        -12    1    1    2    0    0 -0.24556567070E+02 -0.16815199799E+02 -0.11443048463E+02  0.31886035951E+02  0.00000000000E+00 0.  1.
         11    1    3    3    0    0  0.30631884894E+02  0.28524015635E+01  0.18184567165E+02  0.35736914390E+02  0.51100000000E-03 0. -1.
        -11    1    3    3    0    0 -0.10715780002E+02  0.51002540522E+01 -0.65588297227E+01  0.13559453531E+02  0.51100000000E-03 0.  1.
         12    1    3    3    0    0  0.46404621779E+01  0.88625441835E+01 -0.18268897921E+00  0.10005596129E+02  0.00000000000E+00 0. -1.
</event>
<event>
 7    1  0.5755468E-013  0.5930196E+02  0.7816164E-02  0.1266605E+00
        -11   -1    0    0    0    0  0.00000000000E+00  0.00000000000E+00  0.45593999997E+02  0.45594000000E+02  0.51100000000E-03 0.  1.
         11   -1    0    0    0    0 -0.00000000000E+00 -0.00000000000E+00 -0.45593999997E+02  0.45594000000E+02  0.51100000000E-03 0. -1.
    9900012    2    1    2    0    0 -0.24197625297E+02  0.90089558981E+01 -0.18709170869E+02  0.59301961817E+02  0.50000032444E+02 0.  0.
        -12    1    1    2    0    0  0.24197625297E+02 -0.90089558981E+01  0.18709170869E+02  0.31886038183E+02  0.00000000000E+00 0.  1.
         11    1    3    3    0    0 -0.97981031979E+01  0.58410406081E+00 -0.15945522744E+02  0.18724414535E+02  0.51100000000E-03 0. -1.
        -11    1    3    3    0    0  0.55003387855E+00 -0.12287148136E+02  0.58512095157E+01  0.13620323038E+02  0.51100000000E-03 0.  1.
        -12    1    3    3    0    0 -0.14949555978E+02  0.20711999974E+02 -0.86148576404E+01  0.26957224245E+02  0.00000000000E+00 0.  1.
</event>
<event>
 7    1  0.5755468E-013  0.5930194E+02  0.7816164E-02  0.1266605E+00
        -11   -1    0    0    0    0  0.00000000000E+00  0.00000000000E+00  0.45593999997E+02  0.45594000000E+02  0.51100000000E-03 0.  1.
         11   -1    0    0    0    0 -0.00000000000E+00 -0.00000000000E+00 -0.45593999997E+02  0.45594000000E+02  0.51100000000E-03 0. -1.
    9900012    2    1    2    0    0 -0.26019359037E+02 -0.56535671882E+01 -0.17542830590E+02  0.59301940793E+02  0.49999994101E+02 0.  0.
        -12    1    1    2    0    0  0.26019359037E+02  0.56535671882E+01  0.17542830590E+02  0.31886059207E+02  0.00000000000E+00 0.  1.
         11    1    3    3    0    0 -0.13017325784E+02 -0.46076718507E+01  0.13514074671E+02  0.19321273895E+02  0.51100000000E-03 0.  1.
        -11    1    3    3    0    0  0.14384117162E+01 -0.32136170256E+01 -0.23069495823E+02  0.23336623587E+02  0.51100000000E-03 0. -1.
        -12    1    3    3    0    0 -0.14440444969E+02  0.21677216881E+01 -0.79874094377E+01  0.16644043312E+02  0.00000000000E+00 0.  1.
</event>
<event>
 7    1  0.5755468E-013  0.5930194E+02  0.7816164E-02  0.1266605E+00
        -11   -1    0    0    0    0  0.00000000000E+00  0.00000000000E+00  0.45593999997E+02  0.45594000000E+02  0.51100000000E-03 0.  1.
         11   -1    0    0    0    0 -0.00000000000E+00 -0.00000000000E+00 -0.45593999997E+02  0.45594000000E+02  0.51100000000E-03 0. -1.
    9900012    2    1    2    0    0 -0.16753583854E+02 -0.18706804342E+02 -0.19649271185E+02  0.59301937861E+02  0.49999988753E+02 0.  0.
        -12    1    1    2    0    0  0.16753583854E+02  0.18706804342E+02  0.19649271185E+02  0.31886062139E+02  0.00000000000E+00 0.  1.
         11    1    3    3    0    0  0.42279988158E+01 -0.12179691261E+02 -0.86973638654E+01  0.15552009249E+02  0.51100000000E-03 0. -1.
        -11    1    3    3    0    0 -0.25392206336E+02  0.29842773454E+01  0.35951193980E+01  0.25818499910E+02  0.51100000000E-03 0.  1.
        -12    1    3    3    0    0  0.44106236658E+01 -0.95113904261E+01 -0.14547026718E+02  0.17931428702E+02  0.00000000000E+00 0.  1.
</event>
<event>
 7    1  0.5755468E-013  0.5930195E+02  0.7816164E-02  0.1266605E+00
        -11   -1    0    0    0    0  0.00000000000E+00  0.00000000000E+00  0.45593999997E+02  0.45594000000E+02  0.51100000000E-03 0.  1.
         11   -1    0    0    0    0 -0.00000000000E+00 -0.00000000000E+00 -0.45593999997E+02  0.45594000000E+02  0.51100000000E-03 0. -1.
    9900012    2    1    2    0    0 -0.27719205346E+02  0.53597678050E+00 -0.15750517424E+02  0.59301946384E+02  0.50000004297E+02 0.  0.
        -12    1    1    2    0    0  0.27719205346E+02 -0.53597678050E+00  0.15750517424E+02  0.31886053616E+02  0.00000000000E+00 0.  1.
         11    1    3    3    0    0 -0.15209890809E+02 -0.14595844891E+01 -0.29143804934E+02  0.32906420826E+02  0.51100000000E-03 0. -1.
        -11    1    3    3    0    0 -0.68999723254E+01  0.10414103404E+02  0.59562182264E+01  0.13839786979E+02  0.51100000000E-03 0.  1.
         12    1    3    3    0    0 -0.56093422108E+01 -0.84185421349E+01  0.74370692834E+01  0.12555738578E+02  0.00000000000E+00 0. -1.
</event>
<event>
 7    1  0.5755468E-013  0.5930192E+02  0.7816164E-02  0.1266605E+00
        -11   -1    0    0    0    0  0.00000000000E+00  0.00000000000E+00  0.45593999997E+02  0.45594000000E+02  0.51100000000E-03 0. -1.
         11   -1    0    0    0    0 -0.00000000000E+00 -0.00000000000E+00 -0.45593999997E+02  0.45594000000E+02  0.51100000000E-03 0.  1.
    9900012    2    1    2    0    0  0.25163119853E+01 -0.67666055926E+00  0.31779432943E+02  0.59301920691E+02  0.49999957440E+02 0.  0.
        -12    1    1    2    0    0 -0.25163119853E+01  0.67666055926E+00 -0.31779432943E+02  0.31886079309E+02  0.00000000000E+00 0.  1.
         11    1    3    3    0    0 -0.21326249986E+02  0.69512700115E+01  0.21926380094E+02  0.31367104386E+02  0.51100000000E-03 0. -1.
        -11    1    3    3    0    0  0.10720764356E+02 -0.13644956860E+01  0.76219228426E+01  0.13224611334E+02  0.51100000000E-03 0.  1.
         12    1    3    3    0    0  0.13121797615E+02 -0.62634348847E+01  0.22311300059E+01  0.14710204972E+02  0.00000000000E+00 0. -1.
</event>
<event>
 7    1  0.5755468E-013  0.5930196E+02  0.7816164E-02  0.1266605E+00
        -11   -1    0    0    0    0  0.00000000000E+00  0.00000000000E+00  0.45593999997E+02  0.45594000000E+02  0.51100000000E-03 0. -1.
         11   -1    0    0    0    0 -0.00000000000E+00 -0.00000000000E+00 -0.45593999997E+02  0.45594000000E+02  0.51100000000E-03 0.  1.
    9900012    2    1    2    0    0  0.11874685344E+02 -0.17385968398E+02  0.23946598641E+02  0.59301958608E+02  0.50000026591E+02 0.  0.
        -12    1    1    2    0    0 -0.11874685344E+02  0.17385968398E+02 -0.23946598641E+02  0.31886041392E+02  0.00000000000E+00 0.  1.
         11    1    3    3    0    0 -0.22607813983E+01 -0.25279047646E+02  0.19078977537E+02  0.31751358499E+02  0.51100000000E-03 0. -1.
        -11    1    3    3    0    0  0.48143748321E+01  0.12182108499E+02  0.96110593443E+01  0.16246674567E+02  0.51100000000E-03 0.  1.
         12    1    3    3    0    0  0.93210919102E+01 -0.42890292516E+01 -0.47434382405E+01  0.11303925542E+02  0.00000000000E+00 0. -1.
</event>
<event>
 7    1  0.5755468E-013  0.5930193E+02  0.7816164E-02  0.1266605E+00
        -11   -1    0    0    0    0  0.00000000000E+00  0.00000000000E+00  0.45593999997E+02  0.45594000000E+02  0.51100000000E-03 0. -1.
         11   -1    0    0    0    0 -0.00000000000E+00 -0.00000000000E+00 -0.45593999997E+02  0.45594000000E+02  0.51100000000E-03 0.  1.
    9900012    2    1    2    0    0  0.71837285392E+01 -0.30658612008E+02 -0.50164468148E+01  0.59301934319E+02  0.49999982293E+02 0.  0.
        -12    1    1    2    0    0 -0.71837285392E+01  0.30658612008E+02  0.50164468148E+01  0.31886065681E+02  0.00000000000E+00 0.  1.
         11    1    3    3    0    0 -0.10013903715E+02 -0.30147452134E+02  0.15321343130E+01  0.31804002477E+02  0.51100000000E-03 0. -1.
        -11    1    3    3    0    0  0.19735675912E+02  0.35396894222E+01 -0.86208576171E+00  0.20069117993E+02  0.51100000000E-03 0.  1.
        -12    1    3    3    0    0 -0.25380436576E+01 -0.40508492967E+01 -0.56864953661E+01  0.74288138475E+01  0.00000000000E+00 0.  1.
</event>
<event>
 7    1  0.5755468E-013  0.5930196E+02  0.7816164E-02  0.1266605E+00
        -11   -1    0    0    0    0  0.00000000000E+00  0.00000000000E+00  0.45593999997E+02  0.45594000000E+02  0.51100000000E-03 0.  1.
         11   -1    0    0    0    0 -0.00000000000E+00 -0.00000000000E+00 -0.45593999997E+02  0.45594000000E+02  0.51100000000E-03 0. -1.
    9900012    2    1    2    0    0  0.88782562891E+01  0.29397215061E+02 -0.85848678835E+01  0.59301958467E+02  0.50000026334E+02 0.  0.
        -12    1    1    2    0    0 -0.88782562891E+01 -0.29397215061E+02  0.85848678835E+01  0.31886041533E+02  0.00000000000E+00 0.  1.
         11    1    3    3    0    0 -0.32362373727E+01 -0.48404967466E+01 -0.13681769149E+02  0.14869245051E+02  0.51100000000E-03 0. -1.
        -11    1    3    3    0    0 -0.66851994937E+01  0.15186276440E+02  0.60213037465E+01  0.17651373415E+02  0.51100000000E-03 0.  1.
         12    1    3    3    0    0  0.18799693156E+02  0.19051435367E+02 -0.92440248121E+00  0.26781340001E+02  0.00000000000E+00 0. -1.
</event>
<event>
 7    1  0.5755468E-013  0.5930190E+02  0.7816164E-02  0.1266605E+00
        -11   -1    0    0    0    0  0.00000000000E+00  0.00000000000E+00  0.45593999997E+02  0.45594000000E+02  0.51100000000E-03 0. -1.
         11   -1    0    0    0    0 -0.00000000000E+00 -0.00000000000E+00 -0.45593999997E+02  0.45594000000E+02  0.51100000000E-03 0.  1.
    9900012    2    1    2    0    0  0.31773563146E+02 -0.32094361666E+00 -0.26572925139E+01  0.59301897646E+02  0.49999915411E+02 0.  0.
        -12    1    1    2    0    0 -0.31773563146E+02  0.32094361666E+00  0.26572925139E+01  0.31886102354E+02  0.00000000000E+00 0.  1.
         11    1    3    3    0    0  0.19782478562E+02 -0.17815613331E+02  0.71952409245E+01  0.27577418817E+02  0.51100000000E-03 0. -1.
        -11    1    3    3    0    0  0.50566609205E+01  0.88167520459E+01 -0.16055111321E+02  0.19001882435E+02  0.51100000000E-03 0.  1.
         12    1    3    3    0    0  0.69344236637E+01  0.86779176682E+01  0.62025778825E+01  0.12722596394E+02  0.00000000000E+00 0. -1.
</event>
<event>
 7    1  0.5755468E-013  0.5930194E+02  0.7816164E-02  0.1266605E+00
        -11   -1    0    0    0    0  0.00000000000E+00  0.00000000000E+00  0.45593999997E+02  0.45594000000E+02  0.51100000000E-03 0.  1.
         11   -1    0    0    0    0 -0.00000000000E+00 -0.00000000000E+00 -0.45593999997E+02  0.45594000000E+02  0.51100000000E-03 0. -1.
    9900012    2    1    2    0    0 -0.16928011139E+02 -0.22300071795E+02  0.15260077244E+02  0.59301941594E+02  0.49999995561E+02 0.  0.
        -12    1    1    2    0    0  0.16928011139E+02  0.22300071795E+02 -0.15260077244E+02  0.31886058406E+02  0.00000000000E+00 0.  1.
         11    1    3    3    0    0 -0.10657288234E+02 -0.25364511458E+02 -0.34030014425E+01  0.27722132910E+02  0.51100000000E-03 0. -1.
        -11    1    3    3    0    0 -0.15397774900E+02 -0.22929910645E+00  0.87660977871E+01  0.17719721235E+02  0.51100000000E-03 0.  1.
         12    1    3    3    0    0  0.91270519945E+01  0.32937387691E+01  0.98969808990E+01  0.13860087449E+02  0.00000000000E+00 0. -1.
</event>
<event>
 7    1  0.5755468E-013  0.5930195E+02  0.7816164E-02  0.1266605E+00
        -11   -1    0    0    0    0  0.00000000000E+00  0.00000000000E+00  0.45593999997E+02  0.45594000000E+02  0.51100000000E-03 0. -1.
         11   -1    0    0    0    0 -0.00000000000E+00 -0.00000000000E+00 -0.45593999997E+02  0.45594000000E+02  0.51100000000E-03 0.  1.
    9900012    2    1    2    0    0 -0.21354178135E+02  0.77678252189E+01  0.22369174129E+02  0.59301953150E+02  0.50000016637E+02 0.  0.
        -12    1    1    2    0    0  0.21354178135E+02 -0.77678252189E+01 -0.22369174129E+02  0.31886046850E+02  0.00000000000E+00 0.  1.
         11    1    3    3    0    0  0.73628728270E+01 -0.10069418127E+02  0.86520154817E+01  0.15180989752E+02  0.51100000000E-03 0.  1.
        -11    1    3    3    0    0 -0.23277549866E+02  0.12153258054E+02  0.20827855498E+02  0.33516347862E+02  0.51100000000E-03 0. -1.
        -12    1    3    3    0    0 -0.54395010964E+01  0.56839852926E+01 -0.71106968504E+01  0.10604615537E+02  0.00000000000E+00 0.  1.
</event>
<event>
 7    1  0.5755468E-013  0.5930196E+02  0.7816164E-02  0.1266605E+00
        -11   -1    0    0    0    0  0.00000000000E+00  0.00000000000E+00  0.45593999997E+02  0.45594000000E+02  0.51100000000E-03 0.  1.
         11   -1    0    0    0    0 -0.00000000000E+00 -0.00000000000E+00 -0.45593999997E+02  0.45594000000E+02  0.51100000000E-03 0. -1.
    9900012    2    1    2    0    0  0.14485437971E+02 -0.15233923395E+02 -0.23975386407E+02  0.59301960914E+02  0.50000030797E+02 0.  0.
        -12    1    1    2    0    0 -0.14485437971E+02  0.15233923395E+02  0.23975386407E+02  0.31886039086E+02  0.00000000000E+00 0.  1.
         11    1    3    3    0    0  0.17153863998E+02  0.12950439951E+02 -0.12494619161E+01  0.21529749194E+02  0.51100000000E-03 0. -1.
        -11    1    3    3    0    0  0.19354088933E+01 -0.19149445590E+02 -0.18780209655E+02  0.26891324789E+02  0.51100000000E-03 0.  1.
         12    1    3    3    0    0 -0.46038349206E+01 -0.90349177566E+01 -0.39457148363E+01  0.10880886931E+02  0.00000000000E+00 0. -1.
</event>
<event>
 7    1  0.5755468E-013  0.5930196E+02  0.7816164E-02  0.1266605E+00
        -11   -1    0    0    0    0  0.00000000000E+00  0.00000000000E+00  0.45593999997E+02  0.45594000000E+02  0.51100000000E-03 0. -1.
         11   -1    0    0    0    0 -0.00000000000E+00 -0.00000000000E+00 -0.45593999997E+02  0.45594000000E+02  0.51100000000E-03 0.  1.
    9900012    2    1    2    0    0 -0.28656160653E+02 -0.13710404770E+02 -0.27511232779E+01  0.59301961964E+02  0.50000032712E+02 0.  0.
        -12    1    1    2    0    0  0.28656160653E+02  0.13710404770E+02  0.27511232779E+01  0.31886038036E+02  0.00000000000E+00 0.  1.
         11    1    3    3    0    0 -0.31556082890E+02 -0.17494481422E+02 -0.12412433563E+02  0.38156411713E+02  0.51100000000E-03 0. -1.
        -11    1    3    3    0    0  0.83590783740E+01  0.50958923026E+01 -0.20670876325E+00  0.97920906039E+01  0.51100000000E-03 0.  1.
        -12    1    3    3    0    0 -0.54591561370E+01 -0.13118156502E+01  0.98680190484E+01  0.11353459648E+02  0.00000000000E+00 0.  1.
</event>
<event>
 7    1  0.5755468E-013  0.5930194E+02  0.7816164E-02  0.1266605E+00
        -11   -1    0    0    0    0  0.00000000000E+00  0.00000000000E+00  0.45593999997E+02  0.45594000000E+02  0.51100000000E-03 0. -1.
         11   -1    0    0    0    0 -0.00000000000E+00 -0.00000000000E+00 -0.45593999997E+02  0.45594000000E+02  0.51100000000E-03 0.  1.
    9900012    2    1    2    0    0 -0.24191918920E+02  0.58070307770E+01  0.19943674781E+02  0.59301941742E+02  0.49999995831E+02 0.  0.
        -12    1    1    2    0    0  0.24191918920E+02 -0.58070307770E+01 -0.19943674781E+02  0.31886058258E+02  0.00000000000E+00 0.  1.
         11    1    3    3    0    0  0.45724588936E+01 -0.15924894614E+01  0.39993648277E+01  0.62799938141E+01  0.51100000000E-03 0. -1.
        -11    1    3    3    0    0 -0.39647592560E+01  0.18520534784E+02 -0.39402064222E+01  0.19345664929E+02  0.51100000000E-03 0.  1.
        -12    1    3    3    0    0 -0.24799618557E+02 -0.11121014546E+02  0.19884516375E+02  0.33676282999E+02  0.00000000000E+00 0.  1.
</event>
<event>
 7    1  0.5755468E-013  0.5930188E+02  0.7816164E-02  0.1266605E+00
        -11   -1    0    0    0    0  0.00000000000E+00  0.00000000000E+00  0.45593999997E+02  0.45594000000E+02  0.51100000000E-03 0. -1.
         11   -1    0    0    0    0 -0.00000000000E+00 -0.00000000000E+00 -0.45593999997E+02  0.45594000000E+02  0.51100000000E-03 0.  1.
    9900012    2    1    2    0    0  0.13771434458E+02 -0.11957913387E+02  0.26154935843E+02  0.59301878120E+02  0.49999879800E+02 0.  0.
        -12    1    1    2    0    0 -0.13771434458E+02  0.11957913387E+02 -0.26154935843E+02  0.31886121880E+02  0.00000000000E+00 0.  1.
         11    1    3    3    0    0  0.71600848162E+01 -0.72512030225E+01 -0.94505052504E+01  0.13898158497E+02  0.51100000000E-03 0. -1.
        -11    1    3    3    0    0 -0.90934904877E+01  0.63182661100E-01  0.43056415589E+01  0.10061516327E+02  0.51100000000E-03 0.  1.
         12    1    3    3    0    0  0.15704840129E+02 -0.47698930254E+01  0.31299799534E+02  0.35342203297E+02  0.00000000000E+00 0. -1.
</event>
<event>
 7    1  0.5755468E-013  0.5930195E+02  0.7816164E-02  0.1266605E+00
        -11   -1    0    0    0    0  0.00000000000E+00  0.00000000000E+00  0.45593999997E+02  0.45594000000E+02  0.51100000000E-03 0.  1.
         11   -1    0    0    0    0 -0.00000000000E+00 -0.00000000000E+00 -0.45593999997E+02  0.45594000000E+02  0.51100000000E-03 0. -1.
    9900012    2    1    2    0    0 -0.13383177607E+02  0.34123072024E+01 -0.28739636163E+02  0.59301953363E+02  0.50000017026E+02 0.  0.
        -12    1    1    2    0    0  0.13383177607E+02 -0.34123072024E+01  0.28739636163E+02  0.31886046637E+02  0.00000000000E+00 0.  1.
         11    1    3    3    0    0  0.36164265178E+01  0.22168838125E+01 -0.31268938264E+02  0.31555342099E+02  0.51100000000E-03 0. -1.
        -11    1    3    3    0    0 -0.12842137510E+02 -0.92533123507E+01 -0.12630439331E+01  0.15878903159E+02  0.51100000000E-03 0.  1.
         12    1    3    3    0    0 -0.41574666150E+01  0.10448735741E+02  0.37923460335E+01  0.11867708105E+02  0.00000000000E+00 0. -1.
</event>
<event>
 7    1  0.5755468E-013  0.5930194E+02  0.7816164E-02  0.1266605E+00
        -11   -1    0    0    0    0  0.00000000000E+00  0.00000000000E+00  0.45593999997E+02  0.45594000000E+02  0.51100000000E-03 0.  1.
         11   -1    0    0    0    0 -0.00000000000E+00 -0.00000000000E+00 -0.45593999997E+02  0.45594000000E+02  0.51100000000E-03 0. -1.
    9900012    2    1    2    0    0  0.14486656511E+02 -0.10755232997E+02 -0.26290346298E+02  0.59301944080E+02  0.50000000095E+02 0.  0.
        -12    1    1    2    0    0 -0.14486656511E+02  0.10755232997E+02  0.26290346298E+02  0.31886055920E+02  0.00000000000E+00 0.  1.
         11    1    3    3    0    0 -0.13281429043E+02 -0.15145298959E+02 -0.12914839273E+02  0.23928424764E+02  0.51100000000E-03 0. -1.
        -11    1    3    3    0    0  0.12353673828E+02 -0.42507828827E+01 -0.11847459437E+02  0.17636459609E+02  0.51100000000E-03 0.  1.
         12    1    3    3    0    0  0.15414411726E+02  0.86408488449E+01 -0.15280475885E+01  0.17737059707E+02  0.00000000000E+00 0. -1.
</event>
<event>
 7    1  0.5755468E-013  0.5930193E+02  0.7816164E-02  0.1266605E+00
        -11   -1    0    0    0    0  0.00000000000E+00  0.00000000000E+00  0.45593999997E+02  0.45594000000E+02  0.51100000000E-03 0. -1.
         11   -1    0    0    0    0 -0.00000000000E+00 -0.00000000000E+00 -0.45593999997E+02  0.45594000000E+02  0.51100000000E-03 0.  1.
    9900012    2    1    2    0    0  0.11982422208E+02 -0.18212455469E+02  0.23269069723E+02  0.59301928089E+02  0.49999970931E+02 0.  0.
        -12    1    1    2    0    0 -0.11982422208E+02  0.18212455469E+02 -0.23269069723E+02  0.31886071911E+02  0.00000000000E+00 0.  1.
         11    1    3    3    0    0 -0.12707762561E+02 -0.88716887541E+01  0.68351908847E+01  0.16938533742E+02  0.51100000000E-03 0.  1.
        -11    1    3    3    0    0  0.22192509883E+02  0.30815748633E+01  0.19068696515E+02  0.29421400130E+02  0.51100000000E-03 0. -1.
        -12    1    3    3    0    0  0.24976748856E+01 -0.12422341578E+02 -0.26348176773E+01  0.12941994217E+02  0.00000000000E+00 0.  1.
</event>
<event>
 7    1  0.5755468E-013  0.5930196E+02  0.7816164E-02  0.1266605E+00
        -11   -1    0    0    0    0  0.00000000000E+00  0.00000000000E+00  0.45593999997E+02  0.45594000000E+02  0.51100000000E-03 0.  1.
         11   -1    0    0    0    0 -0.00000000000E+00 -0.00000000000E+00 -0.45593999997E+02  0.45594000000E+02  0.51100000000E-03 0. -1.
    9900012    2    1    2    0    0  0.51999763621E+01  0.71112483783E+01 -0.30644898472E+02  0.59301962146E+02  0.50000033043E+02 0.  0.
        -12    1    1    2    0    0 -0.51999763621E+01 -0.71112483783E+01  0.30644898472E+02  0.31886037854E+02  0.00000000000E+00 0.  1.
         11    1    3    3    0    0 -0.11039320934E+02  0.53782862542E+00 -0.30176295441E+02  0.32136656221E+02  0.51100000000E-03 0. -1.
        -11    1    3    3    0    0  0.16469020345E+01  0.31280075238E+00  0.86794875438E+01  0.88398888514E+01  0.51100000000E-03 0.  1.
         12    1    3    3    0    0  0.14592395261E+02  0.62606190005E+01 -0.91480905754E+01  0.18325417073E+02  0.00000000000E+00 0. -1.
</event>
<event>
 7    1  0.5755468E-013  0.5930195E+02  0.7816164E-02  0.1266605E+00
        -11   -1    0    0    0    0  0.00000000000E+00  0.00000000000E+00  0.45593999997E+02  0.45594000000E+02  0.51100000000E-03 0.  1.
         11   -1    0    0    0    0 -0.00000000000E+00 -0.00000000000E+00 -0.45593999997E+02  0.45594000000E+02  0.51100000000E-03 0. -1.
    9900012    2    1    2    0    0 -0.13824390389E+02 -0.10391839892E+02 -0.26788359331E+02  0.59301948166E+02  0.50000007546E+02 0.  0.
        -12    1    1    2    0    0  0.13824390389E+02  0.10391839892E+02  0.26788359331E+02  0.31886051834E+02  0.00000000000E+00 0.  1.
         11    1    3    3    0    0 -0.27301986473E+01  0.87365971608E+01 -0.59492887571E+01  0.10916783023E+02  0.51100000000E-03 0. -1.
        -11    1    3    3    0    0 -0.13101950612E+02 -0.25318099261E+02 -0.27116044034E+02  0.39343958931E+02  0.51100000000E-03 0.  1.
         12    1    3    3    0    0  0.20077588702E+01  0.61896622079E+01  0.62769734608E+01  0.90412062114E+01  0.00000000000E+00 0. -1.
</event>
<event>
 7    1  0.5901703E-013  0.5930201E+02  0.7816164E-02  0.1266605E+00
        -11   -1    0    0    0    0  0.00000000000E+00  0.00000000000E+00  0.45593999997E+02  0.45594000000E+02  0.51100000000E-03 0.  1.
         11   -1    0    0    0    0 -0.00000000000E+00 -0.00000000000E+00 -0.45593999997E+02  0.45594000000E+02  0.51100000000E-03 0. -1.
    9900012    2    1    2    0    0  0.20397732732E+02 -0.23772870654E+02 -0.59581592750E+01  0.59302007124E+02  0.50000115073E+02 0.  0.
        -12    1    1    2    0    0 -0.20397732732E+02  0.23772870654E+02  0.59581592750E+01  0.31885992876E+02  0.00000000000E+00 0.  1.
         11    1    3    3    0    0  0.44612217511E+01 -0.13312974237E+02 -0.23433432383E+02  0.27317824512E+02  0.51100000000E-03 0. -1.
        -11    1    3    3    0    0  0.37433750642E+01  0.30268706494E+01  0.12103569999E+02  0.13025790179E+02  0.51100000000E-03 0.  1.
         12    1    3    3    0    0  0.12193135917E+02 -0.13486767066E+02  0.53717031087E+01  0.18958392434E+02  0.00000000000E+00 0. -1.
</event>
<event>
 7    1  0.5755468E-013  0.5930194E+02  0.7816164E-02  0.1266605E+00
        -11   -1    0    0    0    0  0.00000000000E+00  0.00000000000E+00  0.45593999997E+02  0.45594000000E+02  0.51100000000E-03 0. -1.
         11   -1    0    0    0    0 -0.00000000000E+00 -0.00000000000E+00 -0.45593999997E+02  0.45594000000E+02  0.51100000000E-03 0.  1.
    9900012    2    1    2    0    0 -0.12629963941E+02  0.18553101891E+02  0.22649222148E+02  0.59301939678E+02  0.49999992068E+02 0.  0.
        -12    1    1    2    0    0  0.12629963941E+02 -0.18553101891E+02 -0.22649222148E+02  0.31886060322E+02  0.00000000000E+00 0.  1.
         11    1    3    3    0    0 -0.88212212851E+01  0.33025926020E+02  0.73708227610E+01  0.34969340327E+02  0.51100000000E-03 0. -1.
        -11    1    3    3    0    0  0.37464655015E+01 -0.40087559654E+01  0.20673723402E+01  0.58634594565E+01  0.51100000000E-03 0.  1.
         12    1    3    3    0    0 -0.75552081573E+01 -0.10464068164E+02  0.13211027047E+02  0.18469139895E+02  0.00000000000E+00 0. -1.
</event>
<event>
 7    1  0.6210748E-013  0.5930196E+02  0.7816164E-02  0.1266605E+00
        -11   -1    0    0    0    0  0.00000000000E+00  0.00000000000E+00  0.45593999997E+02  0.45594000000E+02  0.51100000000E-03 0. -1.
         11   -1    0    0    0    0 -0.00000000000E+00 -0.00000000000E+00 -0.45593999997E+02  0.45594000000E+02  0.51100000000E-03 0.  1.
    9900012    2    1    2    0    0 -0.43124007915E+01 -0.90450616195E+01  0.30270604538E+02  0.59301961685E+02  0.50000032203E+02 0.  0.
        -12    1    1    2    0    0  0.43124007915E+01  0.90450616195E+01 -0.30270604538E+02  0.31886038315E+02  0.00000000000E+00 0.  1.
         11    1    3    3    0    0 -0.25451136483E+01 -0.14393351631E+02  0.32677118527E+02  0.35797210089E+02  0.51100000000E-03 0. -1.
        -11    1    3    3    0    0  0.90553204570E+01 -0.17154753229E+01 -0.47527260031E+01  0.10369671590E+02  0.51100000000E-03 0.  1.
         12    1    3    3    0    0 -0.10822607600E+02  0.70637653342E+01  0.23462120148E+01  0.13135080007E+02  0.00000000000E+00 0. -1.
</event>
<event>
 7    1  0.5755468E-013  0.5930195E+02  0.7816164E-02  0.1266605E+00
        -11   -1    0    0    0    0  0.00000000000E+00  0.00000000000E+00  0.45593999997E+02  0.45594000000E+02  0.51100000000E-03 0.  1.
         11   -1    0    0    0    0 -0.00000000000E+00 -0.00000000000E+00 -0.45593999997E+02  0.45594000000E+02  0.51100000000E-03 0. -1.
    9900012    2    1    2    0    0 -0.18548728717E+02  0.25903657170E+02 -0.12906139676E+01  0.59301945427E+02  0.50000002552E+02 0.  0.
        -12    1    1    2    0    0  0.18548728717E+02 -0.25903657170E+02  0.12906139676E+01  0.31886054573E+02  0.00000000000E+00 0.  1.
         11    1    3    3    0    0 -0.88107752471E+01 -0.98080923812E+01 -0.14300729017E+02  0.19450945666E+02  0.51100000000E-03 0. -1.
        -11    1    3    3    0    0 -0.28668511605E+01  0.36077308180E+01  0.31112459981E+01  0.55600727651E+01  0.51100000000E-03 0.  1.
         12    1    3    3    0    0 -0.68711023093E+01  0.32104018733E+02  0.98988690511E+01  0.34290926996E+02  0.00000000000E+00 0. -1.
</event>
<event>
 7    1  0.5755468E-013  0.5930195E+02  0.7816164E-02  0.1266605E+00
        -11   -1    0    0    0    0  0.00000000000E+00  0.00000000000E+00  0.45593999997E+02  0.45594000000E+02  0.51100000000E-03 0.  1.
         11   -1    0    0    0    0 -0.00000000000E+00 -0.00000000000E+00 -0.45593999997E+02  0.45594000000E+02  0.51100000000E-03 0. -1.
    9900012    2    1    2    0    0  0.16943996438E+02 -0.21009728813E+02 -0.16976823923E+02  0.59301948652E+02  0.50000008434E+02 0.  0.
        -12    1    1    2    0    0 -0.16943996438E+02  0.21009728813E+02  0.16976823923E+02  0.31886051348E+02  0.00000000000E+00 0.  1.
         11    1    3    3    0    0  0.91944938976E+01  0.22656338790E+01 -0.65145636024E+01  0.11493970337E+02  0.51100000000E-03 0. -1.
        -11    1    3    3    0    0 -0.15439001344E+02 -0.10640016347E+02 -0.10314452139E+02  0.21400014803E+02  0.51100000000E-03 0.  1.
        -12    1    3    3    0    0  0.23188503884E+02 -0.12635346345E+02 -0.14780818128E+00  0.26407963513E+02  0.00000000000E+00 0.  1.
</event>
<event>
 7    1  0.5755468E-013  0.5930196E+02  0.7816164E-02  0.1266605E+00
        -11   -1    0    0    0    0  0.00000000000E+00  0.00000000000E+00  0.45593999997E+02  0.45594000000E+02  0.51100000000E-03 0. -1.
         11   -1    0    0    0    0 -0.00000000000E+00 -0.00000000000E+00 -0.45593999997E+02  0.45594000000E+02  0.51100000000E-03 0.  1.
    9900012    2    1    2    0    0 -0.28604498983E+02 -0.11475657418E+02  0.81738415638E+01  0.59301956640E+02  0.50000023001E+02 0.  0.
        -12    1    1    2    0    0  0.28604498983E+02  0.11475657418E+02 -0.81738415638E+01  0.31886043360E+02  0.00000000000E+00 0.  1.
         11    1    3    3    0    0 -0.26330304220E+01 -0.19857551180E+02  0.13000256655E+02  0.23880156228E+02  0.51100000000E-03 0. -1.
        -11    1    3    3    0    0 -0.24899231341E+02  0.14043170804E+02 -0.67034363964E+01  0.29361853269E+02  0.51100000000E-03 0.  1.
        -12    1    3    3    0    0 -0.10722372209E+01 -0.56612770420E+01  0.18770213048E+01  0.60599471435E+01  0.00000000000E+00 0.  1.
</event>
<event>
 7    1  0.5755468E-013  0.5930190E+02  0.7816164E-02  0.1266605E+00
        -11   -1    0    0    0    0  0.00000000000E+00  0.00000000000E+00  0.45593999997E+02  0.45594000000E+02  0.51100000000E-03 0. -1.
         11   -1    0    0    0    0 -0.00000000000E+00 -0.00000000000E+00 -0.45593999997E+02  0.45594000000E+02  0.51100000000E-03 0.  1.
    9900012    2    1    2    0    0 -0.29093971340E+02  0.13029333217E+02  0.70770839727E+00  0.59301897329E+02  0.49999914832E+02 0.  0.
        -12    1    1    2    0    0  0.29093971340E+02 -0.13029333217E+02 -0.70770839727E+00  0.31886102671E+02  0.00000000000E+00 0.  1.
         11    1    3    3    0    0 -0.25873939336E+02  0.24622728456E+02  0.66994711976E+01  0.36340368848E+02  0.51100000000E-03 0. -1.
        -11    1    3    3    0    0 -0.33643306950E+01 -0.16625947811E+02 -0.57864632179E+01  0.17922723522E+02  0.51100000000E-03 0.  1.
        -12    1    3    3    0    0  0.14429869197E+00  0.50325525709E+01 -0.20529958248E+00  0.50388049585E+01  0.00000000000E+00 0.  1.
</event>
<event>
 7    1  0.5755468E-013  0.5930213E+02  0.7816164E-02  0.1266604E+00
        -11   -1    0    0    0    0  0.00000000000E+00  0.00000000000E+00  0.45593999997E+02  0.45594000000E+02  0.51100000000E-03 0.  1.
         11   -1    0    0    0    0 -0.00000000000E+00 -0.00000000000E+00 -0.45593999997E+02  0.45594000000E+02  0.51100000000E-03 0. -1.
    9900012    2    1    2    0    0 -0.22841915939E+02 -0.10359731944E+02 -0.19688356000E+02  0.59302132728E+02  0.50000344143E+02 0.  0.
        -12    1    1    2    0    0  0.22841915939E+02  0.10359731944E+02  0.19688356000E+02  0.31885867272E+02  0.00000000000E+00 0.  1.
         11    1    3    3    0    0 -0.27828703719E+01  0.11118395671E+02 -0.11065002999E+02  0.15931019473E+02  0.51100000000E-03 0. -1.
        -11    1    3    3    0    0  0.23025766718E+01 -0.19833212148E+02 -0.56665899262E+01  0.20754960976E+02  0.51100000000E-03 0.  1.
        -12    1    3    3    0    0 -0.22361622239E+02 -0.16449154673E+01 -0.29567630740E+01  0.22616152279E+02  0.00000000000E+00 0.  1.
</event>
<event>
 7    1  0.5755468E-013  0.5930194E+02  0.7816164E-02  0.1266605E+00
        -11   -1    0    0    0    0  0.00000000000E+00  0.00000000000E+00  0.45593999997E+02  0.45594000000E+02  0.51100000000E-03 0. -1.
         11   -1    0    0    0    0 -0.00000000000E+00 -0.00000000000E+00 -0.45593999997E+02  0.45594000000E+02  0.51100000000E-03 0.  1.
    9900012    2    1    2    0    0 -0.52810636653E+01 -0.81885840486E+01  0.30360805752E+02  0.59301936147E+02  0.49999985627E+02 0.  0.
        -12    1    1    2    0    0  0.52810636653E+01  0.81885840486E+01 -0.30360805752E+02  0.31886063853E+02  0.00000000000E+00 0.  1.
         11    1    3    3    0    0  0.76266673053E+01 -0.12317594732E+02  0.14931966380E+02  0.20805115102E+02  0.51100000000E-03 0. -1.
        -11    1    3    3    0    0 -0.19207493220E+02  0.13261351300E+02  0.14233137328E+02  0.27338131475E+02  0.51100000000E-03 0.  1.
        -12    1    3    3    0    0  0.62997622493E+01 -0.91323406162E+01  0.11957020441E+01  0.11158689569E+02  0.00000000000E+00 0.  1.
</event>
<event>
 7    1  0.5755468E-013  0.5930194E+02  0.7816164E-02  0.1266605E+00
        -11   -1    0    0    0    0  0.00000000000E+00  0.00000000000E+00  0.45593999997E+02  0.45594000000E+02  0.51100000000E-03 0. -1.
         11   -1    0    0    0    0 -0.00000000000E+00 -0.00000000000E+00 -0.45593999997E+02  0.45594000000E+02  0.51100000000E-03 0.  1.
    9900012    2    1    2    0    0 -0.26642856480E+02  0.80062242452E-01  0.17517775246E+02  0.59301942530E+02  0.49999997269E+02 0.  0.
        -12    1    1    2    0    0  0.26642856480E+02 -0.80062242452E-01 -0.17517775246E+02  0.31886057470E+02  0.00000000000E+00 0.  1.
         11    1    3    3    0    0 -0.73799203517E+01  0.25057879097E+01  0.26167239196E+02  0.27303234329E+02  0.51100000000E-03 0. -1.
        -11    1    3    3    0    0 -0.99631047839E+01  0.29282113746E+01 -0.15940923922E+02  0.19025008135E+02  0.51100000000E-03 0.  1.
        -12    1    3    3    0    0 -0.92998313442E+01 -0.53539370418E+01  0.72914599727E+01  0.12973700066E+02  0.00000000000E+00 0.  1.
</event>
<event>
 7    1  0.5755468E-013  0.5930189E+02  0.7816164E-02  0.1266605E+00
        -11   -1    0    0    0    0  0.00000000000E+00  0.00000000000E+00  0.45593999997E+02  0.45594000000E+02  0.51100000000E-03 0. -1.
         11   -1    0    0    0    0 -0.00000000000E+00 -0.00000000000E+00 -0.45593999997E+02  0.45594000000E+02  0.51100000000E-03 0.  1.
    9900012    2    1    2    0    0  0.12843665827E+02 -0.11211341636E+02  0.26945689595E+02  0.59301888275E+02  0.49999898320E+02 0.  0.
        -12    1    1    2    0    0 -0.12843665827E+02  0.11211341636E+02 -0.26945689595E+02  0.31886111725E+02  0.00000000000E+00 0.  1.
         11    1    3    3    0    0  0.52907796848E+01 -0.14610471966E+02  0.36871825019E+02  0.40012369603E+02  0.51100000000E-03 0. -1.
        -11    1    3    3    0    0  0.69435146645E+01 -0.11262420830E-01  0.17080111049E+01  0.71505122147E+01  0.51100000000E-03 0.  1.
         12    1    3    3    0    0  0.60937147812E+00  0.34103927506E+01 -0.11634146529E+02  0.12139006457E+02  0.00000000000E+00 0. -1.
</event>
<event>
 7    1  0.5864091E-013  0.5930194E+02  0.7816164E-02  0.1266605E+00
        -11   -1    0    0    0    0  0.00000000000E+00  0.00000000000E+00  0.45593999997E+02  0.45594000000E+02  0.51100000000E-03 0. -1.
         11   -1    0    0    0    0 -0.00000000000E+00 -0.00000000000E+00 -0.45593999997E+02  0.45594000000E+02  0.51100000000E-03 0.  1.
    9900012    2    1    2    0    0  0.26870727743E+00 -0.91896876610E+01  0.30531921184E+02  0.59301940756E+02  0.49999994033E+02 0.  0.
        -12    1    1    2    0    0 -0.26870727743E+00  0.91896876610E+01 -0.30531921184E+02  0.31886059244E+02  0.00000000000E+00 0.  1.
         11    1    3    3    0    0  0.11471522250E+02 -0.12597377010E+02  0.20781351258E+02  0.26872928584E+02  0.51100000000E-03 0. -1.
        -11    1    3    3    0    0 -0.69549669601E+01 -0.68697608783E+01 -0.72105075684E+01  0.12147287747E+02  0.51100000000E-03 0.  1.
        -12    1    3    3    0    0 -0.42478480127E+01  0.10277450228E+02  0.16961077494E+02  0.20281724426E+02  0.00000000000E+00 0.  1.
</event>
<event>
 7    1  0.5755468E-013  0.5930194E+02  0.7816164E-02  0.1266605E+00
        -11   -1    0    0    0    0  0.00000000000E+00  0.00000000000E+00  0.45593999997E+02  0.45594000000E+02  0.51100000000E-03 0.  1.
         11   -1    0    0    0    0 -0.00000000000E+00 -0.00000000000E+00 -0.45593999997E+02  0.45594000000E+02  0.51100000000E-03 0. -1.
    9900012    2    1    2    0    0 -0.18660268012E+02 -0.17710742857E+02 -0.18837324498E+02  0.59301940208E+02  0.49999993033E+02 0.  0.
        -12    1    1    2    0    0  0.18660268012E+02  0.17710742857E+02  0.18837324498E+02  0.31886059792E+02  0.00000000000E+00 0.  1.
         11    1    3    3    0    0  0.18812275563E+01 -0.16893273094E+02 -0.27197005897E+02  0.32071776112E+02  0.51100000000E-03 0. -1.
        -11    1    3    3    0    0 -0.10064498364E+02  0.11700618113E+01 -0.40112915903E+01  0.10897414025E+02  0.51100000000E-03 0.  1.
         12    1    3    3    0    0 -0.10476997204E+02 -0.19875315744E+01  0.12370972989E+02  0.16332750071E+02  0.00000000000E+00 0. -1.
</event>
<event>
 7    1  0.5755468E-013  0.5930194E+02  0.7816164E-02  0.1266605E+00
        -11   -1    0    0    0    0  0.00000000000E+00  0.00000000000E+00  0.45593999997E+02  0.45594000000E+02  0.51100000000E-03 0. -1.
         11   -1    0    0    0    0 -0.00000000000E+00 -0.00000000000E+00 -0.45593999997E+02  0.45594000000E+02  0.51100000000E-03 0.  1.
    9900012    2    1    2    0    0  0.16604092772E+02  0.12109086836E+02  0.24380219945E+02  0.59301937130E+02  0.49999987420E+02 0.  0.
        -12    1    1    2    0    0 -0.16604092772E+02 -0.12109086836E+02 -0.24380219945E+02  0.31886062870E+02  0.00000000000E+00 0.  1.
         11    1    3    3    0    0  0.30005475369E+00  0.64332017302E+00  0.26663199904E+02  0.26672647471E+02  0.51100000000E-03 0. -1.
        -11    1    3    3    0    0  0.16643449193E+02 -0.27025663982E+01 -0.61347790007E+01  0.17942791863E+02  0.51100000000E-03 0.  1.
         12    1    3    3    0    0 -0.33941117462E+00  0.14168333061E+02  0.38517990410E+01  0.14686497796E+02  0.00000000000E+00 0. -1.
</event>
<event>
 7    1  0.5755468E-013  0.5930195E+02  0.7816164E-02  0.1266605E+00
        -11   -1    0    0    0    0  0.00000000000E+00  0.00000000000E+00  0.45593999997E+02  0.45594000000E+02  0.51100000000E-03 0.  1.
         11   -1    0    0    0    0 -0.00000000000E+00 -0.00000000000E+00 -0.45593999997E+02  0.45594000000E+02  0.51100000000E-03 0. -1.
    9900012    2    1    2    0    0 -0.18074022286E+02 -0.54891852609E+01 -0.25688878317E+02  0.59301954375E+02  0.50000018870E+02 0.  0.
        -12    1    1    2    0    0  0.18074022286E+02  0.54891852609E+01  0.25688878317E+02  0.31886045625E+02  0.00000000000E+00 0.  1.
         11    1    3    3    0    0  0.39364556246E+01 -0.58080287021E+01 -0.19608216385E+01  0.72851700082E+01  0.51100000000E-03 0. -1.
        -11    1    3    3    0    0 -0.46131945111E+01  0.15220144956E+02 -0.24370905104E+02  0.29101123551E+02  0.51100000000E-03 0.  1.
        -12    1    3    3    0    0 -0.17397283399E+02 -0.14901301515E+02  0.64284842548E+00  0.22915660816E+02  0.00000000000E+00 0.  1.
</event>
<event>
 7    1  0.5755468E-013  0.5930194E+02  0.7816164E-02  0.1266605E+00
        -11   -1    0    0    0    0  0.00000000000E+00  0.00000000000E+00  0.45593999997E+02  0.45594000000E+02  0.51100000000E-03 0. -1.
         11   -1    0    0    0    0 -0.00000000000E+00 -0.00000000000E+00 -0.45593999997E+02  0.45594000000E+02  0.51100000000E-03 0.  1.
    9900012    2    1    2    0    0  0.92787015266E+01 -0.52963062692E+01  0.30042900276E+02  0.59301936915E+02  0.49999987027E+02 0.  0.
        -12    1    1    2    0    0 -0.92787015266E+01  0.52963062692E+01 -0.30042900276E+02  0.31886063085E+02  0.00000000000E+00 0.  1.
         11    1    3    3    0    0  0.14381586359E+02 -0.11018642107E+01 -0.21522965630E+00  0.14425340724E+02  0.51100000000E-03 0. -1.
        -11    1    3    3    0    0 -0.18008838800E+02  0.28731705223E+01  0.14339573938E+02  0.23199068187E+02  0.51100000000E-03 0.  1.
        -12    1    3    3    0    0  0.12905953968E+02 -0.70676125808E+01  0.15918555994E+02  0.21677528004E+02  0.00000000000E+00 0.  1.
</event>
<event>
 7    1  0.5755468E-013  0.5930195E+02  0.7816164E-02  0.1266605E+00
        -11   -1    0    0    0    0  0.00000000000E+00  0.00000000000E+00  0.45593999997E+02  0.45594000000E+02  0.51100000000E-03 0.  1.
         11   -1    0    0    0    0 -0.00000000000E+00 -0.00000000000E+00 -0.45593999997E+02  0.45594000000E+02  0.51100000000E-03 0. -1.
    9900012    2    1    2    0    0 -0.21569263977E+02  0.12227795811E+02 -0.20049135917E+02  0.59301953053E+02  0.50000016459E+02 0.  0.
        -12    1    1    2    0    0  0.21569263977E+02 -0.12227795811E+02  0.20049135917E+02  0.31886046947E+02  0.00000000000E+00 0.  1.
         11    1    3    3    0    0  0.33067845320E+01  0.23383514010E+01  0.18850622812E+01  0.44672330677E+01  0.51100000000E-03 0.  1.
        -11    1    3    3    0    0 -0.32819881932E+02 -0.14053180926E+01 -0.53968102702E+01  0.33290315864E+02  0.51100000000E-03 0. -1.
        -12    1    3    3    0    0  0.79438334229E+01  0.11294762503E+02 -0.16537387929E+02  0.21544404121E+02  0.00000000000E+00 0.  1.
</event>
<event>
 7    1  0.5755468E-013  0.5930193E+02  0.7816164E-02  0.1266605E+00
        -11   -1    0    0    0    0  0.00000000000E+00  0.00000000000E+00  0.45593999997E+02  0.45594000000E+02  0.51100000000E-03 0.  1.
         11   -1    0    0    0    0 -0.00000000000E+00 -0.00000000000E+00 -0.45593999997E+02  0.45594000000E+02  0.51100000000E-03 0. -1.
    9900012    2    1    2    0    0 -0.98048149900E+01 -0.25015644798E+02 -0.17169879529E+02  0.59301927105E+02  0.49999969137E+02 0.  0.
        -12    1    1    2    0    0  0.98048149900E+01  0.25015644798E+02  0.17169879529E+02  0.31886072895E+02  0.00000000000E+00 0.  1.
         11    1    3    3    0    0 -0.80819209151E+01 -0.18754233313E+01 -0.10573397902E+02  0.13439918222E+02  0.51100000000E-03 0. -1.
        -11    1    3    3    0    0  0.66405444792E+01 -0.30656904812E+02  0.24023176075E+01  0.31459716683E+02  0.51100000000E-03 0.  1.
        -12    1    3    3    0    0 -0.83634385541E+01  0.75166833451E+01 -0.89987992339E+01  0.14402292200E+02  0.00000000000E+00 0.  1.
</event>
<event>
 7    1  0.5755468E-013  0.5930206E+02  0.7816164E-02  0.1266604E+00
        -11   -1    0    0    0    0  0.00000000000E+00  0.00000000000E+00  0.45593999997E+02  0.45594000000E+02  0.51100000000E-03 0.  1.
         11   -1    0    0    0    0 -0.00000000000E+00 -0.00000000000E+00 -0.45593999997E+02  0.45594000000E+02  0.51100000000E-03 0. -1.
    9900012    2    1    2    0    0 -0.17561357562E+02  0.13713365517E+01 -0.26578781399E+02  0.59302055385E+02  0.50000203088E+02 0.  0.
        -12    1    1    2    0    0  0.17561357562E+02 -0.13713365517E+01  0.26578781399E+02  0.31885944615E+02  0.00000000000E+00 0.  1.
         11    1    3    3    0    0 -0.46469805343E+01 -0.76670849595E+01 -0.50247749095E+01  0.10277498870E+02  0.51100000000E-03 0. -1.
        -11    1    3    3    0    0 -0.12742801775E+02  0.12094833001E+02  0.80056233137E+01  0.19306837838E+02  0.51100000000E-03 0.  1.
        -12    1    3    3    0    0 -0.17157525189E+00 -0.30564114901E+01 -0.29559629803E+02  0.29717718677E+02  0.00000000000E+00 0.  1.
</event>
<event>
 7    1  0.5755468E-013  0.5930190E+02  0.7816164E-02  0.1266605E+00
        -11   -1    0    0    0    0  0.00000000000E+00  0.00000000000E+00  0.45593999997E+02  0.45594000000E+02  0.51100000000E-03 0.  1.
         11   -1    0    0    0    0 -0.00000000000E+00 -0.00000000000E+00 -0.45593999997E+02  0.45594000000E+02  0.51100000000E-03 0. -1.
    9900012    2    1    2    0    0 -0.24269571345E+02 -0.19119251164E+02  0.78845192616E+01  0.59301897975E+02  0.49999916011E+02 0.  0.
        -12    1    1    2    0    0  0.24269571345E+02  0.19119251164E+02 -0.78845192616E+01  0.31886102025E+02  0.00000000000E+00 0.  1.
         11    1    3    3    0    0 -0.15593841162E+02 -0.32354790187E+02  0.19499795078E+00  0.35917103930E+02  0.51100000000E-03 0. -1.
        -11    1    3    3    0    0 -0.43282827958E+01  0.15834497613E+02  0.34372128264E+01  0.16771397642E+02  0.51100000000E-03 0.  1.
        -12    1    3    3    0    0 -0.43474473873E+01 -0.25989585894E+01  0.42523084845E+01  0.66133964028E+01  0.00000000000E+00 0.  1.
</event>
<event>
 7    1  0.5755468E-013  0.5930193E+02  0.7816164E-02  0.1266605E+00
        -11   -1    0    0    0    0  0.00000000000E+00  0.00000000000E+00  0.45593999997E+02  0.45594000000E+02  0.51100000000E-03 0. -1.
         11   -1    0    0    0    0 -0.00000000000E+00 -0.00000000000E+00 -0.45593999997E+02  0.45594000000E+02  0.51100000000E-03 0.  1.
    9900012    2    1    2    0    0  0.30527661396E+02 -0.28128866335E+01 -0.87676135169E+01  0.59301929557E+02  0.49999973609E+02 0.  0.
        -12    1    1    2    0    0 -0.30527661396E+02  0.28128866335E+01  0.87676135169E+01  0.31886070443E+02  0.00000000000E+00 0.  1.
         11    1    3    3    0    0  0.13867914360E+02 -0.21699398184E+02 -0.16013453157E+02  0.30325131698E+02  0.51100000000E-03 0. -1.
        -11    1    3    3    0    0  0.12180415901E+02  0.16589763457E+02  0.10376394271E+02  0.23048911936E+02  0.51100000000E-03 0.  1.
         12    1    3    3    0    0  0.44793311354E+01  0.22967480930E+01 -0.31305546305E+01  0.59278859231E+01  0.00000000000E+00 0. -1.
</event>
<event>
 7    1  0.5755468E-013  0.5930193E+02  0.7816164E-02  0.1266605E+00
        -11   -1    0    0    0    0  0.00000000000E+00  0.00000000000E+00  0.45593999997E+02  0.45594000000E+02  0.51100000000E-03 0.  1.
         11   -1    0    0    0    0 -0.00000000000E+00 -0.00000000000E+00 -0.45593999997E+02  0.45594000000E+02  0.51100000000E-03 0. -1.
    9900012    2    1    2    0    0  0.15419259590E+02 -0.10247876512E+02 -0.25960520757E+02  0.59301934434E+02  0.49999982502E+02 0.  0.
        -12    1    1    2    0    0 -0.15419259590E+02  0.10247876512E+02  0.25960520757E+02  0.31886065566E+02  0.00000000000E+00 0.  1.
         11    1    3    3    0    0  0.83607175760E+00 -0.15700185163E+02  0.52860915472E+01  0.16587272055E+02  0.51100000000E-03 0. -1.
        -11    1    3    3    0    0  0.13040208441E+01  0.59882067355E+01 -0.28490128194E+02  0.29141834105E+02  0.51100000000E-03 0.  1.
        -12    1    3    3    0    0  0.13279166989E+02 -0.53589808529E+00 -0.27564841106E+01  0.13572828273E+02  0.00000000000E+00 0.  1.
</event>
<event>
 7    1  0.5755468E-013  0.5930179E+02  0.7816164E-02  0.1266605E+00
        -11   -1    0    0    0    0  0.00000000000E+00  0.00000000000E+00  0.45593999997E+02  0.45594000000E+02  0.51100000000E-03 0. -1.
         11   -1    0    0    0    0 -0.00000000000E+00 -0.00000000000E+00 -0.45593999997E+02  0.45594000000E+02  0.51100000000E-03 0.  1.
    9900012    2    1    2    0    0  0.16203999123E+02 -0.26706230878E+02  0.63982675817E+01  0.59301793212E+02  0.49999724948E+02 0.  0.
        -12    1    1    2    0    0 -0.16203999123E+02  0.26706230878E+02 -0.63982675817E+01  0.31886206788E+02  0.00000000000E+00 0.  1.
         11    1    3    3    0    0 -0.10489517779E+01 -0.34022046414E+02  0.16400503224E+02  0.37783282656E+02  0.51100000000E-03 0. -1.
        -11    1    3    3    0    0  0.22219808854E+01  0.21180953656E+01 -0.92481683801E+00  0.32060588700E+01  0.51100000000E-03 0.  1.
         12    1    3    3    0    0  0.15030970016E+02  0.51977201706E+01 -0.90774188043E+01  0.18312451686E+02  0.00000000000E+00 0. -1.
</event>
<event>
 7    1  0.5755468E-013  0.5930195E+02  0.7816164E-02  0.1266605E+00
        -11   -1    0    0    0    0  0.00000000000E+00  0.00000000000E+00  0.45593999997E+02  0.45594000000E+02  0.51100000000E-03 0. -1.
         11   -1    0    0    0    0 -0.00000000000E+00 -0.00000000000E+00 -0.45593999997E+02  0.45594000000E+02  0.51100000000E-03 0.  1.
    9900012    2    1    2    0    0  0.15843991965E+02  0.13080478126E+02  0.24384203600E+02  0.59301947020E+02  0.50000005458E+02 0.  0.
        -12    1    1    2    0    0 -0.15843991965E+02 -0.13080478126E+02 -0.24384203600E+02  0.31886052980E+02  0.00000000000E+00 0.  1.
         11    1    3    3    0    0  0.22758960883E+02  0.20479728122E+02  0.13522570885E+02  0.33470128295E+02  0.51100000000E-03 0. -1.
        -11    1    3    3    0    0 -0.24117256225E+01 -0.65938806345E+01  0.16874294768E+02  0.18276692985E+02  0.51100000000E-03 0.  1.
         12    1    3    3    0    0 -0.45032432957E+01 -0.80536936181E+00 -0.60126620531E+01  0.75551257404E+01  0.00000000000E+00 0. -1.
</event>
<event>
 7    1  0.5755468E-013  0.5930196E+02  0.7816164E-02  0.1266605E+00
        -11   -1    0    0    0    0  0.00000000000E+00  0.00000000000E+00  0.45593999997E+02  0.45594000000E+02  0.51100000000E-03 0.  1.
         11   -1    0    0    0    0 -0.00000000000E+00 -0.00000000000E+00 -0.45593999997E+02  0.45594000000E+02  0.51100000000E-03 0. -1.
    9900012    2    1    2    0    0 -0.24968987346E+01 -0.70316096546E+01 -0.31000673827E+02  0.59301955790E+02  0.50000021452E+02 0.  0.
        -12    1    1    2    0    0  0.24968987346E+01  0.70316096546E+01  0.31000673827E+02  0.31886044210E+02  0.00000000000E+00 0.  1.
         11    1    3    3    0    0 -0.75744450622E+01 -0.34404759040E+01  0.15159672330E+01  0.84561959153E+01  0.51100000000E-03 0. -1.
        -11    1    3    3    0    0  0.18437382223E+02  0.42405423227E+01 -0.54941680197E+01  0.19700384385E+02  0.51100000000E-03 0.  1.
        -12    1    3    3    0    0 -0.13359835895E+02 -0.78316760732E+01 -0.27022473040E+02  0.31145375491E+02  0.00000000000E+00 0.  1.
</event>
<event>
 7    1  0.5755468E-013  0.5930195E+02  0.7816164E-02  0.1266605E+00
        -11   -1    0    0    0    0  0.00000000000E+00  0.00000000000E+00  0.45593999997E+02  0.45594000000E+02  0.51100000000E-03 0. -1.
         11   -1    0    0    0    0 -0.00000000000E+00 -0.00000000000E+00 -0.45593999997E+02  0.45594000000E+02  0.51100000000E-03 0.  1.
    9900012    2    1    2    0    0  0.15353503680E+02 -0.27743372797E+01  0.27808153050E+02  0.59301946644E+02  0.50000004771E+02 0.  0.
        -12    1    1    2    0    0 -0.15353503680E+02  0.27743372797E+01 -0.27808153050E+02  0.31886053356E+02  0.00000000000E+00 0.  1.
         11    1    3    3    0    0 -0.11378907766E+02  0.76295753164E+01  0.78196904472E+01  0.15774584635E+02  0.51100000000E-03 0. -1.
        -11    1    3    3    0    0  0.19441629153E+02 -0.64273179795E+01  0.26130763309E+02  0.33197954032E+02  0.51100000000E-03 0.  1.
        -12    1    3    3    0    0  0.72907822932E+01 -0.39765946165E+01 -0.61423007061E+01  0.10329407977E+02  0.00000000000E+00 0.  1.
</event>
<event>
 7    1  0.5755468E-013  0.5930195E+02  0.7816164E-02  0.1266605E+00
        -11   -1    0    0    0    0  0.00000000000E+00  0.00000000000E+00  0.45593999997E+02  0.45594000000E+02  0.51100000000E-03 0.  1.
         11   -1    0    0    0    0 -0.00000000000E+00 -0.00000000000E+00 -0.45593999997E+02  0.45594000000E+02  0.51100000000E-03 0. -1.
    9900012    2    1    2    0    0 -0.28047494960E+02  0.16297743166E+01 -0.15079861228E+02  0.59301947367E+02  0.50000006090E+02 0.  0.
        -12    1    1    2    0    0  0.28047494960E+02 -0.16297743166E+01  0.15079861228E+02  0.31886052633E+02  0.00000000000E+00 0.  1.
         11    1    3    3    0    0 -0.31328978323E+02  0.99266108625E+01  0.19628100505E+01  0.32922562317E+02  0.51100000000E-03 0. -1.
        -11    1    3    3    0    0  0.49525089631E+01 -0.77774878948E+01  0.26767323322E-01  0.92204869575E+01  0.51100000000E-03 0.  1.
         12    1    3    3    0    0 -0.16710256002E+01 -0.51934865111E+00 -0.17069438601E+02  0.17158898092E+02  0.00000000000E+00 0. -1.
</event>
<event>
 7    1  0.5755468E-013  0.5930200E+02  0.7816164E-02  0.1266605E+00
        -11   -1    0    0    0    0  0.00000000000E+00  0.00000000000E+00  0.45593999997E+02  0.45594000000E+02  0.51100000000E-03 0. -1.
         11   -1    0    0    0    0 -0.00000000000E+00 -0.00000000000E+00 -0.45593999997E+02  0.45594000000E+02  0.51100000000E-03 0.  1.
    9900012    2    1    2    0    0  0.19378377601E+02 -0.17401385674E+02  0.18395301339E+02  0.59302002239E+02  0.50000106163E+02 0.  0.
        -12    1    1    2    0    0 -0.19378377601E+02  0.17401385674E+02 -0.18395301339E+02  0.31885997761E+02  0.00000000000E+00 0.  1.
         11    1    3    3    0    0  0.69413167079E+01  0.68490787831E+01 -0.13546530163E+02  0.16691322223E+02  0.51100000000E-03 0.  1.
        -11    1    3    3    0    0  0.10627486282E+02 -0.17749688196E+02  0.19361410249E+02  0.28334768445E+02  0.51100000000E-03 0. -1.
        -12    1    3    3    0    0  0.18095746120E+01 -0.65007762618E+01  0.12580421254E+02  0.14275911572E+02  0.00000000000E+00 0.  1.
</event>
<event>
 7    1  0.5755468E-013  0.5930194E+02  0.7816164E-02  0.1266605E+00
        -11   -1    0    0    0    0  0.00000000000E+00  0.00000000000E+00  0.45593999997E+02  0.45594000000E+02  0.51100000000E-03 0.  1.
         11   -1    0    0    0    0 -0.00000000000E+00 -0.00000000000E+00 -0.45593999997E+02  0.45594000000E+02  0.51100000000E-03 0. -1.
    9900012    2    1    2    0    0  0.22339655336E+02  0.49579479540E+01 -0.22205386210E+02  0.59301943091E+02  0.49999998292E+02 0.  0.
        -12    1    1    2    0    0 -0.22339655336E+02 -0.49579479540E+01  0.22205386210E+02  0.31886056909E+02  0.00000000000E+00 0.  1.
         11    1    3    3    0    0  0.22602001075E+02  0.13201513848E+02 -0.12450909730E+02  0.28985437272E+02  0.51100000000E-03 0. -1.
        -11    1    3    3    0    0  0.46119025151E+01 -0.10553482560E+02 -0.17456535180E+02  0.20913542496E+02  0.51100000000E-03 0.  1.
         12    1    3    3    0    0 -0.48742482544E+01  0.23099166655E+01  0.77020587002E+01  0.94029633238E+01  0.00000000000E+00 0. -1.
</event>
<event>
 7    1  0.5755468E-013  0.5930195E+02  0.7816164E-02  0.1266605E+00
        -11   -1    0    0    0    0  0.00000000000E+00  0.00000000000E+00  0.45593999997E+02  0.45594000000E+02  0.51100000000E-03 0. -1.
         11   -1    0    0    0    0 -0.00000000000E+00 -0.00000000000E+00 -0.45593999997E+02  0.45594000000E+02  0.51100000000E-03 0.  1.
    9900012    2    1    2    0    0 -0.91553288068E+01  0.30535468782E+02 -0.69677187635E+00  0.59301946774E+02  0.50000005009E+02 0.  0.
        -12    1    1    2    0    0  0.91553288068E+01 -0.30535468782E+02  0.69677187635E+00  0.31886053226E+02  0.00000000000E+00 0.  1.
         11    1    3    3    0    0 -0.14026397050E+02 -0.67329392880E+01  0.29072577972E+01  0.15827963666E+02  0.51100000000E-03 0. -1.
        -11    1    3    3    0    0  0.51524610955E+01  0.68164487276E+01 -0.91505326343E+01  0.12519747455E+02  0.51100000000E-03 0.  1.
         12    1    3    3    0    0 -0.28139285220E+00  0.30451959342E+02  0.55465029608E+01  0.30954235652E+02  0.00000000000E+00 0. -1.
</event>
<event>
 7    1  0.5755468E-013  0.5930192E+02  0.7816164E-02  0.1266605E+00
        -11   -1    0    0    0    0  0.00000000000E+00  0.00000000000E+00  0.45593999997E+02  0.45594000000E+02  0.51100000000E-03 0. -1.
         11   -1    0    0    0    0 -0.00000000000E+00 -0.00000000000E+00 -0.45593999997E+02  0.45594000000E+02  0.51100000000E-03 0.  1.
    9900012    2    1    2    0    0  0.23479305941E+02 -0.84975072927E+00  0.21557416186E+02  0.59301920336E+02  0.49999956791E+02 0.  0.
        -12    1    1    2    0    0 -0.23479305941E+02  0.84975072927E+00 -0.21557416186E+02  0.31886079664E+02  0.00000000000E+00 0.  1.
         11    1    3    3    0    0 -0.52616732082E+00  0.99960700578E+01  0.10891217341E+02  0.14792460379E+02  0.51100000000E-03 0. -1.
        -11    1    3    3    0    0  0.23714627836E+02  0.40132988560E+01 -0.31008563295E+01  0.24250885579E+02  0.51100000000E-03 0.  1.
        -12    1    3    3    0    0  0.29084542497E+00 -0.14859119643E+02  0.13767055175E+02  0.20258574377E+02  0.00000000000E+00 0.  1.
</event>
<event>
 7    1  0.5755468E-013  0.5930196E+02  0.7816164E-02  0.1266605E+00
        -11   -1    0    0    0    0  0.00000000000E+00  0.00000000000E+00  0.45593999997E+02  0.45594000000E+02  0.51100000000E-03 0.  1.
         11   -1    0    0    0    0 -0.00000000000E+00 -0.00000000000E+00 -0.45593999997E+02  0.45594000000E+02  0.51100000000E-03 0. -1.
    9900012    2    1    2    0    0  0.75832196676E+01 -0.60236426591E+01 -0.30379765202E+02  0.59301958773E+02  0.50000026891E+02 0.  0.
        -12    1    1    2    0    0 -0.75832196676E+01  0.60236426591E+01  0.30379765202E+02  0.31886041227E+02  0.00000000000E+00 0.  1.
         11    1    3    3    0    0  0.64781793752E+01 -0.11378171107E+02 -0.28429828629E+02  0.31299916005E+02  0.51100000000E-03 0. -1.
        -11    1    3    3    0    0 -0.80456077455E+01  0.94274877760E+01  0.72865809534E+01  0.14377189990E+02  0.51100000000E-03 0.  1.
        -12    1    3    3    0    0  0.91506480379E+01 -0.40729593283E+01 -0.92365175265E+01  0.13624852778E+02  0.00000000000E+00 0.  1.
</event>
<event>
 7    1  0.5755468E-013  0.5930194E+02  0.7816164E-02  0.1266605E+00
        -11   -1    0    0    0    0  0.00000000000E+00  0.00000000000E+00  0.45593999997E+02  0.45594000000E+02  0.51100000000E-03 0. -1.
         11   -1    0    0    0    0 -0.00000000000E+00 -0.00000000000E+00 -0.45593999997E+02  0.45594000000E+02  0.51100000000E-03 0.  1.
    9900012    2    1    2    0    0  0.74214448538E+01  0.29352601835E+02  0.10003388437E+02  0.59301939434E+02  0.49999991622E+02 0.  0.
        -12    1    1    2    0    0 -0.74214448538E+01 -0.29352601835E+02 -0.10003388437E+02  0.31886060566E+02  0.00000000000E+00 0.  1.
         11    1    3    3    0    0  0.10900361128E+02  0.17955670215E+02  0.21651489697E+02  0.30166388116E+02  0.51100000000E-03 0. -1.
        -11    1    3    3    0    0  0.63717895388E+00  0.15558962680E+02 -0.15624331527E+02  0.22059171621E+02  0.51100000000E-03 0.  1.
         12    1    3    3    0    0 -0.41160952282E+01 -0.41620310600E+01  0.39762302668E+01  0.70763796963E+01  0.00000000000E+00 0. -1.
</event>
<event>
 7    1  0.5755468E-013  0.5930178E+02  0.7816164E-02  0.1266605E+00
        -11   -1    0    0    0    0  0.00000000000E+00  0.00000000000E+00  0.45593999997E+02  0.45594000000E+02  0.51100000000E-03 0. -1.
         11   -1    0    0    0    0 -0.00000000000E+00 -0.00000000000E+00 -0.45593999997E+02  0.45594000000E+02  0.51100000000E-03 0.  1.
    9900012    2    1    2    0    0 -0.21948995082E+02  0.22810165642E+02 -0.38299897976E+01  0.59301782545E+02  0.49999705494E+02 0.  0.
        -12    1    1    2    0    0  0.21948995082E+02 -0.22810165642E+02  0.38299897976E+01  0.31886217455E+02  0.00000000000E+00 0.  1.
         11    1    3    3    0    0 -0.20901326655E+02  0.20839253582E+01 -0.57315406728E+01  0.21772890474E+02  0.51100000000E-03 0. -1.
        -11    1    3    3    0    0  0.19411691389E+01  0.14354310544E+02  0.16115138254E+02  0.21668226740E+02  0.51100000000E-03 0.  1.
        -12    1    3    3    0    0 -0.29888375657E+01  0.63719297395E+01 -0.14213587379E+02  0.15860665332E+02  0.00000000000E+00 0.  1.
</event>
<event>
 7    1  0.5755468E-013  0.5930190E+02  0.7816164E-02  0.1266605E+00
        -11   -1    0    0    0    0  0.00000000000E+00  0.00000000000E+00  0.45593999997E+02  0.45594000000E+02  0.51100000000E-03 0. -1.
         11   -1    0    0    0    0 -0.00000000000E+00 -0.00000000000E+00 -0.45593999997E+02  0.45594000000E+02  0.51100000000E-03 0.  1.
    9900012    2    1    2    0    0 -0.25716759651E+02 -0.15436402638E+02  0.10820784588E+02  0.59301895935E+02  0.49999912290E+02 0.  0.
        -12    1    1    2    0    0  0.25716759651E+02  0.15436402638E+02 -0.10820784588E+02  0.31886104065E+02  0.00000000000E+00 0.  1.
         11    1    3    3    0    0 -0.27658208657E+01 -0.55904921670E+01 -0.66033600469E+01  0.90833766794E+01  0.51100000000E-03 0. -1.
        -11    1    3    3    0    0 -0.26148433482E+02 -0.20353401507E+02  0.20306606187E+02  0.38863347535E+02  0.51100000000E-03 0.  1.
        -12    1    3    3    0    0  0.31974946969E+01  0.10507491036E+02 -0.28824615520E+01  0.11355171721E+02  0.00000000000E+00 0.  1.
</event>
<event>
 7    1  0.5755468E-013  0.5930196E+02  0.7816164E-02  0.1266605E+00
        -11   -1    0    0    0    0  0.00000000000E+00  0.00000000000E+00  0.45593999997E+02  0.45594000000E+02  0.51100000000E-03 0.  1.
         11   -1    0    0    0    0 -0.00000000000E+00 -0.00000000000E+00 -0.45593999997E+02  0.45594000000E+02  0.51100000000E-03 0. -1.
    9900012    2    1    2    0    0 -0.25463422105E+02 -0.23864880347E+01 -0.19043070285E+02  0.59301957343E+02  0.50000024284E+02 0.  0.
        -12    1    1    2    0    0  0.25463422105E+02  0.23864880347E+01  0.19043070285E+02  0.31886042657E+02  0.00000000000E+00 0.  1.
         11    1    3    3    0    0 -0.27556498300E+02  0.11827554269E+01 -0.30376864958E+02  0.41030640184E+02  0.51100000000E-03 0. -1.
        -11    1    3    3    0    0  0.47570341279E+01  0.86531555289E+00 -0.96353467566E+00  0.49301667348E+01  0.51100000000E-03 0.  1.
         12    1    3    3    0    0 -0.26639579324E+01 -0.44345590145E+01  0.12297329349E+02  0.13341150424E+02  0.00000000000E+00 0. -1.
</event>
<event>
 7    1  0.5755468E-013  0.5930193E+02  0.7816164E-02  0.1266605E+00
        -11   -1    0    0    0    0  0.00000000000E+00  0.00000000000E+00  0.45593999997E+02  0.45594000000E+02  0.51100000000E-03 0.  1.
         11   -1    0    0    0    0 -0.00000000000E+00 -0.00000000000E+00 -0.45593999997E+02  0.45594000000E+02  0.51100000000E-03 0. -1.
    9900012    2    1    2    0    0  0.11319122229E+02  0.29742720357E+02  0.19923253572E+01  0.59301932468E+02  0.49999978918E+02 0.  0.
        -12    1    1    2    0    0 -0.11319122229E+02 -0.29742720357E+02 -0.19923253572E+01  0.31886067532E+02  0.00000000000E+00 0.  1.
         11    1    3    3    0    0  0.27165876118E+02  0.30385792677E+02 -0.14757453763E+01  0.40785524963E+02  0.51100000000E-03 0. -1.
        -11    1    3    3    0    0 -0.69596035507E+01  0.12208297288E+01 -0.26726852568E+01  0.75544525647E+01  0.51100000000E-03 0.  1.
         12    1    3    3    0    0 -0.88871503383E+01 -0.18639020479E+01  0.61407559903E+01  0.10961954940E+02  0.00000000000E+00 0. -1.
</event>
<event>
 7    1  0.5755468E-013  0.5930195E+02  0.7816164E-02  0.1266605E+00
        -11   -1    0    0    0    0  0.00000000000E+00  0.00000000000E+00  0.45593999997E+02  0.45594000000E+02  0.51100000000E-03 0.  1.
         11   -1    0    0    0    0 -0.00000000000E+00 -0.00000000000E+00 -0.45593999997E+02  0.45594000000E+02  0.51100000000E-03 0. -1.
    9900012    2    1    2    0    0 -0.15837274261E+02  0.25974908695E+02 -0.95501362808E+01  0.59301949120E+02  0.50000009287E+02 0.  0.
        -12    1    1    2    0    0  0.15837274261E+02 -0.25974908695E+02  0.95501362808E+01  0.31886050880E+02  0.00000000000E+00 0.  1.
         11    1    3    3    0    0 -0.18607314321E+02 -0.45629486470E+00 -0.55944308496E+01  0.19435483222E+02  0.51100000000E-03 0. -1.
        -11    1    3    3    0    0  0.69589410011E+01  0.31969707540E+02 -0.35513671785E+01  0.32910503933E+02  0.51100000000E-03 0.  1.
        -12    1    3    3    0    0 -0.41889009411E+01 -0.55385039805E+01 -0.40433825271E+00  0.69559619650E+01  0.00000000000E+00 0.  1.
</event>
<event>
 7    1  0.5755468E-013  0.5930194E+02  0.7816164E-02  0.1266605E+00
        -11   -1    0    0    0    0  0.00000000000E+00  0.00000000000E+00  0.45593999997E+02  0.45594000000E+02  0.51100000000E-03 0.  1.
         11   -1    0    0    0    0 -0.00000000000E+00 -0.00000000000E+00 -0.45593999997E+02  0.45594000000E+02  0.51100000000E-03 0. -1.
    9900012    2    1    2    0    0  0.22248648517E+01  0.11012674795E+02 -0.29841104304E+02  0.59301944492E+02  0.50000000847E+02 0.  0.
        -12    1    1    2    0    0 -0.22248648517E+01 -0.11012674795E+02  0.29841104304E+02  0.31886055508E+02  0.00000000000E+00 0.  1.
         11    1    3    3    0    0 -0.73475590461E+01  0.11185463374E+01 -0.28978792041E+02  0.29916686954E+02  0.51100000000E-03 0. -1.
        -11    1    3    3    0    0  0.33942143399E+00 -0.50674394614E+00  0.11053898677E+02  0.11070712378E+02  0.51100000000E-03 0.  1.
         12    1    3    3    0    0  0.92330024638E+01  0.10400872404E+02 -0.11916210940E+02  0.18314545160E+02  0.00000000000E+00 0. -1.
</event>
<event>
 7    1  0.5755468E-013  0.5930195E+02  0.7816164E-02  0.1266605E+00
        -11   -1    0    0    0    0  0.00000000000E+00  0.00000000000E+00  0.45593999997E+02  0.45594000000E+02  0.51100000000E-03 0. -1.
         11   -1    0    0    0    0 -0.00000000000E+00 -0.00000000000E+00 -0.45593999997E+02  0.45594000000E+02  0.51100000000E-03 0.  1.
    9900012    2    1    2    0    0 -0.12508726013E+02 -0.28429952721E+01  0.29191937641E+02  0.59301951768E+02  0.50000014117E+02 0.  0.
        -12    1    1    2    0    0  0.12508726013E+02  0.28429952721E+01 -0.29191937641E+02  0.31886048232E+02  0.00000000000E+00 0.  1.
         11    1    3    3    0    0  0.10868850682E+02  0.38175237541E+01  0.26009163241E+02  0.28446124086E+02  0.51100000000E-03 0. -1.
        -11    1    3    3    0    0 -0.10849452095E+02  0.23534247391E+01 -0.62771203819E+01  0.12753488123E+02  0.51100000000E-03 0.  1.
         12    1    3    3    0    0 -0.12528124600E+02 -0.90139437653E+01  0.94598947818E+01  0.18102339559E+02  0.00000000000E+00 0. -1.
</event>
<event>
 7    1  0.5755468E-013  0.5930195E+02  0.7816164E-02  0.1266605E+00
        -11   -1    0    0    0    0  0.00000000000E+00  0.00000000000E+00  0.45593999997E+02  0.45594000000E+02  0.51100000000E-03 0.  1.
         11   -1    0    0    0    0 -0.00000000000E+00 -0.00000000000E+00 -0.45593999997E+02  0.45594000000E+02  0.51100000000E-03 0. -1.
    9900012    2    1    2    0    0 -0.96373570024E+01  0.18578338665E+02 -0.24055917395E+02  0.59301945379E+02  0.50000002465E+02 0.  0.
        -12    1    1    2    0    0  0.96373570024E+01 -0.18578338665E+02  0.24055917395E+02  0.31886054621E+02  0.00000000000E+00 0.  1.
         11    1    3    3    0    0 -0.24916412153E+02  0.13702470961E+02 -0.20570915721E+02  0.35096265882E+02  0.51100000000E-03 0. -1.
        -11    1    3    3    0    0 -0.15909231088E+00 -0.48387828774E+00  0.55222734939E+01  0.55457148650E+01  0.51100000000E-03 0.  1.
         12    1    3    3    0    0  0.15438147461E+02  0.53597459920E+01 -0.90072751685E+01  0.18659964633E+02  0.00000000000E+00 0. -1.
</event>
<event>
 7    1  0.5755468E-013  0.5930193E+02  0.7816164E-02  0.1266605E+00
        -11   -1    0    0    0    0  0.00000000000E+00  0.00000000000E+00  0.45593999997E+02  0.45594000000E+02  0.51100000000E-03 0.  1.
         11   -1    0    0    0    0 -0.00000000000E+00 -0.00000000000E+00 -0.45593999997E+02  0.45594000000E+02  0.51100000000E-03 0. -1.
    9900012    2    1    2    0    0 -0.82411877030E+01  0.30780011005E+02 -0.11810785959E+01  0.59301934096E+02  0.49999981886E+02 0.  0.
        -12    1    1    2    0    0  0.82411877030E+01 -0.30780011005E+02  0.11810785959E+01  0.31886065904E+02  0.00000000000E+00 0.  1.
         11    1    3    3    0    0 -0.15378725691E+02  0.82273442979E+01 -0.51726582180E+01  0.18192052973E+02  0.51100000000E-03 0. -1.
        -11    1    3    3    0    0  0.70675456490E+01  0.30966358725E+01  0.16336952810E+02  0.18067522869E+02  0.51100000000E-03 0.  1.
        -12    1    3    3    0    0  0.69992339013E-01  0.19456030834E+02 -0.12345373188E+02  0.23042358254E+02  0.00000000000E+00 0.  1.
</event>
<event>
 7    1  0.5755468E-013  0.5930192E+02  0.7816164E-02  0.1266605E+00
        -11   -1    0    0    0    0  0.00000000000E+00  0.00000000000E+00  0.45593999997E+02  0.45594000000E+02  0.51100000000E-03 0.  1.
         11   -1    0    0    0    0 -0.00000000000E+00 -0.00000000000E+00 -0.45593999997E+02  0.45594000000E+02  0.51100000000E-03 0. -1.
    9900012    2    1    2    0    0  0.53996714780E+01 -0.27580953031E+02 -0.15061759819E+02  0.59301921047E+02  0.49999958088E+02 0.  0.
        -12    1    1    2    0    0 -0.53996714780E+01  0.27580953031E+02  0.15061759819E+02  0.31886078953E+02  0.00000000000E+00 0.  1.
         11    1    3    3    0    0 -0.16842732445E+02 -0.39244214430E+01 -0.16063588289E+02  0.23603338511E+02  0.51100000000E-03 0. -1.
        -11    1    3    3    0    0  0.15784498435E+02 -0.13415221984E+02 -0.61850277492E+01  0.21618814497E+02  0.51100000000E-03 0.  1.
         12    1    3    3    0    0  0.64579054878E+01 -0.10241309604E+02  0.71868562195E+01  0.14079768038E+02  0.00000000000E+00 0. -1.
</event>
<event>
 7    1  0.5755468E-013  0.5930197E+02  0.7816164E-02  0.1266605E+00
        -11   -1    0    0    0    0  0.00000000000E+00  0.00000000000E+00  0.45593999997E+02  0.45594000000E+02  0.51100000000E-03 0.  1.
         11   -1    0    0    0    0 -0.00000000000E+00 -0.00000000000E+00 -0.45593999997E+02  0.45594000000E+02  0.51100000000E-03 0. -1.
    9900012    2    1    2    0    0  0.16692656684E+02 -0.26945681239E+02  0.34647573189E+01  0.59301967511E+02  0.50000042828E+02 0.  0.
        -12    1    1    2    0    0 -0.16692656684E+02  0.26945681239E+02 -0.34647573189E+01  0.31886032489E+02  0.00000000000E+00 0.  1.
         11    1    3    3    0    0  0.15826075419E+02 -0.14751956293E+02 -0.11535758267E+01  0.21666001363E+02  0.51100000000E-03 0. -1.
        -11    1    3    3    0    0 -0.87541593156E+01 -0.65982753878E+00  0.16363202961E+02  0.18569466581E+02  0.51100000000E-03 0.  1.
        -12    1    3    3    0    0  0.96207405813E+01 -0.11533897407E+02 -0.11744869816E+02  0.19066499567E+02  0.00000000000E+00 0.  1.
</event>
<event>
 7    1  0.8034489E-013  0.5930195E+02  0.7816164E-02  0.1266605E+00
        -11   -1    0    0    0    0  0.00000000000E+00  0.00000000000E+00  0.45593999997E+02  0.45594000000E+02  0.51100000000E-03 0. -1.
         11   -1    0    0    0    0 -0.00000000000E+00 -0.00000000000E+00 -0.45593999997E+02  0.45594000000E+02  0.51100000000E-03 0.  1.
    9900012    2    1    2    0    0 -0.17001973042E+02 -0.20529491011E+02  0.17498373326E+02  0.59301950424E+02  0.50000011666E+02 0.  0.
        -12    1    1    2    0    0  0.17001973042E+02  0.20529491011E+02 -0.17498373326E+02  0.31886049576E+02  0.00000000000E+00 0.  1.
         11    1    3    3    0    0 -0.18588871516E+02  0.73939068465E-01  0.13539600293E+02  0.22997225649E+02  0.51100000000E-03 0. -1.
        -11    1    3    3    0    0  0.72066940670E+00 -0.72443654547E+01 -0.12878668380E+02  0.14793927630E+02  0.51100000000E-03 0.  1.
         12    1    3    3    0    0  0.86622906750E+00 -0.13359064625E+02  0.16837441413E+02  0.21510797145E+02  0.00000000000E+00 0. -1.
</event>
<event>
 7    1  0.5755468E-013  0.5930198E+02  0.7816164E-02  0.1266605E+00
        -11   -1    0    0    0    0  0.00000000000E+00  0.00000000000E+00  0.45593999997E+02  0.45594000000E+02  0.51100000000E-03 0. -1.
         11   -1    0    0    0    0 -0.00000000000E+00 -0.00000000000E+00 -0.45593999997E+02  0.45594000000E+02  0.51100000000E-03 0.  1.
    9900012    2    1    2    0    0  0.20481286646E+02  0.24069823120E+02 -0.42283314930E+01  0.59301979946E+02  0.50000065505E+02 0.  0.
        -12    1    1    2    0    0 -0.20481286646E+02 -0.24069823120E+02  0.42283314930E+01  0.31886020054E+02  0.00000000000E+00 0.  1.
         11    1    3    3    0    0 -0.25613525788E+01  0.15124111654E+02  0.58749172669E+01  0.16426013926E+02  0.51100000000E-03 0. -1.
        -11    1    3    3    0    0  0.27581370885E+02  0.12333042759E+02 -0.16424358101E+02  0.34388886328E+02  0.51100000000E-03 0.  1.
        -12    1    3    3    0    0 -0.45387316601E+01 -0.33873312935E+01  0.63211093415E+01  0.84870796910E+01  0.00000000000E+00 0.  1.
</event>
<event>
 7    1  0.5755468E-013  0.5930197E+02  0.7816164E-02  0.1266605E+00
        -11   -1    0    0    0    0  0.00000000000E+00  0.00000000000E+00  0.45593999997E+02  0.45594000000E+02  0.51100000000E-03 0.  1.
         11   -1    0    0    0    0 -0.00000000000E+00 -0.00000000000E+00 -0.45593999997E+02  0.45594000000E+02  0.51100000000E-03 0. -1.
    9900012    2    1    2    0    0  0.14021456940E+02  0.28169168526E+02  0.51590078839E+01  0.59301973711E+02  0.50000054135E+02 0.  0.
        -12    1    1    2    0    0 -0.14021456940E+02 -0.28169168526E+02 -0.51590078839E+01  0.31886026289E+02  0.00000000000E+00 0.  1.
         11    1    3    3    0    0  0.14525218272E+02  0.14220993271E+02 -0.20216444624E+02  0.28669203842E+02  0.51100000000E-03 0. -1.
        -11    1    3    3    0    0 -0.36888136466E+01  0.60053553774E+01  0.18017308732E+02  0.19346706529E+02  0.51100000000E-03 0.  1.
         12    1    3    3    0    0  0.31850523152E+01  0.79428198781E+01  0.73581437760E+01  0.11286063339E+02  0.00000000000E+00 0. -1.
</event>
<event>
 7    1  0.5755468E-013  0.5930210E+02  0.7816164E-02  0.1266604E+00
        -11   -1    0    0    0    0  0.00000000000E+00  0.00000000000E+00  0.45593999997E+02  0.45594000000E+02  0.51100000000E-03 0.  1.
         11   -1    0    0    0    0 -0.00000000000E+00 -0.00000000000E+00 -0.45593999997E+02  0.45594000000E+02  0.51100000000E-03 0. -1.
    9900012    2    1    2    0    0  0.15791015281E+02 -0.26714413154E+02 -0.73276694562E+01  0.59302097575E+02  0.50000280033E+02 0.  0.
        -12    1    1    2    0    0 -0.15791015281E+02  0.26714413154E+02  0.73276694562E+01  0.31885902425E+02  0.00000000000E+00 0.  1.
         11    1    3    3    0    0  0.89556706831E+01 -0.32498496889E+02  0.91939572313E+01  0.34941167514E+02  0.51100000000E-03 0. -1.
        -11    1    3    3    0    0  0.26080620447E+01  0.43443505921E+01 -0.18712724556E+02  0.19386630194E+02  0.51100000000E-03 0.  1.
        -12    1    3    3    0    0  0.42272825532E+01  0.14397331424E+01  0.21910978686E+01  0.49742998679E+01  0.00000000000E+00 0.  1.
</event>
<event>
 7    1  0.5755468E-013  0.5930195E+02  0.7816164E-02  0.1266605E+00
        -11   -1    0    0    0    0  0.00000000000E+00  0.00000000000E+00  0.45593999997E+02  0.45594000000E+02  0.51100000000E-03 0.  1.
         11   -1    0    0    0    0 -0.00000000000E+00 -0.00000000000E+00 -0.45593999997E+02  0.45594000000E+02  0.51100000000E-03 0. -1.
    9900012    2    1    2    0    0  0.28127369937E+02 -0.15011382274E+02  0.47941363903E+00  0.59301947018E+02  0.50000005453E+02 0.  0.
        -12    1    1    2    0    0 -0.28127369937E+02  0.15011382274E+02 -0.47941363903E+00  0.31886052982E+02  0.00000000000E+00 0.  1.
         11    1    3    3    0    0 -0.35506086946E+01  0.22653785927E+01 -0.41139933548E+01  0.58875889679E+01  0.51100000000E-03 0.  1.
        -11    1    3    3    0    0  0.34346330856E+02 -0.18332833938E+01  0.11528970787E+02  0.36276005002E+02  0.51100000000E-03 0. -1.
        -12    1    3    3    0    0 -0.26683522244E+01 -0.15443477473E+02 -0.69355637935E+01  0.17138353048E+02  0.00000000000E+00 0.  1.
</event>
<event>
 7    1  0.5755468E-013  0.5930195E+02  0.7816164E-02  0.1266605E+00
        -11   -1    0    0    0    0  0.00000000000E+00  0.00000000000E+00  0.45593999997E+02  0.45594000000E+02  0.51100000000E-03 0. -1.
         11   -1    0    0    0    0 -0.00000000000E+00 -0.00000000000E+00 -0.45593999997E+02  0.45594000000E+02  0.51100000000E-03 0.  1.
    9900012    2    1    2    0    0  0.25877870848E+01  0.31779653812E+02 -0.27796615727E+00  0.59301948134E+02  0.50000007489E+02 0.  0.
        -12    1    1    2    0    0 -0.25877870848E+01 -0.31779653812E+02  0.27796615727E+00  0.31886051866E+02  0.00000000000E+00 0.  1.
         11    1    3    3    0    0 -0.55354263801E+01  0.18345141406E+02  0.11102701480E+02  0.22146221773E+02  0.51100000000E-03 0. -1.
        -11    1    3    3    0    0  0.15035302177E+02  0.49206509303E+01 -0.18298993602E+02  0.24189383709E+02  0.51100000000E-03 0.  1.
        -12    1    3    3    0    0 -0.69120887125E+01  0.85138614764E+01  0.69183259640E+01  0.12966342651E+02  0.00000000000E+00 0.  1.
</event>
<event>
 7    1  0.5755468E-013  0.5930191E+02  0.7816164E-02  0.1266605E+00
        -11   -1    0    0    0    0  0.00000000000E+00  0.00000000000E+00  0.45593999997E+02  0.45594000000E+02  0.51100000000E-03 0.  1.
         11   -1    0    0    0    0 -0.00000000000E+00 -0.00000000000E+00 -0.45593999997E+02  0.45594000000E+02  0.51100000000E-03 0. -1.
    9900012    2    1    2    0    0 -0.16258378886E+02 -0.16076571150E+02 -0.22224567614E+02  0.59301914797E+02  0.49999946690E+02 0.  0.
        -12    1    1    2    0    0  0.16258378886E+02  0.16076571150E+02  0.22224567614E+02  0.31886085203E+02  0.00000000000E+00 0.  1.
         11    1    3    3    0    0 -0.14857310367E+02  0.37630395232E+01 -0.98833535385E+01  0.18236798382E+02  0.51100000000E-03 0. -1.
        -11    1    3    3    0    0  0.66034532666E+01 -0.15308080177E+02  0.81847690237E+01  0.18572381591E+02  0.51100000000E-03 0.  1.
        -12    1    3    3    0    0 -0.80045217857E+01 -0.45315304962E+01 -0.20525983099E+02  0.22492734824E+02  0.00000000000E+00 0.  1.
</event>
<event>
 7    1  0.5755468E-013  0.5930193E+02  0.7816164E-02  0.1266605E+00
        -11   -1    0    0    0    0  0.00000000000E+00  0.00000000000E+00  0.45593999997E+02  0.45594000000E+02  0.51100000000E-03 0. -1.
         11   -1    0    0    0    0 -0.00000000000E+00 -0.00000000000E+00 -0.45593999997E+02  0.45594000000E+02  0.51100000000E-03 0.  1.
    9900012    2    1    2    0    0 -0.22767431964E+02 -0.11516616380E+01  0.22294373717E+02  0.59301931221E+02  0.49999976644E+02 0.  0.
        -12    1    1    2    0    0  0.22767431964E+02  0.11516616380E+01 -0.22294373717E+02  0.31886068779E+02  0.00000000000E+00 0.  1.
         11    1    3    3    0    0  0.32525583910E+00  0.51357205570E-01  0.31113511866E+01  0.31287274396E+01  0.51100000000E-03 0. -1.
        -11    1    3    3    0    0 -0.26322024936E+02 -0.69277295463E+01 -0.78698548086E+01  0.28333320462E+02  0.51100000000E-03 0.  1.
        -12    1    3    3    0    0  0.32293371334E+01  0.57247107027E+01  0.27052877339E+02  0.27839883320E+02  0.00000000000E+00 0.  1.
</event>
<event>
 7    1  0.5755468E-013  0.5930195E+02  0.7816164E-02  0.1266605E+00
        -11   -1    0    0    0    0  0.00000000000E+00  0.00000000000E+00  0.45593999997E+02  0.45594000000E+02  0.51100000000E-03 0.  1.
         11   -1    0    0    0    0 -0.00000000000E+00 -0.00000000000E+00 -0.45593999997E+02  0.45594000000E+02  0.51100000000E-03 0. -1.
    9900012    2    1    2    0    0  0.24637694059E+02  0.13811223335E+02 -0.14797098325E+02  0.59301953250E+02  0.50000016818E+02 0.  0.
        -12    1    1    2    0    0 -0.24637694059E+02 -0.13811223335E+02  0.14797098325E+02  0.31886046750E+02  0.00000000000E+00 0.  1.
         11    1    3    3    0    0  0.31346866906E+02 -0.40426039413E+01 -0.19711733575E+02  0.37249444993E+02  0.51100000000E-03 0. -1.
        -11    1    3    3    0    0 -0.33378981482E+01  0.91904825691E+01  0.75911439068E+01  0.12378691368E+02  0.51100000000E-03 0.  1.
         12    1    3    3    0    0 -0.33712746994E+01  0.86633447074E+01 -0.26765086561E+01  0.96738168891E+01  0.00000000000E+00 0. -1.
</event>
<event>
 7    1  0.5755468E-013  0.5930180E+02  0.7816164E-02  0.1266605E+00
        -11   -1    0    0    0    0  0.00000000000E+00  0.00000000000E+00  0.45593999997E+02  0.45594000000E+02  0.51100000000E-03 0. -1.
         11   -1    0    0    0    0 -0.00000000000E+00 -0.00000000000E+00 -0.45593999997E+02  0.45594000000E+02  0.51100000000E-03 0.  1.
    9900012    2    1    2    0    0  0.29080708867E+02 -0.11172195966E+02 -0.67988157395E+01  0.59301804140E+02  0.49999744878E+02 0.  0.
        -12    1    1    2    0    0 -0.29080708867E+02  0.11172195966E+02  0.67988157395E+01  0.31886195860E+02  0.00000000000E+00 0.  1.
         11    1    3    3    0    0  0.43884251326E+01  0.97349800001E+01 -0.33457675297E+01  0.11190275750E+02  0.51100000000E-03 0. -1.
        -11    1    3    3    0    0  0.12002243846E+02 -0.96394089577E+01  0.16063323904E+02  0.22248650240E+02  0.51100000000E-03 0.  1.
        -12    1    3    3    0    0  0.12690039889E+02 -0.11267767009E+02 -0.19516372113E+02  0.25862878150E+02  0.00000000000E+00 0.  1.
</event>
<event>
 7    1  0.5755468E-013  0.5930194E+02  0.7816164E-02  0.1266605E+00
        -11   -1    0    0    0    0  0.00000000000E+00  0.00000000000E+00  0.45593999997E+02  0.45594000000E+02  0.51100000000E-03 0.  1.
         11   -1    0    0    0    0 -0.00000000000E+00 -0.00000000000E+00 -0.45593999997E+02  0.45594000000E+02  0.51100000000E-03 0. -1.
    9900012    2    1    2    0    0 -0.24483197234E+01 -0.27392029817E+02  0.16137011313E+02  0.59301941901E+02  0.49999996122E+02 0.  0.
        -12    1    1    2    0    0  0.24483197234E+01  0.27392029817E+02 -0.16137011313E+02  0.31886058099E+02  0.00000000000E+00 0.  1.
         11    1    3    3    0    0  0.80433327722E+01  0.76422165458E+01 -0.85524994106E+01  0.14008708800E+02  0.51100000000E-03 0.  1.
        -11    1    3    3    0    0 -0.11469505555E+02 -0.22128034570E+02  0.17828497608E+02  0.30644001025E+02  0.51100000000E-03 0. -1.
        -12    1    3    3    0    0  0.97785305914E+00 -0.12906211793E+02  0.68610131147E+01  0.14649232076E+02  0.00000000000E+00 0.  1.
</event>
<event>
 7    1  0.5755468E-013  0.5930193E+02  0.7816164E-02  0.1266605E+00
        -11   -1    0    0    0    0  0.00000000000E+00  0.00000000000E+00  0.45593999997E+02  0.45594000000E+02  0.51100000000E-03 0. -1.
         11   -1    0    0    0    0 -0.00000000000E+00 -0.00000000000E+00 -0.45593999997E+02  0.45594000000E+02  0.51100000000E-03 0.  1.
    9900012    2    1    2    0    0 -0.52044813012E+01 -0.51538720198E+01  0.31033404106E+02  0.59301934190E+02  0.49999982059E+02 0.  0.
        -12    1    1    2    0    0  0.52044813012E+01  0.51538720198E+01 -0.31033404106E+02  0.31886065810E+02  0.00000000000E+00 0.  1.
         11    1    3    3    0    0 -0.25833618395E+01  0.13413704881E+02  0.16288606660E+02  0.21258408788E+02  0.51100000000E-03 0. -1.
        -11    1    3    3    0    0  0.12471163991E+02 -0.19537285563E+01  0.51536502841E+01  0.13634775322E+02  0.51100000000E-03 0.  1.
         12    1    3    3    0    0 -0.15092283452E+02 -0.16613848344E+02  0.95911471618E+01  0.24408750081E+02  0.00000000000E+00 0. -1.
</event>
<event>
 7    1  0.5755468E-013  0.5930190E+02  0.7816164E-02  0.1266605E+00
        -11   -1    0    0    0    0  0.00000000000E+00  0.00000000000E+00  0.45593999997E+02  0.45594000000E+02  0.51100000000E-03 0. -1.
         11   -1    0    0    0    0 -0.00000000000E+00 -0.00000000000E+00 -0.45593999997E+02  0.45594000000E+02  0.51100000000E-03 0.  1.
    9900012    2    1    2    0    0 -0.27907686524E+02 -0.30984075245E+01 -0.15109070377E+02  0.59301904222E+02  0.49999927404E+02 0.  0.
        -12    1    1    2    0    0  0.27907686524E+02  0.30984075245E+01  0.15109070377E+02  0.31886095778E+02  0.00000000000E+00 0.  1.
         11    1    3    3    0    0 -0.11077552662E+01 -0.19386652200E+02 -0.64138158215E+01  0.20450096306E+02  0.51100000000E-03 0.  1.
        -11    1    3    3    0    0 -0.72327247062E+01  0.11589276047E+02  0.49589497567E+01  0.14533231194E+02  0.51100000000E-03 0. -1.
        -12    1    3    3    0    0 -0.19567206552E+02  0.46989686282E+01 -0.13654204312E+02  0.24318576722E+02  0.00000000000E+00 0.  1.
</event>
<event>
 7    1  0.5755468E-013  0.5930196E+02  0.7816164E-02  0.1266605E+00
        -11   -1    0    0    0    0  0.00000000000E+00  0.00000000000E+00  0.45593999997E+02  0.45594000000E+02  0.51100000000E-03 0.  1.
         11   -1    0    0    0    0 -0.00000000000E+00 -0.00000000000E+00 -0.45593999997E+02  0.45594000000E+02  0.51100000000E-03 0. -1.
    9900012    2    1    2    0    0  0.17515415482E+02 -0.15876441826E+02 -0.21397857039E+02  0.59301961199E+02  0.50000031316E+02 0.  0.
        -12    1    1    2    0    0 -0.17515415482E+02  0.15876441826E+02  0.21397857039E+02  0.31886038801E+02  0.00000000000E+00 0.  1.
         11    1    3    3    0    0 -0.89642061082E+00  0.33553613554E+01  0.80441071174E+01  0.87618308197E+01  0.51100000000E-03 0.  1.
        -11    1    3    3    0    0  0.14090395815E+02 -0.27337762105E+02 -0.27262682200E+02  0.41099225444E+02  0.51100000000E-03 0. -1.
         12    1    3    3    0    0  0.43214402774E+01  0.81059589233E+01 -0.21792819569E+01  0.94409049346E+01  0.00000000000E+00 0. -1.
</event>
<event>
 7    1  0.5755468E-013  0.5930194E+02  0.7816164E-02  0.1266605E+00
        -11   -1    0    0    0    0  0.00000000000E+00  0.00000000000E+00  0.45593999997E+02  0.45594000000E+02  0.51100000000E-03 0. -1.
         11   -1    0    0    0    0 -0.00000000000E+00 -0.00000000000E+00 -0.45593999997E+02  0.45594000000E+02  0.51100000000E-03 0.  1.
    9900012    2    1    2    0    0  0.26571762600E+02 -0.12371273236E+02  0.12554445027E+02  0.59301936287E+02  0.49999985883E+02 0.  0.
        -12    1    1    2    0    0 -0.26571762600E+02  0.12371273236E+02 -0.12554445027E+02  0.31886063713E+02  0.00000000000E+00 0.  1.
         11    1    3    3    0    0  0.87002742073E+01 -0.12774776570E+02  0.18824640465E+02  0.24356863028E+02  0.51100000000E-03 0. -1.
        -11    1    3    3    0    0  0.25583884947E+02  0.21442081549E+01 -0.15136470124E+01  0.25718163332E+02  0.51100000000E-03 0.  1.
        -12    1    3    3    0    0 -0.77123965542E+01 -0.17407048207E+01 -0.47565484257E+01  0.92269099274E+01  0.00000000000E+00 0.  1.
</event>
<event>
 7    1  0.5755468E-013  0.5930196E+02  0.7816164E-02  0.1266605E+00
        -11   -1    0    0    0    0  0.00000000000E+00  0.00000000000E+00  0.45593999997E+02  0.45594000000E+02  0.51100000000E-03 0.  1.
         11   -1    0    0    0    0 -0.00000000000E+00 -0.00000000000E+00 -0.45593999997E+02  0.45594000000E+02  0.51100000000E-03 0. -1.
    9900012    2    1    2    0    0  0.25424198590E+02 -0.12431679391E+02 -0.14689555100E+02  0.59301959865E+02  0.50000028884E+02 0.  0.
        -12    1    1    2    0    0 -0.25424198590E+02  0.12431679391E+02  0.14689555100E+02  0.31886040135E+02  0.00000000000E+00 0.  1.
         11    1    3    3    0    0  0.17068798425E+02 -0.15486229848E+02 -0.12254712275E+02  0.26102589293E+02  0.51100000000E-03 0. -1.
        -11    1    3    3    0    0 -0.29750745245E+00  0.90553843588E+01  0.12183631790E+02  0.15183194013E+02  0.51100000000E-03 0.  1.
        -12    1    3    3    0    0  0.86529076180E+01 -0.60008339019E+01 -0.14618474615E+02  0.18016176559E+02  0.00000000000E+00 0.  1.
</event>
<event>
 7    1  0.5755468E-013  0.5930194E+02  0.7816164E-02  0.1266605E+00
        -11   -1    0    0    0    0  0.00000000000E+00  0.00000000000E+00  0.45593999997E+02  0.45594000000E+02  0.51100000000E-03 0.  1.
         11   -1    0    0    0    0 -0.00000000000E+00 -0.00000000000E+00 -0.45593999997E+02  0.45594000000E+02  0.51100000000E-03 0. -1.
    9900012    2    1    2    0    0 -0.10327850194E+02  0.27637312236E+02 -0.12092788892E+02  0.59301936266E+02  0.49999985844E+02 0.  0.
        -12    1    1    2    0    0  0.10327850194E+02 -0.27637312236E+02  0.12092788892E+02  0.31886063734E+02  0.00000000000E+00 0.  1.
         11    1    3    3    0    0  0.59735679065E+01  0.17567616478E+02 -0.27030160006E+02  0.32786189356E+02  0.51100000000E-03 0. -1.
        -11    1    3    3    0    0  0.80841938881E+00  0.23664809046E+01  0.42239615028E+01  0.49087294505E+01  0.51100000000E-03 0.  1.
         12    1    3    3    0    0 -0.17109837490E+02  0.77032148536E+01  0.10713409611E+02  0.21607017460E+02  0.00000000000E+00 0. -1.
</event>
<event>
 7    1  0.5755468E-013  0.5930190E+02  0.7816164E-02  0.1266605E+00
        -11   -1    0    0    0    0  0.00000000000E+00  0.00000000000E+00  0.45593999997E+02  0.45594000000E+02  0.51100000000E-03 0. -1.
         11   -1    0    0    0    0 -0.00000000000E+00 -0.00000000000E+00 -0.45593999997E+02  0.45594000000E+02  0.51100000000E-03 0.  1.
    9900012    2    1    2    0    0 -0.23448568790E+02 -0.71037919352E+01  0.20406478585E+02  0.59301896343E+02  0.49999913034E+02 0.  0.
        -12    1    1    2    0    0  0.23448568790E+02  0.71037919352E+01 -0.20406478585E+02  0.31886103657E+02  0.00000000000E+00 0.  1.
         11    1    3    3    0    0 -0.97596738148E+01 -0.92886019087E+01 -0.38695491817E+01  0.14017944554E+02  0.51100000000E-03 0. -1.
        -11    1    3    3    0    0 -0.65979837794E+01  0.16230906233E+02  0.23785366346E+02  0.29541823904E+02  0.51100000000E-03 0.  1.
        -12    1    3    3    0    0 -0.70909111962E+01 -0.14046096259E+02  0.49066142126E+00  0.15742127885E+02  0.00000000000E+00 0.  1.
</event>
<event>
 7    1  0.5755468E-013  0.5930194E+02  0.7816164E-02  0.1266605E+00
        -11   -1    0    0    0    0  0.00000000000E+00  0.00000000000E+00  0.45593999997E+02  0.45594000000E+02  0.51100000000E-03 0. -1.
         11   -1    0    0    0    0 -0.00000000000E+00 -0.00000000000E+00 -0.45593999997E+02  0.45594000000E+02  0.51100000000E-03 0.  1.
    9900012    2    1    2    0    0  0.86947247423E+01 -0.29123836551E+02  0.96397594815E+01  0.59301936326E+02  0.49999985954E+02 0.  0.
        -12    1    1    2    0    0 -0.86947247423E+01  0.29123836551E+02 -0.96397594815E+01  0.31886063674E+02  0.00000000000E+00 0.  1.
         11    1    3    3    0    0  0.86680094083E+01  0.73554279456E+01  0.12638239135E+02  0.16998876318E+02  0.51100000000E-03 0. -1.
        -11    1    3    3    0    0 -0.10282719689E+02 -0.17896226191E+02 -0.40178515786E+01  0.21027419425E+02  0.51100000000E-03 0.  1.
         12    1    3    3    0    0  0.10309435023E+02 -0.18583038305E+02  0.10193719251E+01  0.21275640584E+02  0.00000000000E+00 0. -1.
</event>
<event>
 7    1  0.5755468E-013  0.5930203E+02  0.7816164E-02  0.1266604E+00
        -11   -1    0    0    0    0  0.00000000000E+00  0.00000000000E+00  0.45593999997E+02  0.45594000000E+02  0.51100000000E-03 0. -1.
         11   -1    0    0    0    0 -0.00000000000E+00 -0.00000000000E+00 -0.45593999997E+02  0.45594000000E+02  0.51100000000E-03 0.  1.
    9900012    2    1    2    0    0  0.85197304672E+01 -0.22045847282E+02  0.21403506337E+02  0.59302027016E+02  0.50000151350E+02 0.  0.
        -12    1    1    2    0    0 -0.85197304672E+01  0.22045847282E+02 -0.21403506337E+02  0.31885972984E+02  0.00000000000E+00 0.  1.
         11    1    3    3    0    0  0.31142593279E+01 -0.23429094881E+01 -0.73593060220E+01  0.83274979086E+01  0.51100000000E-03 0.  1.
        -11    1    3    3    0    0  0.18192831830E+02 -0.22375744682E+02  0.21946082753E+02  0.36239255352E+02  0.51100000000E-03 0. -1.
        -12    1    3    3    0    0 -0.12787360691E+02  0.26728068877E+01  0.68167296069E+01  0.14735273755E+02  0.00000000000E+00 0.  1.
</event>
<event>
 7    1  0.5755468E-013  0.5930202E+02  0.7816164E-02  0.1266604E+00
        -11   -1    0    0    0    0  0.00000000000E+00  0.00000000000E+00  0.45593999997E+02  0.45594000000E+02  0.51100000000E-03 0.  1.
         11   -1    0    0    0    0 -0.00000000000E+00 -0.00000000000E+00 -0.45593999997E+02  0.45594000000E+02  0.51100000000E-03 0. -1.
    9900012    2    1    2    0    0 -0.13182246629E+02  0.21954354724E+02 -0.18998695198E+02  0.59302019746E+02  0.50000138091E+02 0.  0.
        -12    1    1    2    0    0  0.13182246629E+02 -0.21954354724E+02  0.18998695198E+02  0.31885980254E+02  0.00000000000E+00 0.  1.
         11    1    3    3    0    0  0.67278566487E+01  0.20645926420E+02 -0.14537444629E+02  0.26131506452E+02  0.51100000000E-03 0. -1.
        -11    1    3    3    0    0 -0.20622496096E+02  0.78073948241E+01  0.40687938997E+01  0.22423154177E+02  0.51100000000E-03 0.  1.
         12    1    3    3    0    0  0.71239281778E+00 -0.64989665205E+01 -0.85300444688E+01  0.10747359118E+02  0.00000000000E+00 0. -1.
</event>
<event>
 7    1  0.5755468E-013  0.5930195E+02  0.7816164E-02  0.1266605E+00
        -11   -1    0    0    0    0  0.00000000000E+00  0.00000000000E+00  0.45593999997E+02  0.45594000000E+02  0.51100000000E-03 0.  1.
         11   -1    0    0    0    0 -0.00000000000E+00 -0.00000000000E+00 -0.45593999997E+02  0.45594000000E+02  0.51100000000E-03 0. -1.
    9900012    2    1    2    0    0 -0.94211732422E+01  0.12169798504E+02 -0.27925935159E+02  0.59301947322E+02  0.50000006008E+02 0.  0.
        -12    1    1    2    0    0  0.94211732422E+01 -0.12169798504E+02  0.27925935159E+02  0.31886052678E+02  0.00000000000E+00 0.  1.
         11    1    3    3    0    0 -0.12478348525E+02 -0.19409238141E+01  0.22082949558E+01  0.12820020828E+02  0.51100000000E-03 0. -1.
        -11    1    3    3    0    0  0.14066493963E+01 -0.24734394357E+01 -0.29673345982E+02  0.29809462041E+02  0.51100000000E-03 0.  1.
        -12    1    3    3    0    0  0.16505258859E+01  0.16584161753E+02 -0.46088413348E+00  0.16672464453E+02  0.00000000000E+00 0.  1.
</event>
<event>
 7    1  0.5755468E-013  0.5930195E+02  0.7816164E-02  0.1266605E+00
        -11   -1    0    0    0    0  0.00000000000E+00  0.00000000000E+00  0.45593999997E+02  0.45594000000E+02  0.51100000000E-03 0.  1.
         11   -1    0    0    0    0 -0.00000000000E+00 -0.00000000000E+00 -0.45593999997E+02  0.45594000000E+02  0.51100000000E-03 0. -1.
    9900012    2    1    2    0    0 -0.16809349151E+02  0.27912003368E+01 -0.26951346909E+02  0.59301951038E+02  0.50000012785E+02 0.  0.
        -12    1    1    2    0    0  0.16809349151E+02 -0.27912003368E+01  0.26951346909E+02  0.31886048962E+02  0.00000000000E+00 0.  1.
         11    1    3    3    0    0 -0.21501971240E+02  0.14398425440E+02 -0.27824652458E+02  0.37998167154E+02  0.51100000000E-03 0. -1.
        -11    1    3    3    0    0  0.73720831632E+01 -0.14947953568E+02 -0.84734070861E+00  0.16688526375E+02  0.51100000000E-03 0.  1.
        -12    1    3    3    0    0 -0.26794610741E+01  0.33407284650E+01  0.17206462580E+01  0.46152575084E+01  0.00000000000E+00 0.  1.
</event>
<event>
 7    1  0.5755468E-013  0.5930195E+02  0.7816164E-02  0.1266605E+00
        -11   -1    0    0    0    0  0.00000000000E+00  0.00000000000E+00  0.45593999997E+02  0.45594000000E+02  0.51100000000E-03 0. -1.
         11   -1    0    0    0    0 -0.00000000000E+00 -0.00000000000E+00 -0.45593999997E+02  0.45594000000E+02  0.51100000000E-03 0.  1.
    9900012    2    1    2    0    0 -0.17895222573E+01 -0.30483539170E+02  0.91799442988E+01  0.59301954031E+02  0.50000018243E+02 0.  0.
        -12    1    1    2    0    0  0.17895222573E+01  0.30483539170E+02 -0.91799442988E+01  0.31886045969E+02  0.00000000000E+00 0.  1.
         11    1    3    3    0    0  0.94895827221E+01  0.69035587614E+01  0.15682956546E+02  0.19587404885E+02  0.51100000000E-03 0. -1.
        -11    1    3    3    0    0 -0.54381566005E+01 -0.22671131914E+02 -0.46535859185E+01  0.23774137873E+02  0.51100000000E-03 0.  1.
         12    1    3    3    0    0 -0.58409483789E+01 -0.14715966018E+02 -0.18494263292E+01  0.15940411273E+02  0.00000000000E+00 0. -1.
</event>
<event>
 7    1  0.5755468E-013  0.5930193E+02  0.7816164E-02  0.1266605E+00
        -11   -1    0    0    0    0  0.00000000000E+00  0.00000000000E+00  0.45593999997E+02  0.45594000000E+02  0.51100000000E-03 0. -1.
         11   -1    0    0    0    0 -0.00000000000E+00 -0.00000000000E+00 -0.45593999997E+02  0.45594000000E+02  0.51100000000E-03 0.  1.
    9900012    2    1    2    0    0  0.11399720537E+02 -0.70922019513E+01  0.28921768297E+02  0.59301927205E+02  0.49999969320E+02 0.  0.
        -12    1    1    2    0    0 -0.11399720537E+02  0.70922019513E+01 -0.28921768297E+02  0.31886072795E+02  0.00000000000E+00 0.  1.
         11    1    3    3    0    0  0.10498531522E+02 -0.91980412712E+01  0.46679249168E+01  0.14717766496E+02  0.51100000000E-03 0. -1.
        -11    1    3    3    0    0 -0.18034885695E+02 -0.13994003576E+01  0.13041335774E+02  0.22300041758E+02  0.51100000000E-03 0.  1.
         12    1    3    3    0    0  0.18936074709E+02  0.35052396775E+01  0.11212507606E+02  0.22284118951E+02  0.00000000000E+00 0. -1.
</event>
<event>
 7    1  0.5755468E-013  0.5930189E+02  0.7816164E-02  0.1266605E+00
        -11   -1    0    0    0    0  0.00000000000E+00  0.00000000000E+00  0.45593999997E+02  0.45594000000E+02  0.51100000000E-03 0. -1.
         11   -1    0    0    0    0 -0.00000000000E+00 -0.00000000000E+00 -0.45593999997E+02  0.45594000000E+02  0.51100000000E-03 0.  1.
    9900012    2    1    2    0    0  0.30926183991E+02  0.20946695176E+01 -0.74771326572E+01  0.59301890024E+02  0.49999901510E+02 0.  0.
        -12    1    1    2    0    0 -0.30926183991E+02 -0.20946695176E+01  0.74771326572E+01  0.31886109976E+02  0.00000000000E+00 0.  1.
         11    1    3    3    0    0  0.22407900399E+02  0.11043195658E+01 -0.75667156018E+01  0.23676754576E+02  0.51100000000E-03 0. -1.
        -11    1    3    3    0    0  0.48071110071E+01  0.26313217289E+01  0.17193879457E+02  0.18046098230E+02  0.51100000000E-03 0.  1.
        -12    1    3    3    0    0  0.37111725845E+01 -0.16409717772E+01 -0.17104296512E+02  0.17579037218E+02  0.00000000000E+00 0.  1.
</event>
<event>
 7    1  0.5755468E-013  0.5930194E+02  0.7816164E-02  0.1266605E+00
        -11   -1    0    0    0    0  0.00000000000E+00  0.00000000000E+00  0.45593999997E+02  0.45594000000E+02  0.51100000000E-03 0.  1.
         11   -1    0    0    0    0 -0.00000000000E+00 -0.00000000000E+00 -0.45593999997E+02  0.45594000000E+02  0.51100000000E-03 0. -1.
    9900012    2    1    2    0    0 -0.20837399767E+02 -0.20916947717E+02 -0.12041810563E+02  0.59301935136E+02  0.49999983784E+02 0.  0.
        -12    1    1    2    0    0  0.20837399767E+02  0.20916947717E+02  0.12041810563E+02  0.31886064864E+02  0.00000000000E+00 0.  1.
         11    1    3    3    0    0 -0.10562358677E+02 -0.21633212581E+02 -0.19216829501E+02  0.30803341438E+02  0.51100000000E-03 0. -1.
        -11    1    3    3    0    0 -0.61654606582E+01 -0.47224140061E+01  0.15740217527E+02  0.17551881587E+02  0.51100000000E-03 0.  1.
         12    1    3    3    0    0 -0.41095804317E+01  0.54386788699E+01 -0.85651985897E+01  0.10946712112E+02  0.00000000000E+00 0. -1.
</event>
<event>
 7    1  0.5755468E-013  0.5930194E+02  0.7816164E-02  0.1266605E+00
        -11   -1    0    0    0    0  0.00000000000E+00  0.00000000000E+00  0.45593999997E+02  0.45594000000E+02  0.51100000000E-03 0. -1.
         11   -1    0    0    0    0 -0.00000000000E+00 -0.00000000000E+00 -0.45593999997E+02  0.45594000000E+02  0.51100000000E-03 0.  1.
    9900012    2    1    2    0    0 -0.19365287227E+02  0.11409308374E+02  0.22617116439E+02  0.59301943126E+02  0.49999998356E+02 0.  0.
        -12    1    1    2    0    0  0.19365287227E+02 -0.11409308374E+02 -0.22617116439E+02  0.31886056874E+02  0.00000000000E+00 0.  1.
         11    1    3    3    0    0 -0.56939018145E+01  0.26692173386E+02  0.24065038685E+01  0.27398611262E+02  0.51100000000E-03 0. -1.
        -11    1    3    3    0    0  0.16304109104E+01 -0.68446157626E+01  0.75794022572E+01  0.10341873308E+02  0.51100000000E-03 0.  1.
         12    1    3    3    0    0 -0.15301796323E+02 -0.84382492497E+01  0.12631210314E+02  0.21561458556E+02  0.00000000000E+00 0. -1.
</event>
<event>
 7    1  0.5755468E-013  0.5930193E+02  0.7816164E-02  0.1266605E+00
        -11   -1    0    0    0    0  0.00000000000E+00  0.00000000000E+00  0.45593999997E+02  0.45594000000E+02  0.51100000000E-03 0. -1.
         11   -1    0    0    0    0 -0.00000000000E+00 -0.00000000000E+00 -0.45593999997E+02  0.45594000000E+02  0.51100000000E-03 0.  1.
    9900012    2    1    2    0    0 -0.82539727429E+01 -0.14094428611E+02  0.27385037775E+02  0.59301932857E+02  0.49999979627E+02 0.  0.
        -12    1    1    2    0    0  0.82539727429E+01  0.14094428611E+02 -0.27385037775E+02  0.31886067143E+02  0.00000000000E+00 0.  1.
         11    1    3    3    0    0  0.15558588462E+02  0.10855678327E+01 -0.13238087320E+01  0.15652495081E+02  0.51100000000E-03 0. -1.
        -11    1    3    3    0    0 -0.31102754494E+01 -0.38704922609E+01 -0.16231778791E+01  0.52239094939E+01  0.51100000000E-03 0.  1.
         12    1    3    3    0    0 -0.20702285756E+02 -0.11309504183E+02  0.30332024386E+02  0.38425528282E+02  0.00000000000E+00 0. -1.
</event>
<event>
 7    1  0.5755468E-013  0.5930195E+02  0.7816164E-02  0.1266605E+00
        -11   -1    0    0    0    0  0.00000000000E+00  0.00000000000E+00  0.45593999997E+02  0.45594000000E+02  0.51100000000E-03 0. -1.
         11   -1    0    0    0    0 -0.00000000000E+00 -0.00000000000E+00 -0.45593999997E+02  0.45594000000E+02  0.51100000000E-03 0.  1.
    9900012    2    1    2    0    0 -0.83067430245E+01  0.29703218947E+02  0.80892949915E+01  0.59301954637E+02  0.50000019348E+02 0.  0.
        -12    1    1    2    0    0  0.83067430245E+01 -0.29703218947E+02 -0.80892949915E+01  0.31886045363E+02  0.00000000000E+00 0.  1.
         11    1    3    3    0    0  0.18061983780E+02  0.13879323189E+02 -0.64826465259E+00  0.22787959926E+02  0.51100000000E-03 0. -1.
        -11    1    3    3    0    0 -0.18231754717E+02  0.58430750113E+01 -0.26450615237E+01  0.19327047275E+02  0.51100000000E-03 0.  1.
         12    1    3    3    0    0 -0.81369720869E+01  0.99808207458E+01  0.11382621168E+02  0.17186947436E+02  0.00000000000E+00 0. -1.
</event>
<event>
 7    1  0.5755468E-013  0.5930195E+02  0.7816164E-02  0.1266605E+00
        -11   -1    0    0    0    0  0.00000000000E+00  0.00000000000E+00  0.45593999997E+02  0.45594000000E+02  0.51100000000E-03 0. -1.
         11   -1    0    0    0    0 -0.00000000000E+00 -0.00000000000E+00 -0.45593999997E+02  0.45594000000E+02  0.51100000000E-03 0.  1.
    9900012    2    1    2    0    0  0.19068444817E+02  0.74970959719E+01  0.24431701550E+02  0.59301951697E+02  0.50000013986E+02 0.  0.
        -12    1    1    2    0    0 -0.19068444817E+02 -0.74970959719E+01 -0.24431701550E+02  0.31886048303E+02  0.00000000000E+00 0.  1.
         11    1    3    3    0    0  0.12072800413E+02 -0.23648230033E+01  0.21259952262E+02  0.24562786245E+02  0.51100000000E-03 0. -1.
        -11    1    3    3    0    0 -0.47639355531E+01  0.30093222105E+01 -0.12662281515E+02  0.13859454374E+02  0.51100000000E-03 0.  1.
        -12    1    3    3    0    0  0.11759579957E+02  0.68525967647E+01  0.15834030804E+02  0.20879711078E+02  0.00000000000E+00 0.  1.
</event>
<event>
 7    1  0.5755468E-013  0.5930197E+02  0.7816164E-02  0.1266605E+00
        -11   -1    0    0    0    0  0.00000000000E+00  0.00000000000E+00  0.45593999997E+02  0.45594000000E+02  0.51100000000E-03 0.  1.
         11   -1    0    0    0    0 -0.00000000000E+00 -0.00000000000E+00 -0.45593999997E+02  0.45594000000E+02  0.51100000000E-03 0. -1.
    9900012    2    1    2    0    0  0.11760861798E+02  0.28762870566E+02  0.71483119196E+01  0.59301969254E+02  0.50000046006E+02 0.  0.
        -12    1    1    2    0    0 -0.11760861798E+02 -0.28762870566E+02 -0.71483119196E+01  0.31886030746E+02  0.00000000000E+00 0.  1.
         11    1    3    3    0    0 -0.13374588119E+02  0.18370972285E+02  0.17323337016E+01  0.22789761087E+02  0.51100000000E-03 0. -1.
        -11    1    3    3    0    0  0.42108585627E+01 -0.68979719889E+01 -0.20944830242E+01  0.83486649708E+01  0.51100000000E-03 0.  1.
         12    1    3    3    0    0  0.20924591355E+02  0.17289870270E+02  0.75104612421E+01  0.28163543196E+02  0.00000000000E+00 0. -1.
</event>
<event>
 7    1  0.5755468E-013  0.5930192E+02  0.7816164E-02  0.1266605E+00
        -11   -1    0    0    0    0  0.00000000000E+00  0.00000000000E+00  0.45593999997E+02  0.45594000000E+02  0.51100000000E-03 0.  1.
         11   -1    0    0    0    0 -0.00000000000E+00 -0.00000000000E+00 -0.45593999997E+02  0.45594000000E+02  0.51100000000E-03 0. -1.
    9900012    2    1    2    0    0 -0.14241158736E+02  0.89858148431E+01 -0.27077053538E+02  0.59301916847E+02  0.49999950428E+02 0.  0.
        -12    1    1    2    0    0  0.14241158736E+02 -0.89858148431E+01  0.27077053538E+02  0.31886083153E+02  0.00000000000E+00 0.  1.
         11    1    3    3    0    0  0.48648553808E+01 -0.14267325825E+02 -0.12670090843E+02  0.19691485630E+02  0.51100000000E-03 0. -1.
        -11    1    3    3    0    0  0.27848354535E+01  0.11779604966E+02 -0.59545207137E+01  0.13489652288E+02  0.51100000000E-03 0.  1.
         12    1    3    3    0    0 -0.21890849570E+02  0.11473535703E+02 -0.84524419815E+01  0.26120778929E+02  0.00000000000E+00 0. -1.
</event>
<event>
 7    1  0.5755468E-013  0.5930193E+02  0.7816164E-02  0.1266605E+00
        -11   -1    0    0    0    0  0.00000000000E+00  0.00000000000E+00  0.45593999997E+02  0.45594000000E+02  0.51100000000E-03 0.  1.
         11   -1    0    0    0    0 -0.00000000000E+00 -0.00000000000E+00 -0.45593999997E+02  0.45594000000E+02  0.51100000000E-03 0. -1.
    9900012    2    1    2    0    0 -0.21004991201E+02  0.22393552247E+02 -0.86046861423E+01  0.59301929982E+02  0.49999974384E+02 0.  0.
        -12    1    1    2    0    0  0.21004991201E+02 -0.22393552247E+02  0.86046861423E+01  0.31886070018E+02  0.00000000000E+00 0.  1.
         11    1    3    3    0    0  0.37234665407E+01  0.16412307853E+02  0.67032215336E+01  0.18115220985E+02  0.51100000000E-03 0.  1.
        -11    1    3    3    0    0 -0.15812366350E+02 -0.10315729532E+02 -0.11851550327E+02  0.22291353722E+02  0.51100000000E-03 0. -1.
        -12    1    3    3    0    0 -0.89160913920E+01  0.16296973926E+02 -0.34563573486E+01  0.18895355275E+02  0.00000000000E+00 0.  1.
</event>
<event>
 7    1  0.5755468E-013  0.5930194E+02  0.7816164E-02  0.1266605E+00
        -11   -1    0    0    0    0  0.00000000000E+00  0.00000000000E+00  0.45593999997E+02  0.45594000000E+02  0.51100000000E-03 0.  1.
         11   -1    0    0    0    0 -0.00000000000E+00 -0.00000000000E+00 -0.45593999997E+02  0.45594000000E+02  0.51100000000E-03 0. -1.
    9900012    2    1    2    0    0 -0.21111624100E+02 -0.12464441323E+02 -0.20387686930E+02  0.59301941166E+02  0.49999994781E+02 0.  0.
        -12    1    1    2    0    0  0.21111624100E+02  0.12464441323E+02  0.20387686930E+02  0.31886058834E+02  0.00000000000E+00 0.  1.
         11    1    3    3    0    0 -0.28761925116E+01  0.79529122243E+01 -0.52402277592E+01  0.99489337841E+01  0.51100000000E-03 0. -1.
        -11    1    3    3    0    0 -0.22991185341E+02 -0.19016683190E+02  0.35152032612E+01  0.30043060716E+02  0.51100000000E-03 0.  1.
        -12    1    3    3    0    0  0.47557537527E+01 -0.14006703573E+01 -0.18662662432E+02  0.19309946666E+02  0.00000000000E+00 0.  1.
</event>
<event>
 7    1  0.5755468E-013  0.5930193E+02  0.7816164E-02  0.1266605E+00
        -11   -1    0    0    0    0  0.00000000000E+00  0.00000000000E+00  0.45593999997E+02  0.45594000000E+02  0.51100000000E-03 0.  1.
         11   -1    0    0    0    0 -0.00000000000E+00 -0.00000000000E+00 -0.45593999997E+02  0.45594000000E+02  0.51100000000E-03 0. -1.
    9900012    2    1    2    0    0 -0.22831242640E+02  0.25622244841E+01 -0.22110874844E+02  0.59301930610E+02  0.49999975530E+02 0.  0.
        -12    1    1    2    0    0  0.22831242640E+02 -0.25622244841E+01  0.22110874844E+02  0.31886069390E+02  0.00000000000E+00 0.  1.
         11    1    3    3    0    0  0.38367397542E+01  0.54996544490E+01 -0.16701242231E+02  0.17997173760E+02  0.51100000000E-03 0. -1.
        -11    1    3    3    0    0 -0.23432091198E+02 -0.14314939390E+02  0.16870782812E+01  0.27510482021E+02  0.51100000000E-03 0.  1.
        -12    1    3    3    0    0 -0.32358911964E+01  0.11377509426E+02 -0.70967108934E+01  0.13794274829E+02  0.00000000000E+00 0.  1.
</event>
<event>
 7    1  0.5755468E-013  0.5930195E+02  0.7816164E-02  0.1266605E+00
        -11   -1    0    0    0    0  0.00000000000E+00  0.00000000000E+00  0.45593999997E+02  0.45594000000E+02  0.51100000000E-03 0. -1.
         11   -1    0    0    0    0 -0.00000000000E+00 -0.00000000000E+00 -0.45593999997E+02  0.45594000000E+02  0.51100000000E-03 0.  1.
    9900012    2    1    2    0    0  0.13480120422E+02 -0.19616906346E+02  0.21217522629E+02  0.59301954029E+02  0.50000018239E+02 0.  0.
        -12    1    1    2    0    0 -0.13480120422E+02  0.19616906346E+02 -0.21217522629E+02  0.31886045971E+02  0.00000000000E+00 0.  1.
         11    1    3    3    0    0 -0.11053834749E+01  0.99107455288E+00  0.18693487376E+02  0.18752348437E+02  0.51100000000E-03 0. -1.
        -11    1    3    3    0    0  0.11879514169E+02 -0.27549272922E+02  0.82936042487E+01  0.31126663283E+02  0.51100000000E-03 0.  1.
         12    1    3    3    0    0  0.27059897281E+01  0.69412920228E+01 -0.57695689957E+01  0.94229423086E+01  0.00000000000E+00 0. -1.
</event>
<event>
 7    1  0.5755468E-013  0.5930192E+02  0.7816164E-02  0.1266605E+00
        -11   -1    0    0    0    0  0.00000000000E+00  0.00000000000E+00  0.45593999997E+02  0.45594000000E+02  0.51100000000E-03 0.  1.
         11   -1    0    0    0    0 -0.00000000000E+00 -0.00000000000E+00 -0.45593999997E+02  0.45594000000E+02  0.51100000000E-03 0. -1.
    9900012    2    1    2    0    0 -0.26049996111E+02 -0.18222477286E+02 -0.24619443259E+01  0.59301919249E+02  0.49999954809E+02 0.  0.
        -12    1    1    2    0    0  0.26049996111E+02  0.18222477286E+02  0.24619443259E+01  0.31886080751E+02  0.00000000000E+00 0.  1.
         11    1    3    3    0    0 -0.22059009697E+02 -0.30223273251E+02 -0.93168489794E+01  0.38559691778E+02  0.51100000000E-03 0. -1.
        -11    1    3    3    0    0 -0.66809071933E+01  0.44522937684E+01 -0.25147385561E+01  0.84131653372E+01  0.51100000000E-03 0.  1.
         12    1    3    3    0    0  0.26899207790E+01  0.75485021974E+01  0.93696432095E+01  0.12329062134E+02  0.00000000000E+00 0. -1.
</event>
<event>
 7    1  0.5755468E-013  0.5930195E+02  0.7816164E-02  0.1266605E+00
        -11   -1    0    0    0    0  0.00000000000E+00  0.00000000000E+00  0.45593999997E+02  0.45594000000E+02  0.51100000000E-03 0. -1.
         11   -1    0    0    0    0 -0.00000000000E+00 -0.00000000000E+00 -0.45593999997E+02  0.45594000000E+02  0.51100000000E-03 0.  1.
    9900012    2    1    2    0    0 -0.16567703096E+02  0.18721930690E+02  0.19791929716E+02  0.59301953576E+02  0.50000017414E+02 0.  0.
        -12    1    1    2    0    0  0.16567703096E+02 -0.18721930690E+02 -0.19791929716E+02  0.31886046424E+02  0.00000000000E+00 0.  1.
         11    1    3    3    0    0 -0.48981417356E+01  0.23875511998E+02  0.24398209728E+02  0.34486294435E+02  0.51100000000E-03 0. -1.
        -11    1    3    3    0    0  0.38395325361E+01 -0.71939292262E+01  0.96298851259E+00  0.82110885358E+01  0.51100000000E-03 0.  1.
         12    1    3    3    0    0 -0.15509093896E+02  0.20403479182E+01 -0.55692685244E+01  0.16604570606E+02  0.00000000000E+00 0. -1.
</event>
<event>
 7    1  0.5755468E-013  0.5930220E+02  0.7816164E-02  0.1266604E+00
        -11   -1    0    0    0    0  0.00000000000E+00  0.00000000000E+00  0.45593999997E+02  0.45594000000E+02  0.51100000000E-03 0. -1.
         11   -1    0    0    0    0 -0.00000000000E+00 -0.00000000000E+00 -0.45593999997E+02  0.45594000000E+02  0.51100000000E-03 0.  1.
    9900012    2    1    2    0    0  0.10238045242E+02  0.47440722511E+01  0.29822484378E+02  0.59302198044E+02  0.50000463263E+02 0.  0.
        -12    1    1    2    0    0 -0.10238045242E+02 -0.47440722511E+01 -0.29822484378E+02  0.31885801956E+02  0.00000000000E+00 0.  1.
         11    1    3    3    0    0 -0.22941622938E+01  0.11239347581E+02  0.19411217283E+02  0.22547316278E+02  0.51100000000E-03 0. -1.
        -11    1    3    3    0    0  0.22645494776E+02 -0.89509777934E+01  0.44258062405E+01  0.24749266620E+02  0.51100000000E-03 0.  1.
        -12    1    3    3    0    0 -0.10113287240E+02  0.24557024632E+01  0.59854608546E+01  0.12005615146E+02  0.00000000000E+00 0.  1.
</event>
<event>
 7    1  0.5755468E-013  0.5930188E+02  0.7816164E-02  0.1266605E+00
        -11   -1    0    0    0    0  0.00000000000E+00  0.00000000000E+00  0.45593999997E+02  0.45594000000E+02  0.51100000000E-03 0.  1.
         11   -1    0    0    0    0 -0.00000000000E+00 -0.00000000000E+00 -0.45593999997E+02  0.45594000000E+02  0.51100000000E-03 0. -1.
    9900012    2    1    2    0    0  0.16590899409E+02  0.83276608932E+01 -0.25925216943E+02  0.59301878369E+02  0.49999880254E+02 0.  0.
        -12    1    1    2    0    0 -0.16590899409E+02 -0.83276608932E+01  0.25925216943E+02  0.31886121631E+02  0.00000000000E+00 0.  1.
         11    1    3    3    0    0 -0.80946341807E+01 -0.45988442344E+01 -0.20738555537E+02  0.22732359245E+02  0.51100000000E-03 0. -1.
        -11    1    3    3    0    0  0.14485777075E+02 -0.19870103457E+01  0.54489300036E+01  0.15603742693E+02  0.51100000000E-03 0.  1.
         12    1    3    3    0    0  0.10199756514E+02  0.14913515473E+02 -0.10635591410E+02  0.20965776431E+02  0.00000000000E+00 0. -1.
</event>
<event>
 7    1  0.5755468E-013  0.5930189E+02  0.7816164E-02  0.1266605E+00
        -11   -1    0    0    0    0  0.00000000000E+00  0.00000000000E+00  0.45593999997E+02  0.45594000000E+02  0.51100000000E-03 0.  1.
         11   -1    0    0    0    0 -0.00000000000E+00 -0.00000000000E+00 -0.45593999997E+02  0.45594000000E+02  0.51100000000E-03 0. -1.
    9900012    2    1    2    0    0 -0.26159989085E+02 -0.69436891062E+01 -0.16857164159E+02  0.59301892824E+02  0.49999906617E+02 0.  0.
        -12    1    1    2    0    0  0.26159989085E+02  0.69436891062E+01  0.16857164159E+02  0.31886107176E+02  0.00000000000E+00 0.  1.
         11    1    3    3    0    0 -0.13526585640E+02 -0.15497912903E+02 -0.10333427830E+02  0.23020285715E+02  0.51100000000E-03 0. -1.
        -11    1    3    3    0    0  0.99682812120E+01 -0.12272526199E+01 -0.58956779345E+01  0.11646106555E+02  0.51100000000E-03 0.  1.
        -12    1    3    3    0    0 -0.22601684657E+02  0.97814764164E+01 -0.62805839471E+00  0.24635500555E+02  0.00000000000E+00 0.  1.
</event>
<event>
 7    1  0.5755468E-013  0.5930199E+02  0.7816164E-02  0.1266605E+00
        -11   -1    0    0    0    0  0.00000000000E+00  0.00000000000E+00  0.45593999997E+02  0.45594000000E+02  0.51100000000E-03 0.  1.
         11   -1    0    0    0    0 -0.00000000000E+00 -0.00000000000E+00 -0.45593999997E+02  0.45594000000E+02  0.51100000000E-03 0. -1.
    9900012    2    1    2    0    0 -0.17708513013E+02 -0.11711320617E+02 -0.23790146859E+02  0.59301991293E+02  0.50000086200E+02 0.  0.
        -12    1    1    2    0    0  0.17708513013E+02  0.11711320617E+02  0.23790146859E+02  0.31886008707E+02  0.00000000000E+00 0.  1.
         11    1    3    3    0    0 -0.25202667737E+02 -0.24017523756E+01 -0.28069320642E+02  0.37799862924E+02  0.51100000000E-03 0. -1.
        -11    1    3    3    0    0 -0.10467996405E+01 -0.40324255789E+01  0.93634366514E+01  0.10248423865E+02  0.51100000000E-03 0.  1.
         12    1    3    3    0    0  0.85409543644E+01 -0.52771426627E+01 -0.50842628686E+01  0.11253704504E+02  0.00000000000E+00 0. -1.
</event>
<event>
 7    1  0.5755468E-013  0.5930192E+02  0.7816164E-02  0.1266605E+00
        -11   -1    0    0    0    0  0.00000000000E+00  0.00000000000E+00  0.45593999997E+02  0.45594000000E+02  0.51100000000E-03 0.  1.
         11   -1    0    0    0    0 -0.00000000000E+00 -0.00000000000E+00 -0.45593999997E+02  0.45594000000E+02  0.51100000000E-03 0. -1.
    9900012    2    1    2    0    0 -0.14373267944E+02  0.16033109429E+02 -0.23517449136E+02  0.59301923992E+02  0.49999963459E+02 0.  0.
        -12    1    1    2    0    0  0.14373267944E+02 -0.16033109429E+02  0.23517449136E+02  0.31886076008E+02  0.00000000000E+00 0.  1.
         11    1    3    3    0    0  0.11681606866E+02  0.79798925984E+01  0.14548280472E+01  0.14221643708E+02  0.51100000000E-03 0. -1.
        -11    1    3    3    0    0 -0.21366645755E+02 -0.60345831932E+01 -0.18431398978E+02  0.28855956294E+02  0.51100000000E-03 0.  1.
        -12    1    3    3    0    0 -0.46882290554E+01  0.14087800024E+02 -0.65408782051E+01  0.16224323989E+02  0.00000000000E+00 0.  1.
</event>
<event>
 7    1  0.5755468E-013  0.5930193E+02  0.7816164E-02  0.1266605E+00
        -11   -1    0    0    0    0  0.00000000000E+00  0.00000000000E+00  0.45593999997E+02  0.45594000000E+02  0.51100000000E-03 0.  1.
         11   -1    0    0    0    0 -0.00000000000E+00 -0.00000000000E+00 -0.45593999997E+02  0.45594000000E+02  0.51100000000E-03 0. -1.
    9900012    2    1    2    0    0  0.23068268709E+02  0.21152660825E+02 -0.60943526539E+01  0.59301933835E+02  0.49999981411E+02 0.  0.
        -12    1    1    2    0    0 -0.23068268709E+02 -0.21152660825E+02  0.60943526539E+01  0.31886066165E+02  0.00000000000E+00 0.  1.
         11    1    3    3    0    0  0.14126637617E+02 -0.40630393335E+01  0.12424693395E+01  0.14751742585E+02  0.51100000000E-03 0. -1.
        -11    1    3    3    0    0  0.14128849552E+02  0.30688722912E+02  0.34378905075E+00  0.33786688130E+02  0.51100000000E-03 0.  1.
        -12    1    3    3    0    0 -0.51872184590E+01 -0.54730227533E+01 -0.76806110442E+01  0.10763503120E+02  0.00000000000E+00 0.  1.
</event>
<event>
 7    1  0.5755468E-013  0.5930193E+02  0.7816164E-02  0.1266605E+00
        -11   -1    0    0    0    0  0.00000000000E+00  0.00000000000E+00  0.45593999997E+02  0.45594000000E+02  0.51100000000E-03 0.  1.
         11   -1    0    0    0    0 -0.00000000000E+00 -0.00000000000E+00 -0.45593999997E+02  0.45594000000E+02  0.51100000000E-03 0. -1.
    9900012    2    1    2    0    0  0.13105445658E+02  0.45419670679E+00 -0.29064792148E+02  0.59301934969E+02  0.49999983479E+02 0.  0.
        -12    1    1    2    0    0 -0.13105445658E+02 -0.45419670679E+00  0.29064792148E+02  0.31886065031E+02  0.00000000000E+00 0.  1.
         11    1    3    3    0    0 -0.10698136616E+01  0.33441119411E+00 -0.51192843698E+01  0.52405538674E+01  0.51100000000E-03 0. -1.
        -11    1    3    3    0    0 -0.87477642267E+01 -0.12021288346E+02  0.45301613647E+01  0.15542107795E+02  0.51100000000E-03 0.  1.
        -12    1    3    3    0    0  0.22923023546E+02  0.12141073859E+02 -0.28475669143E+02  0.38519273307E+02  0.00000000000E+00 0.  1.
</event>
<event>
 7    1  0.5755468E-013  0.5930194E+02  0.7816164E-02  0.1266605E+00
        -11   -1    0    0    0    0  0.00000000000E+00  0.00000000000E+00  0.45593999997E+02  0.45594000000E+02  0.51100000000E-03 0. -1.
         11   -1    0    0    0    0 -0.00000000000E+00 -0.00000000000E+00 -0.45593999997E+02  0.45594000000E+02  0.51100000000E-03 0.  1.
    9900012    2    1    2    0    0  0.10175156590E+02  0.22519523886E+02 -0.20150886928E+02  0.59301937031E+02  0.49999987240E+02 0.  0.
        -12    1    1    2    0    0 -0.10175156590E+02 -0.22519523886E+02  0.20150886928E+02  0.31886062969E+02  0.00000000000E+00 0.  1.
         11    1    3    3    0    0  0.10329628255E+00 -0.80060316503E+01 -0.12344600854E+02  0.14713816073E+02  0.51100000000E-03 0. -1.
        -11    1    3    3    0    0  0.19710402466E+02  0.18992501597E+02 -0.10503022735E+02  0.29317717666E+02  0.51100000000E-03 0.  1.
         12    1    3    3    0    0 -0.96385421584E+01  0.11533053939E+02  0.26967366618E+01  0.15270403293E+02  0.00000000000E+00 0. -1.
</event>
<event>
 7    1  0.5755468E-013  0.5930193E+02  0.7816164E-02  0.1266605E+00
        -11   -1    0    0    0    0  0.00000000000E+00  0.00000000000E+00  0.45593999997E+02  0.45594000000E+02  0.51100000000E-03 0. -1.
         11   -1    0    0    0    0 -0.00000000000E+00 -0.00000000000E+00 -0.45593999997E+02  0.45594000000E+02  0.51100000000E-03 0.  1.
    9900012    2    1    2    0    0 -0.43387375292E+01 -0.30167196461E+02  0.93721309415E+01  0.59301933701E+02  0.49999981166E+02 0.  0.
        -12    1    1    2    0    0  0.43387375292E+01  0.30167196461E+02 -0.93721309415E+01  0.31886066299E+02  0.00000000000E+00 0.  1.
         11    1    3    3    0    0  0.75210792726E+01 -0.82368975092E+01  0.24630920540E+02  0.27038775137E+02  0.51100000000E-03 0. -1.
        -11    1    3    3    0    0 -0.14890157891E+02 -0.18108895645E+02 -0.13643525153E+02  0.27125535614E+02  0.51100000000E-03 0.  1.
         12    1    3    3    0    0  0.30303410888E+01 -0.38214033061E+01 -0.16152644455E+01  0.51376229495E+01  0.00000000000E+00 0. -1.
</event>
<event>
 7    1  0.5755468E-013  0.5930195E+02  0.7816164E-02  0.1266605E+00
        -11   -1    0    0    0    0  0.00000000000E+00  0.00000000000E+00  0.45593999997E+02  0.45594000000E+02  0.51100000000E-03 0. -1.
         11   -1    0    0    0    0 -0.00000000000E+00 -0.00000000000E+00 -0.45593999997E+02  0.45594000000E+02  0.51100000000E-03 0.  1.
    9900012    2    1    2    0    0  0.18068820806E+02 -0.24504340682E+02  0.94749710192E+01  0.59301951744E+02  0.50000014073E+02 0.  0.
        -12    1    1    2    0    0 -0.18068820806E+02  0.24504340682E+02 -0.94749710192E+01  0.31886048256E+02  0.00000000000E+00 0.  1.
         11    1    3    3    0    0  0.26018207569E+01  0.53390566343E+01 -0.47627429682E+00  0.59583415866E+01  0.51100000000E-03 0. -1.
        -11    1    3    3    0    0  0.23004655532E+02 -0.30791579838E+02  0.17854897573E+02  0.42380808542E+02  0.51100000000E-03 0.  1.
        -12    1    3    3    0    0 -0.75376554831E+01  0.94818252154E+00 -0.79036522570E+01  0.10962801616E+02  0.00000000000E+00 0.  1.
</event>
<event>
 7    1  0.5755468E-013  0.5930179E+02  0.7816164E-02  0.1266605E+00
        -11   -1    0    0    0    0  0.00000000000E+00  0.00000000000E+00  0.45593999997E+02  0.45594000000E+02  0.51100000000E-03 0. -1.
         11   -1    0    0    0    0 -0.00000000000E+00 -0.00000000000E+00 -0.45593999997E+02  0.45594000000E+02  0.51100000000E-03 0.  1.
    9900012    2    1    2    0    0 -0.14178135949E+02  0.21347713189E+02  0.18973292914E+02  0.59301792301E+02  0.49999723287E+02 0.  0.
        -12    1    1    2    0    0  0.14178135949E+02 -0.21347713189E+02 -0.18973292914E+02  0.31886207699E+02  0.00000000000E+00 0.  1.
         11    1    3    3    0    0  0.13428310666E+02  0.59601476346E+01  0.11249927943E+00  0.14692023125E+02  0.51100000000E-03 0. -1.
        -11    1    3    3    0    0 -0.22990511357E+02  0.34837537396E+01  0.18302646264E+01  0.23324879880E+02  0.51100000000E-03 0.  1.
        -12    1    3    3    0    0 -0.46159352578E+01  0.11903811815E+02  0.17030529008E+02  0.21284889296E+02  0.00000000000E+00 0.  1.
</event>
<event>
 7    1  0.5755468E-013  0.5930189E+02  0.7816164E-02  0.1266605E+00
        -11   -1    0    0    0    0  0.00000000000E+00  0.00000000000E+00  0.45593999997E+02  0.45594000000E+02  0.51100000000E-03 0. -1.
         11   -1    0    0    0    0 -0.00000000000E+00 -0.00000000000E+00 -0.45593999997E+02  0.45594000000E+02  0.51100000000E-03 0.  1.
    9900012    2    1    2    0    0  0.16273237720E+02 -0.62842456932E+01  0.26691090547E+02  0.59301885084E+02  0.49999892501E+02 0.  0.
        -12    1    1    2    0    0 -0.16273237720E+02  0.62842456932E+01 -0.26691090547E+02  0.31886114916E+02  0.00000000000E+00 0.  1.
         11    1    3    3    0    0 -0.52671532627E+01  0.83252862799E+01  0.18322689203E+02  0.20803226553E+02  0.51100000000E-03 0. -1.
        -11    1    3    3    0    0  0.80140119156E+01 -0.13904242990E+02 -0.74332764299E+01  0.17686321236E+02  0.51100000000E-03 0.  1.
        -12    1    3    3    0    0  0.13526379067E+02 -0.70528898278E+00  0.15801677774E+02  0.20812337295E+02  0.00000000000E+00 0.  1.
</event>
<event>
 7    1  0.5755468E-013  0.5930198E+02  0.7816164E-02  0.1266605E+00
        -11   -1    0    0    0    0  0.00000000000E+00  0.00000000000E+00  0.45593999997E+02  0.45594000000E+02  0.51100000000E-03 0.  1.
         11   -1    0    0    0    0 -0.00000000000E+00 -0.00000000000E+00 -0.45593999997E+02  0.45594000000E+02  0.51100000000E-03 0. -1.
    9900012    2    1    2    0    0  0.19027850386E+02  0.65210608316E+01 -0.24741365629E+02  0.59301976450E+02  0.50000059130E+02 0.  0.
        -12    1    1    2    0    0 -0.19027850386E+02 -0.65210608316E+01  0.24741365629E+02  0.31886023550E+02  0.00000000000E+00 0.  1.
         11    1    3    3    0    0  0.23171117612E+02  0.10967365992E+02 -0.24941583808E+02  0.35766833957E+02  0.51100000000E-03 0. -1.
        -11    1    3    3    0    0 -0.62270323737E+01  0.12687700417E+01 -0.98884317397E+01  0.11754437125E+02  0.51100000000E-03 0.  1.
         12    1    3    3    0    0  0.20837651474E+01 -0.57150752023E+01  0.10088649919E+02  0.11780705367E+02  0.00000000000E+00 0. -1.
</event>
<event>
 7    1  0.5755468E-013  0.5930193E+02  0.7816164E-02  0.1266605E+00
        -11   -1    0    0    0    0  0.00000000000E+00  0.00000000000E+00  0.45593999997E+02  0.45594000000E+02  0.51100000000E-03 0. -1.
         11   -1    0    0    0    0 -0.00000000000E+00 -0.00000000000E+00 -0.45593999997E+02  0.45594000000E+02  0.51100000000E-03 0.  1.
    9900012    2    1    2    0    0 -0.64075992964E+01 -0.23446004151E+02  0.20638533502E+02  0.59301929303E+02  0.49999973145E+02 0.  0.
        -12    1    1    2    0    0  0.64075992964E+01  0.23446004151E+02 -0.20638533502E+02  0.31886070697E+02  0.00000000000E+00 0.  1.
         11    1    3    3    0    0 -0.77309271303E+00 -0.56102325337E+01  0.12635933487E+02  0.13846992337E+02  0.51100000000E-03 0. -1.
        -11    1    3    3    0    0  0.57140457781E+01 -0.23138154484E+02 -0.79934239934E+01  0.25138005877E+02  0.51100000000E-03 0.  1.
        -12    1    3    3    0    0 -0.11348552361E+02  0.53023828670E+01  0.15996024009E+02  0.20316931088E+02  0.00000000000E+00 0.  1.
</event>
<event>
 7    1  0.5755468E-013  0.5930206E+02  0.7816164E-02  0.1266604E+00
        -11   -1    0    0    0    0  0.00000000000E+00  0.00000000000E+00  0.45593999997E+02  0.45594000000E+02  0.51100000000E-03 0.  1.
         11   -1    0    0    0    0 -0.00000000000E+00 -0.00000000000E+00 -0.45593999997E+02  0.45594000000E+02  0.51100000000E-03 0. -1.
    9900012    2    1    2    0    0  0.21547068752E+02  0.12228001827E+02 -0.20072692408E+02  0.59302059822E+02  0.50000211181E+02 0.  0.
        -12    1    1    2    0    0 -0.21547068752E+02 -0.12228001827E+02  0.20072692408E+02  0.31885940178E+02  0.00000000000E+00 0.  1.
         11    1    3    3    0    0 -0.79127832607E+01  0.56121437688E+01 -0.18204222765E+02  0.20627700390E+02  0.51100000000E-03 0.  1.
        -11    1    3    3    0    0  0.27562166245E+02 -0.39898363106E+01 -0.10514125537E+01  0.27869289021E+02  0.51100000000E-03 0. -1.
         12    1    3    3    0    0  0.18976857679E+01  0.10605694369E+02 -0.81705708944E+00  0.10805070412E+02  0.00000000000E+00 0. -1.
</event>
<event>
 7    1  0.5755468E-013  0.5930193E+02  0.7816164E-02  0.1266605E+00
        -11   -1    0    0    0    0  0.00000000000E+00  0.00000000000E+00  0.45593999997E+02  0.45594000000E+02  0.51100000000E-03 0. -1.
         11   -1    0    0    0    0 -0.00000000000E+00 -0.00000000000E+00 -0.45593999997E+02  0.45594000000E+02  0.51100000000E-03 0.  1.
    9900012    2    1    2    0    0  0.24828821286E+02  0.18897729000E+02  0.65671239857E+01  0.59301927096E+02  0.49999969120E+02 0.  0.
        -12    1    1    2    0    0 -0.24828821286E+02 -0.18897729000E+02 -0.65671239857E+01  0.31886072904E+02  0.00000000000E+00 0.  1.
         11    1    3    3    0    0  0.10090459834E+02  0.30684084386E+02  0.85853744923E+01  0.33422134428E+02  0.51100000000E-03 0. -1.
        -11    1    3    3    0    0  0.90341012031E+00 -0.11642531788E+02  0.99475450720E+00  0.11719822229E+02  0.51100000000E-03 0.  1.
         12    1    3    3    0    0  0.13834951333E+02 -0.14382359820E+00 -0.30130050137E+01  0.14159970438E+02  0.00000000000E+00 0. -1.
</event>
<event>
 7    1  0.5755468E-013  0.5930185E+02  0.7816164E-02  0.1266605E+00
        -11   -1    0    0    0    0  0.00000000000E+00  0.00000000000E+00  0.45593999997E+02  0.45594000000E+02  0.51100000000E-03 0.  1.
         11   -1    0    0    0    0 -0.00000000000E+00 -0.00000000000E+00 -0.45593999997E+02  0.45594000000E+02  0.51100000000E-03 0. -1.
    9900012    2    1    2    0    0 -0.61612978458E+01  0.31167724774E+02 -0.27088265308E+01  0.59301852539E+02  0.49999833146E+02 0.  0.
        -12    1    1    2    0    0  0.61612978458E+01 -0.31167724774E+02  0.27088265308E+01  0.31886147461E+02  0.00000000000E+00 0.  1.
         11    1    3    3    0    0  0.60669679468E+01  0.87725321360E+01 -0.10724609271E+02  0.15125563276E+02  0.51100000000E-03 0. -1.
        -11    1    3    3    0    0 -0.20275616022E+02  0.69932060676E+00  0.31645394178E+01  0.20532996965E+02  0.51100000000E-03 0.  1.
        -12    1    3    3    0    0  0.80473502295E+01  0.21695872031E+02  0.48512433219E+01  0.23643292298E+02  0.00000000000E+00 0.  1.
</event>
<event>
 7    1  0.5755468E-013  0.5930194E+02  0.7816164E-02  0.1266605E+00
        -11   -1    0    0    0    0  0.00000000000E+00  0.00000000000E+00  0.45593999997E+02  0.45594000000E+02  0.51100000000E-03 0. -1.
         11   -1    0    0    0    0 -0.00000000000E+00 -0.00000000000E+00 -0.45593999997E+02  0.45594000000E+02  0.51100000000E-03 0.  1.
    9900012    2    1    2    0    0 -0.56735025475E+01 -0.30442191633E+02  0.76029580888E+01  0.59301942949E+02  0.49999998032E+02 0.  0.
        -12    1    1    2    0    0  0.56735025475E+01  0.30442191633E+02 -0.76029580888E+01  0.31886057051E+02  0.00000000000E+00 0.  1.
         11    1    3    3    0    0 -0.72466390637E+01 -0.31674315586E+02  0.98699595750E+01  0.33958682952E+02  0.51100000000E-03 0. -1.
        -11    1    3    3    0    0  0.82913971783E+01  0.61644436326E+01  0.73033546720E+01  0.12652534220E+02  0.51100000000E-03 0.  1.
         12    1    3    3    0    0 -0.67182606621E+01 -0.49323196797E+01 -0.95703561582E+01  0.12690725777E+02  0.00000000000E+00 0. -1.
</event>
<event>
 7    1  0.5755468E-013  0.5930196E+02  0.7816164E-02  0.1266605E+00
        -11   -1    0    0    0    0  0.00000000000E+00  0.00000000000E+00  0.45593999997E+02  0.45594000000E+02  0.51100000000E-03 0.  1.
         11   -1    0    0    0    0 -0.00000000000E+00 -0.00000000000E+00 -0.45593999997E+02  0.45594000000E+02  0.51100000000E-03 0. -1.
    9900012    2    1    2    0    0  0.26628207402E+02  0.17494648830E+02 -0.12629597798E+01  0.59301964898E+02  0.50000038062E+02 0.  0.
        -12    1    1    2    0    0 -0.26628207402E+02 -0.17494648830E+02  0.12629597798E+01  0.31886035102E+02  0.00000000000E+00 0.  1.
         11    1    3    3    0    0  0.18366528730E+02  0.13070766490E+02  0.18594569114E+02  0.29222120303E+02  0.51100000000E-03 0. -1.
        -11    1    3    3    0    0  0.44756437892E+01 -0.78522193304E+01 -0.46233423891E+01  0.10152045648E+02  0.51100000000E-03 0.  1.
         12    1    3    3    0    0  0.37860348831E+01  0.12276101671E+02 -0.15234186505E+02  0.19927798946E+02  0.00000000000E+00 0. -1.
</event>
<event>
 7    1  0.5755468E-013  0.5930185E+02  0.7816164E-02  0.1266605E+00
        -11   -1    0    0    0    0  0.00000000000E+00  0.00000000000E+00  0.45593999997E+02  0.45594000000E+02  0.51100000000E-03 0.  1.
         11   -1    0    0    0    0 -0.00000000000E+00 -0.00000000000E+00 -0.45593999997E+02  0.45594000000E+02  0.51100000000E-03 0. -1.
    9900012    2    1    2    0    0 -0.21934102342E+02 -0.22539144787E+02 -0.52543743269E+01  0.59301853434E+02  0.49999834778E+02 0.  0.
        -12    1    1    2    0    0  0.21934102342E+02  0.22539144787E+02  0.52543743269E+01  0.31886146566E+02  0.00000000000E+00 0.  1.
         11    1    3    3    0    0 -0.17727673978E+02 -0.51552725917E+01 -0.18127157264E+01  0.18550827440E+02  0.51100000000E-03 0. -1.
        -11    1    3    3    0    0  0.25037971493E+01 -0.16005437749E+02 -0.18269310230E+02  0.24417426855E+02  0.51100000000E-03 0.  1.
        -12    1    3    3    0    0 -0.67102255133E+01 -0.13784344461E+01  0.14827651629E+02  0.16333599138E+02  0.00000000000E+00 0.  1.
</event>
<event>
 7    1  0.5755468E-013  0.5930192E+02  0.7816164E-02  0.1266605E+00
        -11   -1    0    0    0    0  0.00000000000E+00  0.00000000000E+00  0.45593999997E+02  0.45594000000E+02  0.51100000000E-03 0. -1.
         11   -1    0    0    0    0 -0.00000000000E+00 -0.00000000000E+00 -0.45593999997E+02  0.45594000000E+02  0.51100000000E-03 0.  1.
    9900012    2    1    2    0    0  0.71223148786E+01 -0.76505875428E+01  0.30124131619E+02  0.59301918949E+02  0.49999954263E+02 0.  0.
        -12    1    1    2    0    0 -0.71223148786E+01  0.76505875428E+01 -0.30124131619E+02  0.31886081051E+02  0.00000000000E+00 0.  1.
         11    1    3    3    0    0  0.12638463447E+02 -0.15785911324E+02  0.21374686080E+02  0.29424529901E+02  0.51100000000E-03 0. -1.
        -11    1    3    3    0    0 -0.13659213554E+02 -0.76848575851E+00 -0.18647017254E+01  0.13807309588E+02  0.51100000000E-03 0.  1.
         12    1    3    3    0    0  0.81430649862E+01  0.89038095401E+01  0.10614147264E+02  0.16070079460E+02  0.00000000000E+00 0. -1.
</event>
<event>
 7    1  0.5755468E-013  0.5930191E+02  0.7816164E-02  0.1266605E+00
        -11   -1    0    0    0    0  0.00000000000E+00  0.00000000000E+00  0.45593999997E+02  0.45594000000E+02  0.51100000000E-03 0. -1.
         11   -1    0    0    0    0 -0.00000000000E+00 -0.00000000000E+00 -0.45593999997E+02  0.45594000000E+02  0.51100000000E-03 0.  1.
    9900012    2    1    2    0    0  0.66746628779E+01 -0.79544073868E+01  0.30147954246E+02  0.59301907944E+02  0.49999934191E+02 0.  0.
        -12    1    1    2    0    0 -0.66746628779E+01  0.79544073868E+01 -0.30147954246E+02  0.31886092056E+02  0.00000000000E+00 0.  1.
         11    1    3    3    0    0 -0.72401745059E+01  0.53828924221E+01  0.74132714740E+01  0.11676996699E+02  0.51100000000E-03 0. -1.
        -11    1    3    3    0    0  0.21508056848E+02 -0.18965392096E+02  0.24843983041E+02  0.37940823665E+02  0.51100000000E-03 0.  1.
        -12    1    3    3    0    0 -0.75932194641E+01  0.56280922876E+01 -0.21093002689E+01  0.96840875798E+01  0.00000000000E+00 0.  1.
</event>
<event>
 7    1  0.5755468E-013  0.5930194E+02  0.7816164E-02  0.1266605E+00
        -11   -1    0    0    0    0  0.00000000000E+00  0.00000000000E+00  0.45593999997E+02  0.45594000000E+02  0.51100000000E-03 0.  1.
         11   -1    0    0    0    0 -0.00000000000E+00 -0.00000000000E+00 -0.45593999997E+02  0.45594000000E+02  0.51100000000E-03 0. -1.
    9900012    2    1    2    0    0 -0.28741516525E+02  0.47603066742E+00 -0.13799247145E+02  0.59301943500E+02  0.49999999038E+02 0.  0.
        -12    1    1    2    0    0  0.28741516525E+02 -0.47603066742E+00  0.13799247145E+02  0.31886056500E+02  0.00000000000E+00 0.  1.
         11    1    3    3    0    0  0.30809872507E+01  0.10818080289E+02  0.19773474167E+01  0.11420737570E+02  0.51100000000E-03 0. -1.
        -11    1    3    3    0    0 -0.12908403250E+02 -0.11272760048E+02 -0.22054867589E+02  0.27930613638E+02  0.51100000000E-03 0.  1.
         12    1    3    3    0    0 -0.18914100526E+02  0.93071042616E+00  0.62782730267E+01  0.19950592292E+02  0.00000000000E+00 0. -1.
</event>
<event>
 7    1  0.5755468E-013  0.5930196E+02  0.7816164E-02  0.1266605E+00
        -11   -1    0    0    0    0  0.00000000000E+00  0.00000000000E+00  0.45593999997E+02  0.45594000000E+02  0.51100000000E-03 0.  1.
         11   -1    0    0    0    0 -0.00000000000E+00 -0.00000000000E+00 -0.45593999997E+02  0.45594000000E+02  0.51100000000E-03 0. -1.
    9900012    2    1    2    0    0  0.13759418827E+02 -0.16673641925E+02 -0.23439014103E+02  0.59301963501E+02  0.50000035514E+02 0.  0.
        -12    1    1    2    0    0 -0.13759418827E+02  0.16673641925E+02  0.23439014103E+02  0.31886036499E+02  0.00000000000E+00 0.  1.
         11    1    3    3    0    0  0.79971496472E+01 -0.12297798088E+02 -0.37284389998E+02  0.40066394623E+02  0.51100000000E-03 0. -1.
        -11    1    3    3    0    0  0.37929903306E+01 -0.57055193195E+01  0.15075924373E+02  0.16559686661E+02  0.51100000000E-03 0.  1.
         12    1    3    3    0    0  0.19692788497E+01  0.13296754831E+01 -0.12305484788E+01  0.26758822166E+01  0.00000000000E+00 0. -1.
</event>
<event>
 7    1  0.5755468E-013  0.5930195E+02  0.7816164E-02  0.1266605E+00
        -11   -1    0    0    0    0  0.00000000000E+00  0.00000000000E+00  0.45593999997E+02  0.45594000000E+02  0.51100000000E-03 0.  1.
         11   -1    0    0    0    0 -0.00000000000E+00 -0.00000000000E+00 -0.45593999997E+02  0.45594000000E+02  0.51100000000E-03 0. -1.
    9900012    2    1    2    0    0  0.19597140892E+02 -0.25120388866E+02 -0.12798743150E+01  0.59301953739E+02  0.50000017710E+02 0.  0.
        -12    1    1    2    0    0 -0.19597140892E+02  0.25120388866E+02  0.12798743150E+01  0.31886046261E+02  0.00000000000E+00 0.  1.
         11    1    3    3    0    0  0.17290615181E+02  0.10744343337E+02  0.35579429541E+01  0.20665556983E+02  0.51100000000E-03 0. -1.
        -11    1    3    3    0    0  0.71646442262E+01 -0.28311260930E+02 -0.51292796225E+01  0.29650786364E+02  0.51100000000E-03 0.  1.
         12    1    3    3    0    0 -0.48581185158E+01 -0.75534712736E+01  0.29146235328E+00  0.89856103909E+01  0.00000000000E+00 0. -1.
</event>
<event>
 7    1  0.5755468E-013  0.5930195E+02  0.7816164E-02  0.1266605E+00
        -11   -1    0    0    0    0  0.00000000000E+00  0.00000000000E+00  0.45593999997E+02  0.45594000000E+02  0.51100000000E-03 0. -1.
         11   -1    0    0    0    0 -0.00000000000E+00 -0.00000000000E+00 -0.45593999997E+02  0.45594000000E+02  0.51100000000E-03 0.  1.
    9900012    2    1    2    0    0  0.94335882954E+00 -0.37102166371E+01  0.31655403289E+02  0.59301949904E+02  0.50000010716E+02 0.  0.
        -12    1    1    2    0    0 -0.94335882954E+00  0.37102166371E+01 -0.31655403289E+02  0.31886050096E+02  0.00000000000E+00 0.  1.
         11    1    3    3    0    0  0.51847662160E+01 -0.35254571420E+01  0.19302136524E+02  0.20294903878E+02  0.51100000000E-03 0. -1.
        -11    1    3    3    0    0 -0.71017159801E+01 -0.16695474623E+01 -0.12215320256E+02  0.14227993809E+02  0.51100000000E-03 0.  1.
        -12    1    3    3    0    0  0.28603085936E+01  0.14847879672E+01  0.24568587021E+02  0.24779052217E+02  0.00000000000E+00 0.  1.
</event>
<event>
 7    1  0.5755468E-013  0.5930195E+02  0.7816164E-02  0.1266605E+00
        -11   -1    0    0    0    0  0.00000000000E+00  0.00000000000E+00  0.45593999997E+02  0.45594000000E+02  0.51100000000E-03 0. -1.
         11   -1    0    0    0    0 -0.00000000000E+00 -0.00000000000E+00 -0.45593999997E+02  0.45594000000E+02  0.51100000000E-03 0.  1.
    9900012    2    1    2    0    0  0.28001873890E+02  0.22163595927E+00  0.15250125825E+02  0.59301946599E+02  0.50000004689E+02 0.  0.
        -12    1    1    2    0    0 -0.28001873890E+02 -0.22163595927E+00 -0.15250125825E+02  0.31886053401E+02  0.00000000000E+00 0.  1.
         11    1    3    3    0    0  0.19836385127E+02 -0.14336686540E+02  0.25549460977E+02  0.35380753417E+02  0.51100000000E-03 0. -1.
        -11    1    3    3    0    0  0.73129461861E+01  0.82696112242E+01 -0.12973461351E+02  0.17034563435E+02  0.51100000000E-03 0.  1.
         12    1    3    3    0    0  0.85254257649E+00  0.62887112749E+01  0.26741261992E+01  0.68866297470E+01  0.00000000000E+00 0. -1.
</event>
<event>
 7    1  0.5755468E-013  0.5930195E+02  0.7816164E-02  0.1266605E+00
        -11   -1    0    0    0    0  0.00000000000E+00  0.00000000000E+00  0.45593999997E+02  0.45594000000E+02  0.51100000000E-03 0. -1.
         11   -1    0    0    0    0 -0.00000000000E+00 -0.00000000000E+00 -0.45593999997E+02  0.45594000000E+02  0.51100000000E-03 0.  1.
    9900012    2    1    2    0    0 -0.25300746115E+02  0.16347293216E+00  0.19405300465E+02  0.59301950331E+02  0.50000011495E+02 0.  0.
        -12    1    1    2    0    0  0.25300746115E+02 -0.16347293216E+00 -0.19405300465E+02  0.31886049669E+02  0.00000000000E+00 0.  1.
         11    1    3    3    0    0  0.23517347412E+01  0.61631181842E+01  0.10497571587E+02  0.12398132582E+02  0.51100000000E-03 0. -1.
        -11    1    3    3    0    0 -0.29126380830E+02 -0.14982262040E+02 -0.18568620018E+01  0.32806434931E+02  0.51100000000E-03 0.  1.
        -12    1    3    3    0    0  0.14738999744E+01  0.89826167878E+01  0.10764590880E+02  0.14097382818E+02  0.00000000000E+00 0.  1.
</event>
<event>
 7    1  0.5755468E-013  0.5930196E+02  0.7816164E-02  0.1266605E+00
        -11   -1    0    0    0    0  0.00000000000E+00  0.00000000000E+00  0.45593999997E+02  0.45594000000E+02  0.51100000000E-03 0.  1.
         11   -1    0    0    0    0 -0.00000000000E+00 -0.00000000000E+00 -0.45593999997E+02  0.45594000000E+02  0.51100000000E-03 0. -1.
    9900012    2    1    2    0    0 -0.22588887756E+02 -0.18495212394E+02 -0.12821428289E+02  0.59301956738E+02  0.50000023180E+02 0.  0.
        -12    1    1    2    0    0  0.22588887756E+02  0.18495212394E+02  0.12821428289E+02  0.31886043262E+02  0.00000000000E+00 0.  1.
         11    1    3    3    0    0 -0.36775741268E+02 -0.20732155205E+02 -0.77715164678E+01  0.42926377366E+02  0.51100000000E-03 0. -1.
        -11    1    3    3    0    0  0.11930407200E+02  0.75128519075E+00 -0.17036013666E+01  0.12074821045E+02  0.51100000000E-03 0.  1.
         12    1    3    3    0    0  0.22564463124E+01  0.14856576198E+01 -0.33463104551E+01  0.43007583268E+01  0.00000000000E+00 0. -1.
</event>
<event>
 7    1  0.5755468E-013  0.5930193E+02  0.7816164E-02  0.1266605E+00
        -11   -1    0    0    0    0  0.00000000000E+00  0.00000000000E+00  0.45593999997E+02  0.45594000000E+02  0.51100000000E-03 0. -1.
         11   -1    0    0    0    0 -0.00000000000E+00 -0.00000000000E+00 -0.45593999997E+02  0.45594000000E+02  0.51100000000E-03 0.  1.
    9900012    2    1    2    0    0  0.25082262741E+02  0.18450154233E+01  0.19600948235E+02  0.59301934739E+02  0.49999983059E+02 0.  0.
        -12    1    1    2    0    0 -0.25082262741E+02 -0.18450154233E+01 -0.19600948235E+02  0.31886065261E+02  0.00000000000E+00 0.  1.
         11    1    3    3    0    0  0.40159756135E+01 -0.18177399335E+02  0.10741481256E+02  0.21492448128E+02  0.51100000000E-03 0. -1.
        -11    1    3    3    0    0  0.20879091776E+02  0.18209565996E+02  0.14930132478E+02  0.31471155416E+02  0.51100000000E-03 0.  1.
        -12    1    3    3    0    0  0.18719535119E+00  0.18128487622E+01 -0.60706654987E+01  0.63383311945E+01  0.00000000000E+00 0.  1.
</event>
<event>
 7    1  0.5755468E-013  0.5930194E+02  0.7816164E-02  0.1266605E+00
        -11   -1    0    0    0    0  0.00000000000E+00  0.00000000000E+00  0.45593999997E+02  0.45594000000E+02  0.51100000000E-03 0.  1.
         11   -1    0    0    0    0 -0.00000000000E+00 -0.00000000000E+00 -0.45593999997E+02  0.45594000000E+02  0.51100000000E-03 0. -1.
    9900012    2    1    2    0    0 -0.17751840583E+02  0.20416348388E+02  0.16874998777E+02  0.59301941772E+02  0.49999995886E+02 0.  0.
        -12    1    1    2    0    0  0.17751840583E+02 -0.20416348388E+02 -0.16874998777E+02  0.31886058228E+02  0.00000000000E+00 0.  1.
         11    1    3    3    0    0 -0.13006051329E+02  0.33528172827E+02 -0.75558151870E+00  0.35970357907E+02  0.51100000000E-03 0. -1.
        -11    1    3    3    0    0 -0.35451244143E+01 -0.84542468586E+01  0.15634469942E+02  0.18123985425E+02  0.51100000000E-03 0.  1.
         12    1    3    3    0    0 -0.12006648399E+01 -0.46575775798E+01  0.19961103540E+01  0.52075984402E+01  0.00000000000E+00 0. -1.
</event>
<event>
 7    1  0.5755468E-013  0.5930194E+02  0.7816164E-02  0.1266605E+00
        -11   -1    0    0    0    0  0.00000000000E+00  0.00000000000E+00  0.45593999997E+02  0.45594000000E+02  0.51100000000E-03 0. -1.
         11   -1    0    0    0    0 -0.00000000000E+00 -0.00000000000E+00 -0.45593999997E+02  0.45594000000E+02  0.51100000000E-03 0.  1.
    9900012    2    1    2    0    0 -0.98639091163E+01 -0.66324301262E+01  0.29587752845E+02  0.59301937984E+02  0.49999988978E+02 0.  0.
        -12    1    1    2    0    0  0.98639091163E+01  0.66324301262E+01 -0.29587752845E+02  0.31886062016E+02  0.00000000000E+00 0.  1.
         11    1    3    3    0    0  0.82335396407E+01  0.50100018108E+01 -0.11023314366E+01  0.97008467680E+01  0.51100000000E-03 0. -1.
        -11    1    3    3    0    0 -0.26653406685E+02 -0.85284545711E+01  0.29073782804E+02  0.40353729345E+02  0.51100000000E-03 0.  1.
        -12    1    3    3    0    0  0.85559579278E+01 -0.31139773660E+01  0.16163014778E+01  0.92473618706E+01  0.00000000000E+00 0.  1.
</event>
<event>
 7    1  0.5755468E-013  0.5930192E+02  0.7816164E-02  0.1266605E+00
        -11   -1    0    0    0    0  0.00000000000E+00  0.00000000000E+00  0.45593999997E+02  0.45594000000E+02  0.51100000000E-03 0.  1.
         11   -1    0    0    0    0 -0.00000000000E+00 -0.00000000000E+00 -0.45593999997E+02  0.45594000000E+02  0.51100000000E-03 0. -1.
    9900012    2    1    2    0    0 -0.68265218098E+01  0.57765113087E+00 -0.31141400931E+02  0.59301922587E+02  0.49999960897E+02 0.  0.
        -12    1    1    2    0    0  0.68265218098E+01 -0.57765113087E+00  0.31141400931E+02  0.31886077413E+02  0.00000000000E+00 0.  1.
         11    1    3    3    0    0 -0.89580110952E+01  0.90334387997E+01 -0.26739581642E+02  0.29611724130E+02  0.51100000000E-03 0. -1.
        -11    1    3    3    0    0 -0.41227678229E+01 -0.40641612048E+01  0.11037197191E+02  0.12463319899E+02  0.51100000000E-03 0.  1.
        -12    1    3    3    0    0  0.62542571082E+01 -0.43916264641E+01 -0.15439016480E+02  0.17226878557E+02  0.00000000000E+00 0.  1.
</event>
<event>
 7    1  0.5755468E-013  0.5930191E+02  0.7816164E-02  0.1266605E+00
        -11   -1    0    0    0    0  0.00000000000E+00  0.00000000000E+00  0.45593999997E+02  0.45594000000E+02  0.51100000000E-03 0. -1.
         11   -1    0    0    0    0 -0.00000000000E+00 -0.00000000000E+00 -0.45593999997E+02  0.45594000000E+02  0.51100000000E-03 0.  1.
    9900012    2    1    2    0    0  0.30468664331E+02 -0.93179891236E+01  0.12484145367E+01  0.59301906381E+02  0.49999931341E+02 0.  0.
        -12    1    1    2    0    0 -0.30468664331E+02  0.93179891236E+01 -0.12484145367E+01  0.31886093619E+02  0.00000000000E+00 0.  1.
         11    1    3    3    0    0  0.19177920274E+02  0.84253884445E-01  0.38916877791E+01  0.19568979503E+02  0.51100000000E-03 0. -1.
        -11    1    3    3    0    0 -0.10041319186E+02 -0.11381681744E+02  0.64085462813E+01  0.16475443424E+02  0.51100000000E-03 0.  1.
        -12    1    3    3    0    0  0.21332063243E+02  0.19794387358E+01 -0.90518195236E+01  0.23257483454E+02  0.00000000000E+00 0.  1.
</event>
<event>
 7    1  0.5755468E-013  0.5930194E+02  0.7816164E-02  0.1266605E+00
        -11   -1    0    0    0    0  0.00000000000E+00  0.00000000000E+00  0.45593999997E+02  0.45594000000E+02  0.51100000000E-03 0.  1.
         11   -1    0    0    0    0 -0.00000000000E+00 -0.00000000000E+00 -0.45593999997E+02  0.45594000000E+02  0.51100000000E-03 0. -1.
    9900012    2    1    2    0    0 -0.13108566611E+02  0.13516847245E+02 -0.25732876531E+02  0.59301943289E+02  0.49999998652E+02 0.  0.
        -12    1    1    2    0    0  0.13108566611E+02 -0.13516847245E+02  0.25732876531E+02  0.31886056711E+02  0.00000000000E+00 0.  1.
         11    1    3    3    0    0 -0.83591432109E+01 -0.10621615394E+02 -0.17053136482E+02  0.21760134488E+02  0.51100000000E-03 0. -1.
        -11    1    3    3    0    0 -0.19385021385E+01  0.80905989187E+01  0.98334109996E+01  0.12880665882E+02  0.51100000000E-03 0.  1.
         12    1    3    3    0    0 -0.28109212613E+01  0.16047863721E+02 -0.18513151048E+02  0.24661142919E+02  0.00000000000E+00 0. -1.
</event>
<event>
 7    1  0.5755468E-013  0.5930194E+02  0.7816164E-02  0.1266605E+00
        -11   -1    0    0    0    0  0.00000000000E+00  0.00000000000E+00  0.45593999997E+02  0.45594000000E+02  0.51100000000E-03 0. -1.
         11   -1    0    0    0    0 -0.00000000000E+00 -0.00000000000E+00 -0.45593999997E+02  0.45594000000E+02  0.51100000000E-03 0.  1.
    9900012    2    1    2    0    0  0.10867190827E+02  0.43351952290E+01  0.29661943216E+02  0.59301943024E+02  0.49999998169E+02 0.  0.
        -12    1    1    2    0    0 -0.10867190827E+02 -0.43351952290E+01 -0.29661943216E+02  0.31886056976E+02  0.00000000000E+00 0.  1.
         11    1    3    3    0    0  0.58097657948E+01  0.16961599238E+02  0.99705293312E+01  0.20514889293E+02  0.51100000000E-03 0. -1.
        -11    1    3    3    0    0  0.41037978646E+01 -0.86199874123E+01  0.27962506277E+02  0.29547370398E+02  0.51100000000E-03 0.  1.
        -12    1    3    3    0    0  0.95362716779E+00 -0.40064165966E+01 -0.82710923924E+01  0.92396833325E+01  0.00000000000E+00 0.  1.
</event>
<event>
 7    1  0.5755468E-013  0.5930193E+02  0.7816164E-02  0.1266605E+00
        -11   -1    0    0    0    0  0.00000000000E+00  0.00000000000E+00  0.45593999997E+02  0.45594000000E+02  0.51100000000E-03 0. -1.
         11   -1    0    0    0    0 -0.00000000000E+00 -0.00000000000E+00 -0.45593999997E+02  0.45594000000E+02  0.51100000000E-03 0.  1.
    9900012    2    1    2    0    0  0.57224687858E+01 -0.18107879424E+02  0.25614051623E+02  0.59301928012E+02  0.49999970792E+02 0.  0.
        -12    1    1    2    0    0 -0.57224687858E+01  0.18107879424E+02 -0.25614051623E+02  0.31886071988E+02  0.00000000000E+00 0.  1.
         11    1    3    3    0    0  0.10820050866E+02 -0.29234511042E+02  0.19130325727E+02  0.36574574493E+02  0.51100000000E-03 0. -1.
        -11    1    3    3    0    0  0.40382395827E+01  0.11769300215E+02  0.22788034537E+01  0.12649772802E+02  0.51100000000E-03 0.  1.
         12    1    3    3    0    0 -0.91358216630E+01 -0.64266859676E+00  0.42049224426E+01  0.10077580718E+02  0.00000000000E+00 0. -1.
</event>
<event>
 7    1  0.5755468E-013  0.5930194E+02  0.7816164E-02  0.1266605E+00
        -11   -1    0    0    0    0  0.00000000000E+00  0.00000000000E+00  0.45593999997E+02  0.45594000000E+02  0.51100000000E-03 0.  1.
         11   -1    0    0    0    0 -0.00000000000E+00 -0.00000000000E+00 -0.45593999997E+02  0.45594000000E+02  0.51100000000E-03 0. -1.
    9900012    2    1    2    0    0  0.38036174244E+01  0.24007249565E+02 -0.20637469570E+02  0.59301942115E+02  0.49999996512E+02 0.  0.
        -12    1    1    2    0    0 -0.38036174244E+01 -0.24007249565E+02  0.20637469570E+02  0.31886057885E+02  0.00000000000E+00 0.  1.
         11    1    3    3    0    0  0.21101520923E+02 -0.32558646111E+01 -0.12082264800E+02  0.24532752854E+02  0.51100000000E-03 0. -1.
        -11    1    3    3    0    0 -0.17484858414E+02  0.20587439666E+02 -0.64952149693E+01  0.27780402508E+02  0.51100000000E-03 0.  1.
         12    1    3    3    0    0  0.18695491502E+00  0.66756745096E+01 -0.20599898009E+01  0.69887867530E+01  0.00000000000E+00 0. -1.
</event>
<event>
 7    1  0.5755468E-013  0.5930182E+02  0.7816164E-02  0.1266605E+00
        -11   -1    0    0    0    0  0.00000000000E+00  0.00000000000E+00  0.45593999997E+02  0.45594000000E+02  0.51100000000E-03 0.  1.
         11   -1    0    0    0    0 -0.00000000000E+00 -0.00000000000E+00 -0.45593999997E+02  0.45594000000E+02  0.51100000000E-03 0. -1.
    9900012    2    1    2    0    0 -0.19598145523E+02  0.25069337351E+02 -0.20419585334E+01  0.59301818388E+02  0.49999770862E+02 0.  0.
        -12    1    1    2    0    0  0.19598145523E+02 -0.25069337351E+02  0.20419585334E+01  0.31886181612E+02  0.00000000000E+00 0.  1.
         11    1    3    3    0    0 -0.47535536708E+01  0.18613561403E+02 -0.10787450383E+02  0.22032476634E+02  0.51100000000E-03 0. -1.
        -11    1    3    3    0    0 -0.74357185601E+01  0.77417997277E+01  0.20601177023E+02  0.23230020846E+02  0.51100000000E-03 0.  1.
        -12    1    3    3    0    0 -0.74088732916E+01 -0.12860237791E+01 -0.11855685174E+02  0.14039320908E+02  0.00000000000E+00 0.  1.
</event>
<event>
 7    1  0.5755468E-013  0.5930194E+02  0.7816164E-02  0.1266605E+00
        -11   -1    0    0    0    0  0.00000000000E+00  0.00000000000E+00  0.45593999997E+02  0.45594000000E+02  0.51100000000E-03 0.  1.
         11   -1    0    0    0    0 -0.00000000000E+00 -0.00000000000E+00 -0.45593999997E+02  0.45594000000E+02  0.51100000000E-03 0. -1.
    9900012    2    1    2    0    0  0.14317864132E+02  0.21234010928E+02 -0.18995700554E+02  0.59301935757E+02  0.49999984915E+02 0.  0.
        -12    1    1    2    0    0 -0.14317864132E+02 -0.21234010928E+02  0.18995700554E+02  0.31886064243E+02  0.00000000000E+00 0.  1.
         11    1    3    3    0    0  0.20754690593E+02 -0.48319026005E+01 -0.18804761171E+02  0.28420476901E+02  0.51100000000E-03 0.  1.
        -11    1    3    3    0    0 -0.28308326346E+01  0.25281275501E+02 -0.37978054752E+01  0.25721194200E+02  0.51100000000E-03 0. -1.
         12    1    3    3    0    0 -0.36059938266E+01  0.78463802744E+00  0.36068660916E+01  0.51602646555E+01  0.00000000000E+00 0. -1.
</event>
<event>
 7    1  0.5755468E-013  0.5930193E+02  0.7816164E-02  0.1266605E+00
        -11   -1    0    0    0    0  0.00000000000E+00  0.00000000000E+00  0.45593999997E+02  0.45594000000E+02  0.51100000000E-03 0.  1.
         11   -1    0    0    0    0 -0.00000000000E+00 -0.00000000000E+00 -0.45593999997E+02  0.45594000000E+02  0.51100000000E-03 0. -1.
    9900012    2    1    2    0    0 -0.77050888831E+01 -0.14462432637E+02 -0.27353086474E+02  0.59301926361E+02  0.49999967780E+02 0.  0.
        -12    1    1    2    0    0  0.77050888831E+01  0.14462432637E+02  0.27353086474E+02  0.31886073639E+02  0.00000000000E+00 0.  1.
         11    1    3    3    0    0 -0.43740268293E+01 -0.30530723101E+02 -0.77768032029E+01  0.31807795147E+02  0.51100000000E-03 0. -1.
        -11    1    3    3    0    0 -0.36703265022E+01  0.43715368981E+01 -0.12694730764E+02  0.13918973415E+02  0.51100000000E-03 0.  1.
         12    1    3    3    0    0  0.33926444833E+00  0.11696753567E+02 -0.68815525071E+01  0.13575157799E+02  0.00000000000E+00 0. -1.
</event>
<event>
 7    1  0.5755468E-013  0.5930192E+02  0.7816164E-02  0.1266605E+00
        -11   -1    0    0    0    0  0.00000000000E+00  0.00000000000E+00  0.45593999997E+02  0.45594000000E+02  0.51100000000E-03 0.  1.
         11   -1    0    0    0    0 -0.00000000000E+00 -0.00000000000E+00 -0.45593999997E+02  0.45594000000E+02  0.51100000000E-03 0. -1.
    9900012    2    1    2    0    0 -0.23493789317E+02  0.21113519835E+02 -0.43569565090E+01  0.59301922689E+02  0.49999961083E+02 0.  0.
        -12    1    1    2    0    0  0.23493789317E+02 -0.21113519835E+02  0.43569565090E+01  0.31886077311E+02  0.00000000000E+00 0.  1.
         11    1    3    3    0    0 -0.29616545373E+02  0.24163272731E+02 -0.24373094021E+01  0.38300704775E+02  0.51100000000E-03 0. -1.
        -11    1    3    3    0    0 -0.55589428167E+00 -0.76287638973E+01  0.59643311135E+01  0.96995001389E+01  0.51100000000E-03 0.  1.
        -12    1    3    3    0    0  0.66786503378E+01  0.45790110013E+01 -0.78839782204E+01  0.11301717775E+02  0.00000000000E+00 0.  1.
</event>
<event>
 7    1  0.5755468E-013  0.5930195E+02  0.7816164E-02  0.1266605E+00
        -11   -1    0    0    0    0  0.00000000000E+00  0.00000000000E+00  0.45593999997E+02  0.45594000000E+02  0.51100000000E-03 0. -1.
         11   -1    0    0    0    0 -0.00000000000E+00 -0.00000000000E+00 -0.45593999997E+02  0.45594000000E+02  0.51100000000E-03 0.  1.
    9900012    2    1    2    0    0 -0.14538208305E+02 -0.71355770921E+01  0.27467153340E+02  0.59301945466E+02  0.50000002623E+02 0.  0.
        -12    1    1    2    0    0  0.14538208305E+02  0.71355770921E+01 -0.27467153340E+02  0.31886054534E+02  0.00000000000E+00 0.  1.
         11    1    3    3    0    0  0.87110464328E+01  0.13166371829E+01  0.20744599011E+02  0.22537840443E+02  0.51100000000E-03 0. -1.
        -11    1    3    3    0    0 -0.16187740507E+02 -0.18037392353E+02  0.47160064968E+01  0.24690710463E+02  0.51100000000E-03 0.  1.
        -12    1    3    3    0    0 -0.70615142311E+01  0.95851780779E+01  0.20065478315E+01  0.12073394561E+02  0.00000000000E+00 0.  1.
</event>
<event>
 7    1  0.5755468E-013  0.5930196E+02  0.7816164E-02  0.1266605E+00
        -11   -1    0    0    0    0  0.00000000000E+00  0.00000000000E+00  0.45593999997E+02  0.45594000000E+02  0.51100000000E-03 0.  1.
         11   -1    0    0    0    0 -0.00000000000E+00 -0.00000000000E+00 -0.45593999997E+02  0.45594000000E+02  0.51100000000E-03 0. -1.
    9900012    2    1    2    0    0  0.23114231695E+02 -0.87591837204E+01 -0.20142703634E+02  0.59301960485E+02  0.50000030013E+02 0.  0.
        -12    1    1    2    0    0 -0.23114231695E+02  0.87591837204E+01  0.20142703634E+02  0.31886039515E+02  0.00000000000E+00 0.  1.
         11    1    3    3    0    0  0.84677362723E+01  0.13019668259E+02 -0.20148862514E+02  0.25439948506E+02  0.51100000000E-03 0. -1.
        -11    1    3    3    0    0  0.15035830420E+02 -0.17202062698E+02 -0.83512485676E+01  0.24325511513E+02  0.51100000000E-03 0.  1.
        -12    1    3    3    0    0 -0.38933499709E+00 -0.45767892814E+01  0.83574074478E+01  0.95365004648E+01  0.00000000000E+00 0.  1.
</event>
<event>
 7    1  0.5755468E-013  0.5930192E+02  0.7816164E-02  0.1266605E+00
        -11   -1    0    0    0    0  0.00000000000E+00  0.00000000000E+00  0.45593999997E+02  0.45594000000E+02  0.51100000000E-03 0.  1.
         11   -1    0    0    0    0 -0.00000000000E+00 -0.00000000000E+00 -0.45593999997E+02  0.45594000000E+02  0.51100000000E-03 0. -1.
    9900012    2    1    2    0    0 -0.21888588108E+01  0.20616577530E+02 -0.24225760162E+02  0.59301924240E+02  0.49999963912E+02 0.  0.
        -12    1    1    2    0    0  0.21888588108E+01 -0.20616577530E+02  0.24225760162E+02  0.31886075760E+02  0.00000000000E+00 0.  1.
         11    1    3    3    0    0  0.69269353911E+01 -0.15027895114E+00 -0.18776954160E+02  0.20014470401E+02  0.51100000000E-03 0. -1.
        -11    1    3    3    0    0 -0.14551093253E+02  0.25155482781E+02  0.19318003652E+01  0.29124980373E+02  0.51100000000E-03 0.  1.
        -12    1    3    3    0    0  0.54352990514E+01 -0.43886263004E+01 -0.73806063677E+01  0.10162473465E+02  0.00000000000E+00 0.  1.
</event>
<event>
 7    1  0.5755468E-013  0.5930194E+02  0.7816164E-02  0.1266605E+00
        -11   -1    0    0    0    0  0.00000000000E+00  0.00000000000E+00  0.45593999997E+02  0.45594000000E+02  0.51100000000E-03 0.  1.
         11   -1    0    0    0    0 -0.00000000000E+00 -0.00000000000E+00 -0.45593999997E+02  0.45594000000E+02  0.51100000000E-03 0. -1.
    9900012    2    1    2    0    0 -0.22295846748E+02 -0.97149693119E+01 -0.20621233263E+02  0.59301942354E+02  0.49999996947E+02 0.  0.
        -12    1    1    2    0    0  0.22295846748E+02  0.97149693119E+01  0.20621233263E+02  0.31886057646E+02  0.00000000000E+00 0.  1.
         11    1    3    3    0    0 -0.11209222102E+02 -0.42225824579E+01  0.10136419060E+02  0.15691521735E+02  0.51100000000E-03 0.  1.
        -11    1    3    3    0    0 -0.32268225034E+01  0.11542157330E+02 -0.97895005695E+01  0.15474756895E+02  0.51100000000E-03 0. -1.
        -12    1    3    3    0    0 -0.78598021426E+01 -0.17034544184E+02 -0.20968151753E+02  0.28135663724E+02  0.00000000000E+00 0.  1.
</event>
<event>
 7    1  0.5755468E-013  0.5930198E+02  0.7816164E-02  0.1266605E+00
        -11   -1    0    0    0    0  0.00000000000E+00  0.00000000000E+00  0.45593999997E+02  0.45594000000E+02  0.51100000000E-03 0.  1.
         11   -1    0    0    0    0 -0.00000000000E+00 -0.00000000000E+00 -0.45593999997E+02  0.45594000000E+02  0.51100000000E-03 0. -1.
    9900012    2    1    2    0    0  0.10090372357E+02  0.14404616378E+02 -0.26597169489E+02  0.59301984066E+02  0.50000073021E+02 0.  0.
        -12    1    1    2    0    0 -0.10090372357E+02 -0.14404616378E+02  0.26597169489E+02  0.31886015934E+02  0.00000000000E+00 0.  1.
         11    1    3    3    0    0  0.11332241058E+02  0.10739939079E+02  0.61918872958E+01  0.16795994980E+02  0.51100000000E-03 0.  1.
        -11    1    3    3    0    0 -0.23775849446E+01 -0.10549827710E+02 -0.22364936114E+02  0.24842345754E+02  0.51100000000E-03 0. -1.
        -12    1    3    3    0    0  0.11357162444E+01  0.14214505009E+02 -0.10424120670E+02  0.17663643333E+02  0.00000000000E+00 0.  1.
</event>
<event>
 7    1  0.5755468E-013  0.5930194E+02  0.7816164E-02  0.1266605E+00
        -11   -1    0    0    0    0  0.00000000000E+00  0.00000000000E+00  0.45593999997E+02  0.45594000000E+02  0.51100000000E-03 0.  1.
         11   -1    0    0    0    0 -0.00000000000E+00 -0.00000000000E+00 -0.45593999997E+02  0.45594000000E+02  0.51100000000E-03 0. -1.
    9900012    2    1    2    0    0  0.25294292947E+02 -0.43515172914E+01 -0.18920461554E+02  0.59301939976E+02  0.49999992610E+02 0.  0.
        -12    1    1    2    0    0 -0.25294292947E+02  0.43515172914E+01  0.18920461554E+02  0.31886060024E+02  0.00000000000E+00 0.  1.
         11    1    3    3    0    0  0.28161574077E+02  0.59850180858E+01 -0.14004192718E+02  0.32015810312E+02  0.51100000000E-03 0. -1.
        -11    1    3    3    0    0  0.30913181667E+01 -0.17265600187E+02 -0.46386424102E+01  0.18143158531E+02  0.51100000000E-03 0.  1.
         12    1    3    3    0    0 -0.59585992963E+01  0.69290648094E+01 -0.27762642560E+00  0.91429711330E+01  0.00000000000E+00 0. -1.
</event>
<event>
 7    1  0.5755468E-013  0.5930193E+02  0.7816164E-02  0.1266605E+00
        -11   -1    0    0    0    0  0.00000000000E+00  0.00000000000E+00  0.45593999997E+02  0.45594000000E+02  0.51100000000E-03 0.  1.
         11   -1    0    0    0    0 -0.00000000000E+00 -0.00000000000E+00 -0.45593999997E+02  0.45594000000E+02  0.51100000000E-03 0. -1.
    9900012    2    1    2    0    0  0.28184507657E+02  0.14900631384E+02  0.57113957986E+00  0.59301929563E+02  0.49999973619E+02 0.  0.
        -12    1    1    2    0    0 -0.28184507657E+02 -0.14900631384E+02 -0.57113957986E+00  0.31886070437E+02  0.00000000000E+00 0.  1.
         11    1    3    3    0    0 -0.31707081982E+01  0.85474123484E+01 -0.97555940386E+01  0.13352275598E+02  0.51100000000E-03 0. -1.
        -11    1    3    3    0    0  0.26795424920E+02 -0.18287366461E+01  0.19225558438E+02  0.33029701359E+02  0.51100000000E-03 0.  1.
        -12    1    3    3    0    0  0.45597909356E+01  0.81819556818E+01 -0.88988248200E+01  0.12919952606E+02  0.00000000000E+00 0.  1.
</event>
<event>
 7    1  0.5755468E-013  0.5930190E+02  0.7816164E-02  0.1266605E+00
        -11   -1    0    0    0    0  0.00000000000E+00  0.00000000000E+00  0.45593999997E+02  0.45594000000E+02  0.51100000000E-03 0. -1.
         11   -1    0    0    0    0 -0.00000000000E+00 -0.00000000000E+00 -0.45593999997E+02  0.45594000000E+02  0.51100000000E-03 0.  1.
    9900012    2    1    2    0    0 -0.14795741243E+02  0.15699281146E+02  0.23480666664E+02  0.59301904372E+02  0.49999927678E+02 0.  0.
        -12    1    1    2    0    0  0.14795741243E+02 -0.15699281146E+02 -0.23480666664E+02  0.31886095628E+02  0.00000000000E+00 0.  1.
         11    1    3    3    0    0 -0.74780924003E+01  0.15427569266E+02  0.38413072823E+02  0.42065376777E+02  0.51100000000E-03 0. -1.
        -11    1    3    3    0    0 -0.18940028231E+01  0.21366961270E+01 -0.55094288101E+01  0.62053624478E+01  0.51100000000E-03 0.  1.
         12    1    3    3    0    0 -0.54236460193E+01 -0.18649842477E+01 -0.94229773494E+01  0.11031165148E+02  0.00000000000E+00 0. -1.
</event>
<event>
 7    1  0.5755468E-013  0.5930174E+02  0.7816164E-02  0.1266605E+00
        -11   -1    0    0    0    0  0.00000000000E+00  0.00000000000E+00  0.45593999997E+02  0.45594000000E+02  0.51100000000E-03 0.  1.
         11   -1    0    0    0    0 -0.00000000000E+00 -0.00000000000E+00 -0.45593999997E+02  0.45594000000E+02  0.51100000000E-03 0. -1.
    9900012    2    1    2    0    0  0.30530487395E+02 -0.91154764486E+01 -0.12372933016E+01  0.59301741735E+02  0.49999631065E+02 0.  0.
        -12    1    1    2    0    0 -0.30530487395E+02  0.91154764486E+01  0.12372933016E+01  0.31886258265E+02  0.00000000000E+00 0.  1.
         11    1    3    3    0    0  0.29652459856E+02 -0.10133645469E+02  0.66963299473E+01  0.32043719837E+02  0.51100000000E-03 0. -1.
        -11    1    3    3    0    0  0.51572297942E+01  0.29985458576E+00 -0.16697734623E+02  0.17478594729E+02  0.51100000000E-03 0.  1.
        -12    1    3    3    0    0 -0.42792022553E+01  0.71831443503E+00  0.87641113736E+01  0.97794271682E+01  0.00000000000E+00 0.  1.
</event>
<event>
 7    1  0.5755468E-013  0.5930198E+02  0.7816164E-02  0.1266605E+00
        -11   -1    0    0    0    0  0.00000000000E+00  0.00000000000E+00  0.45593999997E+02  0.45594000000E+02  0.51100000000E-03 0.  1.
         11   -1    0    0    0    0 -0.00000000000E+00 -0.00000000000E+00 -0.45593999997E+02  0.45594000000E+02  0.51100000000E-03 0. -1.
    9900012    2    1    2    0    0 -0.27501057194E+02 -0.11007114044E+02 -0.11800574748E+02  0.59301980011E+02  0.50000065624E+02 0.  0.
        -12    1    1    2    0    0  0.27501057194E+02  0.11007114044E+02  0.11800574748E+02  0.31886019989E+02  0.00000000000E+00 0.  1.
         11    1    3    3    0    0 -0.29259624740E+02 -0.26289880962E+02 -0.10674493162E+02  0.40758168328E+02  0.51100000000E-03 0. -1.
        -11    1    3    3    0    0  0.51812905826E+01  0.10195195902E+02  0.20809356809E+01  0.11624030503E+02  0.51100000000E-03 0.  1.
        -12    1    3    3    0    0 -0.34227230369E+01  0.50875710154E+01 -0.32070172662E+01  0.69197811794E+01  0.00000000000E+00 0.  1.
</event>
<event>
 7    1  0.5755468E-013  0.5930190E+02  0.7816164E-02  0.1266605E+00
        -11   -1    0    0    0    0  0.00000000000E+00  0.00000000000E+00  0.45593999997E+02  0.45594000000E+02  0.51100000000E-03 0. -1.
         11   -1    0    0    0    0 -0.00000000000E+00 -0.00000000000E+00 -0.45593999997E+02  0.45594000000E+02  0.51100000000E-03 0.  1.
    9900012    2    1    2    0    0  0.20987144664E+02  0.23995244879E+02 -0.70104997122E+00  0.59301898184E+02  0.49999916392E+02 0.  0.
        -12    1    1    2    0    0 -0.20987144664E+02 -0.23995244879E+02  0.70104997122E+00  0.31886101816E+02  0.00000000000E+00 0.  1.
         11    1    3    3    0    0 -0.12555494912E+02  0.80245009833E+01 -0.85556958755E+01  0.17182345611E+02  0.51100000000E-03 0. -1.
        -11    1    3    3    0    0  0.17178500590E+02  0.75969137666E+01 -0.52983250545E+01  0.19516306770E+02  0.51100000000E-03 0.  1.
         12    1    3    3    0    0  0.16364138986E+02  0.83738301296E+01  0.13152970959E+02  0.22603245803E+02  0.00000000000E+00 0. -1.
</event>
<event>
 7    1  0.5755468E-013  0.5930189E+02  0.7816164E-02  0.1266605E+00
        -11   -1    0    0    0    0  0.00000000000E+00  0.00000000000E+00  0.45593999997E+02  0.45594000000E+02  0.51100000000E-03 0. -1.
         11   -1    0    0    0    0 -0.00000000000E+00 -0.00000000000E+00 -0.45593999997E+02  0.45594000000E+02  0.51100000000E-03 0.  1.
    9900012    2    1    2    0    0  0.26258075714E+02  0.17664782333E+02 -0.38978055550E+01  0.59301890748E+02  0.49999902830E+02 0.  0.
        -12    1    1    2    0    0 -0.26258075714E+02 -0.17664782333E+02  0.38978055550E+01  0.31886109252E+02  0.00000000000E+00 0.  1.
         11    1    3    3    0    0  0.16625554811E+02  0.20918331162E+01 -0.83806450627E+01  0.18735529095E+02  0.51100000000E-03 0. -1.
        -11    1    3    3    0    0  0.95673685088E+01  0.20137929321E+02  0.16483365198E+02  0.27726739189E+02  0.51100000000E-03 0.  1.
        -12    1    3    3    0    0  0.65152394539E-01 -0.45649801041E+01 -0.12000525690E+02  0.12839622464E+02  0.00000000000E+00 0.  1.
</event>
<event>
 7    1  0.5755468E-013  0.5930198E+02  0.7816164E-02  0.1266605E+00
        -11   -1    0    0    0    0  0.00000000000E+00  0.00000000000E+00  0.45593999997E+02  0.45594000000E+02  0.51100000000E-03 0.  1.
         11   -1    0    0    0    0 -0.00000000000E+00 -0.00000000000E+00 -0.45593999997E+02  0.45594000000E+02  0.51100000000E-03 0. -1.
    9900012    2    1    2    0    0 -0.15838309463E+02 -0.18174706255E+02 -0.20869752324E+02  0.59301975536E+02  0.50000057463E+02 0.  0.
        -12    1    1    2    0    0  0.15838309463E+02  0.18174706255E+02  0.20869752324E+02  0.31886024464E+02  0.00000000000E+00 0.  1.
         11    1    3    3    0    0 -0.60712957352E+01  0.13232650302E+02 -0.60627898667E+01  0.15770893670E+02  0.51100000000E-03 0. -1.
        -11    1    3    3    0    0 -0.58964640647E+01 -0.12555740226E+02  0.60663724078E+01  0.15139873697E+02  0.51100000000E-03 0.  1.
         12    1    3    3    0    0 -0.38705496629E+01 -0.18851616330E+02 -0.20873334865E+02  0.28391208170E+02  0.00000000000E+00 0. -1.
</event>
<event>
 7    1  0.5755468E-013  0.5930188E+02  0.7816164E-02  0.1266605E+00
        -11   -1    0    0    0    0  0.00000000000E+00  0.00000000000E+00  0.45593999997E+02  0.45594000000E+02  0.51100000000E-03 0.  1.
         11   -1    0    0    0    0 -0.00000000000E+00 -0.00000000000E+00 -0.45593999997E+02  0.45594000000E+02  0.51100000000E-03 0. -1.
    9900012    2    1    2    0    0 -0.25745151401E+01  0.30473241301E+02 -0.90265100424E+01  0.59301883160E+02  0.49999888991E+02 0.  0.
        -12    1    1    2    0    0  0.25745151401E+01 -0.30473241301E+02  0.90265100424E+01  0.31886116840E+02  0.00000000000E+00 0.  1.
         11    1    3    3    0    0  0.14264669187E+02  0.35465952177E+02 -0.52700237676E+00  0.38230776641E+02  0.51100000000E-03 0.  1.
        -11    1    3    3    0    0 -0.12669097570E+02 -0.70057228369E+01 -0.76119379969E+01  0.16356276655E+02  0.51100000000E-03 0. -1.
        -12    1    3    3    0    0 -0.41700867575E+01  0.20130119616E+01 -0.88756966873E+00  0.47148298632E+01  0.00000000000E+00 0.  1.
</event>
<event>
 7    1  0.5755468E-013  0.5930192E+02  0.7816164E-02  0.1266605E+00
        -11   -1    0    0    0    0  0.00000000000E+00  0.00000000000E+00  0.45593999997E+02  0.45594000000E+02  0.51100000000E-03 0. -1.
         11   -1    0    0    0    0 -0.00000000000E+00 -0.00000000000E+00 -0.45593999997E+02  0.45594000000E+02  0.51100000000E-03 0.  1.
    9900012    2    1    2    0    0  0.15966908478E+02 -0.27383766761E+02 -0.34510221998E+01  0.59301915220E+02  0.49999947462E+02 0.  0.
        -12    1    1    2    0    0 -0.15966908478E+02  0.27383766761E+02  0.34510221998E+01  0.31886084780E+02  0.00000000000E+00 0.  1.
         11    1    3    3    0    0  0.91829213557E+00 -0.10228713417E+02  0.78144189801E+00  0.10299538354E+02  0.51100000000E-03 0. -1.
        -11    1    3    3    0    0  0.13039424703E+02  0.13074547668E+02 -0.44991967580E+00  0.18470864118E+02  0.51100000000E-03 0.  1.
        -12    1    3    3    0    0  0.20091916394E+01 -0.30229601012E+02 -0.37825444220E+01  0.30531512748E+02  0.00000000000E+00 0.  1.
</event>
<event>
 7    1  0.5755468E-013  0.5930191E+02  0.7816164E-02  0.1266605E+00
        -11   -1    0    0    0    0  0.00000000000E+00  0.00000000000E+00  0.45593999997E+02  0.45594000000E+02  0.51100000000E-03 0.  1.
         11   -1    0    0    0    0 -0.00000000000E+00 -0.00000000000E+00 -0.45593999997E+02  0.45594000000E+02  0.51100000000E-03 0. -1.
    9900012    2    1    2    0    0 -0.12744000198E+02  0.73296527458E+00 -0.29219447944E+02  0.59301907149E+02  0.49999932743E+02 0.  0.
        -12    1    1    2    0    0  0.12744000198E+02 -0.73296527458E+00  0.29219447944E+02  0.31886092851E+02  0.00000000000E+00 0.  1.
         11    1    3    3    0    0  0.99092955312E+01 -0.22599515874E+01 -0.26075060601E+02  0.27985894746E+02  0.51100000000E-03 0. -1.
        -11    1    3    3    0    0 -0.26199253499E+02  0.50993045942E+01 -0.42946917239E+01  0.27034203679E+02  0.51100000000E-03 0.  1.
         12    1    3    3    0    0  0.35459577705E+01 -0.21063877323E+01  0.11503043813E+01  0.42818087251E+01  0.00000000000E+00 0. -1.
</event>
<event>
 7    1  0.5755468E-013  0.5930193E+02  0.7816164E-02  0.1266605E+00
        -11   -1    0    0    0    0  0.00000000000E+00  0.00000000000E+00  0.45593999997E+02  0.45594000000E+02  0.51100000000E-03 0.  1.
         11   -1    0    0    0    0 -0.00000000000E+00 -0.00000000000E+00 -0.45593999997E+02  0.45594000000E+02  0.51100000000E-03 0. -1.
    9900012    2    1    2    0    0  0.36731692472E+01  0.24670235282E+02 -0.19864763769E+02  0.59301929047E+02  0.49999972680E+02 0.  0.
        -12    1    1    2    0    0 -0.36731692472E+01 -0.24670235282E+02  0.19864763769E+02  0.31886070953E+02  0.00000000000E+00 0.  1.
         11    1    3    3    0    0 -0.10921071004E+02  0.16877408436E+02 -0.29908864467E+01  0.20323929477E+02  0.51100000000E-03 0. -1.
        -11    1    3    3    0    0  0.22283443434E+02  0.75737499753E+01 -0.38444266393E+01  0.23847288240E+02  0.51100000000E-03 0.  1.
        -12    1    3    3    0    0 -0.76892031827E+01  0.21907687095E+00 -0.13029450683E+02  0.15130711330E+02  0.00000000000E+00 0.  1.
</event>
<event>
 7    1  0.5755468E-013  0.5930193E+02  0.7816164E-02  0.1266605E+00
        -11   -1    0    0    0    0  0.00000000000E+00  0.00000000000E+00  0.45593999997E+02  0.45594000000E+02  0.51100000000E-03 0.  1.
         11   -1    0    0    0    0 -0.00000000000E+00 -0.00000000000E+00 -0.45593999997E+02  0.45594000000E+02  0.51100000000E-03 0. -1.
    9900012    2    1    2    0    0 -0.13371931410E+02  0.10234867036E+02 -0.27076929118E+02  0.59301934966E+02  0.49999983474E+02 0.  0.
        -12    1    1    2    0    0  0.13371931410E+02 -0.10234867036E+02  0.27076929118E+02  0.31886065034E+02  0.00000000000E+00 0.  1.
         11    1    3    3    0    0 -0.14583147251E+02  0.64604527463E+01 -0.14259907038E+02  0.21395106506E+02  0.51100000000E-03 0. -1.
        -11    1    3    3    0    0 -0.42935723438E+01  0.38401747761E+01  0.11560109955E+02  0.12915798396E+02  0.51100000000E-03 0.  1.
        -12    1    3    3    0    0  0.55047881842E+01 -0.65760486213E-01 -0.24377132035E+02  0.24991030064E+02  0.00000000000E+00 0.  1.
</event>
<event>
 7    1  0.5755468E-013  0.5930187E+02  0.7816164E-02  0.1266605E+00
        -11   -1    0    0    0    0  0.00000000000E+00  0.00000000000E+00  0.45593999997E+02  0.45594000000E+02  0.51100000000E-03 0.  1.
         11   -1    0    0    0    0 -0.00000000000E+00 -0.00000000000E+00 -0.45593999997E+02  0.45594000000E+02  0.51100000000E-03 0. -1.
    9900012    2    1    2    0    0  0.80547416248E+01  0.10213397807E+02 -0.29112413356E+02  0.59301874980E+02  0.49999874073E+02 0.  0.
        -12    1    1    2    0    0 -0.80547416248E+01 -0.10213397807E+02  0.29112413356E+02  0.31886125020E+02  0.00000000000E+00 0.  1.
         11    1    3    3    0    0  0.11970517366E+02 -0.15202310485E+02 -0.63486027271E+01  0.20364387713E+02  0.51100000000E-03 0. -1.
        -11    1    3    3    0    0 -0.28027336473E+01  0.20155858937E+02 -0.58266698561E+01  0.21167523408E+02  0.51100000000E-03 0.  1.
        -12    1    3    3    0    0 -0.11130420940E+01  0.52598493554E+01 -0.16937140773E+02  0.17769963858E+02  0.00000000000E+00 0.  1.
</event>
<event>
 7    1  0.5755468E-013  0.5930192E+02  0.7816164E-02  0.1266605E+00
        -11   -1    0    0    0    0  0.00000000000E+00  0.00000000000E+00  0.45593999997E+02  0.45594000000E+02  0.51100000000E-03 0. -1.
         11   -1    0    0    0    0 -0.00000000000E+00 -0.00000000000E+00 -0.45593999997E+02  0.45594000000E+02  0.51100000000E-03 0.  1.
    9900012    2    1    2    0    0  0.21173649099E+02  0.23771016514E+02  0.18268265824E+01  0.59301922511E+02  0.49999960758E+02 0.  0.
        -12    1    1    2    0    0 -0.21173649099E+02 -0.23771016514E+02 -0.18268265824E+01  0.31886077489E+02  0.00000000000E+00 0.  1.
         11    1    3    3    0    0  0.16939561926E+02  0.26021138180E+02  0.22247219531E+02  0.38196690531E+02  0.51100000000E-03 0. -1.
        -11    1    3    3    0    0  0.37174381662E+01 -0.23631556178E+01 -0.14325955649E+02  0.14987890329E+02  0.51100000000E-03 0.  1.
         12    1    3    3    0    0  0.51664900637E+00  0.11303395264E+00 -0.60944372997E+01  0.61173416506E+01  0.00000000000E+00 0. -1.
</event>
<event>
 7    1  0.5755468E-013  0.5930195E+02  0.7816164E-02  0.1266605E+00
        -11   -1    0    0    0    0  0.00000000000E+00  0.00000000000E+00  0.45593999997E+02  0.45594000000E+02  0.51100000000E-03 0.  1.
         11   -1    0    0    0    0 -0.00000000000E+00 -0.00000000000E+00 -0.45593999997E+02  0.45594000000E+02  0.51100000000E-03 0. -1.
    9900012    2    1    2    0    0  0.36364178280E+01 -0.16294144454E+02 -0.27166111443E+02  0.59301948362E+02  0.50000007905E+02 0.  0.
        -12    1    1    2    0    0 -0.36364178280E+01  0.16294144454E+02  0.27166111443E+02  0.31886051638E+02  0.00000000000E+00 0.  1.
         11    1    3    3    0    0  0.83542282534E+00 -0.12189523459E+02 -0.22683806548E+02  0.25765044018E+02  0.51100000000E-03 0. -1.
        -11    1    3    3    0    0 -0.12949716008E+02  0.40566237125E+01  0.36049307932E+01  0.14040899790E+02  0.51100000000E-03 0.  1.
        -12    1    3    3    0    0  0.15750711011E+02 -0.81612447077E+01 -0.80872356879E+01  0.19496004555E+02  0.00000000000E+00 0.  1.
</event>
<event>
 7    1  0.5755468E-013  0.5930216E+02  0.7816164E-02  0.1266604E+00
        -11   -1    0    0    0    0  0.00000000000E+00  0.00000000000E+00  0.45593999997E+02  0.45594000000E+02  0.51100000000E-03 0.  1.
         11   -1    0    0    0    0 -0.00000000000E+00 -0.00000000000E+00 -0.45593999997E+02  0.45594000000E+02  0.51100000000E-03 0. -1.
    9900012    2    1    2    0    0  0.61258252614E+01 -0.15931439811E+01 -0.31251287055E+02  0.59302160110E+02  0.50000394081E+02 0.  0.
        -12    1    1    2    0    0 -0.61258252614E+01  0.15931439811E+01  0.31251287055E+02  0.31885839890E+02  0.00000000000E+00 0.  1.
         11    1    3    3    0    0 -0.67231896081E+01 -0.65499061217E+01 -0.19770334401E+02  0.21885352894E+02  0.51100000000E-03 0. -1.
        -11    1    3    3    0    0  0.44963677286E+01 -0.62586679139E+01  0.94813429728E+01  0.12218187739E+02  0.51100000000E-03 0.  1.
        -12    1    3    3    0    0  0.83526471409E+01  0.11215430054E+02 -0.20962295627E+02  0.25198619477E+02  0.00000000000E+00 0.  1.
</event>
<event>
 7    1  0.5755468E-013  0.5930193E+02  0.7816164E-02  0.1266605E+00
        -11   -1    0    0    0    0  0.00000000000E+00  0.00000000000E+00  0.45593999997E+02  0.45594000000E+02  0.51100000000E-03 0. -1.
         11   -1    0    0    0    0 -0.00000000000E+00 -0.00000000000E+00 -0.45593999997E+02  0.45594000000E+02  0.51100000000E-03 0.  1.
    9900012    2    1    2    0    0  0.16083165439E+02  0.18750659426E+02  0.20160998759E+02  0.59301932346E+02  0.49999978696E+02 0.  0.
        -12    1    1    2    0    0 -0.16083165439E+02 -0.18750659426E+02 -0.20160998759E+02  0.31886067654E+02  0.00000000000E+00 0.  1.
         11    1    3    3    0    0  0.11772378058E+02 -0.58341089706E+01  0.92459569060E+01  0.16065908999E+02  0.51100000000E-03 0. -1.
        -11    1    3    3    0    0 -0.29692113425E-01  0.27324515681E+02  0.19266074643E+02  0.33433690661E+02  0.51100000000E-03 0.  1.
        -12    1    3    3    0    0  0.43404794953E+01 -0.27397472835E+01 -0.83510327901E+01  0.98023326860E+01  0.00000000000E+00 0.  1.
</event>
<event>
 7    1  0.5755468E-013  0.5930192E+02  0.7816164E-02  0.1266605E+00
        -11   -1    0    0    0    0  0.00000000000E+00  0.00000000000E+00  0.45593999997E+02  0.45594000000E+02  0.51100000000E-03 0. -1.
         11   -1    0    0    0    0 -0.00000000000E+00 -0.00000000000E+00 -0.45593999997E+02  0.45594000000E+02  0.51100000000E-03 0.  1.
    9900012    2    1    2    0    0 -0.22113558732E+02 -0.17422581620E+02 -0.14972176973E+02  0.59301922891E+02  0.49999961452E+02 0.  0.
        -12    1    1    2    0    0  0.22113558732E+02  0.17422581620E+02  0.14972176973E+02  0.31886077109E+02  0.00000000000E+00 0.  1.
         11    1    3    3    0    0  0.67271081164E+01 -0.10959392978E+02  0.62146644297E+01  0.14282308367E+02  0.51100000000E-03 0.  1.
        -11    1    3    3    0    0 -0.19250168095E+02  0.66105528580E+01 -0.20353126814E+02  0.28783991248E+02  0.51100000000E-03 0. -1.
         12    1    3    3    0    0 -0.95904987528E+01 -0.13073741500E+02 -0.83371458828E+00  0.16235623276E+02  0.00000000000E+00 0. -1.
</event>
<event>
 7    1  0.5755468E-013  0.5930187E+02  0.7816164E-02  0.1266605E+00
        -11   -1    0    0    0    0  0.00000000000E+00  0.00000000000E+00  0.45593999997E+02  0.45594000000E+02  0.51100000000E-03 0. -1.
         11   -1    0    0    0    0 -0.00000000000E+00 -0.00000000000E+00 -0.45593999997E+02  0.45594000000E+02  0.51100000000E-03 0.  1.
    9900012    2    1    2    0    0 -0.23958431192E+02 -0.78932155443E+01  0.19504259412E+02  0.59301868030E+02  0.49999861398E+02 0.  0.
        -12    1    1    2    0    0  0.23958431192E+02  0.78932155443E+01 -0.19504259412E+02  0.31886131970E+02  0.00000000000E+00 0.  1.
         11    1    3    3    0    0 -0.78788947264E+01 -0.14750164587E+01  0.15137022187E+02  0.17128400293E+02  0.51100000000E-03 0. -1.
        -11    1    3    3    0    0 -0.14188059472E+01  0.81284445927E+01 -0.12859548410E+02  0.15279155978E+02  0.51100000000E-03 0.  1.
        -12    1    3    3    0    0 -0.14660730519E+02 -0.14546643678E+02  0.17226785636E+02  0.26894311759E+02  0.00000000000E+00 0.  1.
</event>
<event>
 7    1  0.5755468E-013  0.5930198E+02  0.7816164E-02  0.1266605E+00
        -11   -1    0    0    0    0  0.00000000000E+00  0.00000000000E+00  0.45593999997E+02  0.45594000000E+02  0.51100000000E-03 0.  1.
         11   -1    0    0    0    0 -0.00000000000E+00 -0.00000000000E+00 -0.45593999997E+02  0.45594000000E+02  0.51100000000E-03 0. -1.
    9900012    2    1    2    0    0  0.25815582598E+01 -0.71264603353E+01 -0.30972045463E+02  0.59301976728E+02  0.50000059637E+02 0.  0.
        -12    1    1    2    0    0 -0.25815582598E+01  0.71264603353E+01  0.30972045463E+02  0.31886023272E+02  0.00000000000E+00 0.  1.
         11    1    3    3    0    0 -0.16800560136E+02 -0.52231929271E+01 -0.45953585341E+01  0.18184000813E+02  0.51100000000E-03 0. -1.
        -11    1    3    3    0    0  0.19735459469E+02  0.71199976190E+01 -0.12084209512E+02  0.24211791473E+02  0.51100000000E-03 0.  1.
         12    1    3    3    0    0 -0.35334107311E+00 -0.90232650272E+01 -0.14292477416E+02  0.16906184441E+02  0.00000000000E+00 0. -1.
</event>
<event>
 7    1  0.5755468E-013  0.5930199E+02  0.7816164E-02  0.1266605E+00
        -11   -1    0    0    0    0  0.00000000000E+00  0.00000000000E+00  0.45593999997E+02  0.45594000000E+02  0.51100000000E-03 0. -1.
         11   -1    0    0    0    0 -0.00000000000E+00 -0.00000000000E+00 -0.45593999997E+02  0.45594000000E+02  0.51100000000E-03 0.  1.
    9900012    2    1    2    0    0  0.24277283006E+02  0.20659776122E+02 -0.71069298989E+00  0.59301985760E+02  0.50000076110E+02 0.  0.
        -12    1    1    2    0    0 -0.24277283006E+02 -0.20659776122E+02  0.71069298989E+00  0.31886014240E+02  0.00000000000E+00 0.  1.
         11    1    3    3    0    0  0.10107982498E+02  0.21534762593E+02  0.72010638686E+00  0.23799913101E+02  0.51100000000E-03 0. -1.
        -11    1    3    3    0    0  0.36445677908E+01 -0.36708711017E+01 -0.16283261232E+02  0.17085162148E+02  0.51100000000E-03 0.  1.
        -12    1    3    3    0    0  0.10524732717E+02  0.27958846304E+01  0.14852461855E+02  0.18416910511E+02  0.00000000000E+00 0.  1.
</event>
<event>
 7    1  0.5755468E-013  0.5930197E+02  0.7816164E-02  0.1266605E+00
        -11   -1    0    0    0    0  0.00000000000E+00  0.00000000000E+00  0.45593999997E+02  0.45594000000E+02  0.51100000000E-03 0.  1.
         11   -1    0    0    0    0 -0.00000000000E+00 -0.00000000000E+00 -0.45593999997E+02  0.45594000000E+02  0.51100000000E-03 0. -1.
    9900012    2    1    2    0    0 -0.29072663434E+02 -0.11543197345E+02  0.61849733395E+01  0.59301967645E+02  0.50000043073E+02 0.  0.
        -12    1    1    2    0    0  0.29072663434E+02  0.11543197345E+02 -0.61849733395E+01  0.31886032355E+02  0.00000000000E+00 0.  1.
         11    1    3    3    0    0 -0.78956596860E+01  0.58501959606E+01 -0.15715400469E+02  0.18534833336E+02  0.51100000000E-03 0. -1.
        -11    1    3    3    0    0 -0.20030417345E+02 -0.36749643486E+01  0.10608690304E+02  0.22962301544E+02  0.51100000000E-03 0.  1.
         12    1    3    3    0    0 -0.11465864034E+01 -0.13718428957E+02  0.11291683504E+02  0.17804832765E+02  0.00000000000E+00 0. -1.
</event>
<event>
 7    1  0.5755468E-013  0.5930176E+02  0.7816164E-02  0.1266605E+00
        -11   -1    0    0    0    0  0.00000000000E+00  0.00000000000E+00  0.45593999997E+02  0.45594000000E+02  0.51100000000E-03 0.  1.
         11   -1    0    0    0    0 -0.00000000000E+00 -0.00000000000E+00 -0.45593999997E+02  0.45594000000E+02  0.51100000000E-03 0. -1.
    9900012    2    1    2    0    0 -0.21832415214E+02 -0.43180016476E+01 -0.22834900561E+02  0.59301761966E+02  0.49999667963E+02 0.  0.
        -12    1    1    2    0    0  0.21832415214E+02  0.43180016476E+01  0.22834900561E+02  0.31886238034E+02  0.00000000000E+00 0.  1.
         11    1    3    3    0    0 -0.27504874474E+02 -0.82157485926E+01 -0.13406105848E+02  0.31681861042E+02  0.51100000000E-03 0. -1.
        -11    1    3    3    0    0  0.46696727119E+01  0.93734304967E+01 -0.15928203089E+02  0.19062389578E+02  0.51100000000E-03 0.  1.
        -12    1    3    3    0    0  0.10027865490E+01 -0.54756835517E+01  0.64994083756E+01  0.85575113471E+01  0.00000000000E+00 0.  1.
</event>
<event>
 7    1  0.5755468E-013  0.5930192E+02  0.7816164E-02  0.1266605E+00
        -11   -1    0    0    0    0  0.00000000000E+00  0.00000000000E+00  0.45593999997E+02  0.45594000000E+02  0.51100000000E-03 0. -1.
         11   -1    0    0    0    0 -0.00000000000E+00 -0.00000000000E+00 -0.45593999997E+02  0.45594000000E+02  0.51100000000E-03 0.  1.
    9900012    2    1    2    0    0  0.26771429755E+02  0.13402569799E+02  0.10971950880E+02  0.59301920993E+02  0.49999957990E+02 0.  0.
        -12    1    1    2    0    0 -0.26771429755E+02 -0.13402569799E+02 -0.10971950880E+02  0.31886079007E+02  0.00000000000E+00 0.  1.
         11    1    3    3    0    0 -0.68633545489E+01 -0.43015023171E+01  0.37794010085E+01  0.89382565466E+01  0.51100000000E-03 0. -1.
        -11    1    3    3    0    0  0.14929902091E+02  0.37986321373E+00  0.17374002126E+02  0.22910744699E+02  0.51100000000E-03 0.  1.
        -12    1    3    3    0    0  0.18704882213E+02  0.17324208902E+02 -0.10181452255E+02  0.27452919748E+02  0.00000000000E+00 0.  1.
</event>
<event>
 7    1  0.5755468E-013  0.5930201E+02  0.7816164E-02  0.1266605E+00
        -11   -1    0    0    0    0  0.00000000000E+00  0.00000000000E+00  0.45593999997E+02  0.45594000000E+02  0.51100000000E-03 0. -1.
         11   -1    0    0    0    0 -0.00000000000E+00 -0.00000000000E+00 -0.45593999997E+02  0.45594000000E+02  0.51100000000E-03 0.  1.
    9900012    2    1    2    0    0  0.20741938716E+02 -0.19250948373E+02  0.14693172308E+02  0.59302010170E+02  0.50000120627E+02 0.  0.
        -12    1    1    2    0    0 -0.20741938716E+02  0.19250948373E+02 -0.14693172308E+02  0.31885989830E+02  0.00000000000E+00 0.  1.
         11    1    3    3    0    0  0.26429133620E+02 -0.16998214515E+02  0.29211406090E+02  0.42903900133E+02  0.51100000000E-03 0. -1.
        -11    1    3    3    0    0 -0.24031952386E+01 -0.31893674053E+01 -0.97231306137E+01  0.10511264481E+02  0.51100000000E-03 0.  1.
         12    1    3    3    0    0 -0.32839996657E+01  0.93663354682E+00 -0.47951031677E+01  0.58868455555E+01  0.00000000000E+00 0. -1.
</event>
<event>
 7    1  0.5755468E-013  0.5930193E+02  0.7816164E-02  0.1266605E+00
        -11   -1    0    0    0    0  0.00000000000E+00  0.00000000000E+00  0.45593999997E+02  0.45594000000E+02  0.51100000000E-03 0. -1.
         11   -1    0    0    0    0 -0.00000000000E+00 -0.00000000000E+00 -0.45593999997E+02  0.45594000000E+02  0.51100000000E-03 0.  1.
    9900012    2    1    2    0    0  0.14250929928E+02  0.10028644512E+01  0.28506605458E+02  0.59301932578E+02  0.49999979118E+02 0.  0.
        -12    1    1    2    0    0 -0.14250929928E+02 -0.10028644512E+01 -0.28506605458E+02  0.31886067422E+02  0.00000000000E+00 0.  1.
         11    1    3    3    0    0 -0.83537053951E+01 -0.81688642600E+01  0.14633371776E+02  0.18725659052E+02  0.51100000000E-03 0. -1.
        -11    1    3    3    0    0  0.18755510068E+02  0.14576077669E+02  0.20368935016E+02  0.31290968538E+02  0.51100000000E-03 0.  1.
        -12    1    3    3    0    0  0.38491252557E+01 -0.54043489579E+01 -0.64957013341E+01  0.92853049878E+01  0.00000000000E+00 0.  1.
</event>
<event>
 7    1  0.5755468E-013  0.5930195E+02  0.7816164E-02  0.1266605E+00
        -11   -1    0    0    0    0  0.00000000000E+00  0.00000000000E+00  0.45593999997E+02  0.45594000000E+02  0.51100000000E-03 0. -1.
         11   -1    0    0    0    0 -0.00000000000E+00 -0.00000000000E+00 -0.45593999997E+02  0.45594000000E+02  0.51100000000E-03 0.  1.
    9900012    2    1    2    0    0  0.25415135426E+02 -0.10416964103E+02  0.16195000399E+02  0.59301948382E+02  0.50000007942E+02 0.  0.
        -12    1    1    2    0    0 -0.25415135426E+02  0.10416964103E+02 -0.16195000399E+02  0.31886051618E+02  0.00000000000E+00 0.  1.
         11    1    3    3    0    0 -0.13214464173E+01 -0.17777654429E+02 -0.24709680156E+01  0.17997135906E+02  0.51100000000E-03 0.  1.
        -11    1    3    3    0    0  0.30203098831E+02  0.63724025190E+01  0.10887693290E+02  0.32731889012E+02  0.51100000000E-03 0. -1.
         12    1    3    3    0    0 -0.34665169874E+01  0.98828780699E+00  0.77782751248E+01  0.85729234647E+01  0.00000000000E+00 0. -1.
</event>
<event>
 7    1  0.5755468E-013  0.5930193E+02  0.7816164E-02  0.1266605E+00
        -11   -1    0    0    0    0  0.00000000000E+00  0.00000000000E+00  0.45593999997E+02  0.45594000000E+02  0.51100000000E-03 0. -1.
         11   -1    0    0    0    0 -0.00000000000E+00 -0.00000000000E+00 -0.45593999997E+02  0.45594000000E+02  0.51100000000E-03 0.  1.
    9900012    2    1    2    0    0  0.17814324709E+02  0.86565128687E+00  0.26431452316E+02  0.59301934258E+02  0.49999982182E+02 0.  0.
        -12    1    1    2    0    0 -0.17814324709E+02 -0.86565128687E+00 -0.26431452316E+02  0.31886065742E+02  0.00000000000E+00 0.  1.
         11    1    3    3    0    0  0.16121441001E+02  0.21472954549E+02  0.15757129022E+02  0.31133193737E+02  0.51100000000E-03 0. -1.
        -11    1    3    3    0    0 -0.47536085903E+01 -0.16413769864E+02  0.30858114594E+01  0.17364644206E+02  0.51100000000E-03 0.  1.
        -12    1    3    3    0    0  0.64464922983E+01 -0.41935333981E+01  0.75885118348E+01  0.10804096315E+02  0.00000000000E+00 0.  1.
</event>
<event>
 7    1  0.5755468E-013  0.5930197E+02  0.7816164E-02  0.1266605E+00
        -11   -1    0    0    0    0  0.00000000000E+00  0.00000000000E+00  0.45593999997E+02  0.45594000000E+02  0.51100000000E-03 0. -1.
         11   -1    0    0    0    0 -0.00000000000E+00 -0.00000000000E+00 -0.45593999997E+02  0.45594000000E+02  0.51100000000E-03 0.  1.
    9900012    2    1    2    0    0 -0.10680325715E+02 -0.28816242117E+02  0.85014064352E+01  0.59301967345E+02  0.50000042524E+02 0.  0.
        -12    1    1    2    0    0  0.10680325715E+02  0.28816242117E+02 -0.85014064352E+01  0.31886032655E+02  0.00000000000E+00 0.  1.
         11    1    3    3    0    0  0.64659926476E+01 -0.10540149700E+02  0.22967328937E+02  0.26084516775E+02  0.51100000000E-03 0. -1.
        -11    1    3    3    0    0 -0.18957499074E+02 -0.17482155936E+02 -0.88510541375E+01  0.27264513693E+02  0.51100000000E-03 0.  1.
         12    1    3    3    0    0  0.18111807116E+01 -0.79393648088E+00 -0.56148683644E+01  0.59529368765E+01  0.00000000000E+00 0. -1.
</event>
<event>
 7    1  0.5755468E-013  0.5930195E+02  0.7816164E-02  0.1266605E+00
        -11   -1    0    0    0    0  0.00000000000E+00  0.00000000000E+00  0.45593999997E+02  0.45594000000E+02  0.51100000000E-03 0.  1.
         11   -1    0    0    0    0 -0.00000000000E+00 -0.00000000000E+00 -0.45593999997E+02  0.45594000000E+02  0.51100000000E-03 0. -1.
    9900012    2    1    2    0    0 -0.89138508069E+01  0.87631399416E+01 -0.29333779032E+02  0.59301953677E+02  0.50000017598E+02 0.  0.
        -12    1    1    2    0    0  0.89138508069E+01 -0.87631399416E+01  0.29333779032E+02  0.31886046323E+02  0.00000000000E+00 0.  1.
         11    1    3    3    0    0 -0.13746737891E+02 -0.33803183992E+01 -0.31646688220E+02  0.34668605837E+02  0.51100000000E-03 0. -1.
        -11    1    3    3    0    0  0.12554659101E+02  0.76697058278E+01 -0.17726892340E+01  0.14818443913E+02  0.51100000000E-03 0.  1.
         12    1    3    3    0    0 -0.77217720166E+01  0.44737525130E+01  0.40855984224E+01  0.98149039269E+01  0.00000000000E+00 0. -1.
</event>
<event>
 7    1  0.5755468E-013  0.5930180E+02  0.7816164E-02  0.1266605E+00
        -11   -1    0    0    0    0  0.00000000000E+00  0.00000000000E+00  0.45593999997E+02  0.45594000000E+02  0.51100000000E-03 0.  1.
         11   -1    0    0    0    0 -0.00000000000E+00 -0.00000000000E+00 -0.45593999997E+02  0.45594000000E+02  0.51100000000E-03 0. -1.
    9900012    2    1    2    0    0  0.21266785433E+02 -0.23677634181E+02  0.19553717724E+01  0.59301796058E+02  0.49999730139E+02 0.  0.
        -12    1    1    2    0    0 -0.21266785433E+02  0.23677634181E+02 -0.19553717724E+01  0.31886203942E+02  0.00000000000E+00 0.  1.
         11    1    3    3    0    0  0.13362080661E+02  0.34632212287E+01 -0.15246093751E+02  0.20566537769E+02  0.51100000000E-03 0. -1.
        -11    1    3    3    0    0  0.14192435590E+02 -0.14268145181E+02  0.12339066178E+02  0.23606307404E+02  0.51100000000E-03 0.  1.
         12    1    3    3    0    0 -0.62877308188E+01 -0.12872710229E+02  0.48623993458E+01  0.15128950885E+02  0.00000000000E+00 0. -1.
</event>
<event>
 7    1  0.5755468E-013  0.5930194E+02  0.7816164E-02  0.1266605E+00
        -11   -1    0    0    0    0  0.00000000000E+00  0.00000000000E+00  0.45593999997E+02  0.45594000000E+02  0.51100000000E-03 0.  1.
         11   -1    0    0    0    0 -0.00000000000E+00 -0.00000000000E+00 -0.45593999997E+02  0.45594000000E+02  0.51100000000E-03 0. -1.
    9900012    2    1    2    0    0 -0.23584748982E+01  0.27285362696E+02 -0.16329954597E+02  0.59301939747E+02  0.49999992194E+02 0.  0.
        -12    1    1    2    0    0  0.23584748982E+01 -0.27285362696E+02  0.16329954597E+02  0.31886060253E+02  0.00000000000E+00 0.  1.
         11    1    3    3    0    0 -0.46484486055E+01  0.28689978112E+02 -0.14042770762E+01  0.29098022491E+02  0.51100000000E-03 0. -1.
        -11    1    3    3    0    0 -0.36911185211E+00 -0.98627816043E+01  0.29068385550E+01  0.10288849070E+02  0.51100000000E-03 0.  1.
         12    1    3    3    0    0  0.26590855594E+01  0.84581661876E+01 -0.17832516076E+02  0.19915068186E+02  0.00000000000E+00 0. -1.
</event>
<event>
 7    1  0.5755468E-013  0.5930195E+02  0.7816164E-02  0.1266605E+00
        -11   -1    0    0    0    0  0.00000000000E+00  0.00000000000E+00  0.45593999997E+02  0.45594000000E+02  0.51100000000E-03 0. -1.
         11   -1    0    0    0    0 -0.00000000000E+00 -0.00000000000E+00 -0.45593999997E+02  0.45594000000E+02  0.51100000000E-03 0.  1.
    9900012    2    1    2    0    0 -0.22806954400E+01 -0.26642035719E+02  0.17370111609E+02  0.59301946368E+02  0.50000004267E+02 0.  0.
        -12    1    1    2    0    0  0.22806954400E+01  0.26642035719E+02 -0.17370111609E+02  0.31886053632E+02  0.00000000000E+00 0.  1.
         11    1    3    3    0    0  0.12871991021E+02 -0.67063916893E+01  0.24603469679E+02  0.28565618544E+02  0.51100000000E-03 0. -1.
        -11    1    3    3    0    0 -0.93001372529E+01 -0.63663970869E+01  0.42254904262E+01  0.12036541629E+02  0.51100000000E-03 0.  1.
         12    1    3    3    0    0 -0.58525492083E+01 -0.13569246943E+02 -0.11458848496E+02  0.18699786194E+02  0.00000000000E+00 0. -1.
</event>
<event>
 7    1  0.5755468E-013  0.5930194E+02  0.7816164E-02  0.1266605E+00
        -11   -1    0    0    0    0  0.00000000000E+00  0.00000000000E+00  0.45593999997E+02  0.45594000000E+02  0.51100000000E-03 0.  1.
         11   -1    0    0    0    0 -0.00000000000E+00 -0.00000000000E+00 -0.45593999997E+02  0.45594000000E+02  0.51100000000E-03 0. -1.
    9900012    2    1    2    0    0 -0.25549975827E+01  0.31324936463E+02  0.53796874834E+01  0.59301942005E+02  0.49999996311E+02 0.  0.
        -12    1    1    2    0    0  0.25549975827E+01 -0.31324936463E+02 -0.53796874834E+01  0.31886057995E+02  0.00000000000E+00 0.  1.
         11    1    3    3    0    0 -0.27509473239E+01  0.24897136562E+02 -0.43658948439E+01  0.25426288723E+02  0.51100000000E-03 0. -1.
        -11    1    3    3    0    0  0.14284520207E+02 -0.38988160855E+01  0.27563545822E+01  0.15061400175E+02  0.51100000000E-03 0.  1.
        -12    1    3    3    0    0 -0.14088570465E+02  0.10326615986E+02  0.69892277451E+01  0.18814253107E+02  0.00000000000E+00 0.  1.
</event>
<event>
 7    1  0.5755468E-013  0.5930195E+02  0.7816164E-02  0.1266605E+00
        -11   -1    0    0    0    0  0.00000000000E+00  0.00000000000E+00  0.45593999997E+02  0.45594000000E+02  0.51100000000E-03 0.  1.
         11   -1    0    0    0    0 -0.00000000000E+00 -0.00000000000E+00 -0.45593999997E+02  0.45594000000E+02  0.51100000000E-03 0. -1.
    9900012    2    1    2    0    0  0.25659169816E+02  0.77902432536E+01 -0.17252234027E+02  0.59301945611E+02  0.50000002888E+02 0.  0.
        -12    1    1    2    0    0 -0.25659169816E+02 -0.77902432536E+01  0.17252234027E+02  0.31886054389E+02  0.00000000000E+00 0.  1.
         11    1    3    3    0    0  0.22203843512E+02  0.21007577686E+02 -0.19633211632E+02  0.36328941440E+02  0.51100000000E-03 0. -1.
        -11    1    3    3    0    0  0.71766028473E+01 -0.13207337398E+02  0.73765961745E+01  0.16743702128E+02  0.51100000000E-03 0.  1.
        -12    1    3    3    0    0 -0.37212765436E+01 -0.99970342477E-02 -0.49956185692E+01  0.62293020430E+01  0.00000000000E+00 0.  1.
</event>
<event>
 7    1  0.5755468E-013  0.5930192E+02  0.7816164E-02  0.1266605E+00
        -11   -1    0    0    0    0  0.00000000000E+00  0.00000000000E+00  0.45593999997E+02  0.45594000000E+02  0.51100000000E-03 0.  1.
         11   -1    0    0    0    0 -0.00000000000E+00 -0.00000000000E+00 -0.45593999997E+02  0.45594000000E+02  0.51100000000E-03 0. -1.
    9900012    2    1    2    0    0 -0.24048447485E+02 -0.16998330845E+02 -0.12225016688E+02  0.59301919793E+02  0.49999955801E+02 0.  0.
        -12    1    1    2    0    0  0.24048447485E+02  0.16998330845E+02  0.12225016688E+02  0.31886080207E+02  0.00000000000E+00 0.  1.
         11    1    3    3    0    0 -0.25880449493E+02 -0.29916539865E+02 -0.32142180014E+01  0.39687885067E+02  0.51100000000E-03 0. -1.
        -11    1    3    3    0    0 -0.16246482740E+01  0.54993707958E+01 -0.98385424093E+01  0.11387689764E+02  0.51100000000E-03 0.  1.
        -12    1    3    3    0    0  0.34566502819E+01  0.74188382238E+01  0.82774372311E+00  0.82263449620E+01  0.00000000000E+00 0.  1.
</event>
<event>
 7    1  0.5755468E-013  0.5930196E+02  0.7816164E-02  0.1266605E+00
        -11   -1    0    0    0    0  0.00000000000E+00  0.00000000000E+00  0.45593999997E+02  0.45594000000E+02  0.51100000000E-03 0.  1.
         11   -1    0    0    0    0 -0.00000000000E+00 -0.00000000000E+00 -0.45593999997E+02  0.45594000000E+02  0.51100000000E-03 0. -1.
    9900012    2    1    2    0    0 -0.44061186980E+01  0.26551179587E+02 -0.17097973475E+02  0.59301957342E+02  0.50000024282E+02 0.  0.
        -12    1    1    2    0    0  0.44061186980E+01 -0.26551179587E+02  0.17097973475E+02  0.31886042658E+02  0.00000000000E+00 0.  1.
         11    1    3    3    0    0  0.46526046822E+00 -0.36921443942E+01 -0.18382147174E+01  0.41505940706E+01  0.51100000000E-03 0. -1.
        -11    1    3    3    0    0 -0.11121264779E+01  0.31560728979E+02 -0.27750680450E+02  0.42040655379E+02  0.51100000000E-03 0.  1.
        -12    1    3    3    0    0 -0.37592526884E+01 -0.13174049975E+01  0.12490921693E+02  0.13110707892E+02  0.00000000000E+00 0.  1.
</event>
<event>
 7    1  0.5755468E-013  0.5930198E+02  0.7816164E-02  0.1266605E+00
        -11   -1    0    0    0    0  0.00000000000E+00  0.00000000000E+00  0.45593999997E+02  0.45594000000E+02  0.51100000000E-03 0.  1.
         11   -1    0    0    0    0 -0.00000000000E+00 -0.00000000000E+00 -0.45593999997E+02  0.45594000000E+02  0.51100000000E-03 0. -1.
    9900012    2    1    2    0    0 -0.31743027685E+01 -0.35206585707E+01 -0.31531681704E+02  0.59301981341E+02  0.50000068051E+02 0.  0.
        -12    1    1    2    0    0  0.31743027685E+01  0.35206585707E+01  0.31531681704E+02  0.31886018659E+02  0.00000000000E+00 0.  1.
         11    1    3    3    0    0 -0.14853503582E+02  0.73386567069E+01 -0.27147788481E+02  0.31803849933E+02  0.51100000000E-03 0. -1.
        -11    1    3    3    0    0  0.13624725303E+02  0.12383719173E+01  0.17553573677E+01  0.13793041156E+02  0.51100000000E-03 0.  1.
        -12    1    3    3    0    0 -0.19455244892E+01 -0.12097687195E+02 -0.61392505910E+01  0.13705090252E+02  0.00000000000E+00 0.  1.
</event>
<event>
 7    1  0.5755468E-013  0.5930207E+02  0.7816164E-02  0.1266604E+00
        -11   -1    0    0    0    0  0.00000000000E+00  0.00000000000E+00  0.45593999997E+02  0.45594000000E+02  0.51100000000E-03 0.  1.
         11   -1    0    0    0    0 -0.00000000000E+00 -0.00000000000E+00 -0.45593999997E+02  0.45594000000E+02  0.51100000000E-03 0. -1.
    9900012    2    1    2    0    0 -0.12090567158E+02 -0.13950515374E+02 -0.25998342050E+02  0.59302070772E+02  0.50000231151E+02 0.  0.
        -12    1    1    2    0    0  0.12090567158E+02  0.13950515374E+02  0.25998342050E+02  0.31885929228E+02  0.00000000000E+00 0.  1.
         11    1    3    3    0    0 -0.52003627786E+01  0.54042749355E+01  0.71096231283E+01  0.10334248976E+02  0.51100000000E-03 0.  1.
        -11    1    3    3    0    0 -0.35532403636E+01 -0.54696438046E+01 -0.34037787940E+02  0.34657084825E+02  0.51100000000E-03 0. -1.
         12    1    3    3    0    0 -0.33369640153E+01 -0.13885146505E+02  0.92982276206E+00  0.14310736972E+02  0.00000000000E+00 0. -1.
</event>
<event>
 7    1  0.5755468E-013  0.5930193E+02  0.7816164E-02  0.1266605E+00
        -11   -1    0    0    0    0  0.00000000000E+00  0.00000000000E+00  0.45593999997E+02  0.45594000000E+02  0.51100000000E-03 0. -1.
         11   -1    0    0    0    0 -0.00000000000E+00 -0.00000000000E+00 -0.45593999997E+02  0.45594000000E+02  0.51100000000E-03 0.  1.
    9900012    2    1    2    0    0  0.95287635432E+01 -0.12626237656E+02  0.27685777490E+02  0.59301929574E+02  0.49999973639E+02 0.  0.
        -12    1    1    2    0    0 -0.95287635432E+01  0.12626237656E+02 -0.27685777490E+02  0.31886070426E+02  0.00000000000E+00 0.  1.
         11    1    3    3    0    0  0.68058300149E+01  0.11184465452E+02  0.10658674558E+02  0.16882503761E+02  0.51100000000E-03 0. -1.
        -11    1    3    3    0    0  0.54745730766E+01 -0.91323566573E+01 -0.79706656901E+01  0.13300466168E+02  0.51100000000E-03 0.  1.
         12    1    3    3    0    0 -0.27516395483E+01 -0.14678346451E+02  0.24997768622E+02  0.29118959645E+02  0.00000000000E+00 0. -1.
</event>
<event>
 7    1  0.5755468E-013  0.5930199E+02  0.7816164E-02  0.1266605E+00
        -11   -1    0    0    0    0  0.00000000000E+00  0.00000000000E+00  0.45593999997E+02  0.45594000000E+02  0.51100000000E-03 0. -1.
         11   -1    0    0    0    0 -0.00000000000E+00 -0.00000000000E+00 -0.45593999997E+02  0.45594000000E+02  0.51100000000E-03 0.  1.
    9900012    2    1    2    0    0  0.30004903328E+01  0.26724465530E+02 -0.17132360330E+02  0.59301987854E+02  0.50000079929E+02 0.  0.
        -12    1    1    2    0    0 -0.30004903328E+01 -0.26724465530E+02  0.17132360330E+02  0.31886012146E+02  0.00000000000E+00 0.  1.
         11    1    3    3    0    0  0.67457363155E+01  0.13907289000E+00  0.86481409333E+01  0.10968803106E+02  0.51100000000E-03 0. -1.
        -11    1    3    3    0    0  0.56781781419E+00  0.11504468508E+02 -0.29962033908E+02  0.32099823814E+02  0.51100000000E-03 0.  1.
        -12    1    3    3    0    0 -0.43130637968E+01  0.15080924132E+02  0.41815326447E+01  0.16233360935E+02  0.00000000000E+00 0.  1.
</event>
<event>
 7    1  0.5755468E-013  0.5930192E+02  0.7816164E-02  0.1266605E+00
        -11   -1    0    0    0    0  0.00000000000E+00  0.00000000000E+00  0.45593999997E+02  0.45594000000E+02  0.51100000000E-03 0. -1.
         11   -1    0    0    0    0 -0.00000000000E+00 -0.00000000000E+00 -0.45593999997E+02  0.45594000000E+02  0.51100000000E-03 0.  1.
    9900012    2    1    2    0    0  0.12524208193E+02  0.18932444747E+02  0.22392605894E+02  0.59301920691E+02  0.49999957440E+02 0.  0.
        -12    1    1    2    0    0 -0.12524208193E+02 -0.18932444747E+02 -0.22392605894E+02  0.31886079309E+02  0.00000000000E+00 0.  1.
         11    1    3    3    0    0  0.24024702531E+01  0.22011906666E+02  0.10550352536E+01  0.22167746797E+02  0.51100000000E-03 0. -1.
        -11    1    3    3    0    0  0.14784911541E+02 -0.95213940039E+01  0.39636632219E+01  0.18026679657E+02  0.51100000000E-03 0.  1.
         12    1    3    3    0    0 -0.46631736016E+01  0.64419320847E+01  0.17373907419E+02  0.19107494237E+02  0.00000000000E+00 0. -1.
</event>
<event>
 7    1  0.5755468E-013  0.5930205E+02  0.7816164E-02  0.1266604E+00
        -11   -1    0    0    0    0  0.00000000000E+00  0.00000000000E+00  0.45593999997E+02  0.45594000000E+02  0.51100000000E-03 0. -1.
         11   -1    0    0    0    0 -0.00000000000E+00 -0.00000000000E+00 -0.45593999997E+02  0.45594000000E+02  0.51100000000E-03 0.  1.
    9900012    2    1    2    0    0 -0.19492138946E+02 -0.37947610085E+01  0.24947342037E+02  0.59302053777E+02  0.50000200156E+02 0.  0.
        -12    1    1    2    0    0  0.19492138946E+02  0.37947610085E+01 -0.24947342037E+02  0.31885946223E+02  0.00000000000E+00 0.  1.
         11    1    3    3    0    0  0.67509754187E+01 -0.71875704513E+01  0.96627525854E+01  0.13805999634E+02  0.51100000000E-03 0. -1.
        -11    1    3    3    0    0 -0.31372828367E+02 -0.21890293232E+01  0.37202672060E+01  0.31668384825E+02  0.51100000000E-03 0.  1.
        -12    1    3    3    0    0  0.51297140020E+01  0.55818387660E+01  0.11564322246E+02  0.13827669318E+02  0.00000000000E+00 0.  1.
</event>
<event>
 7    1  0.5755468E-013  0.5930196E+02  0.7816164E-02  0.1266605E+00
        -11   -1    0    0    0    0  0.00000000000E+00  0.00000000000E+00  0.45593999997E+02  0.45594000000E+02  0.51100000000E-03 0.  1.
         11   -1    0    0    0    0 -0.00000000000E+00 -0.00000000000E+00 -0.45593999997E+02  0.45594000000E+02  0.51100000000E-03 0. -1.
    9900012    2    1    2    0    0 -0.24532895676E+02  0.70441722247E+01 -0.19111151677E+02  0.59301961503E+02  0.50000031871E+02 0.  0.
        -12    1    1    2    0    0  0.24532895676E+02 -0.70441722247E+01  0.19111151677E+02  0.31886038497E+02  0.00000000000E+00 0.  1.
         11    1    3    3    0    0  0.49612702553E+01 -0.13080345724E+02 -0.18658285773E+02  0.23320404693E+02  0.51100000000E-03 0. -1.
        -11    1    3    3    0    0 -0.10793473680E+02  0.74320348379E+01  0.19655244195E+01  0.13251320780E+02  0.51100000000E-03 0.  1.
         12    1    3    3    0    0 -0.18700692252E+02  0.12692483111E+02 -0.24183903241E+01  0.22730236030E+02  0.00000000000E+00 0. -1.
</event>
<event>
 7    1  0.5755468E-013  0.5930196E+02  0.7816164E-02  0.1266605E+00
        -11   -1    0    0    0    0  0.00000000000E+00  0.00000000000E+00  0.45593999997E+02  0.45594000000E+02  0.51100000000E-03 0.  1.
         11   -1    0    0    0    0 -0.00000000000E+00 -0.00000000000E+00 -0.45593999997E+02  0.45594000000E+02  0.51100000000E-03 0. -1.
    9900012    2    1    2    0    0  0.10458504697E+02  0.84353691862E+01 -0.28916846292E+02  0.59301956449E+02  0.50000022654E+02 0.  0.
        -12    1    1    2    0    0 -0.10458504697E+02 -0.84353691862E+01  0.28916846292E+02  0.31886043551E+02  0.00000000000E+00 0.  1.
         11    1    3    3    0    0  0.10151439787E+02  0.48606823539E+01 -0.24925966996E+02  0.27349255815E+02  0.51100000000E-03 0. -1.
        -11    1    3    3    0    0 -0.57904744362E+01 -0.12842385449E+02 -0.30546692348E+01  0.14414834810E+02  0.51100000000E-03 0.  1.
         12    1    3    3    0    0  0.60975393467E+01  0.16417072281E+02 -0.93621006123E+00  0.17537865824E+02  0.00000000000E+00 0. -1.
</event>
<event>
 7    1  0.5800982E-013  0.5930194E+02  0.7816164E-02  0.1266605E+00
        -11   -1    0    0    0    0  0.00000000000E+00  0.00000000000E+00  0.45593999997E+02  0.45594000000E+02  0.51100000000E-03 0.  1.
         11   -1    0    0    0    0 -0.00000000000E+00 -0.00000000000E+00 -0.45593999997E+02  0.45594000000E+02  0.51100000000E-03 0. -1.
    9900012    2    1    2    0    0 -0.24793496568E+02 -0.31351823491E+00 -0.20047570675E+02  0.59301939476E+02  0.49999991699E+02 0.  0.
        -12    1    1    2    0    0  0.24793496568E+02  0.31351823491E+00  0.20047570675E+02  0.31886060524E+02  0.00000000000E+00 0.  1.
         11    1    3    3    0    0 -0.97274880274E+01 -0.19839545678E+02 -0.19610584664E+02  0.29543300885E+02  0.51100000000E-03 0. -1.
        -11    1    3    3    0    0 -0.12038312292E+02  0.62547334156E+01  0.58387403939E+01  0.14769344691E+02  0.51100000000E-03 0.  1.
         12    1    3    3    0    0 -0.30276962488E+01  0.13271294027E+02 -0.62757264048E+01  0.14989293901E+02  0.00000000000E+00 0. -1.
</event>
<event>
 7    1  0.5755468E-013  0.5930197E+02  0.7816164E-02  0.1266605E+00
        -11   -1    0    0    0    0  0.00000000000E+00  0.00000000000E+00  0.45593999997E+02  0.45594000000E+02  0.51100000000E-03 0.  1.
         11   -1    0    0    0    0 -0.00000000000E+00 -0.00000000000E+00 -0.45593999997E+02  0.45594000000E+02  0.51100000000E-03 0. -1.
    9900012    2    1    2    0    0 -0.52784924211E+01  0.31401083073E+02 -0.16818688349E+01  0.59301965704E+02  0.50000039532E+02 0.  0.
        -12    1    1    2    0    0  0.52784924211E+01 -0.31401083073E+02  0.16818688349E+01  0.31886034296E+02  0.00000000000E+00 0.  1.
         11    1    3    3    0    0 -0.19941661271E+02  0.31909602754E+02  0.69534885773E+01  0.38265436177E+02  0.51100000000E-03 0.  1.
        -11    1    3    3    0    0  0.43200390021E+01 -0.44978680170E+01 -0.77037008713E+01  0.99116376575E+01  0.51100000000E-03 0. -1.
         12    1    3    3    0    0  0.10343129848E+02  0.39893483355E+01 -0.93165654085E+00  0.11124891869E+02  0.00000000000E+00 0. -1.
</event>
<event>
 7    1  0.5755468E-013  0.5930187E+02  0.7816164E-02  0.1266605E+00
        -11   -1    0    0    0    0  0.00000000000E+00  0.00000000000E+00  0.45593999997E+02  0.45594000000E+02  0.51100000000E-03 0.  1.
         11   -1    0    0    0    0 -0.00000000000E+00 -0.00000000000E+00 -0.45593999997E+02  0.45594000000E+02  0.51100000000E-03 0. -1.
    9900012    2    1    2    0    0 -0.22741719312E+02 -0.21348675769E+02 -0.66161683066E+01  0.59301867631E+02  0.49999860671E+02 0.  0.
        -12    1    1    2    0    0  0.22741719312E+02  0.21348675769E+02  0.66161683066E+01  0.31886132369E+02  0.00000000000E+00 0.  1.
         11    1    3    3    0    0 -0.22385379954E+02 -0.33057051141E+01 -0.37051347881E+01  0.22929477666E+02  0.51100000000E-03 0. -1.
        -11    1    3    3    0    0  0.63871533040E+01  0.11720080979E+00  0.10863491728E+02  0.12602575774E+02  0.51100000000E-03 0.  1.
        -12    1    3    3    0    0 -0.67434926621E+01 -0.18160171465E+02 -0.13774525246E+02  0.23769814191E+02  0.00000000000E+00 0.  1.
</event>
<event>
 7    1  0.5755468E-013  0.5930195E+02  0.7816164E-02  0.1266605E+00
        -11   -1    0    0    0    0  0.00000000000E+00  0.00000000000E+00  0.45593999997E+02  0.45594000000E+02  0.51100000000E-03 0.  1.
         11   -1    0    0    0    0 -0.00000000000E+00 -0.00000000000E+00 -0.45593999997E+02  0.45594000000E+02  0.51100000000E-03 0. -1.
    9900012    2    1    2    0    0  0.87215286956E+01 -0.30241661224E+02  0.51085500180E+01  0.59301946314E+02  0.50000004170E+02 0.  0.
        -12    1    1    2    0    0 -0.87215286956E+01  0.30241661224E+02 -0.51085500180E+01  0.31886053686E+02  0.00000000000E+00 0.  1.
         11    1    3    3    0    0  0.28499098711E+01 -0.20372800112E+02  0.14774814146E+02  0.25327220614E+02  0.51100000000E-03 0. -1.
        -11    1    3    3    0    0 -0.30899532732E+01  0.73124939857E+01 -0.12071592430E+02  0.14447966070E+02  0.51100000000E-03 0.  1.
        -12    1    3    3    0    0  0.89615720977E+01 -0.17181355097E+02  0.24053283011E+01  0.19526759630E+02  0.00000000000E+00 0.  1.
</event>
<event>
 7    1  0.5755468E-013  0.5930193E+02  0.7816164E-02  0.1266605E+00
        -11   -1    0    0    0    0  0.00000000000E+00  0.00000000000E+00  0.45593999997E+02  0.45594000000E+02  0.51100000000E-03 0.  1.
         11   -1    0    0    0    0 -0.00000000000E+00 -0.00000000000E+00 -0.45593999997E+02  0.45594000000E+02  0.51100000000E-03 0. -1.
    9900012    2    1    2    0    0 -0.10312006631E+02 -0.27091664247E+02 -0.13282526477E+02  0.59301933105E+02  0.49999980079E+02 0.  0.
        -12    1    1    2    0    0  0.10312006631E+02  0.27091664247E+02  0.13282526477E+02  0.31886066895E+02  0.00000000000E+00 0.  1.
         11    1    3    3    0    0 -0.49463212045E+01 -0.87257601532E+01 -0.12085041015E+02  0.15705196602E+02  0.51100000000E-03 0. -1.
        -11    1    3    3    0    0 -0.16944949988E+02 -0.73341860202E+01  0.12699154692E+02  0.22409599390E+02  0.51100000000E-03 0.  1.
        -12    1    3    3    0    0  0.11579264562E+02 -0.11031718074E+02 -0.13896640154E+02  0.21187137113E+02  0.00000000000E+00 0.  1.
</event>
<event>
 7    1  0.5755468E-013  0.5930192E+02  0.7816164E-02  0.1266605E+00
        -11   -1    0    0    0    0  0.00000000000E+00  0.00000000000E+00  0.45593999997E+02  0.45594000000E+02  0.51100000000E-03 0.  1.
         11   -1    0    0    0    0 -0.00000000000E+00 -0.00000000000E+00 -0.45593999997E+02  0.45594000000E+02  0.51100000000E-03 0. -1.
    9900012    2    1    2    0    0 -0.23886745861E+02  0.18985187571E+02 -0.92578789414E+01  0.59301916869E+02  0.49999950469E+02 0.  0.
        -12    1    1    2    0    0  0.23886745861E+02 -0.18985187571E+02  0.92578789414E+01  0.31886083131E+02  0.00000000000E+00 0.  1.
         11    1    3    3    0    0 -0.33369130207E+02  0.14774882262E+02 -0.14149668130E+02  0.39140887893E+02  0.51100000000E-03 0. -1.
        -11    1    3    3    0    0  0.68124665765E+01  0.32939762268E+01  0.11046575231E+02  0.13389802270E+02  0.51100000000E-03 0.  1.
         12    1    3    3    0    0  0.26699177693E+01  0.91632908267E+00 -0.61547860419E+01  0.67712267060E+01  0.00000000000E+00 0. -1.
</event>
<event>
 7    1  0.5755468E-013  0.5930184E+02  0.7816164E-02  0.1266605E+00
        -11   -1    0    0    0    0  0.00000000000E+00  0.00000000000E+00  0.45593999997E+02  0.45594000000E+02  0.51100000000E-03 0.  1.
         11   -1    0    0    0    0 -0.00000000000E+00 -0.00000000000E+00 -0.45593999997E+02  0.45594000000E+02  0.51100000000E-03 0. -1.
    9900012    2    1    2    0    0  0.88301775027E+01 -0.29923937462E+02 -0.65812836664E+01  0.59301837442E+02  0.49999805613E+02 0.  0.
        -12    1    1    2    0    0 -0.88301775027E+01  0.29923937462E+02  0.65812836664E+01  0.31886162558E+02  0.00000000000E+00 0.  1.
         11    1    3    3    0    0  0.51309890238E+01 -0.19005986576E+02 -0.53437431611E+01  0.20398778525E+02  0.51100000000E-03 0. -1.
        -11    1    3    3    0    0 -0.47105719999E+01  0.89566374336E+01  0.10293525474E+02  0.14434940583E+02  0.51100000000E-03 0.  1.
        -12    1    3    3    0    0  0.84097604788E+01 -0.19874588320E+02 -0.11531065979E+02  0.24468118334E+02  0.00000000000E+00 0.  1.
</event>
<event>
 7    1  0.5755468E-013  0.5930194E+02  0.7816164E-02  0.1266605E+00
        -11   -1    0    0    0    0  0.00000000000E+00  0.00000000000E+00  0.45593999997E+02  0.45594000000E+02  0.51100000000E-03 0.  1.
         11   -1    0    0    0    0 -0.00000000000E+00 -0.00000000000E+00 -0.45593999997E+02  0.45594000000E+02  0.51100000000E-03 0. -1.
    9900012    2    1    2    0    0  0.28297443033E+01  0.27180539180E+02  0.16429595291E+02  0.59301940908E+02  0.49999994311E+02 0.  0.
        -12    1    1    2    0    0 -0.28297443033E+01 -0.27180539180E+02 -0.16429595291E+02  0.31886059092E+02  0.00000000000E+00 0.  1.
         11    1    3    3    0    0  0.98602016415E+01  0.30981683061E+02  0.52752981792E+01  0.32938078767E+02  0.51100000000E-03 0. -1.
        -11    1    3    3    0    0  0.10807933156E+01  0.19574374729E+01  0.15390352366E+02  0.15551933058E+02  0.51100000000E-03 0.  1.
         12    1    3    3    0    0 -0.81112506538E+01 -0.57585813539E+01 -0.42360552535E+01  0.10811929083E+02  0.00000000000E+00 0. -1.
</event>
<event>
 7    1  0.5755468E-013  0.5930195E+02  0.7816164E-02  0.1266605E+00
        -11   -1    0    0    0    0  0.00000000000E+00  0.00000000000E+00  0.45593999997E+02  0.45594000000E+02  0.51100000000E-03 0.  1.
         11   -1    0    0    0    0 -0.00000000000E+00 -0.00000000000E+00 -0.45593999997E+02  0.45594000000E+02  0.51100000000E-03 0. -1.
    9900012    2    1    2    0    0 -0.14836146910E+02 -0.76590075407E+01 -0.27165211248E+02  0.59301947347E+02  0.50000006054E+02 0.  0.
        -12    1    1    2    0    0  0.14836146910E+02  0.76590075407E+01  0.27165211248E+02  0.31886052653E+02  0.00000000000E+00 0.  1.
         11    1    3    3    0    0  0.11376890353E+02  0.50619544701E+01 -0.11912045616E+02  0.17232348887E+02  0.51100000000E-03 0. -1.
        -11    1    3    3    0    0 -0.29785150148E+02 -0.44711140533E+01 -0.10473103550E+02  0.31887802189E+02  0.51100000000E-03 0.  1.
        -12    1    3    3    0    0  0.35721128854E+01 -0.82498479575E+01 -0.47800620820E+01  0.10181796271E+02  0.00000000000E+00 0.  1.
</event>
<event>
 7    1  0.5755468E-013  0.5930193E+02  0.7816164E-02  0.1266605E+00
        -11   -1    0    0    0    0  0.00000000000E+00  0.00000000000E+00  0.45593999997E+02  0.45594000000E+02  0.51100000000E-03 0.  1.
         11   -1    0    0    0    0 -0.00000000000E+00 -0.00000000000E+00 -0.45593999997E+02  0.45594000000E+02  0.51100000000E-03 0. -1.
    9900012    2    1    2    0    0  0.31611851554E+02  0.41605873459E+01  0.31883307434E+00  0.59301932506E+02  0.49999978986E+02 0.  0.
        -12    1    1    2    0    0 -0.31611851554E+02 -0.41605873459E+01 -0.31883307434E+00  0.31886067494E+02  0.00000000000E+00 0.  1.
         11    1    3    3    0    0  0.63046491705E+01 -0.49183226558E+01 -0.16399630232E+02  0.18245173908E+02  0.51100000000E-03 0. -1.
        -11    1    3    3    0    0  0.25731893587E+02 -0.23258346335E+01  0.13734367779E+02  0.29260429129E+02  0.51100000000E-03 0.  1.
        -12    1    3    3    0    0 -0.42469120310E+00  0.11404744635E+02  0.29840955277E+01  0.11796329469E+02  0.00000000000E+00 0.  1.
</event>
<event>
 7    1  0.5755468E-013  0.5930196E+02  0.7816164E-02  0.1266605E+00
        -11   -1    0    0    0    0  0.00000000000E+00  0.00000000000E+00  0.45593999997E+02  0.45594000000E+02  0.51100000000E-03 0.  1.
         11   -1    0    0    0    0 -0.00000000000E+00 -0.00000000000E+00 -0.45593999997E+02  0.45594000000E+02  0.51100000000E-03 0. -1.
    9900012    2    1    2    0    0  0.93924410348E+01  0.20816106940E+02 -0.22252898495E+02  0.59301956844E+02  0.50000023373E+02 0.  0.
        -12    1    1    2    0    0 -0.93924410348E+01 -0.20816106940E+02  0.22252898495E+02  0.31886043156E+02  0.00000000000E+00 0.  1.
         11    1    3    3    0    0  0.19250051718E+02  0.16894918852E+02 -0.24150268902E+02  0.35202816116E+02  0.51100000000E-03 0. -1.
        -11    1    3    3    0    0 -0.48104703372E+01  0.59880968311E+01  0.11042487302E+02  0.13451187851E+02  0.51100000000E-03 0.  1.
        -12    1    3    3    0    0 -0.50471403464E+01 -0.20669087434E+01 -0.91451168955E+01  0.10647952877E+02  0.00000000000E+00 0.  1.
</event>
<event>
 7    1  0.5755468E-013  0.5930192E+02  0.7816164E-02  0.1266605E+00
        -11   -1    0    0    0    0  0.00000000000E+00  0.00000000000E+00  0.45593999997E+02  0.45594000000E+02  0.51100000000E-03 0.  1.
         11   -1    0    0    0    0 -0.00000000000E+00 -0.00000000000E+00 -0.45593999997E+02  0.45594000000E+02  0.51100000000E-03 0. -1.
    9900012    2    1    2    0    0  0.26152142720E+02  0.45714856150E+01 -0.17660376363E+02  0.59301922429E+02  0.49999960609E+02 0.  0.
        -12    1    1    2    0    0 -0.26152142720E+02 -0.45714856150E+01  0.17660376363E+02  0.31886077571E+02  0.00000000000E+00 0.  1.
         11    1    3    3    0    0  0.26000239760E+02 -0.18821359922E+01 -0.96728794823E+01  0.27805026545E+02  0.51100000000E-03 0. -1.
        -11    1    3    3    0    0  0.33734551343E+00 -0.67789320313E+01  0.81635095705E+01  0.10616525338E+02  0.51100000000E-03 0.  1.
        -12    1    3    3    0    0 -0.18544255342E+00  0.13232553639E+02 -0.16151006451E+02  0.20880370546E+02  0.00000000000E+00 0.  1.
</event>
<event>
 7    1  0.5755468E-013  0.5930194E+02  0.7816164E-02  0.1266605E+00
        -11   -1    0    0    0    0  0.00000000000E+00  0.00000000000E+00  0.45593999997E+02  0.45594000000E+02  0.51100000000E-03 0. -1.
         11   -1    0    0    0    0 -0.00000000000E+00 -0.00000000000E+00 -0.45593999997E+02  0.45594000000E+02  0.51100000000E-03 0.  1.
    9900012    2    1    2    0    0  0.28209778501E+02  0.77965207688E+01  0.12654783718E+02  0.59301938937E+02  0.49999990716E+02 0.  0.
        -12    1    1    2    0    0 -0.28209778501E+02 -0.77965207688E+01 -0.12654783718E+02  0.31886061063E+02  0.00000000000E+00 0.  1.
         11    1    3    3    0    0  0.11736309137E+02 -0.58773957596E+01  0.14960647691E+02  0.19902404696E+02  0.51100000000E-03 0. -1.
        -11    1    3    3    0    0 -0.90419526068E+01  0.10114160612E+02 -0.10204768023E+01  0.13604944873E+02  0.51100000000E-03 0.  1.
        -12    1    3    3    0    0  0.25515421970E+02  0.35597559165E+01 -0.12853871710E+01  0.25794589368E+02  0.00000000000E+00 0.  1.
</event>
<event>
 7    1  0.5755468E-013  0.5930203E+02  0.7816164E-02  0.1266604E+00
        -11   -1    0    0    0    0  0.00000000000E+00  0.00000000000E+00  0.45593999997E+02  0.45594000000E+02  0.51100000000E-03 0. -1.
         11   -1    0    0    0    0 -0.00000000000E+00 -0.00000000000E+00 -0.45593999997E+02  0.45594000000E+02  0.51100000000E-03 0.  1.
    9900012    2    1    2    0    0 -0.16664045808E+01  0.77668329802E+01  0.30880650240E+02  0.59302028821E+02  0.50000154643E+02 0.  0.
        -12    1    1    2    0    0  0.16664045808E+01 -0.77668329802E+01 -0.30880650240E+02  0.31885971179E+02  0.00000000000E+00 0.  1.
         11    1    3    3    0    0  0.11244873245E+02  0.65927228239E+01  0.37501219569E+02  0.39702048284E+02  0.51100000000E-03 0. -1.
        -11    1    3    3    0    0 -0.10169060663E+02 -0.52627894134E+01 -0.40053491954E+01  0.12130522232E+02  0.51100000000E-03 0.  1.
         12    1    3    3    0    0 -0.27422171625E+01  0.64368995697E+01 -0.26152201334E+01  0.74694583059E+01  0.00000000000E+00 0. -1.
</event>
<event>
 7    1  0.5755468E-013  0.5930190E+02  0.7816164E-02  0.1266605E+00
        -11   -1    0    0    0    0  0.00000000000E+00  0.00000000000E+00  0.45593999997E+02  0.45594000000E+02  0.51100000000E-03 0.  1.
         11   -1    0    0    0    0 -0.00000000000E+00 -0.00000000000E+00 -0.45593999997E+02  0.45594000000E+02  0.51100000000E-03 0. -1.
    9900012    2    1    2    0    0  0.22657962868E+02  0.17705717647E+02 -0.13778527225E+02  0.59301897522E+02  0.49999915185E+02 0.  0.
        -12    1    1    2    0    0 -0.22657962868E+02 -0.17705717647E+02  0.13778527225E+02  0.31886102478E+02  0.00000000000E+00 0.  1.
         11    1    3    3    0    0  0.11423858445E+00  0.29447842825E+02 -0.10816691233E+02  0.31371791581E+02  0.51100000000E-03 0.  1.
        -11    1    3    3    0    0  0.20936226205E+02 -0.12925090397E+02 -0.49670643517E+01  0.25100901538E+02  0.51100000000E-03 0. -1.
        -12    1    3    3    0    0  0.16074980793E+01  0.11829652182E+01  0.20052283599E+01  0.28292044036E+01  0.00000000000E+00 0.  1.
</event>
<event>
 7    1  0.7979311E-013  0.5930182E+02  0.7816164E-02  0.1266605E+00
        -11   -1    0    0    0    0  0.00000000000E+00  0.00000000000E+00  0.45593999997E+02  0.45594000000E+02  0.51100000000E-03 0. -1.
         11   -1    0    0    0    0 -0.00000000000E+00 -0.00000000000E+00 -0.45593999997E+02  0.45594000000E+02  0.51100000000E-03 0.  1.
    9900012    2    1    2    0    0  0.39677616304E+00  0.25118301295E+02  0.19637762423E+02  0.59301824245E+02  0.49999781545E+02 0.  0.
        -12    1    1    2    0    0 -0.39677616304E+00 -0.25118301295E+02 -0.19637762423E+02  0.31886175755E+02  0.00000000000E+00 0.  1.
         11    1    3    3    0    0 -0.13734338205E+02  0.21427340552E+02  0.17622225065E+02  0.30956514428E+02  0.51100000000E-03 0. -1.
        -11    1    3    3    0    0  0.56574776835E+01 -0.72826503614E+00 -0.10885878824E+02  0.12289824317E+02  0.51100000000E-03 0.  1.
         12    1    3    3    0    0  0.84736366842E+01  0.44192257796E+01  0.12901416182E+02  0.16055485500E+02  0.00000000000E+00 0. -1.
</event>
<event>
 7    1  0.5755468E-013  0.5930196E+02  0.7816164E-02  0.1266605E+00
        -11   -1    0    0    0    0  0.00000000000E+00  0.00000000000E+00  0.45593999997E+02  0.45594000000E+02  0.51100000000E-03 0.  1.
         11   -1    0    0    0    0 -0.00000000000E+00 -0.00000000000E+00 -0.45593999997E+02  0.45594000000E+02  0.51100000000E-03 0. -1.
    9900012    2    1    2    0    0  0.93614573947E+01 -0.47680178301E+01 -0.30105621925E+02  0.59301963086E+02  0.50000034758E+02 0.  0.
        -12    1    1    2    0    0 -0.93614573947E+01  0.47680178301E+01  0.30105621925E+02  0.31886036914E+02  0.00000000000E+00 0.  1.
         11    1    3    3    0    0 -0.70581637100E+01 -0.21850703225E+01 -0.18078411216E+02  0.19530006647E+02  0.51100000000E-03 0. -1.
        -11    1    3    3    0    0  0.59313483888E+00  0.24443768051E+01  0.11054763153E+02  0.11337309007E+02  0.51100000000E-03 0.  1.
        -12    1    3    3    0    0  0.15826486266E+02 -0.50273243126E+01 -0.23081973861E+02  0.28434647432E+02  0.00000000000E+00 0.  1.
</event>
<event>
 7    1  0.5755468E-013  0.5930201E+02  0.7816164E-02  0.1266605E+00
        -11   -1    0    0    0    0  0.00000000000E+00  0.00000000000E+00  0.45593999997E+02  0.45594000000E+02  0.51100000000E-03 0. -1.
         11   -1    0    0    0    0 -0.00000000000E+00 -0.00000000000E+00 -0.45593999997E+02  0.45594000000E+02  0.51100000000E-03 0.  1.
    9900012    2    1    2    0    0 -0.13987071166E+02  0.92843336733E+01  0.27108656522E+02  0.59302011384E+02  0.50000122842E+02 0.  0.
        -12    1    1    2    0    0  0.13987071166E+02 -0.92843336733E+01 -0.27108656522E+02  0.31885988616E+02  0.00000000000E+00 0.  1.
         11    1    3    3    0    0  0.10542513075E+02 -0.79710658572E+01  0.11928252805E+02  0.17803530214E+02  0.51100000000E-03 0. -1.
        -11    1    3    3    0    0 -0.27574177269E+02  0.10907525677E+02  0.17061620760E+02  0.34211230198E+02  0.51100000000E-03 0.  1.
        -12    1    3    3    0    0  0.30445930278E+01  0.63478738540E+01 -0.18812170425E+01  0.72872509722E+01  0.00000000000E+00 0.  1.
</event>
<event>
 7    1  0.5755468E-013  0.5930196E+02  0.7816164E-02  0.1266605E+00
        -11   -1    0    0    0    0  0.00000000000E+00  0.00000000000E+00  0.45593999997E+02  0.45594000000E+02  0.51100000000E-03 0. -1.
         11   -1    0    0    0    0 -0.00000000000E+00 -0.00000000000E+00 -0.45593999997E+02  0.45594000000E+02  0.51100000000E-03 0.  1.
    9900012    2    1    2    0    0 -0.53375525962E+01  0.28303878003E+02  0.13679206325E+02  0.59301958172E+02  0.50000025796E+02 0.  0.
        -12    1    1    2    0    0  0.53375525962E+01 -0.28303878003E+02 -0.13679206325E+02  0.31886041828E+02  0.00000000000E+00 0.  1.
         11    1    3    3    0    0  0.27043811958E+01 -0.79396745780E+01  0.14781258517E+02  0.16995226203E+02  0.51100000000E-03 0.  1.
        -11    1    3    3    0    0 -0.66802100062E+01  0.17241083708E+02 -0.10284840323E+02  0.21157932647E+02  0.51100000000E-03 0. -1.
         12    1    3    3    0    0 -0.13617237858E+01  0.19002468873E+02  0.91827881310E+01  0.21148799323E+02  0.00000000000E+00 0. -1.
</event>
<event>
 7    1  0.5755468E-013  0.5930215E+02  0.7816164E-02  0.1266604E+00
        -11   -1    0    0    0    0  0.00000000000E+00  0.00000000000E+00  0.45593999997E+02  0.45594000000E+02  0.51100000000E-03 0.  1.
         11   -1    0    0    0    0 -0.00000000000E+00 -0.00000000000E+00 -0.45593999997E+02  0.45594000000E+02  0.51100000000E-03 0. -1.
    9900012    2    1    2    0    0  0.19478022646E+02 -0.16588312732E+02 -0.19030029635E+02  0.59302148695E+02  0.50000373264E+02 0.  0.
        -12    1    1    2    0    0 -0.19478022646E+02  0.16588312732E+02  0.19030029635E+02  0.31885851305E+02  0.00000000000E+00 0.  1.
         11    1    3    3    0    0  0.58857336312E+01  0.11653417757E+02 -0.69557359309E+01  0.14792777576E+02  0.51100000000E-03 0. -1.
        -11    1    3    3    0    0  0.22617554053E+02 -0.22541573961E+02 -0.11030539495E+02  0.33783858717E+02  0.51100000000E-03 0.  1.
        -12    1    3    3    0    0 -0.90252650386E+01 -0.57001565284E+01 -0.10437542099E+01  0.10725512403E+02  0.00000000000E+00 0.  1.
</event>
<event>
 7    1  0.5755468E-013  0.5930194E+02  0.7816164E-02  0.1266605E+00
        -11   -1    0    0    0    0  0.00000000000E+00  0.00000000000E+00  0.45593999997E+02  0.45594000000E+02  0.51100000000E-03 0. -1.
         11   -1    0    0    0    0 -0.00000000000E+00 -0.00000000000E+00 -0.45593999997E+02  0.45594000000E+02  0.51100000000E-03 0.  1.
    9900012    2    1    2    0    0  0.10115802011E+02 -0.16504931272E+02  0.25337302149E+02  0.59301935852E+02  0.49999985090E+02 0.  0.
        -12    1    1    2    0    0 -0.10115802011E+02  0.16504931272E+02 -0.25337302149E+02  0.31886064148E+02  0.00000000000E+00 0.  1.
         11    1    3    3    0    0  0.90423361942E+01  0.30034694714E+00 -0.55098645699E+01  0.10593047719E+02  0.51100000000E-03 0.  1.
        -11    1    3    3    0    0  0.80724300928E+01 -0.54785030615E+01  0.33707055243E+02  0.35090507218E+02  0.51100000000E-03 0. -1.
        -12    1    3    3    0    0 -0.69989642755E+01 -0.11326775157E+02 -0.28598885236E+01  0.13618380916E+02  0.00000000000E+00 0.  1.
</event>
<event>
 7    1  0.5755468E-013  0.5930194E+02  0.7816164E-02  0.1266605E+00
        -11   -1    0    0    0    0  0.00000000000E+00  0.00000000000E+00  0.45593999997E+02  0.45594000000E+02  0.51100000000E-03 0.  1.
         11   -1    0    0    0    0 -0.00000000000E+00 -0.00000000000E+00 -0.45593999997E+02  0.45594000000E+02  0.51100000000E-03 0. -1.
    9900012    2    1    2    0    0  0.70318525464E+01 -0.30464548711E+02 -0.62598054062E+01  0.59301939690E+02  0.49999992088E+02 0.  0.
        -12    1    1    2    0    0 -0.70318525464E+01  0.30464548711E+02  0.62598054062E+01  0.31886060310E+02  0.00000000000E+00 0.  1.
         11    1    3    3    0    0 -0.15960259310E+02 -0.99378892253E+01 -0.98235451500E+01  0.21213051621E+02  0.51100000000E-03 0. -1.
        -11    1    3    3    0    0  0.10062044133E+02  0.34842074546E+01  0.12002534411E+01  0.10715644745E+02  0.51100000000E-03 0.  1.
         12    1    3    3    0    0  0.12930067724E+02 -0.24010866940E+02  0.23634863027E+01  0.27373243324E+02  0.00000000000E+00 0. -1.
</event>
<event>
 7    1  0.5755468E-013  0.5930189E+02  0.7816164E-02  0.1266605E+00
        -11   -1    0    0    0    0  0.00000000000E+00  0.00000000000E+00  0.45593999997E+02  0.45594000000E+02  0.51100000000E-03 0. -1.
         11   -1    0    0    0    0 -0.00000000000E+00 -0.00000000000E+00 -0.45593999997E+02  0.45594000000E+02  0.51100000000E-03 0.  1.
    9900012    2    1    2    0    0  0.48394016728E+01 -0.33899206288E+01  0.31333888931E+02  0.59301890705E+02  0.49999902752E+02 0.  0.
        -12    1    1    2    0    0 -0.48394016728E+01  0.33899206288E+01 -0.31333888931E+02  0.31886109295E+02  0.00000000000E+00 0.  1.
         11    1    3    3    0    0 -0.72402479294E+00  0.41528854242E+01  0.28779730011E+02  0.29086827414E+02  0.51100000000E-03 0. -1.
        -11    1    3    3    0    0 -0.91437576538E+00  0.45463982409E+01 -0.10376307030E+02  0.11365455022E+02  0.51100000000E-03 0.  1.
         12    1    3    3    0    0  0.64778022312E+01 -0.12089204294E+02  0.12930465951E+02  0.18849608269E+02  0.00000000000E+00 0. -1.
</event>
<event>
 7    1  0.5755468E-013  0.5930183E+02  0.7816164E-02  0.1266605E+00
        -11   -1    0    0    0    0  0.00000000000E+00  0.00000000000E+00  0.45593999997E+02  0.45594000000E+02  0.51100000000E-03 0.  1.
         11   -1    0    0    0    0 -0.00000000000E+00 -0.00000000000E+00 -0.45593999997E+02  0.45594000000E+02  0.51100000000E-03 0. -1.
    9900012    2    1    2    0    0 -0.30092014046E+02  0.10544853463E+02 -0.67106849146E-01  0.59301831412E+02  0.49999794615E+02 0.  0.
        -12    1    1    2    0    0  0.30092014046E+02 -0.10544853463E+02  0.67106849146E-01  0.31886168588E+02  0.00000000000E+00 0.  1.
         11    1    3    3    0    0 -0.14522670245E+02 -0.15038721960E+02  0.72945099451E+01  0.22142289512E+02  0.51100000000E-03 0. -1.
        -11    1    3    3    0    0 -0.54287268575E+00  0.72445637457E+01 -0.10990405175E+02  0.13174498882E+02  0.51100000000E-03 0.  1.
         12    1    3    3    0    0 -0.15026471116E+02  0.18339011677E+02  0.36287883804E+01  0.23985043018E+02  0.00000000000E+00 0. -1.
</event>
<event>
 7    1  0.5755468E-013  0.5930198E+02  0.7816164E-02  0.1266605E+00
        -11   -1    0    0    0    0  0.00000000000E+00  0.00000000000E+00  0.45593999997E+02  0.45594000000E+02  0.51100000000E-03 0.  1.
         11   -1    0    0    0    0 -0.00000000000E+00 -0.00000000000E+00 -0.45593999997E+02  0.45594000000E+02  0.51100000000E-03 0. -1.
    9900012    2    1    2    0    0 -0.30487358354E+02 -0.78711844404E+01 -0.50283119659E+01  0.59301976649E+02  0.50000059494E+02 0.  0.
        -12    1    1    2    0    0  0.30487358354E+02  0.78711844404E+01  0.50283119659E+01  0.31886023351E+02  0.00000000000E+00 0.  1.
         11    1    3    3    0    0 -0.12076240163E+02 -0.15536434876E+02 -0.21951999072E+02  0.29480614794E+02  0.51100000000E-03 0. -1.
        -11    1    3    3    0    0 -0.16972531046E+02  0.96279876856E+01  0.89189456569E+01  0.21454895686E+02  0.51100000000E-03 0.  1.
         12    1    3    3    0    0 -0.14385871451E+01 -0.19627372502E+01  0.80047414497E+01  0.83664661694E+01  0.00000000000E+00 0. -1.
</event>
<event>
 7    1  0.5755468E-013  0.5930195E+02  0.7816164E-02  0.1266605E+00
        -11   -1    0    0    0    0  0.00000000000E+00  0.00000000000E+00  0.45593999997E+02  0.45594000000E+02  0.51100000000E-03 0. -1.
         11   -1    0    0    0    0 -0.00000000000E+00 -0.00000000000E+00 -0.45593999997E+02  0.45594000000E+02  0.51100000000E-03 0.  1.
    9900012    2    1    2    0    0 -0.15227104918E+02 -0.19592172177E+02  0.20025045883E+02  0.59301946663E+02  0.50000004806E+02 0.  0.
        -12    1    1    2    0    0  0.15227104918E+02  0.19592172177E+02 -0.20025045883E+02  0.31886053337E+02  0.00000000000E+00 0.  1.
         11    1    3    3    0    0 -0.96147692821E+00 -0.31915497495E+02  0.14175130321E+02  0.34935050281E+02  0.51100000000E-03 0. -1.
        -11    1    3    3    0    0 -0.16470163920E+02  0.70588226826E+01  0.49383796794E+01  0.18587115735E+02  0.51100000000E-03 0.  1.
         12    1    3    3    0    0  0.22045359304E+01  0.52645026356E+01  0.91153588249E+00  0.57797806476E+01  0.00000000000E+00 0. -1.
</event>
<event>
 7    1  0.5755468E-013  0.5930190E+02  0.7816164E-02  0.1266605E+00
        -11   -1    0    0    0    0  0.00000000000E+00  0.00000000000E+00  0.45593999997E+02  0.45594000000E+02  0.51100000000E-03 0. -1.
         11   -1    0    0    0    0 -0.00000000000E+00 -0.00000000000E+00 -0.45593999997E+02  0.45594000000E+02  0.51100000000E-03 0.  1.
    9900012    2    1    2    0    0  0.10426608853E+02  0.25565578845E+01  0.30024540849E+02  0.59301902503E+02  0.49999924269E+02 0.  0.
        -12    1    1    2    0    0 -0.10426608853E+02 -0.25565578845E+01 -0.30024540849E+02  0.31886097497E+02  0.00000000000E+00 0.  1.
         11    1    3    3    0    0  0.17466465383E+02  0.10596599898E+02  0.88328755934E+01  0.22257246772E+02  0.51100000000E-03 0. -1.
        -11    1    3    3    0    0  0.56260984799E+01 -0.13602709737E+02  0.45571060734E+01  0.15409539653E+02  0.51100000000E-03 0.  1.
         12    1    3    3    0    0 -0.12665955010E+02  0.55626677238E+01  0.16634559182E+02  0.21635116078E+02  0.00000000000E+00 0. -1.
</event>
<event>
 7    1  0.5755468E-013  0.5930195E+02  0.7816164E-02  0.1266605E+00
        -11   -1    0    0    0    0  0.00000000000E+00  0.00000000000E+00  0.45593999997E+02  0.45594000000E+02  0.51100000000E-03 0.  1.
         11   -1    0    0    0    0 -0.00000000000E+00 -0.00000000000E+00 -0.45593999997E+02  0.45594000000E+02  0.51100000000E-03 0. -1.
    9900012    2    1    2    0    0 -0.97032566208E+01 -0.93466501875E+01 -0.28899945246E+02  0.59301954557E+02  0.50000019203E+02 0.  0.
        -12    1    1    2    0    0  0.97032566208E+01  0.93466501875E+01  0.28899945246E+02  0.31886045443E+02  0.00000000000E+00 0.  1.
         11    1    3    3    0    0 -0.50769018144E+01  0.96959051419E+01 -0.34252087242E+02  0.35958183898E+02  0.51100000000E-03 0. -1.
        -11    1    3    3    0    0  0.33801676915E+01 -0.56549670080E+01  0.39504706028E+01  0.76818229431E+01  0.51100000000E-03 0.  1.
         12    1    3    3    0    0 -0.80065224978E+01 -0.13387588321E+02  0.14016713932E+01  0.15661947716E+02  0.00000000000E+00 0. -1.
</event>
<event>
 7    1  0.5755468E-013  0.5930205E+02  0.7816164E-02  0.1266604E+00
        -11   -1    0    0    0    0  0.00000000000E+00  0.00000000000E+00  0.45593999997E+02  0.45594000000E+02  0.51100000000E-03 0. -1.
         11   -1    0    0    0    0 -0.00000000000E+00 -0.00000000000E+00 -0.45593999997E+02  0.45594000000E+02  0.51100000000E-03 0.  1.
    9900012    2    1    2    0    0  0.51624579815E+01  0.16407415149E+02  0.26848822325E+02  0.59302054749E+02  0.50000201929E+02 0.  0.
        -12    1    1    2    0    0 -0.51624579815E+01 -0.16407415149E+02 -0.26848822325E+02  0.31885945251E+02  0.00000000000E+00 0.  1.
         11    1    3    3    0    0  0.29015985759E+01  0.18963988368E+02  0.30086415051E+02  0.35682551759E+02  0.51100000000E-03 0. -1.
        -11    1    3    3    0    0 -0.70674306667E+01  0.69465947867E+01  0.22557667947E-01  0.99098064799E+01  0.51100000000E-03 0.  1.
         12    1    3    3    0    0  0.93282900722E+01 -0.95031680066E+01 -0.32601503933E+01  0.13709696511E+02  0.00000000000E+00 0. -1.
</event>
<event>
 7    1  0.5755468E-013  0.5930190E+02  0.7816164E-02  0.1266605E+00
        -11   -1    0    0    0    0  0.00000000000E+00  0.00000000000E+00  0.45593999997E+02  0.45594000000E+02  0.51100000000E-03 0.  1.
         11   -1    0    0    0    0 -0.00000000000E+00 -0.00000000000E+00 -0.45593999997E+02  0.45594000000E+02  0.51100000000E-03 0. -1.
    9900012    2    1    2    0    0 -0.68199247941E+01 -0.30937981180E+02 -0.36129287789E+01  0.59301901022E+02  0.49999921568E+02 0.  0.
        -12    1    1    2    0    0  0.68199247941E+01  0.30937981180E+02  0.36129287789E+01  0.31886098978E+02  0.00000000000E+00 0.  1.
         11    1    3    3    0    0  0.84920854180E+01 -0.18235417718E+02  0.16346230684E+02  0.25919977468E+02  0.51100000000E-03 0. -1.
        -11    1    3    3    0    0 -0.15026650398E+02 -0.11955982774E+02 -0.23158507249E+02  0.30084251769E+02  0.51100000000E-03 0.  1.
        -12    1    3    3    0    0 -0.28535981451E+00 -0.74658068809E+00  0.31993477857E+01  0.32976717849E+01  0.00000000000E+00 0.  1.
</event>
<event>
 7    1  0.5755468E-013  0.5930193E+02  0.7816164E-02  0.1266605E+00
        -11   -1    0    0    0    0  0.00000000000E+00  0.00000000000E+00  0.45593999997E+02  0.45594000000E+02  0.51100000000E-03 0. -1.
         11   -1    0    0    0    0 -0.00000000000E+00 -0.00000000000E+00 -0.45593999997E+02  0.45594000000E+02  0.51100000000E-03 0.  1.
    9900012    2    1    2    0    0 -0.16289899751E+02  0.83718659382E+01  0.26101191853E+02  0.59301934245E+02  0.49999982158E+02 0.  0.
        -12    1    1    2    0    0  0.16289899751E+02 -0.83718659382E+01 -0.26101191853E+02  0.31886065755E+02  0.00000000000E+00 0.  1.
         11    1    3    3    0    0 -0.53716419139E+01 -0.37148821501E+01  0.93908267730E+01  0.11438641265E+02  0.51100000000E-03 0. -1.
        -11    1    3    3    0    0  0.16003934652E+02  0.62547002722E+01  0.81468442455E+01  0.19016263336E+02  0.51100000000E-03 0.  1.
        -12    1    3    3    0    0 -0.26922192490E+02  0.58320478161E+01  0.85635208348E+01  0.28847029644E+02  0.00000000000E+00 0.  1.
</event>
<event>
 7    1  0.5755468E-013  0.5930193E+02  0.7816164E-02  0.1266605E+00
        -11   -1    0    0    0    0  0.00000000000E+00  0.00000000000E+00  0.45593999997E+02  0.45594000000E+02  0.51100000000E-03 0.  1.
         11   -1    0    0    0    0 -0.00000000000E+00 -0.00000000000E+00 -0.45593999997E+02  0.45594000000E+02  0.51100000000E-03 0. -1.
    9900012    2    1    2    0    0 -0.30354679200E+02  0.31246389737E+01 -0.92494041763E+01  0.59301931009E+02  0.49999976258E+02 0.  0.
        -12    1    1    2    0    0  0.30354679200E+02 -0.31246389737E+01  0.92494041763E+01  0.31886068991E+02  0.00000000000E+00 0.  1.
         11    1    3    3    0    0 -0.17749620161E+02 -0.11226744998E+02  0.45938567578E+00  0.21007138181E+02  0.51100000000E-03 0.  1.
        -11    1    3    3    0    0 -0.38004349809E+01  0.21341646772E+02 -0.14494113136E+02  0.26076589287E+02  0.51100000000E-03 0. -1.
         12    1    3    3    0    0 -0.88046240580E+01 -0.69902628009E+01  0.47853232840E+01  0.12218203541E+02  0.00000000000E+00 0. -1.
</event>
<event>
 7    1  0.5755468E-013  0.5930191E+02  0.7816164E-02  0.1266605E+00
        -11   -1    0    0    0    0  0.00000000000E+00  0.00000000000E+00  0.45593999997E+02  0.45594000000E+02  0.51100000000E-03 0.  1.
         11   -1    0    0    0    0 -0.00000000000E+00 -0.00000000000E+00 -0.45593999997E+02  0.45594000000E+02  0.51100000000E-03 0. -1.
    9900012    2    1    2    0    0 -0.17510704129E+02  0.14019369098E+02 -0.22661755695E+02  0.59301911495E+02  0.49999940668E+02 0.  0.
        -12    1    1    2    0    0  0.17510704129E+02 -0.14019369098E+02  0.22661755695E+02  0.31886088505E+02  0.00000000000E+00 0.  1.
         11    1    3    3    0    0 -0.29890248099E+02  0.74152459971E+01 -0.25501577186E+02  0.39984287462E+02  0.51100000000E-03 0. -1.
        -11    1    3    3    0    0  0.10477781377E+02 -0.16495683899E+01  0.10323076872E+01  0.10656952561E+02  0.51100000000E-03 0.  1.
        -12    1    3    3    0    0  0.19017625934E+01  0.82536914911E+01  0.18075138044E+01  0.86606714719E+01  0.00000000000E+00 0.  1.
</event>
<event>
 7    1  0.5755468E-013  0.5930194E+02  0.7816164E-02  0.1266605E+00
        -11   -1    0    0    0    0  0.00000000000E+00  0.00000000000E+00  0.45593999997E+02  0.45594000000E+02  0.51100000000E-03 0.  1.
         11   -1    0    0    0    0 -0.00000000000E+00 -0.00000000000E+00 -0.45593999997E+02  0.45594000000E+02  0.51100000000E-03 0. -1.
    9900012    2    1    2    0    0 -0.87982281745E+01 -0.28306099189E+02  0.11750604912E+02  0.59301940568E+02  0.49999993690E+02 0.  0.
        -12    1    1    2    0    0  0.87982281745E+01  0.28306099189E+02 -0.11750604912E+02  0.31886059432E+02  0.00000000000E+00 0.  1.
         11    1    3    3    0    0 -0.15746462043E+01 -0.17504943948E+01  0.28603299835E+01  0.37047576399E+01  0.51100000000E-03 0. -1.
        -11    1    3    3    0    0  0.15253234332E+02 -0.25402686268E+02 -0.36148765881E+01  0.29850041210E+02  0.51100000000E-03 0.  1.
        -12    1    3    3    0    0 -0.22476816302E+02 -0.11529185268E+01  0.12505151516E+02  0.25747141718E+02  0.00000000000E+00 0.  1.
</event>
<event>
 7    1  0.5755468E-013  0.5930196E+02  0.7816164E-02  0.1266605E+00
        -11   -1    0    0    0    0  0.00000000000E+00  0.00000000000E+00  0.45593999997E+02  0.45594000000E+02  0.51100000000E-03 0.  1.
         11   -1    0    0    0    0 -0.00000000000E+00 -0.00000000000E+00 -0.45593999997E+02  0.45594000000E+02  0.51100000000E-03 0. -1.
    9900012    2    1    2    0    0 -0.31157852013E+02 -0.10654821752E+01  0.66912370562E+01  0.59301958420E+02  0.50000026248E+02 0.  0.
        -12    1    1    2    0    0  0.31157852013E+02  0.10654821752E+01 -0.66912370562E+01  0.31886041580E+02  0.00000000000E+00 0.  1.
         11    1    3    3    0    0  0.28456862081E+01 -0.32337750878E+01 -0.15972761594E+02  0.16543407887E+02  0.51100000000E-03 0. -1.
        -11    1    3    3    0    0 -0.34635079384E+01 -0.90164681133E-01  0.81781847604E+01  0.88818198105E+01  0.51100000000E-03 0.  1.
         12    1    3    3    0    0 -0.30540030282E+02  0.22584575937E+01  0.14485813890E+02  0.33876730722E+02  0.00000000000E+00 0. -1.
</event>
<event>
 7    1  0.5755468E-013  0.5930195E+02  0.7816164E-02  0.1266605E+00
        -11   -1    0    0    0    0  0.00000000000E+00  0.00000000000E+00  0.45593999997E+02  0.45594000000E+02  0.51100000000E-03 0. -1.
         11   -1    0    0    0    0 -0.00000000000E+00 -0.00000000000E+00 -0.45593999997E+02  0.45594000000E+02  0.51100000000E-03 0.  1.
    9900012    2    1    2    0    0  0.25128889584E+02 -0.15885645583E+02  0.11528451145E+02  0.59301952690E+02  0.50000015797E+02 0.  0.
        -12    1    1    2    0    0 -0.25128889584E+02  0.15885645583E+02 -0.11528451145E+02  0.31886047310E+02  0.00000000000E+00 0.  1.
         11    1    3    3    0    0 -0.20603860155E+01 -0.82900154813E+01  0.77048140670E+01  0.11503638871E+02  0.51100000000E-03 0. -1.
        -11    1    3    3    0    0  0.15869366629E+02  0.74881014770E+01 -0.13539487236E+02  0.22163622804E+02  0.51100000000E-03 0.  1.
        -12    1    3    3    0    0  0.11319908971E+02 -0.15083731578E+02  0.17363124314E+02  0.25634691014E+02  0.00000000000E+00 0.  1.
</event>
<event>
 7    1  0.5755468E-013  0.5930194E+02  0.7816164E-02  0.1266605E+00
        -11   -1    0    0    0    0  0.00000000000E+00  0.00000000000E+00  0.45593999997E+02  0.45594000000E+02  0.51100000000E-03 0.  1.
         11   -1    0    0    0    0 -0.00000000000E+00 -0.00000000000E+00 -0.45593999997E+02  0.45594000000E+02  0.51100000000E-03 0. -1.
    9900012    2    1    2    0    0  0.11529422538E+02  0.27886769354E+02  0.10301532762E+02  0.59301936174E+02  0.49999985676E+02 0.  0.
        -12    1    1    2    0    0 -0.11529422538E+02 -0.27886769354E+02 -0.10301532762E+02  0.31886063826E+02  0.00000000000E+00 0.  1.
         11    1    3    3    0    0  0.11375702528E+02  0.38691099628E+02  0.56075876827E+00  0.40332644955E+02  0.51100000000E-03 0. -1.
        -11    1    3    3    0    0 -0.15904019013E+01 -0.12534013157E+02  0.49197720359E+01  0.13558577403E+02  0.51100000000E-03 0.  1.
         12    1    3    3    0    0  0.17441219110E+01  0.17296828834E+01  0.48210019582E+01  0.54107138159E+01  0.00000000000E+00 0. -1.
</event>
<event>
 7    1  0.5755468E-013  0.5930194E+02  0.7816164E-02  0.1266605E+00
        -11   -1    0    0    0    0  0.00000000000E+00  0.00000000000E+00  0.45593999997E+02  0.45594000000E+02  0.51100000000E-03 0.  1.
         11   -1    0    0    0    0 -0.00000000000E+00 -0.00000000000E+00 -0.45593999997E+02  0.45594000000E+02  0.51100000000E-03 0. -1.
    9900012    2    1    2    0    0  0.13928269124E+02  0.24256415863E+02 -0.15308517771E+02  0.59301935526E+02  0.49999984495E+02 0.  0.
        -12    1    1    2    0    0 -0.13928269124E+02 -0.24256415863E+02  0.15308517771E+02  0.31886064474E+02  0.00000000000E+00 0.  1.
         11    1    3    3    0    0  0.33814935534E+01 -0.87222529094E+00 -0.19208965691E+02  0.19523822341E+02  0.51100000000E-03 0. -1.
        -11    1    3    3    0    0  0.63183715202E+01  0.95227020821E+01  0.15944190146E+02  0.19616851768E+02  0.51100000000E-03 0.  1.
        -12    1    3    3    0    0  0.42284040505E+01  0.15605939072E+02 -0.12043742226E+02  0.20161261417E+02  0.00000000000E+00 0.  1.
</event>
<event>
 7    1  0.5755468E-013  0.5930182E+02  0.7816164E-02  0.1266605E+00
        -11   -1    0    0    0    0  0.00000000000E+00  0.00000000000E+00  0.45593999997E+02  0.45594000000E+02  0.51100000000E-03 0.  1.
         11   -1    0    0    0    0 -0.00000000000E+00 -0.00000000000E+00 -0.45593999997E+02  0.45594000000E+02  0.51100000000E-03 0. -1.
    9900012    2    1    2    0    0 -0.28298744608E+02 -0.44440073567E+01 -0.14005728939E+02  0.59301818182E+02  0.49999770488E+02 0.  0.
        -12    1    1    2    0    0  0.28298744608E+02  0.44440073567E+01  0.14005728939E+02  0.31886181818E+02  0.00000000000E+00 0.  1.
         11    1    3    3    0    0 -0.22335155945E+02  0.11602996078E+02 -0.13647996671E+02  0.28631390509E+02  0.51100000000E-03 0. -1.
        -11    1    3    3    0    0 -0.11056666243E+02 -0.83469202155E+01  0.97808286613E+01  0.16958347651E+02  0.51100000000E-03 0.  1.
         12    1    3    3    0    0  0.50930775798E+01 -0.77000832195E+01 -0.10138560930E+02  0.13712080023E+02  0.00000000000E+00 0. -1.
</event>
<event>
 7    1  0.5755468E-013  0.5930195E+02  0.7816164E-02  0.1266605E+00
        -11   -1    0    0    0    0  0.00000000000E+00  0.00000000000E+00  0.45593999997E+02  0.45594000000E+02  0.51100000000E-03 0.  1.
         11   -1    0    0    0    0 -0.00000000000E+00 -0.00000000000E+00 -0.45593999997E+02  0.45594000000E+02  0.51100000000E-03 0. -1.
    9900012    2    1    2    0    0  0.19418532848E+02 -0.43967857069E+01 -0.24906000678E+02  0.59301952702E+02  0.50000015819E+02 0.  0.
        -12    1    1    2    0    0 -0.19418532848E+02  0.43967857069E+01  0.24906000678E+02  0.31886047298E+02  0.00000000000E+00 0.  1.
         11    1    3    3    0    0  0.13573031636E+02 -0.38162840801E+01 -0.36538553255E+02  0.39164487564E+02  0.51100000000E-03 0. -1.
        -11    1    3    3    0    0 -0.13856777065E+01 -0.67518458322E+01  0.55746045466E+01  0.88647470894E+01  0.51100000000E-03 0.  1.
        -12    1    3    3    0    0  0.72311789185E+01  0.61713442054E+01  0.60579480299E+01  0.11272718048E+02  0.00000000000E+00 0.  1.
</event>
<event>
 7    1  0.5755468E-013  0.5930193E+02  0.7816164E-02  0.1266605E+00
        -11   -1    0    0    0    0  0.00000000000E+00  0.00000000000E+00  0.45593999997E+02  0.45594000000E+02  0.51100000000E-03 0.  1.
         11   -1    0    0    0    0 -0.00000000000E+00 -0.00000000000E+00 -0.45593999997E+02  0.45594000000E+02  0.51100000000E-03 0. -1.
    9900012    2    1    2    0    0  0.13895842858E+02 -0.94322183658E+01 -0.27104622933E+02  0.59301925040E+02  0.49999965371E+02 0.  0.
        -12    1    1    2    0    0 -0.13895842858E+02  0.94322183658E+01  0.27104622933E+02  0.31886074960E+02  0.00000000000E+00 0.  1.
         11    1    3    3    0    0  0.19595557519E+02 -0.16722153786E+02 -0.81696419095E+01  0.27025161441E+02  0.51100000000E-03 0. -1.
        -11    1    3    3    0    0 -0.14984329581E+02  0.19545434946E+01 -0.13522177513E+02  0.20278058542E+02  0.51100000000E-03 0.  1.
        -12    1    3    3    0    0  0.92846149196E+01  0.53353919254E+01 -0.54128035109E+01  0.11998705057E+02  0.00000000000E+00 0.  1.
</event>
<event>
 7    1  0.5755468E-013  0.5930196E+02  0.7816164E-02  0.1266605E+00
        -11   -1    0    0    0    0  0.00000000000E+00  0.00000000000E+00  0.45593999997E+02  0.45594000000E+02  0.51100000000E-03 0. -1.
         11   -1    0    0    0    0 -0.00000000000E+00 -0.00000000000E+00 -0.45593999997E+02  0.45594000000E+02  0.51100000000E-03 0.  1.
    9900012    2    1    2    0    0  0.25871439761E+02 -0.17938338491E+02  0.50600732332E+01  0.59301957218E+02  0.50000024057E+02 0.  0.
        -12    1    1    2    0    0 -0.25871439761E+02  0.17938338491E+02 -0.50600732332E+01  0.31886042782E+02  0.00000000000E+00 0.  1.
         11    1    3    3    0    0  0.24958889658E+02 -0.76125397502E+01 -0.13637904218E+02  0.29442985007E+02  0.51100000000E-03 0. -1.
        -11    1    3    3    0    0 -0.48401860052E+01 -0.14669931501E+02  0.93599980530E+01  0.18062221752E+02  0.51100000000E-03 0.  1.
         12    1    3    3    0    0  0.57527361089E+01  0.43441327600E+01  0.93379793981E+01  0.11796750460E+02  0.00000000000E+00 0. -1.
</event>
<event>
 7    1  0.5755468E-013  0.5930207E+02  0.7816164E-02  0.1266604E+00
        -11   -1    0    0    0    0  0.00000000000E+00  0.00000000000E+00  0.45593999997E+02  0.45594000000E+02  0.51100000000E-03 0.  1.
         11   -1    0    0    0    0 -0.00000000000E+00 -0.00000000000E+00 -0.45593999997E+02  0.45594000000E+02  0.51100000000E-03 0. -1.
    9900012    2    1    2    0    0 -0.30998650874E+02  0.70621509988E+01  0.24335228004E+01  0.59302072603E+02  0.50000234491E+02 0.  0.
        -12    1    1    2    0    0  0.30998650874E+02 -0.70621509988E+01 -0.24335228004E+01  0.31885927397E+02  0.00000000000E+00 0.  1.
         11    1    3    3    0    0 -0.14124399583E+01  0.28242261180E+01  0.20385224304E+02  0.20628344819E+02  0.51100000000E-03 0. -1.
        -11    1    3    3    0    0 -0.33952360469E+00 -0.32604152140E+01 -0.46295984902E+01  0.56726330824E+01  0.51100000000E-03 0.  1.
         12    1    3    3    0    0 -0.29246687311E+02  0.74983400948E+01 -0.13322103013E+02  0.33001094702E+02  0.00000000000E+00 0. -1.
</event>
<event>
 7    1  0.5755468E-013  0.5930194E+02  0.7816164E-02  0.1266605E+00
        -11   -1    0    0    0    0  0.00000000000E+00  0.00000000000E+00  0.45593999997E+02  0.45594000000E+02  0.51100000000E-03 0. -1.
         11   -1    0    0    0    0 -0.00000000000E+00 -0.00000000000E+00 -0.45593999997E+02  0.45594000000E+02  0.51100000000E-03 0.  1.
    9900012    2    1    2    0    0  0.18234435004E+02  0.12999170773E+02  0.22699076455E+02  0.59301935135E+02  0.49999983781E+02 0.  0.
        -12    1    1    2    0    0 -0.18234435004E+02 -0.12999170773E+02 -0.22699076455E+02  0.31886064865E+02  0.00000000000E+00 0.  1.
         11    1    3    3    0    0 -0.68380731990E+00 -0.31134862066E+01  0.25607303237E+02  0.25804948520E+02  0.51100000000E-03 0. -1.
        -11    1    3    3    0    0  0.37533127020E+00  0.80165046957E+01 -0.92944602800E+01  0.12279748094E+02  0.51100000000E-03 0.  1.
        -12    1    3    3    0    0  0.18542911054E+02  0.80961522837E+01  0.63862334980E+01  0.21217238521E+02  0.00000000000E+00 0.  1.
</event>
<event>
 7    1  0.5755468E-013  0.5930196E+02  0.7816164E-02  0.1266605E+00
        -11   -1    0    0    0    0  0.00000000000E+00  0.00000000000E+00  0.45593999997E+02  0.45594000000E+02  0.51100000000E-03 0. -1.
         11   -1    0    0    0    0 -0.00000000000E+00 -0.00000000000E+00 -0.45593999997E+02  0.45594000000E+02  0.51100000000E-03 0.  1.
    9900012    2    1    2    0    0  0.39221806982E+01  0.27468434780E+02  0.15710544803E+02  0.59301958717E+02  0.50000026789E+02 0.  0.
        -12    1    1    2    0    0 -0.39221806982E+01 -0.27468434780E+02 -0.15710544803E+02  0.31886041283E+02  0.00000000000E+00 0.  1.
         11    1    3    3    0    0  0.14340128672E+02  0.28519042794E+02  0.24302302846E+02  0.40119534097E+02  0.51100000000E-03 0. -1.
        -11    1    3    3    0    0 -0.87065632348E+00 -0.60228443544E+01 -0.48650152177E+01  0.77910891332E+01  0.51100000000E-03 0.  1.
         12    1    3    3    0    0 -0.95472916506E+01  0.49722363404E+01 -0.37267428251E+01  0.11391335487E+02  0.00000000000E+00 0. -1.
</event>
<event>
 7    1  0.5755468E-013  0.5930196E+02  0.7816164E-02  0.1266605E+00
        -11   -1    0    0    0    0  0.00000000000E+00  0.00000000000E+00  0.45593999997E+02  0.45594000000E+02  0.51100000000E-03 0.  1.
         11   -1    0    0    0    0 -0.00000000000E+00 -0.00000000000E+00 -0.45593999997E+02  0.45594000000E+02  0.51100000000E-03 0. -1.
    9900012    2    1    2    0    0 -0.22868678681E+02  0.68990634301E+01 -0.21122176036E+02  0.59301955069E+02  0.50000020137E+02 0.  0.
        -12    1    1    2    0    0  0.22868678681E+02 -0.68990634301E+01  0.21122176036E+02  0.31886044931E+02  0.00000000000E+00 0.  1.
         11    1    3    3    0    0 -0.65314461109E+01 -0.10870124025E+02  0.73850787681E+00  0.12702943704E+02  0.51100000000E-03 0. -1.
        -11    1    3    3    0    0  0.13909526238E+01  0.15903313821E+02  0.27616732186E+01  0.16201141285E+02  0.51100000000E-03 0.  1.
         12    1    3    3    0    0 -0.17728185194E+02  0.18658736334E+01 -0.24622357131E+02  0.30397870080E+02  0.00000000000E+00 0. -1.
</event>
<event>
 7    1  0.5755468E-013  0.5930193E+02  0.7816164E-02  0.1266605E+00
        -11   -1    0    0    0    0  0.00000000000E+00  0.00000000000E+00  0.45593999997E+02  0.45594000000E+02  0.51100000000E-03 0.  1.
         11   -1    0    0    0    0 -0.00000000000E+00 -0.00000000000E+00 -0.45593999997E+02  0.45594000000E+02  0.51100000000E-03 0. -1.
    9900012    2    1    2    0    0 -0.20020518115E+02 -0.17952131117E+02  0.17135386455E+02  0.59301927394E+02  0.49999969665E+02 0.  0.
        -12    1    1    2    0    0  0.20020518115E+02  0.17952131117E+02 -0.17135386455E+02  0.31886072606E+02  0.00000000000E+00 0.  1.
         11    1    3    3    0    0 -0.23354343459E+02 -0.26848622962E+02  0.65498477356E-01  0.35584802988E+02  0.51100000000E-03 0.  1.
        -11    1    3    3    0    0  0.14986561964E+00  0.88955090571E+01  0.18264755296E+02  0.20316343849E+02  0.51100000000E-03 0. -1.
         12    1    3    3    0    0  0.31839597246E+01  0.98278791572E-03 -0.11948673182E+01  0.34007805577E+01  0.00000000000E+00 0. -1.
</event>
<event>
 7    1  0.5755468E-013  0.5930195E+02  0.7816164E-02  0.1266605E+00
        -11   -1    0    0    0    0  0.00000000000E+00  0.00000000000E+00  0.45593999997E+02  0.45594000000E+02  0.51100000000E-03 0.  1.
         11   -1    0    0    0    0 -0.00000000000E+00 -0.00000000000E+00 -0.45593999997E+02  0.45594000000E+02  0.51100000000E-03 0. -1.
    9900012    2    1    2    0    0  0.16889011157E+02  0.25414510280E+02 -0.92511847748E+01  0.59301945833E+02  0.50000003291E+02 0.  0.
        -12    1    1    2    0    0 -0.16889011157E+02 -0.25414510280E+02  0.92511847748E+01  0.31886054167E+02  0.00000000000E+00 0.  1.
         11    1    3    3    0    0  0.92779439592E+01  0.37114114558E+02 -0.10388741616E+02  0.39641691389E+02  0.51100000000E-03 0. -1.
        -11    1    3    3    0    0 -0.40519237069E+01 -0.26204653376E+01 -0.11682838904E+00  0.48268595843E+01  0.51100000000E-03 0.  1.
         12    1    3    3    0    0  0.11662990905E+02 -0.90791389406E+01  0.12543852304E+01  0.14833394859E+02  0.00000000000E+00 0. -1.
</event>
<event>
 7    1  0.5755468E-013  0.5930194E+02  0.7816164E-02  0.1266605E+00
        -11   -1    0    0    0    0  0.00000000000E+00  0.00000000000E+00  0.45593999997E+02  0.45594000000E+02  0.51100000000E-03 0.  1.
         11   -1    0    0    0    0 -0.00000000000E+00 -0.00000000000E+00 -0.45593999997E+02  0.45594000000E+02  0.51100000000E-03 0. -1.
    9900012    2    1    2    0    0 -0.20145684967E+02 -0.15189195360E+02  0.19497708515E+02  0.59301938534E+02  0.49999989981E+02 0.  0.
        -12    1    1    2    0    0  0.20145684967E+02  0.15189195360E+02 -0.19497708515E+02  0.31886061466E+02  0.00000000000E+00 0.  1.
         11    1    3    3    0    0 -0.22668454323E+02 -0.66914162685E+01  0.24402208483E+02  0.33972071650E+02  0.51100000000E-03 0. -1.
        -11    1    3    3    0    0  0.33235356456E+01  0.48886278101E+01 -0.94700855391E+01  0.11163650453E+02  0.51100000000E-03 0.  1.
         12    1    3    3    0    0 -0.80076628994E+00 -0.13386406902E+02  0.45655855702E+01  0.14166216432E+02  0.00000000000E+00 0. -1.
</event>
<event>
 7    1  0.5755468E-013  0.5930213E+02  0.7816164E-02  0.1266604E+00
        -11   -1    0    0    0    0  0.00000000000E+00  0.00000000000E+00  0.45593999997E+02  0.45594000000E+02  0.51100000000E-03 0. -1.
         11   -1    0    0    0    0 -0.00000000000E+00 -0.00000000000E+00 -0.45593999997E+02  0.45594000000E+02  0.51100000000E-03 0.  1.
    9900012    2    1    2    0    0 -0.16369149902E+02 -0.27137818362E+02  0.35069050404E+01  0.59302131078E+02  0.50000341133E+02 0.  0.
        -12    1    1    2    0    0  0.16369149902E+02  0.27137818362E+02 -0.35069050404E+01  0.31885868922E+02  0.00000000000E+00 0.  1.
         11    1    3    3    0    0  0.44373174459E+01 -0.24060201008E+02  0.20885010706E+01  0.24554936278E+02  0.51100000000E-03 0. -1.
        -11    1    3    3    0    0 -0.20701364581E+02 -0.97237303632E+01  0.90767285772E+01  0.24606593214E+02  0.51100000000E-03 0.  1.
        -12    1    3    3    0    0 -0.10510276691E+00  0.66461130086E+01 -0.76583246075E+01  0.10140601585E+02  0.00000000000E+00 0.  1.
</event>
<event>
 7    1  0.5755468E-013  0.5930192E+02  0.7816164E-02  0.1266605E+00
        -11   -1    0    0    0    0  0.00000000000E+00  0.00000000000E+00  0.45593999997E+02  0.45594000000E+02  0.51100000000E-03 0. -1.
         11   -1    0    0    0    0 -0.00000000000E+00 -0.00000000000E+00 -0.45593999997E+02  0.45594000000E+02  0.51100000000E-03 0.  1.
    9900012    2    1    2    0    0 -0.91558141304E+00  0.25273396487E+02  0.19420071567E+02  0.59301920922E+02  0.49999957861E+02 0.  0.
        -12    1    1    2    0    0  0.91558141304E+00 -0.25273396487E+02 -0.19420071567E+02  0.31886079078E+02  0.00000000000E+00 0.  1.
         11    1    3    3    0    0 -0.91955934061E+01 -0.28178538081E+01  0.19532171633E+02  0.21771655131E+02  0.51100000000E-03 0. -1.
        -11    1    3    3    0    0 -0.20442958951E+01  0.26083716544E+02 -0.36857689183E+01  0.26422042072E+02  0.51100000000E-03 0.  1.
        -12    1    3    3    0    0  0.10324307888E+02  0.20075337506E+01  0.35736688516E+01  0.11108223719E+02  0.00000000000E+00 0.  1.
</event>
<event>
 7    1  0.5755468E-013  0.5930197E+02  0.7816164E-02  0.1266605E+00
        -11   -1    0    0    0    0  0.00000000000E+00  0.00000000000E+00  0.45593999997E+02  0.45594000000E+02  0.51100000000E-03 0. -1.
         11   -1    0    0    0    0 -0.00000000000E+00 -0.00000000000E+00 -0.45593999997E+02  0.45594000000E+02  0.51100000000E-03 0.  1.
    9900012    2    1    2    0    0 -0.22479691752E+02 -0.18672251725E+02 -0.12756538439E+02  0.59301971732E+02  0.50000050526E+02 0.  0.
        -12    1    1    2    0    0  0.22479691752E+02  0.18672251725E+02  0.12756538439E+02  0.31886028268E+02  0.00000000000E+00 0.  1.
         11    1    3    3    0    0 -0.50297336000E+01 -0.12594332137E+02  0.58738966000E+01  0.14778974375E+02  0.51100000000E-03 0. -1.
        -11    1    3    3    0    0 -0.52980696473E+00  0.79996508047E+01 -0.20910321955E+02  0.22394567934E+02  0.51100000000E-03 0.  1.
        -12    1    3    3    0    0 -0.16920151187E+02 -0.14077570393E+02  0.22798869166E+01  0.22128429423E+02  0.00000000000E+00 0.  1.
</event>
<event>
 7    1  0.5755468E-013  0.5930192E+02  0.7816164E-02  0.1266605E+00
        -11   -1    0    0    0    0  0.00000000000E+00  0.00000000000E+00  0.45593999997E+02  0.45594000000E+02  0.51100000000E-03 0. -1.
         11   -1    0    0    0    0 -0.00000000000E+00 -0.00000000000E+00 -0.45593999997E+02  0.45594000000E+02  0.51100000000E-03 0.  1.
    9900012    2    1    2    0    0  0.28324947896E+01 -0.12917229015E+02  0.29014548486E+02  0.59301923791E+02  0.49999963094E+02 0.  0.
        -12    1    1    2    0    0 -0.28324947896E+01  0.12917229015E+02 -0.29014548486E+02  0.31886076209E+02  0.00000000000E+00 0.  1.
         11    1    3    3    0    0  0.11010423790E+02  0.66511444120E+01  0.57480946851E+01  0.14089277724E+02  0.51100000000E-03 0.  1.
        -11    1    3    3    0    0 -0.12781461107E+02 -0.10057875886E+02  0.28956752829E+02  0.33211747169E+02  0.51100000000E-03 0. -1.
        -12    1    3    3    0    0  0.46035321070E+01 -0.95104975407E+01 -0.56902990283E+01  0.12000898898E+02  0.00000000000E+00 0.  1.
</event>
<event>
 7    1  0.5755468E-013  0.5930196E+02  0.7816164E-02  0.1266605E+00
        -11   -1    0    0    0    0  0.00000000000E+00  0.00000000000E+00  0.45593999997E+02  0.45594000000E+02  0.51100000000E-03 0. -1.
         11   -1    0    0    0    0 -0.00000000000E+00 -0.00000000000E+00 -0.45593999997E+02  0.45594000000E+02  0.51100000000E-03 0.  1.
    9900012    2    1    2    0    0 -0.23167518884E+02  0.20925900755E+02  0.64878418139E+01  0.59301963165E+02  0.50000034902E+02 0.  0.
        -12    1    1    2    0    0  0.23167518884E+02 -0.20925900755E+02 -0.64878418139E+01  0.31886036835E+02  0.00000000000E+00 0.  1.
         11    1    3    3    0    0 -0.15589399233E+01  0.16526193660E+02  0.24870168582E+02  0.29901014300E+02  0.51100000000E-03 0. -1.
        -11    1    3    3    0    0 -0.83792153401E+01 -0.12334554308E+01 -0.81419302414E+01  0.11748348409E+02  0.51100000000E-03 0.  1.
         12    1    3    3    0    0 -0.13229363621E+02  0.56331625257E+01 -0.10240396527E+02  0.17652600457E+02  0.00000000000E+00 0. -1.
</event>
<event>
 7    1  0.7003564E-013  0.5930194E+02  0.7816164E-02  0.1266605E+00
        -11   -1    0    0    0    0  0.00000000000E+00  0.00000000000E+00  0.45593999997E+02  0.45594000000E+02  0.51100000000E-03 0. -1.
         11   -1    0    0    0    0 -0.00000000000E+00 -0.00000000000E+00 -0.45593999997E+02  0.45594000000E+02  0.51100000000E-03 0.  1.
    9900012    2    1    2    0    0 -0.24105038407E+02 -0.60458766955E+00  0.20863903698E+02  0.59301939090E+02  0.49999990995E+02 0.  0.
        -12    1    1    2    0    0  0.24105038407E+02  0.60458766955E+00 -0.20863903698E+02  0.31886060910E+02  0.00000000000E+00 0.  1.
         11    1    3    3    0    0 -0.11603074777E+02 -0.13396719663E+02  0.28655118137E+02  0.33693014672E+02  0.51100000000E-03 0. -1.
        -11    1    3    3    0    0 -0.40559421200E+01  0.48742891077E+01 -0.11768184245E+02  0.13367854034E+02  0.51100000000E-03 0.  1.
         12    1    3    3    0    0 -0.84460215100E+01  0.79178428860E+01  0.39769698058E+01  0.12241070384E+02  0.00000000000E+00 0. -1.
</event>
<event>
 7    1  0.5755468E-013  0.5930195E+02  0.7816164E-02  0.1266605E+00
        -11   -1    0    0    0    0  0.00000000000E+00  0.00000000000E+00  0.45593999997E+02  0.45594000000E+02  0.51100000000E-03 0.  1.
         11   -1    0    0    0    0 -0.00000000000E+00 -0.00000000000E+00 -0.45593999997E+02  0.45594000000E+02  0.51100000000E-03 0. -1.
    9900012    2    1    2    0    0 -0.57841373631E+01  0.19853805480E+01 -0.31294125802E+02  0.59301948337E+02  0.50000007859E+02 0.  0.
        -12    1    1    2    0    0  0.57841373631E+01 -0.19853805480E+01  0.31294125802E+02  0.31886051663E+02  0.00000000000E+00 0.  1.
         11    1    3    3    0    0  0.14948380887E+02 -0.13738689685E+02 -0.99805998774E+01  0.22623396287E+02  0.51100000000E-03 0. -1.
        -11    1    3    3    0    0 -0.12232152402E+02  0.37150381250E+01 -0.28996729589E+01  0.13108591236E+02  0.51100000000E-03 0.  1.
         12    1    3    3    0    0 -0.85003658482E+01  0.12009032108E+02 -0.18413852966E+02  0.23569960814E+02  0.00000000000E+00 0. -1.
</event>
<event>
 7    1  0.5755468E-013  0.5930195E+02  0.7816164E-02  0.1266605E+00
        -11   -1    0    0    0    0  0.00000000000E+00  0.00000000000E+00  0.45593999997E+02  0.45594000000E+02  0.51100000000E-03 0.  1.
         11   -1    0    0    0    0 -0.00000000000E+00 -0.00000000000E+00 -0.45593999997E+02  0.45594000000E+02  0.51100000000E-03 0. -1.
    9900012    2    1    2    0    0 -0.38585960111E-01 -0.60964375825E+01 -0.31297795897E+02  0.59301951827E+02  0.50000014223E+02 0.  0.
        -12    1    1    2    0    0  0.38585960111E-01  0.60964375825E+01  0.31297795897E+02  0.31886048173E+02  0.00000000000E+00 0.  1.
         11    1    3    3    0    0  0.15438694724E+02  0.36370654935E+01  0.31052732507E+00  0.15864361558E+02  0.51100000000E-03 0. -1.
        -11    1    3    3    0    0 -0.15227598769E+02  0.36426493903E+01 -0.12124636619E+02  0.19802915751E+02  0.51100000000E-03 0.  1.
         12    1    3    3    0    0 -0.24968191526E+00 -0.13376152466E+02 -0.19483686604E+02  0.23634674517E+02  0.00000000000E+00 0. -1.
</event>
<event>
 7    1  0.5755468E-013  0.5930197E+02  0.7816164E-02  0.1266605E+00
        -11   -1    0    0    0    0  0.00000000000E+00  0.00000000000E+00  0.45593999997E+02  0.45594000000E+02  0.51100000000E-03 0.  1.
         11   -1    0    0    0    0 -0.00000000000E+00 -0.00000000000E+00 -0.45593999997E+02  0.45594000000E+02  0.51100000000E-03 0. -1.
    9900012    2    1    2    0    0  0.21014989327E+02  0.45673270198E+00 -0.23976660795E+02  0.59301974157E+02  0.50000054949E+02 0.  0.
        -12    1    1    2    0    0 -0.21014989327E+02 -0.45673270198E+00  0.23976660795E+02  0.31886025843E+02  0.00000000000E+00 0.  1.
         11    1    3    3    0    0  0.12477068277E+02 -0.39894741524E+01 -0.93995957348E+01  0.16122826583E+02  0.51100000000E-03 0. -1.
        -11    1    3    3    0    0 -0.54125420874E+01  0.13817422197E+02 -0.20546085353E+02  0.25344790226E+02  0.51100000000E-03 0.  1.
        -12    1    3    3    0    0  0.13950463138E+02 -0.93712153424E+01  0.59690202933E+01  0.17834357348E+02  0.00000000000E+00 0.  1.
</event>
<event>
 7    1  0.5755468E-013  0.5930194E+02  0.7816164E-02  0.1266605E+00
        -11   -1    0    0    0    0  0.00000000000E+00  0.00000000000E+00  0.45593999997E+02  0.45594000000E+02  0.51100000000E-03 0.  1.
         11   -1    0    0    0    0 -0.00000000000E+00 -0.00000000000E+00 -0.45593999997E+02  0.45594000000E+02  0.51100000000E-03 0. -1.
    9900012    2    1    2    0    0  0.15583466257E+02  0.24006974399E+02 -0.14054950039E+02  0.59301939394E+02  0.49999991550E+02 0.  0.
        -12    1    1    2    0    0 -0.15583466257E+02 -0.24006974399E+02  0.14054950039E+02  0.31886060606E+02  0.00000000000E+00 0.  1.
         11    1    3    3    0    0 -0.11599233749E+02  0.60311602139E+00  0.54812831983E+01  0.12843303246E+02  0.51100000000E-03 0. -1.
        -11    1    3    3    0    0  0.22458344597E+02  0.71668117489E+01 -0.48648015625E+01  0.24070868850E+02  0.51100000000E-03 0.  1.
         12    1    3    3    0    0  0.47243554093E+01  0.16237046628E+02 -0.14671431674E+02  0.22387767299E+02  0.00000000000E+00 0. -1.
</event>
<event>
 7    1  0.5755468E-013  0.5930195E+02  0.7816164E-02  0.1266605E+00
        -11   -1    0    0    0    0  0.00000000000E+00  0.00000000000E+00  0.45593999997E+02  0.45594000000E+02  0.51100000000E-03 0. -1.
         11   -1    0    0    0    0 -0.00000000000E+00 -0.00000000000E+00 -0.45593999997E+02  0.45594000000E+02  0.51100000000E-03 0.  1.
    9900012    2    1    2    0    0  0.14904517659E+02  0.27274674799E+02  0.71181393625E+01  0.59301945995E+02  0.50000003587E+02 0.  0.
        -12    1    1    2    0    0 -0.14904517659E+02 -0.27274674799E+02 -0.71181393625E+01  0.31886054005E+02  0.00000000000E+00 0.  1.
         11    1    3    3    0    0 -0.18619425781E+01 -0.62539475921E+01  0.10649186906E+02  0.12489350370E+02  0.51100000000E-03 0. -1.
        -11    1    3    3    0    0  0.12503293273E+02  0.35644504832E+02  0.39142254844E+01  0.37976100758E+02  0.51100000000E-03 0.  1.
         12    1    3    3    0    0  0.42631669643E+01 -0.21158824409E+01 -0.74452730276E+01  0.88364948664E+01  0.00000000000E+00 0. -1.
</event>
<event>
 7    1  0.5755468E-013  0.5930195E+02  0.7816164E-02  0.1266605E+00
        -11   -1    0    0    0    0  0.00000000000E+00  0.00000000000E+00  0.45593999997E+02  0.45594000000E+02  0.51100000000E-03 0. -1.
         11   -1    0    0    0    0 -0.00000000000E+00 -0.00000000000E+00 -0.45593999997E+02  0.45594000000E+02  0.51100000000E-03 0.  1.
    9900012    2    1    2    0    0  0.55572937943E+01 -0.18914233664E+01  0.31341016842E+02  0.59301947667E+02  0.50000006637E+02 0.  0.
        -12    1    1    2    0    0 -0.55572937943E+01  0.18914233664E+01 -0.31341016842E+02  0.31886052333E+02  0.00000000000E+00 0.  1.
         11    1    3    3    0    0 -0.28353965405E+01  0.10939153608E+01  0.87645976042E-01  0.30403628791E+01  0.51100000000E-03 0. -1.
        -11    1    3    3    0    0  0.19909708649E+02 -0.15721547550E+02  0.29641003666E+02  0.39014774822E+02  0.51100000000E-03 0.  1.
        -12    1    3    3    0    0 -0.11517018314E+02  0.12736208823E+02  0.16123672007E+01  0.17246809966E+02  0.00000000000E+00 0.  1.
</event>
<event>
 7    1  0.5755468E-013  0.5930196E+02  0.7816164E-02  0.1266605E+00
        -11   -1    0    0    0    0  0.00000000000E+00  0.00000000000E+00  0.45593999997E+02  0.45594000000E+02  0.51100000000E-03 0.  1.
         11   -1    0    0    0    0 -0.00000000000E+00 -0.00000000000E+00 -0.45593999997E+02  0.45594000000E+02  0.51100000000E-03 0. -1.
    9900012    2    1    2    0    0 -0.17987587156E+02 -0.11020768358E+02 -0.23910437700E+02  0.59301958259E+02  0.50000025954E+02 0.  0.
        -12    1    1    2    0    0  0.17987587156E+02  0.11020768358E+02  0.23910437700E+02  0.31886041741E+02  0.00000000000E+00 0.  1.
         11    1    3    3    0    0 -0.73029402164E+01 -0.16358123467E+02 -0.14978056815E+02  0.23350874189E+02  0.51100000000E-03 0. -1.
        -11    1    3    3    0    0 -0.11314994075E+02  0.31658075248E+01  0.10878078052E+02  0.16011995833E+02  0.51100000000E-03 0.  1.
         12    1    3    3    0    0  0.63034713546E+00  0.21715475838E+01 -0.19810458937E+02  0.19939088237E+02  0.00000000000E+00 0. -1.
</event>
<event>
 7    1  0.5755468E-013  0.5930203E+02  0.7816164E-02  0.1266604E+00
        -11   -1    0    0    0    0  0.00000000000E+00  0.00000000000E+00  0.45593999997E+02  0.45594000000E+02  0.51100000000E-03 0. -1.
         11   -1    0    0    0    0 -0.00000000000E+00 -0.00000000000E+00 -0.45593999997E+02  0.45594000000E+02  0.51100000000E-03 0.  1.
    9900012    2    1    2    0    0 -0.12090249052E+02 -0.28216734675E+02  0.86230438176E+01  0.59302029377E+02  0.50000155657E+02 0.  0.
        -12    1    1    2    0    0  0.12090249052E+02  0.28216734675E+02 -0.86230438176E+01  0.31885970623E+02  0.00000000000E+00 0.  1.
         11    1    3    3    0    0  0.13372712436E+01 -0.23721658565E+02 -0.46048372462E+01  0.24201444291E+02  0.51100000000E-03 0. -1.
        -11    1    3    3    0    0 -0.99282708454E+01  0.99396867685E+01 -0.15676644875E+01  0.14135965027E+02  0.51100000000E-03 0.  1.
         12    1    3    3    0    0 -0.34992494500E+01 -0.14434762879E+02  0.14795545551E+02  0.20964620060E+02  0.00000000000E+00 0. -1.
</event>
<event>
 7    1  0.5755468E-013  0.5930193E+02  0.7816164E-02  0.1266605E+00
        -11   -1    0    0    0    0  0.00000000000E+00  0.00000000000E+00  0.45593999997E+02  0.45594000000E+02  0.51100000000E-03 0.  1.
         11   -1    0    0    0    0 -0.00000000000E+00 -0.00000000000E+00 -0.45593999997E+02  0.45594000000E+02  0.51100000000E-03 0. -1.
    9900012    2    1    2    0    0 -0.27108409353E+02  0.55537990085E+00 -0.16779366846E+02  0.59301930060E+02  0.49999974527E+02 0.  0.
        -12    1    1    2    0    0  0.27108409353E+02 -0.55537990085E+00  0.16779366846E+02  0.31886069940E+02  0.00000000000E+00 0.  1.
         11    1    3    3    0    0 -0.11264039666E+01 -0.12100765032E+02 -0.18828581302E+02  0.22410104291E+02  0.51100000000E-03 0. -1.
        -11    1    3    3    0    0 -0.25547923661E+02  0.67671108982E+01  0.88628699467E+01  0.27875449005E+02  0.51100000000E-03 0.  1.
        -12    1    3    3    0    0 -0.43408172506E+00  0.58890340344E+01 -0.68136554904E+01  0.90163767636E+01  0.00000000000E+00 0.  1.
</event>
<event>
 7    1  0.5755468E-013  0.5930197E+02  0.7816164E-02  0.1266605E+00
        -11   -1    0    0    0    0  0.00000000000E+00  0.00000000000E+00  0.45593999997E+02  0.45594000000E+02  0.51100000000E-03 0. -1.
         11   -1    0    0    0    0 -0.00000000000E+00 -0.00000000000E+00 -0.45593999997E+02  0.45594000000E+02  0.51100000000E-03 0.  1.
    9900012    2    1    2    0    0 -0.82405293731E+01 -0.36837591090E+01  0.30581730258E+02  0.59301974361E+02  0.50000055320E+02 0.  0.
        -12    1    1    2    0    0  0.82405293731E+01  0.36837591090E+01 -0.30581730258E+02  0.31886025639E+02  0.00000000000E+00 0.  1.
         11    1    3    3    0    0 -0.12828373898E+02 -0.49822098273E+01 -0.35952867221E+01  0.14223771599E+02  0.51100000000E-03 0. -1.
        -11    1    3    3    0    0  0.15565584976E+02  0.50068688599E+01  0.12809476636E+02  0.20771106455E+02  0.51100000000E-03 0.  1.
        -12    1    3    3    0    0 -0.10977740451E+02 -0.37084181416E+01  0.21367540343E+02  0.24307096306E+02  0.00000000000E+00 0.  1.
</event>
<event>
 7    1  0.5755468E-013  0.5930195E+02  0.7816164E-02  0.1266605E+00
        -11   -1    0    0    0    0  0.00000000000E+00  0.00000000000E+00  0.45593999997E+02  0.45594000000E+02  0.51100000000E-03 0.  1.
         11   -1    0    0    0    0 -0.00000000000E+00 -0.00000000000E+00 -0.45593999997E+02  0.45594000000E+02  0.51100000000E-03 0. -1.
    9900012    2    1    2    0    0  0.26403018131E+02  0.12039301791E+02 -0.13215755241E+02  0.59301947553E+02  0.50000006430E+02 0.  0.
        -12    1    1    2    0    0 -0.26403018131E+02 -0.12039301791E+02  0.13215755241E+02  0.31886052447E+02  0.00000000000E+00 0.  1.
         11    1    3    3    0    0 -0.12875657610E+02  0.74671671104E+00 -0.52937751998E+01  0.13941456196E+02  0.51100000000E-03 0. -1.
        -11    1    3    3    0    0  0.16180202316E+02  0.10137197658E+02  0.37444656686E+01  0.19457202953E+02  0.51100000000E-03 0.  1.
        -12    1    3    3    0    0  0.23098473425E+02  0.11553874224E+01 -0.11666445710E+02  0.25903288404E+02  0.00000000000E+00 0.  1.
</event>
<event>
 7    1  0.5755468E-013  0.5930190E+02  0.7816164E-02  0.1266605E+00
        -11   -1    0    0    0    0  0.00000000000E+00  0.00000000000E+00  0.45593999997E+02  0.45594000000E+02  0.51100000000E-03 0. -1.
         11   -1    0    0    0    0 -0.00000000000E+00 -0.00000000000E+00 -0.45593999997E+02  0.45594000000E+02  0.51100000000E-03 0.  1.
    9900012    2    1    2    0    0 -0.55026785568E+01  0.31407026927E+02 -0.20570236503E+00  0.59301903890E+02  0.49999926798E+02 0.  0.
        -12    1    1    2    0    0  0.55026785568E+01 -0.31407026927E+02  0.20570236503E+00  0.31886096110E+02  0.00000000000E+00 0.  1.
         11    1    3    3    0    0  0.52252291752E+01  0.37894584183E+01 -0.64716128958E+01  0.91402838452E+01  0.51100000000E-03 0. -1.
        -11    1    3    3    0    0 -0.24418168260E+02  0.15635051700E+02  0.11558695225E+02  0.31213862599E+02  0.51100000000E-03 0.  1.
        -12    1    3    3    0    0  0.13690260528E+02  0.11982516809E+02 -0.52927846939E+01  0.18947757445E+02  0.00000000000E+00 0.  1.
</event>
<event>
 7    1  0.5755468E-013  0.5930197E+02  0.7816164E-02  0.1266605E+00
        -11   -1    0    0    0    0  0.00000000000E+00  0.00000000000E+00  0.45593999997E+02  0.45594000000E+02  0.51100000000E-03 0.  1.
         11   -1    0    0    0    0 -0.00000000000E+00 -0.00000000000E+00 -0.45593999997E+02  0.45594000000E+02  0.51100000000E-03 0. -1.
    9900012    2    1    2    0    0 -0.23881916737E+02 -0.18368373846E+02 -0.10439143621E+02  0.59301971330E+02  0.50000049793E+02 0.  0.
        -12    1    1    2    0    0  0.23881916737E+02  0.18368373846E+02  0.10439143621E+02  0.31886028670E+02  0.00000000000E+00 0.  1.
         11    1    3    3    0    0 -0.17386304704E+02 -0.28396131566E+02 -0.10053232735E+02  0.34780617704E+02  0.51100000000E-03 0. -1.
        -11    1    3    3    0    0 -0.48410728673E+01  0.10935878756E+02  0.89873200312E+01  0.14959991720E+02  0.51100000000E-03 0.  1.
         12    1    3    3    0    0 -0.16545391659E+01 -0.90812103533E+00 -0.93732309170E+01  0.95613619056E+01  0.00000000000E+00 0. -1.
</event>
<event>
 7    1  0.5755468E-013  0.5930192E+02  0.7816164E-02  0.1266605E+00
        -11   -1    0    0    0    0  0.00000000000E+00  0.00000000000E+00  0.45593999997E+02  0.45594000000E+02  0.51100000000E-03 0.  1.
         11   -1    0    0    0    0 -0.00000000000E+00 -0.00000000000E+00 -0.45593999997E+02  0.45594000000E+02  0.51100000000E-03 0. -1.
    9900012    2    1    2    0    0  0.18666723784E+02  0.19002766320E+02 -0.17526286076E+02  0.59301915132E+02  0.49999947300E+02 0.  0.
        -12    1    1    2    0    0 -0.18666723784E+02 -0.19002766320E+02  0.17526286076E+02  0.31886084868E+02  0.00000000000E+00 0.  1.
         11    1    3    3    0    0 -0.47923611875E+01 -0.33550233010E+01  0.61976665400E+01  0.85225570050E+01  0.51100000000E-03 0.  1.
        -11    1    3    3    0    0  0.14301180294E+02  0.14279649559E+02 -0.30670478041E+02  0.36730237855E+02  0.51100000000E-03 0. -1.
        -12    1    3    3    0    0  0.91579046767E+01  0.80781400612E+01  0.69465254252E+01  0.14049120271E+02  0.00000000000E+00 0.  1.
</event>
<event>
 7    1  0.5755468E-013  0.5930200E+02  0.7816164E-02  0.1266605E+00
        -11   -1    0    0    0    0  0.00000000000E+00  0.00000000000E+00  0.45593999997E+02  0.45594000000E+02  0.51100000000E-03 0. -1.
         11   -1    0    0    0    0 -0.00000000000E+00 -0.00000000000E+00 -0.45593999997E+02  0.45594000000E+02  0.51100000000E-03 0.  1.
    9900012    2    1    2    0    0  0.12905348199E+02  0.76367757292E+01  0.28139803915E+02  0.59302001191E+02  0.50000104251E+02 0.  0.
        -12    1    1    2    0    0 -0.12905348199E+02 -0.76367757292E+01 -0.28139803915E+02  0.31885998809E+02  0.00000000000E+00 0.  1.
         11    1    3    3    0    0  0.12177422755E+02 -0.13659108373E+02 -0.30596213691E+01  0.18553224778E+02  0.51100000000E-03 0. -1.
        -11    1    3    3    0    0 -0.29236027402E+01  0.10740962395E+02  0.26288208986E+02  0.28547953659E+02  0.51100000000E-03 0.  1.
        -12    1    3    3    0    0  0.36515281847E+01  0.10554921707E+02  0.49112162984E+01  0.12200822753E+02  0.00000000000E+00 0.  1.
</event>
<event>
 7    1  0.5755468E-013  0.5930195E+02  0.7816164E-02  0.1266605E+00
        -11   -1    0    0    0    0  0.00000000000E+00  0.00000000000E+00  0.45593999997E+02  0.45594000000E+02  0.51100000000E-03 0.  1.
         11   -1    0    0    0    0 -0.00000000000E+00 -0.00000000000E+00 -0.45593999997E+02  0.45594000000E+02  0.51100000000E-03 0. -1.
    9900012    2    1    2    0    0 -0.28350879739E+02 -0.21104904377E+01 -0.14439298003E+02  0.59301954797E+02  0.50000019640E+02 0.  0.
        -12    1    1    2    0    0  0.28350879739E+02  0.21104904377E+01  0.14439298003E+02  0.31886045203E+02  0.00000000000E+00 0.  1.
         11    1    3    3    0    0 -0.31844293767E+02 -0.11616101213E+02 -0.25037823400E+02  0.42141255959E+02  0.51100000000E-03 0. -1.
        -11    1    3    3    0    0 -0.28532652311E+01  0.21813575001E+01  0.42985513290E+01  0.56015164742E+01  0.51100000000E-03 0.  1.
         12    1    3    3    0    0  0.63466792591E+01  0.73242532756E+01  0.62999740678E+01  0.11559182364E+02  0.00000000000E+00 0. -1.
</event>
<event>
 7    1  0.5755468E-013  0.5930187E+02  0.7816164E-02  0.1266605E+00
        -11   -1    0    0    0    0  0.00000000000E+00  0.00000000000E+00  0.45593999997E+02  0.45594000000E+02  0.51100000000E-03 0.  1.
         11   -1    0    0    0    0 -0.00000000000E+00 -0.00000000000E+00 -0.45593999997E+02  0.45594000000E+02  0.51100000000E-03 0. -1.
    9900012    2    1    2    0    0  0.14870250399E+02  0.16290561472E+01 -0.28159317329E+02  0.59301869422E+02  0.49999863936E+02 0.  0.
        -12    1    1    2    0    0 -0.14870250399E+02 -0.16290561472E+01  0.28159317329E+02  0.31886130578E+02  0.00000000000E+00 0.  1.
         11    1    3    3    0    0 -0.46577266108E+01 -0.10991812990E+02  0.78709295245E+01  0.14299157382E+02  0.51100000000E-03 0.  1.
        -11    1    3    3    0    0  0.15601648125E+02  0.24418833556E+01 -0.18164038124E+02  0.24068786836E+02  0.51100000000E-03 0. -1.
        -12    1    3    3    0    0  0.39263288839E+01  0.10178985782E+02 -0.17866208729E+02  0.20933925203E+02  0.00000000000E+00 0.  1.
</event>
<event>
 7    1  0.5755468E-013  0.5930184E+02  0.7816164E-02  0.1266605E+00
        -11   -1    0    0    0    0  0.00000000000E+00  0.00000000000E+00  0.45593999997E+02  0.45594000000E+02  0.51100000000E-03 0.  1.
         11   -1    0    0    0    0 -0.00000000000E+00 -0.00000000000E+00 -0.45593999997E+02  0.45594000000E+02  0.51100000000E-03 0. -1.
    9900012    2    1    2    0    0 -0.61508887443E+01  0.29979422532E+02 -0.89514390475E+01  0.59301835779E+02  0.49999802580E+02 0.  0.
        -12    1    1    2    0    0  0.61508887443E+01 -0.29979422532E+02  0.89514390475E+01  0.31886164221E+02  0.00000000000E+00 0.  1.
         11    1    3    3    0    0 -0.95164751563E+01  0.22170245015E+02 -0.13022518104E+02  0.27416583330E+02  0.51100000000E-03 0. -1.
        -11    1    3    3    0    0  0.55070683558E+01  0.12450805363E+02  0.14733636811E+02  0.20060668234E+02  0.51100000000E-03 0.  1.
        -12    1    3    3    0    0 -0.21414819437E+01 -0.46416278462E+01 -0.10662557755E+02  0.11824584215E+02  0.00000000000E+00 0.  1.
</event>
<event>
 7    1  0.5755468E-013  0.5930195E+02  0.7816164E-02  0.1266605E+00
        -11   -1    0    0    0    0  0.00000000000E+00  0.00000000000E+00  0.45593999997E+02  0.45594000000E+02  0.51100000000E-03 0.  1.
         11   -1    0    0    0    0 -0.00000000000E+00 -0.00000000000E+00 -0.45593999997E+02  0.45594000000E+02  0.51100000000E-03 0. -1.
    9900012    2    1    2    0    0  0.85834602932E+01 -0.25869840234E+02 -0.16546771432E+02  0.59301951810E+02  0.50000014193E+02 0.  0.
        -12    1    1    2    0    0 -0.85834602932E+01  0.25869840234E+02  0.16546771432E+02  0.31886048190E+02  0.00000000000E+00 0.  1.
         11    1    3    3    0    0 -0.11892949174E+02 -0.27005756805E+02 -0.18991855759E+02  0.35091932493E+02  0.51100000000E-03 0. -1.
        -11    1    3    3    0    0  0.10781942281E+02  0.41301217410E+01 -0.39658285483E+01  0.12208029377E+02  0.51100000000E-03 0.  1.
         12    1    3    3    0    0  0.96944671862E+01 -0.29942051705E+01  0.64109128751E+01  0.12001989940E+02  0.00000000000E+00 0. -1.
</event>
<event>
 7    1  0.5755468E-013  0.5930195E+02  0.7816164E-02  0.1266605E+00
        -11   -1    0    0    0    0  0.00000000000E+00  0.00000000000E+00  0.45593999997E+02  0.45594000000E+02  0.51100000000E-03 0. -1.
         11   -1    0    0    0    0 -0.00000000000E+00 -0.00000000000E+00 -0.45593999997E+02  0.45594000000E+02  0.51100000000E-03 0.  1.
    9900012    2    1    2    0    0  0.17495912081E+02  0.63945147934E+00  0.26649664919E+02  0.59301945398E+02  0.50000002500E+02 0.  0.
        -12    1    1    2    0    0 -0.17495912081E+02 -0.63945147934E+00 -0.26649664919E+02  0.31886054602E+02  0.00000000000E+00 0.  1.
         11    1    3    3    0    0  0.22724607061E+02  0.39812542842E+01 -0.16931445408E+01  0.23132766597E+02  0.51100000000E-03 0. -1.
        -11    1    3    3    0    0 -0.59237762675E+01 -0.71399306434E+01  0.19304717143E+01  0.94760992060E+01  0.51100000000E-03 0.  1.
         12    1    3    3    0    0  0.69508128787E+00  0.37981278385E+01  0.26412337746E+02  0.26693079595E+02  0.00000000000E+00 0. -1.
</event>
<event>
 7    1  0.5755468E-013  0.5930190E+02  0.7816164E-02  0.1266605E+00
        -11   -1    0    0    0    0  0.00000000000E+00  0.00000000000E+00  0.45593999997E+02  0.45594000000E+02  0.51100000000E-03 0.  1.
         11   -1    0    0    0    0 -0.00000000000E+00 -0.00000000000E+00 -0.45593999997E+02  0.45594000000E+02  0.51100000000E-03 0. -1.
    9900012    2    1    2    0    0  0.78998562783E+01  0.16917725739E+02 -0.25847750930E+02  0.59301899556E+02  0.49999918894E+02 0.  0.
        -12    1    1    2    0    0 -0.78998562783E+01 -0.16917725739E+02  0.25847750930E+02  0.31886100444E+02  0.00000000000E+00 0.  1.
         11    1    3    3    0    0  0.10778729789E+02  0.47561571806E+01 -0.19107372596E+02  0.22447577481E+02  0.51100000000E-03 0. -1.
        -11    1    3    3    0    0 -0.17999086427E+02  0.71164881159E+01  0.46786831697E+00  0.19360537605E+02  0.51100000000E-03 0.  1.
        -12    1    3    3    0    0  0.15120212917E+02  0.50450804426E+01 -0.72082466511E+01  0.17493784471E+02  0.00000000000E+00 0.  1.
</event>
<event>
 7    1  0.5755468E-013  0.5930193E+02  0.7816164E-02  0.1266605E+00
        -11   -1    0    0    0    0  0.00000000000E+00  0.00000000000E+00  0.45593999997E+02  0.45594000000E+02  0.51100000000E-03 0. -1.
         11   -1    0    0    0    0 -0.00000000000E+00 -0.00000000000E+00 -0.45593999997E+02  0.45594000000E+02  0.51100000000E-03 0.  1.
    9900012    2    1    2    0    0 -0.22095950374E+02 -0.14889276128E+02  0.17515710533E+02  0.59301926520E+02  0.49999968069E+02 0.  0.
        -12    1    1    2    0    0  0.22095950374E+02  0.14889276128E+02 -0.17515710533E+02  0.31886073480E+02  0.00000000000E+00 0.  1.
         11    1    3    3    0    0 -0.18749942341E+02 -0.41961650837E+01  0.15409327256E+02  0.24629565687E+02  0.51100000000E-03 0. -1.
        -11    1    3    3    0    0  0.14032574900E+02 -0.97781935885E+01  0.23758461919E+01  0.17267625012E+02  0.51100000000E-03 0.  1.
        -12    1    3    3    0    0 -0.17378582933E+02 -0.91491745610E+00 -0.26946291577E+00  0.17404735820E+02  0.00000000000E+00 0.  1.
</event>
<event>
 7    1  0.5755468E-013  0.5930198E+02  0.7816164E-02  0.1266605E+00
        -11   -1    0    0    0    0  0.00000000000E+00  0.00000000000E+00  0.45593999997E+02  0.45594000000E+02  0.51100000000E-03 0.  1.
         11   -1    0    0    0    0 -0.00000000000E+00 -0.00000000000E+00 -0.45593999997E+02  0.45594000000E+02  0.51100000000E-03 0. -1.
    9900012    2    1    2    0    0 -0.15071656236E+02 -0.16308085530E+02 -0.22882527688E+02  0.59301975652E+02  0.50000057676E+02 0.  0.
        -12    1    1    2    0    0  0.15071656236E+02  0.16308085530E+02  0.22882527688E+02  0.31886024348E+02  0.00000000000E+00 0.  1.
         11    1    3    3    0    0 -0.61848483811E+01 -0.40967001019E+00 -0.11390395799E+02  0.12967702022E+02  0.51100000000E-03 0. -1.
        -11    1    3    3    0    0  0.17929464666E+01 -0.26181754880E+02  0.19586814192E+01  0.26316066932E+02  0.51100000000E-03 0.  1.
        -12    1    3    3    0    0 -0.10679754321E+02  0.10283339360E+02 -0.13450813307E+02  0.20018206697E+02  0.00000000000E+00 0.  1.
</event>
<event>
 7    1  0.5755468E-013  0.5930195E+02  0.7816164E-02  0.1266605E+00
        -11   -1    0    0    0    0  0.00000000000E+00  0.00000000000E+00  0.45593999997E+02  0.45594000000E+02  0.51100000000E-03 0. -1.
         11   -1    0    0    0    0 -0.00000000000E+00 -0.00000000000E+00 -0.45593999997E+02  0.45594000000E+02  0.51100000000E-03 0.  1.
    9900012    2    1    2    0    0 -0.92712296600E+00 -0.67292329953E+01  0.31154101180E+02  0.59301950479E+02  0.50000011766E+02 0.  0.
        -12    1    1    2    0    0  0.92712296600E+00  0.67292329953E+01 -0.31154101180E+02  0.31886049521E+02  0.00000000000E+00 0.  1.
         11    1    3    3    0    0  0.10578105115E+02 -0.22250105098E+02  0.19739453634E+02  0.31569122806E+02  0.51100000000E-03 0. -1.
        -11    1    3    3    0    0  0.19736397658E+01  0.10710668591E+02  0.38983717515E+01  0.11567669522E+02  0.51100000000E-03 0.  1.
         12    1    3    3    0    0 -0.13478867846E+02  0.48102035122E+01  0.75162757949E+01  0.16165158152E+02  0.00000000000E+00 0. -1.
</event>
<event>
 7    1  0.5755468E-013  0.5930194E+02  0.7816164E-02  0.1266605E+00
        -11   -1    0    0    0    0  0.00000000000E+00  0.00000000000E+00  0.45593999997E+02  0.45594000000E+02  0.51100000000E-03 0.  1.
         11   -1    0    0    0    0 -0.00000000000E+00 -0.00000000000E+00 -0.45593999997E+02  0.45594000000E+02  0.51100000000E-03 0. -1.
    9900012    2    1    2    0    0 -0.10616007944E+02 -0.11553024382E+01 -0.30044738511E+02  0.59301942537E+02  0.49999997280E+02 0.  0.
        -12    1    1    2    0    0  0.10616007944E+02  0.11553024382E+01  0.30044738511E+02  0.31886057463E+02  0.00000000000E+00 0.  1.
         11    1    3    3    0    0  0.25673724893E+01  0.16262389826E+02 -0.10257855206E+02  0.19397946232E+02  0.51100000000E-03 0. -1.
        -11    1    3    3    0    0 -0.15578147506E+02 -0.18218819428E+01 -0.15076060146E+01  0.15756611619E+02  0.51100000000E-03 0.  1.
         12    1    3    3    0    0  0.23947670735E+01 -0.15595810321E+02 -0.18279277290E+02  0.24147384686E+02  0.00000000000E+00 0. -1.
</event>
<event>
 7    1  0.5755468E-013  0.5930197E+02  0.7816164E-02  0.1266605E+00
        -11   -1    0    0    0    0  0.00000000000E+00  0.00000000000E+00  0.45593999997E+02  0.45594000000E+02  0.51100000000E-03 0.  1.
         11   -1    0    0    0    0 -0.00000000000E+00 -0.00000000000E+00 -0.45593999997E+02  0.45594000000E+02  0.51100000000E-03 0. -1.
    9900012    2    1    2    0    0  0.31059529456E+02 -0.51800104731E+01 -0.50191744489E+01  0.59301968722E+02  0.50000045036E+02 0.  0.
        -12    1    1    2    0    0 -0.31059529456E+02  0.51800104731E+01  0.50191744489E+01  0.31886031278E+02  0.00000000000E+00 0.  1.
         11    1    3    3    0    0  0.35092036863E+02  0.10601337436E+02 -0.14159035681E+02  0.39297807805E+02  0.51100000000E-03 0. -1.
        -11    1    3    3    0    0 -0.33591025846E+01 -0.19648722392E+01  0.12935641835E+01  0.41009269255E+01  0.51100000000E-03 0.  1.
         12    1    3    3    0    0 -0.67340482258E+00 -0.13816475670E+02  0.78462970490E+01  0.15903233991E+02  0.00000000000E+00 0. -1.
</event>
<event>
 7    1  0.5755468E-013  0.5930194E+02  0.7816164E-02  0.1266605E+00
        -11   -1    0    0    0    0  0.00000000000E+00  0.00000000000E+00  0.45593999997E+02  0.45594000000E+02  0.51100000000E-03 0.  1.
         11   -1    0    0    0    0 -0.00000000000E+00 -0.00000000000E+00 -0.45593999997E+02  0.45594000000E+02  0.51100000000E-03 0. -1.
    9900012    2    1    2    0    0 -0.18614175416E+02  0.22011082552E+02 -0.13628841434E+02  0.59301943481E+02  0.49999999003E+02 0.  0.
        -12    1    1    2    0    0  0.18614175416E+02 -0.22011082552E+02  0.13628841434E+02  0.31886056519E+02  0.00000000000E+00 0.  1.
         11    1    3    3    0    0  0.85736597557E+01  0.13286040651E+01 -0.19425427099E+02  0.21274868944E+02  0.51100000000E-03 0. -1.
        -11    1    3    3    0    0 -0.16155930538E+02  0.11014540528E+02  0.11033484339E+02  0.22451547196E+02  0.51100000000E-03 0.  1.
         12    1    3    3    0    0 -0.11031904633E+02  0.96679379590E+01 -0.52368986742E+01  0.15575527341E+02  0.00000000000E+00 0. -1.
</event>
<event>
 7    1  0.5755468E-013  0.5930192E+02  0.7816164E-02  0.1266605E+00
        -11   -1    0    0    0    0  0.00000000000E+00  0.00000000000E+00  0.45593999997E+02  0.45594000000E+02  0.51100000000E-03 0. -1.
         11   -1    0    0    0    0 -0.00000000000E+00 -0.00000000000E+00 -0.45593999997E+02  0.45594000000E+02  0.51100000000E-03 0.  1.
    9900012    2    1    2    0    0 -0.11220265537E+02  0.26622870615E+02 -0.13492604151E+02  0.59301922078E+02  0.49999959968E+02 0.  0.
        -12    1    1    2    0    0  0.11220265537E+02 -0.26622870615E+02  0.13492604151E+02  0.31886077922E+02  0.00000000000E+00 0.  1.
         11    1    3    3    0    0  0.50064765099E+01  0.21096820689E+02 -0.71793348331E+01  0.22840391835E+02  0.51100000000E-03 0.  1.
        -11    1    3    3    0    0 -0.23433255479E+02 -0.26689389558E+01 -0.89648226768E+01  0.25231106662E+02  0.51100000000E-03 0. -1.
         12    1    3    3    0    0  0.72065134317E+01  0.81949888811E+01  0.26515533589E+01  0.11230423581E+02  0.00000000000E+00 0. -1.
</event>
<event>
 7    1  0.5755468E-013  0.5930161E+02  0.7816164E-02  0.1266606E+00
        -11   -1    0    0    0    0  0.00000000000E+00  0.00000000000E+00  0.45593999997E+02  0.45594000000E+02  0.51100000000E-03 0.  1.
         11   -1    0    0    0    0 -0.00000000000E+00 -0.00000000000E+00 -0.45593999997E+02  0.45594000000E+02  0.51100000000E-03 0. -1.
    9900012    2    1    2    0    0 -0.20632231435E+02  0.83206419243E+01 -0.22843382555E+02  0.59301605055E+02  0.49999381792E+02 0.  0.
        -12    1    1    2    0    0  0.20632231435E+02 -0.83206419243E+01  0.22843382555E+02  0.31886394945E+02  0.00000000000E+00 0.  1.
         11    1    3    3    0    0  0.91965050719E+01  0.11027154292E+02 -0.89601141876E+01  0.16925054914E+02  0.51100000000E-03 0. -1.
        -11    1    3    3    0    0 -0.19774210548E+02 -0.15804075028E+01 -0.21840688840E+02  0.29504792491E+02  0.51100000000E-03 0.  1.
         12    1    3    3    0    0 -0.10054525959E+02 -0.11261048652E+01  0.79574204731E+01  0.12871757651E+02  0.00000000000E+00 0. -1.
</event>
<event>
 7    1  0.5755468E-013  0.5930193E+02  0.7816164E-02  0.1266605E+00
        -11   -1    0    0    0    0  0.00000000000E+00  0.00000000000E+00  0.45593999997E+02  0.45594000000E+02  0.51100000000E-03 0. -1.
         11   -1    0    0    0    0 -0.00000000000E+00 -0.00000000000E+00 -0.45593999997E+02  0.45594000000E+02  0.51100000000E-03 0.  1.
    9900012    2    1    2    0    0  0.26235109945E+02 -0.16551956794E+02  0.73806148073E+01  0.59301925571E+02  0.49999966340E+02 0.  0.
        -12    1    1    2    0    0 -0.26235109945E+02  0.16551956794E+02 -0.73806148073E+01  0.31886074429E+02  0.00000000000E+00 0.  1.
         11    1    3    3    0    0  0.16857278903E+02  0.38957016636E+01  0.97506686550E+01  0.19860007124E+02  0.51100000000E-03 0. -1.
        -11    1    3    3    0    0  0.86492886482E+01 -0.25366638673E+02  0.79764579697E+01  0.27962482609E+02  0.51100000000E-03 0.  1.
        -12    1    3    3    0    0  0.72854239331E+00  0.49189802148E+01 -0.10346511817E+02  0.11479435838E+02  0.00000000000E+00 0.  1.
</event>
<event>
 7    1  0.5755468E-013  0.5930195E+02  0.7816164E-02  0.1266605E+00
        -11   -1    0    0    0    0  0.00000000000E+00  0.00000000000E+00  0.45593999997E+02  0.45594000000E+02  0.51100000000E-03 0.  1.
         11   -1    0    0    0    0 -0.00000000000E+00 -0.00000000000E+00 -0.45593999997E+02  0.45594000000E+02  0.51100000000E-03 0. -1.
    9900012    2    1    2    0    0  0.22027990174E+02  0.20663524652E+02 -0.10222832162E+02  0.59301954470E+02  0.50000019044E+02 0.  0.
        -12    1    1    2    0    0 -0.22027990174E+02 -0.20663524652E+02  0.10222832162E+02  0.31886045530E+02  0.00000000000E+00 0.  1.
         11    1    3    3    0    0 -0.23297926298E+01  0.22697018627E+02 -0.13242815637E+02  0.26380954390E+02  0.51100000000E-03 0.  1.
        -11    1    3    3    0    0  0.19033127638E+02  0.48967465562E+01  0.97042704353E+01  0.21918278661E+02  0.51100000000E-03 0. -1.
         12    1    3    3    0    0  0.53246551652E+01 -0.69302405316E+01 -0.66842869606E+01  0.11002721419E+02  0.00000000000E+00 0. -1.
</event>
<event>
 7    1  0.5755468E-013  0.5930197E+02  0.7816164E-02  0.1266605E+00
        -11   -1    0    0    0    0  0.00000000000E+00  0.00000000000E+00  0.45593999997E+02  0.45594000000E+02  0.51100000000E-03 0.  1.
         11   -1    0    0    0    0 -0.00000000000E+00 -0.00000000000E+00 -0.45593999997E+02  0.45594000000E+02  0.51100000000E-03 0. -1.
    9900012    2    1    2    0    0 -0.28949866848E+01  0.11808320008E+02 -0.29477139074E+02  0.59301967050E+02  0.50000041987E+02 0.  0.
        -12    1    1    2    0    0  0.28949866848E+01 -0.11808320008E+02  0.29477139074E+02  0.31886032950E+02  0.00000000000E+00 0.  1.
         11    1    3    3    0    0  0.54171004157E+01 -0.13752134602E+02 -0.17559899241E+02  0.22952477963E+02  0.51100000000E-03 0. -1.
        -11    1    3    3    0    0 -0.12403271546E+02  0.51919328442E+01 -0.61682061702E+01  0.14793379578E+02  0.51100000000E-03 0.  1.
         12    1    3    3    0    0  0.40911844458E+01  0.20368521766E+02 -0.57490336622E+01  0.21556109509E+02  0.00000000000E+00 0. -1.
</event>
<event>
 7    1  0.5755468E-013  0.5930195E+02  0.7816164E-02  0.1266605E+00
        -11   -1    0    0    0    0  0.00000000000E+00  0.00000000000E+00  0.45593999997E+02  0.45594000000E+02  0.51100000000E-03 0.  1.
         11   -1    0    0    0    0 -0.00000000000E+00 -0.00000000000E+00 -0.45593999997E+02  0.45594000000E+02  0.51100000000E-03 0. -1.
    9900012    2    1    2    0    0 -0.13211257657E+02  0.37978898226E+01 -0.28770794221E+02  0.59301954524E+02  0.50000019143E+02 0.  0.
        -12    1    1    2    0    0  0.13211257657E+02 -0.37978898226E+01  0.28770794221E+02  0.31886045476E+02  0.00000000000E+00 0.  1.
         11    1    3    3    0    0 -0.16731997009E+02 -0.66738196399E+01 -0.12174782816E+02  0.21742238371E+02  0.51100000000E-03 0. -1.
        -11    1    3    3    0    0  0.15702692797E+02 -0.13815046150E+01 -0.36146593139E+01  0.16172472857E+02  0.51100000000E-03 0.  1.
        -12    1    3    3    0    0 -0.12181953444E+02  0.11853214078E+02 -0.12981352091E+02  0.21387243296E+02  0.00000000000E+00 0.  1.
</event>
<event>
 7    1  0.5755468E-013  0.5930193E+02  0.7816164E-02  0.1266605E+00
        -11   -1    0    0    0    0  0.00000000000E+00  0.00000000000E+00  0.45593999997E+02  0.45594000000E+02  0.51100000000E-03 0. -1.
         11   -1    0    0    0    0 -0.00000000000E+00 -0.00000000000E+00 -0.45593999997E+02  0.45594000000E+02  0.51100000000E-03 0.  1.
    9900012    2    1    2    0    0 -0.26942804472E+02 -0.57142837818E+01  0.16067157664E+02  0.59301932394E+02  0.49999978783E+02 0.  0.
        -12    1    1    2    0    0  0.26942804472E+02  0.57142837818E+01 -0.16067157664E+02  0.31886067606E+02  0.00000000000E+00 0.  1.
         11    1    3    3    0    0 -0.36189028103E+00 -0.43923480367E+01  0.26482443080E+02  0.26846666043E+02  0.51100000000E-03 0. -1.
        -11    1    3    3    0    0 -0.92573967620E+01 -0.22174776162E+01 -0.11673818388E+02  0.15063022200E+02  0.51100000000E-03 0.  1.
         12    1    3    3    0    0 -0.17323517429E+02  0.89554187107E+00  0.12585329716E+01  0.17392244151E+02  0.00000000000E+00 0. -1.
</event>
<event>
 7    1  0.5755468E-013  0.5930191E+02  0.7816164E-02  0.1266605E+00
        -11   -1    0    0    0    0  0.00000000000E+00  0.00000000000E+00  0.45593999997E+02  0.45594000000E+02  0.51100000000E-03 0. -1.
         11   -1    0    0    0    0 -0.00000000000E+00 -0.00000000000E+00 -0.45593999997E+02  0.45594000000E+02  0.51100000000E-03 0.  1.
    9900012    2    1    2    0    0 -0.18322917702E+02  0.22994027338E+02  0.12339686271E+02  0.59301914264E+02  0.49999945717E+02 0.  0.
        -12    1    1    2    0    0  0.18322917702E+02 -0.22994027338E+02 -0.12339686271E+02  0.31886085736E+02  0.00000000000E+00 0.  1.
         11    1    3    3    0    0 -0.33174899242E+02  0.23948339755E+02  0.64690956160E+01  0.41423979952E+02  0.51100000000E-03 0. -1.
        -11    1    3    3    0    0  0.64935568639E+01 -0.32869067288E+01  0.56220009696E+01  0.91965717391E+01  0.51100000000E-03 0.  1.
        -12    1    3    3    0    0  0.83584246758E+01  0.23325943114E+01  0.24858968528E+00  0.86813625725E+01  0.00000000000E+00 0.  1.
</event>
<event>
 7    1  0.5755468E-013  0.5930197E+02  0.7816164E-02  0.1266605E+00
        -11   -1    0    0    0    0  0.00000000000E+00  0.00000000000E+00  0.45593999997E+02  0.45594000000E+02  0.51100000000E-03 0.  1.
         11   -1    0    0    0    0 -0.00000000000E+00 -0.00000000000E+00 -0.45593999997E+02  0.45594000000E+02  0.51100000000E-03 0. -1.
    9900012    2    1    2    0    0 -0.24429930529E+02 -0.13088709955E+02 -0.15766507982E+02  0.59301974724E+02  0.50000055983E+02 0.  0.
        -12    1    1    2    0    0  0.24429930529E+02  0.13088709955E+02  0.15766507982E+02  0.31886025276E+02  0.00000000000E+00 0.  1.
         11    1    3    3    0    0 -0.34703367451E+01 -0.32902553603E+01 -0.19378206179E+02  0.19959556419E+02  0.51100000000E-03 0. -1.
        -11    1    3    3    0    0 -0.65714023275E+01 -0.86940329855E+01  0.16646383981E+02  0.19896523264E+02  0.51100000000E-03 0.  1.
        -12    1    3    3    0    0 -0.14388191457E+02 -0.11044216092E+01 -0.13034685784E+02  0.19445895041E+02  0.00000000000E+00 0.  1.
</event>
<event>
 7    1  0.5755468E-013  0.5930194E+02  0.7816164E-02  0.1266605E+00
        -11   -1    0    0    0    0  0.00000000000E+00  0.00000000000E+00  0.45593999997E+02  0.45594000000E+02  0.51100000000E-03 0.  1.
         11   -1    0    0    0    0 -0.00000000000E+00 -0.00000000000E+00 -0.45593999997E+02  0.45594000000E+02  0.51100000000E-03 0. -1.
    9900012    2    1    2    0    0 -0.10750999416E+02  0.12957870108E+02 -0.27078222626E+02  0.59301944635E+02  0.50000001107E+02 0.  0.
        -12    1    1    2    0    0  0.10750999416E+02 -0.12957870108E+02  0.27078222626E+02  0.31886055365E+02  0.00000000000E+00 0.  1.
         11    1    3    3    0    0  0.69109028658E+01  0.69650942050E+01 -0.35069772323E+02  0.36416507888E+02  0.51100000000E-03 0. -1.
        -11    1    3    3    0    0 -0.10342633796E+02  0.87488117173E+01  0.59934144551E+01  0.14813264239E+02  0.51100000000E-03 0.  1.
         12    1    3    3    0    0 -0.73192684850E+01 -0.27560358144E+01  0.19981352413E+01  0.80721725086E+01  0.00000000000E+00 0. -1.
</event>
<event>
 7    1  0.5755468E-013  0.5930198E+02  0.7816164E-02  0.1266605E+00
        -11   -1    0    0    0    0  0.00000000000E+00  0.00000000000E+00  0.45593999997E+02  0.45594000000E+02  0.51100000000E-03 0.  1.
         11   -1    0    0    0    0 -0.00000000000E+00 -0.00000000000E+00 -0.45593999997E+02  0.45594000000E+02  0.51100000000E-03 0. -1.
    9900012    2    1    2    0    0 -0.77129884339E+01 -0.24755663717E+02 -0.18557618733E+02  0.59301979714E+02  0.50000065083E+02 0.  0.
        -12    1    1    2    0    0  0.77129884339E+01  0.24755663717E+02  0.18557618733E+02  0.31886020286E+02  0.00000000000E+00 0.  1.
         11    1    3    3    0    0  0.68547503167E+01 -0.18798527600E+02  0.34735291848E+01  0.20308560931E+02  0.51100000000E-03 0. -1.
        -11    1    3    3    0    0 -0.22769794522E+02 -0.32516166297E+01 -0.12681516734E+02  0.26265136973E+02  0.51100000000E-03 0.  1.
         12    1    3    3    0    0  0.82020557709E+01 -0.27055194871E+01 -0.93496311838E+01  0.12728281810E+02  0.00000000000E+00 0. -1.
</event>
<event>
 7    1  0.5755468E-013  0.5930195E+02  0.7816164E-02  0.1266605E+00
        -11   -1    0    0    0    0  0.00000000000E+00  0.00000000000E+00  0.45593999997E+02  0.45594000000E+02  0.51100000000E-03 0.  1.
         11   -1    0    0    0    0 -0.00000000000E+00 -0.00000000000E+00 -0.45593999997E+02  0.45594000000E+02  0.51100000000E-03 0. -1.
    9900012    2    1    2    0    0  0.23044406828E+02  0.19467604025E+02  0.10328979498E+02  0.59301951170E+02  0.50000013026E+02 0.  0.
        -12    1    1    2    0    0 -0.23044406828E+02 -0.19467604025E+02 -0.10328979498E+02  0.31886048830E+02  0.00000000000E+00 0.  1.
         11    1    3    3    0    0  0.11615163035E+02 -0.12381034246E+02  0.13486235748E+02  0.21681341662E+02  0.51100000000E-03 0. -1.
        -11    1    3    3    0    0  0.40829297546E+01  0.24431443005E+02  0.38214762726E+01  0.25063307919E+02  0.51100000000E-03 0.  1.
        -12    1    3    3    0    0  0.73463140386E+01  0.74171952663E+01 -0.69787325230E+01  0.12557301589E+02  0.00000000000E+00 0.  1.
</event>
<event>
 7    1  0.5755468E-013  0.5930194E+02  0.7816164E-02  0.1266605E+00
        -11   -1    0    0    0    0  0.00000000000E+00  0.00000000000E+00  0.45593999997E+02  0.45594000000E+02  0.51100000000E-03 0.  1.
         11   -1    0    0    0    0 -0.00000000000E+00 -0.00000000000E+00 -0.45593999997E+02  0.45594000000E+02  0.51100000000E-03 0. -1.
    9900012    2    1    2    0    0  0.10136572535E+02  0.71516350715E+00 -0.30223484975E+02  0.59301943398E+02  0.49999998852E+02 0.  0.
        -12    1    1    2    0    0 -0.10136572535E+02 -0.71516350715E+00  0.30223484975E+02  0.31886056602E+02  0.00000000000E+00 0.  1.
         11    1    3    3    0    0 -0.16737806056E+02  0.61612620524E+01 -0.70676694208E+01  0.19185078914E+02  0.51100000000E-03 0. -1.
        -11    1    3    3    0    0  0.27445440346E+02 -0.81883547291E+01 -0.16881903022E+02  0.33246052380E+02  0.51100000000E-03 0.  1.
        -12    1    3    3    0    0 -0.57106175519E+00  0.27422561839E+01 -0.62739125317E+01  0.68708121035E+01  0.00000000000E+00 0.  1.
</event>
<event>
 7    1  0.5755468E-013  0.5930180E+02  0.7816164E-02  0.1266605E+00
        -11   -1    0    0    0    0  0.00000000000E+00  0.00000000000E+00  0.45593999997E+02  0.45594000000E+02  0.51100000000E-03 0.  1.
         11   -1    0    0    0    0 -0.00000000000E+00 -0.00000000000E+00 -0.45593999997E+02  0.45594000000E+02  0.51100000000E-03 0. -1.
    9900012    2    1    2    0    0 -0.21098951254E+02  0.18611123311E+01 -0.23834848759E+02  0.59301803951E+02  0.49999744533E+02 0.  0.
        -12    1    1    2    0    0  0.21098951254E+02 -0.18611123311E+01  0.23834848759E+02  0.31886196049E+02  0.00000000000E+00 0.  1.
         11    1    3    3    0    0  0.10423894068E+02  0.11087494348E+02  0.23961673270E+00  0.15219970923E+02  0.51100000000E-03 0. -1.
        -11    1    3    3    0    0 -0.30812877133E+02 -0.10060187997E+02 -0.26208213845E+02  0.41683464983E+02  0.51100000000E-03 0.  1.
        -12    1    3    3    0    0 -0.70996818891E+00  0.83380598082E+00  0.21337483537E+01  0.23983680451E+01  0.00000000000E+00 0.  1.
</event>
<event>
 7    1  0.5755468E-013  0.5930194E+02  0.7816164E-02  0.1266605E+00
        -11   -1    0    0    0    0  0.00000000000E+00  0.00000000000E+00  0.45593999997E+02  0.45594000000E+02  0.51100000000E-03 0.  1.
         11   -1    0    0    0    0 -0.00000000000E+00 -0.00000000000E+00 -0.45593999997E+02  0.45594000000E+02  0.51100000000E-03 0. -1.
    9900012    2    1    2    0    0  0.68048798456E+01  0.16700025058E+02 -0.26296840585E+02  0.59301936408E+02  0.49999986103E+02 0.  0.
        -12    1    1    2    0    0 -0.68048798456E+01 -0.16700025058E+02  0.26296840585E+02  0.31886063592E+02  0.00000000000E+00 0.  1.
         11    1    3    3    0    0 -0.22827083872E+01  0.15976640875E+02 -0.17267138752E+02  0.23635098734E+02  0.51100000000E-03 0. -1.
        -11    1    3    3    0    0 -0.86972666826E+01 -0.10207010132E+02 -0.55062568648E+01  0.14496357077E+02  0.51100000000E-03 0.  1.
        -12    1    3    3    0    0  0.17784854915E+02  0.10930394315E+02 -0.35234449681E+01  0.21170480597E+02  0.00000000000E+00 0.  1.
</event>
<event>
 7    1  0.5755468E-013  0.5930194E+02  0.7816164E-02  0.1266605E+00
        -11   -1    0    0    0    0  0.00000000000E+00  0.00000000000E+00  0.45593999997E+02  0.45594000000E+02  0.51100000000E-03 0. -1.
         11   -1    0    0    0    0 -0.00000000000E+00 -0.00000000000E+00 -0.45593999997E+02  0.45594000000E+02  0.51100000000E-03 0.  1.
    9900012    2    1    2    0    0 -0.22024405457E+01 -0.31805325842E+02  0.53991696600E+00  0.59301937110E+02  0.49999987385E+02 0.  0.
        -12    1    1    2    0    0  0.22024405457E+01  0.31805325842E+02 -0.53991696600E+00  0.31886062890E+02  0.00000000000E+00 0.  1.
         11    1    3    3    0    0  0.86756789774E+01  0.69889208933E+01  0.10200550041E+02  0.15105086639E+02  0.51100000000E-03 0. -1.
        -11    1    3    3    0    0 -0.40025658738E+01 -0.23490184846E+02 -0.12919379450E+02  0.27105713112E+02  0.51100000000E-03 0.  1.
         12    1    3    3    0    0 -0.68755536492E+01 -0.15304061889E+02  0.32587463748E+01  0.17091137359E+02  0.00000000000E+00 0. -1.
</event>
<event>
 7    1  0.5755468E-013  0.5930191E+02  0.7816164E-02  0.1266605E+00
        -11   -1    0    0    0    0  0.00000000000E+00  0.00000000000E+00  0.45593999997E+02  0.45594000000E+02  0.51100000000E-03 0.  1.
         11   -1    0    0    0    0 -0.00000000000E+00 -0.00000000000E+00 -0.45593999997E+02  0.45594000000E+02  0.51100000000E-03 0. -1.
    9900012    2    1    2    0    0  0.18629653174E+02  0.14072883491E+02 -0.21716648743E+02  0.59301908052E+02  0.49999934388E+02 0.  0.
        -12    1    1    2    0    0 -0.18629653174E+02 -0.14072883491E+02  0.21716648743E+02  0.31886091948E+02  0.00000000000E+00 0.  1.
         11    1    3    3    0    0  0.17486787594E+02  0.37671849097E+01 -0.22374510938E+02  0.28646084593E+02  0.51100000000E-03 0. -1.
        -11    1    3    3    0    0 -0.10378926824E+02  0.38951470526E+01  0.96490334329E+01  0.14696875145E+02  0.51100000000E-03 0.  1.
        -12    1    3    3    0    0  0.11521792403E+02  0.64105515288E+01 -0.89911712372E+01  0.15958948314E+02  0.00000000000E+00 0.  1.
</event>
<event>
 7    1  0.5755468E-013  0.5930191E+02  0.7816164E-02  0.1266605E+00
        -11   -1    0    0    0    0  0.00000000000E+00  0.00000000000E+00  0.45593999997E+02  0.45594000000E+02  0.51100000000E-03 0.  1.
         11   -1    0    0    0    0 -0.00000000000E+00 -0.00000000000E+00 -0.45593999997E+02  0.45594000000E+02  0.51100000000E-03 0. -1.
    9900012    2    1    2    0    0  0.30709183321E+01 -0.30188893753E+01 -0.31593963216E+02  0.59301909864E+02  0.49999937694E+02 0.  0.
        -12    1    1    2    0    0 -0.30709183321E+01  0.30188893753E+01  0.31593963216E+02  0.31886090136E+02  0.00000000000E+00 0.  1.
         11    1    3    3    0    0  0.16040305668E+02 -0.11442234733E+01 -0.29398280745E+02  0.33509096739E+02  0.51100000000E-03 0. -1.
        -11    1    3    3    0    0 -0.18533473778E+02 -0.47241370360E+01 -0.34017580686E+01  0.19426247173E+02  0.51100000000E-03 0.  1.
         12    1    3    3    0    0  0.55640864416E+01  0.28494711340E+01  0.12060755972E+01  0.63665659518E+01  0.00000000000E+00 0. -1.
</event>
<event>
 7    1  0.5755468E-013  0.5930193E+02  0.7816164E-02  0.1266605E+00
        -11   -1    0    0    0    0  0.00000000000E+00  0.00000000000E+00  0.45593999997E+02  0.45594000000E+02  0.51100000000E-03 0.  1.
         11   -1    0    0    0    0 -0.00000000000E+00 -0.00000000000E+00 -0.45593999997E+02  0.45594000000E+02  0.51100000000E-03 0. -1.
    9900012    2    1    2    0    0  0.12701738370E+02  0.13086894794E+02 -0.26155695378E+02  0.59301931354E+02  0.49999976886E+02 0.  0.
        -12    1    1    2    0    0 -0.12701738370E+02 -0.13086894794E+02  0.26155695378E+02  0.31886068646E+02  0.00000000000E+00 0.  1.
         11    1    3    3    0    0 -0.11822437698E+02  0.10783288059E+02 -0.16550279360E+02  0.23020883598E+02  0.51100000000E-03 0. -1.
        -11    1    3    3    0    0  0.22199149602E+02 -0.86217213084E+01 -0.67110925206E+01  0.24742172185E+02  0.51100000000E-03 0.  1.
        -12    1    3    3    0    0  0.23250264664E+01  0.10925328043E+02 -0.28943234971E+01  0.11538875571E+02  0.00000000000E+00 0.  1.
</event>
<event>
 7    1  0.5755468E-013  0.5930193E+02  0.7816164E-02  0.1266605E+00
        -11   -1    0    0    0    0  0.00000000000E+00  0.00000000000E+00  0.45593999997E+02  0.45594000000E+02  0.51100000000E-03 0.  1.
         11   -1    0    0    0    0 -0.00000000000E+00 -0.00000000000E+00 -0.45593999997E+02  0.45594000000E+02  0.51100000000E-03 0. -1.
    9900012    2    1    2    0    0  0.21875989522E+02  0.67961412153E+01 -0.22180515676E+02  0.59301925788E+02  0.49999966736E+02 0.  0.
        -12    1    1    2    0    0 -0.21875989522E+02 -0.67961412153E+01  0.22180515676E+02  0.31886074212E+02  0.00000000000E+00 0.  1.
         11    1    3    3    0    0  0.33913595790E+02  0.11785352107E+02 -0.26238752199E+02  0.44469074882E+02  0.51100000000E-03 0. -1.
        -11    1    3    3    0    0 -0.71976832784E+01 -0.45388421004E+01  0.50172963413E+01  0.98783093203E+01  0.51100000000E-03 0.  1.
         12    1    3    3    0    0 -0.48399229892E+01 -0.45036879143E+00 -0.95905981848E+00  0.49545415858E+01  0.00000000000E+00 0. -1.
</event>
<event>
 7    1  0.5755468E-013  0.5930196E+02  0.7816164E-02  0.1266605E+00
        -11   -1    0    0    0    0  0.00000000000E+00  0.00000000000E+00  0.45593999997E+02  0.45594000000E+02  0.51100000000E-03 0.  1.
         11   -1    0    0    0    0 -0.00000000000E+00 -0.00000000000E+00 -0.45593999997E+02  0.45594000000E+02  0.51100000000E-03 0. -1.
    9900012    2    1    2    0    0 -0.22719852245E+02  0.20808828577E+02 -0.82171023677E+01  0.59301955967E+02  0.50000021773E+02 0.  0.
        -12    1    1    2    0    0  0.22719852245E+02 -0.20808828577E+02  0.82171023677E+01  0.31886044033E+02  0.00000000000E+00 0.  1.
         11    1    3    3    0    0  0.11486606224E+02  0.74141378885E+01  0.32556577970E+01  0.14053856095E+02  0.51100000000E-03 0. -1.
        -11    1    3    3    0    0 -0.32235441681E+02  0.18415870037E+02 -0.60781992457E+01  0.37619309881E+02  0.51100000000E-03 0.  1.
         12    1    3    3    0    0 -0.19710167879E+01 -0.50211793479E+01 -0.53945609190E+01  0.76287899912E+01  0.00000000000E+00 0. -1.
</event>
<event>
 7    1  0.5755468E-013  0.5930176E+02  0.7816164E-02  0.1266605E+00
        -11   -1    0    0    0    0  0.00000000000E+00  0.00000000000E+00  0.45593999997E+02  0.45594000000E+02  0.51100000000E-03 0.  1.
         11   -1    0    0    0    0 -0.00000000000E+00 -0.00000000000E+00 -0.45593999997E+02  0.45594000000E+02  0.51100000000E-03 0. -1.
    9900012    2    1    2    0    0 -0.18468458063E+02  0.12581856774E+02 -0.22745220696E+02  0.59301762724E+02  0.49999669345E+02 0.  0.
        -12    1    1    2    0    0  0.18468458063E+02 -0.12581856774E+02  0.22745220696E+02  0.31886237276E+02  0.00000000000E+00 0.  1.
         11    1    3    3    0    0 -0.18050357223E+02 -0.11344871114E+02 -0.26062513555E+02  0.33671592026E+02  0.51100000000E-03 0.  1.
        -11    1    3    3    0    0 -0.35954164980E+01  0.17191165989E+02  0.22021430951E+00  0.17564501201E+02  0.51100000000E-03 0. -1.
        -12    1    3    3    0    0  0.31773156577E+01  0.67355618995E+01  0.30970785496E+01  0.80656694969E+01  0.00000000000E+00 0.  1.
</event>
<event>
 7    1  0.5755468E-013  0.5930195E+02  0.7816164E-02  0.1266605E+00
        -11   -1    0    0    0    0  0.00000000000E+00  0.00000000000E+00  0.45593999997E+02  0.45594000000E+02  0.51100000000E-03 0.  1.
         11   -1    0    0    0    0 -0.00000000000E+00 -0.00000000000E+00 -0.45593999997E+02  0.45594000000E+02  0.51100000000E-03 0. -1.
    9900012    2    1    2    0    0 -0.61894125243E+01 -0.20354771666E+02 -0.23750681952E+02  0.59301945836E+02  0.50000003298E+02 0.  0.
        -12    1    1    2    0    0  0.61894125243E+01  0.20354771666E+02  0.23750681952E+02  0.31886054164E+02  0.00000000000E+00 0.  1.
         11    1    3    3    0    0  0.13176172680E+02 -0.15419850194E+02 -0.26104545287E+02  0.33057988315E+02  0.51100000000E-03 0. -1.
        -11    1    3    3    0    0 -0.61876722208E+01 -0.11764150990E+01  0.90229549268E+01  0.11003860953E+02  0.51100000000E-03 0.  1.
         12    1    3    3    0    0 -0.13177912983E+02 -0.37585063732E+01 -0.66690915913E+01  0.15240096568E+02  0.00000000000E+00 0. -1.
</event>
<event>
 7    1  0.5755468E-013  0.5930187E+02  0.7816164E-02  0.1266605E+00
        -11   -1    0    0    0    0  0.00000000000E+00  0.00000000000E+00  0.45593999997E+02  0.45594000000E+02  0.51100000000E-03 0. -1.
         11   -1    0    0    0    0 -0.00000000000E+00 -0.00000000000E+00 -0.45593999997E+02  0.45594000000E+02  0.51100000000E-03 0.  1.
    9900012    2    1    2    0    0  0.21956976846E+02 -0.19010509076E+02  0.13161188229E+02  0.59301871933E+02  0.49999868516E+02 0.  0.
        -12    1    1    2    0    0 -0.21956976846E+02  0.19010509076E+02 -0.13161188229E+02  0.31886128067E+02  0.00000000000E+00 0.  1.
         11    1    3    3    0    0  0.11281737562E+02 -0.11971688077E+02  0.15565017283E+02  0.22646604185E+02  0.51100000000E-03 0. -1.
        -11    1    3    3    0    0  0.18160643087E+02  0.53577437309E+01 -0.87329485064E+01  0.20851349239E+02  0.51100000000E-03 0.  1.
        -12    1    3    3    0    0 -0.74854038029E+01 -0.12396564729E+02  0.63291194524E+01  0.15803918509E+02  0.00000000000E+00 0.  1.
</event>
<event>
 7    1  0.5755468E-013  0.5930193E+02  0.7816164E-02  0.1266605E+00
        -11   -1    0    0    0    0  0.00000000000E+00  0.00000000000E+00  0.45593999997E+02  0.45594000000E+02  0.51100000000E-03 0. -1.
         11   -1    0    0    0    0 -0.00000000000E+00 -0.00000000000E+00 -0.45593999997E+02  0.45594000000E+02  0.51100000000E-03 0.  1.
    9900012    2    1    2    0    0  0.16100787375E+02 -0.67115168053E+01  0.26691601261E+02  0.59301931102E+02  0.49999976426E+02 0.  0.
        -12    1    1    2    0    0 -0.16100787375E+02  0.67115168053E+01 -0.26691601261E+02  0.31886068898E+02  0.00000000000E+00 0.  1.
         11    1    3    3    0    0 -0.94180272559E+01  0.12644206076E+02  0.19472458204E+02  0.25054975822E+02  0.51100000000E-03 0.  1.
        -11    1    3    3    0    0  0.19780546654E+02 -0.11588275614E+02  0.86131681850E+01  0.24489688118E+02  0.51100000000E-03 0. -1.
        -12    1    3    3    0    0  0.57382679762E+01 -0.77674472668E+01 -0.13940251277E+01  0.97572671618E+01  0.00000000000E+00 0.  1.
</event>
<event>
 7    1  0.5755468E-013  0.5930197E+02  0.7816164E-02  0.1266605E+00
        -11   -1    0    0    0    0  0.00000000000E+00  0.00000000000E+00  0.45593999997E+02  0.45594000000E+02  0.51100000000E-03 0.  1.
         11   -1    0    0    0    0 -0.00000000000E+00 -0.00000000000E+00 -0.45593999997E+02  0.45594000000E+02  0.51100000000E-03 0. -1.
    9900012    2    1    2    0    0 -0.42899214590E+01  0.21207234336E+02 -0.23421546100E+02  0.59301968011E+02  0.50000043739E+02 0.  0.
        -12    1    1    2    0    0  0.42899214590E+01 -0.21207234336E+02  0.23421546100E+02  0.31886031989E+02  0.00000000000E+00 0.  1.
         11    1    3    3    0    0 -0.68231715920E+01  0.16355662344E+02 -0.20173705765E+02  0.26852220873E+02  0.51100000000E-03 0. -1.
        -11    1    3    3    0    0 -0.97770429368E+01 -0.72116762954E+01  0.52479394693E+01  0.13234036138E+02  0.51100000000E-03 0.  1.
        -12    1    3    3    0    0  0.12310293070E+02  0.12063248287E+02 -0.84957798044E+01  0.19215710999E+02  0.00000000000E+00 0.  1.
</event>
<event>
 7    1  0.5755468E-013  0.5930195E+02  0.7816164E-02  0.1266605E+00
        -11   -1    0    0    0    0  0.00000000000E+00  0.00000000000E+00  0.45593999997E+02  0.45594000000E+02  0.51100000000E-03 0. -1.
         11   -1    0    0    0    0 -0.00000000000E+00 -0.00000000000E+00 -0.45593999997E+02  0.45594000000E+02  0.51100000000E-03 0.  1.
    9900012    2    1    2    0    0 -0.25673479436E+02  0.16090043749E+01 -0.18841550570E+02  0.59301945535E+02  0.50000002750E+02 0.  0.
        -12    1    1    2    0    0  0.25673479436E+02 -0.16090043749E+01  0.18841550570E+02  0.31886054465E+02  0.00000000000E+00 0.  1.
         11    1    3    3    0    0  0.29074296996E+01  0.13034513342E+01 -0.18346791545E+02  0.18621409536E+02  0.51100000000E-03 0. -1.
        -11    1    3    3    0    0 -0.30496369871E+02  0.58874105855E+01 -0.70611149379E+01  0.31851994021E+02  0.51100000000E-03 0.  1.
         12    1    3    3    0    0  0.19154607348E+01 -0.55818575448E+01  0.65663559136E+01  0.88285419782E+01  0.00000000000E+00 0. -1.
</event>
<event>
 7    1  0.5755468E-013  0.5930197E+02  0.7816164E-02  0.1266605E+00
        -11   -1    0    0    0    0  0.00000000000E+00  0.00000000000E+00  0.45593999997E+02  0.45594000000E+02  0.51100000000E-03 0.  1.
         11   -1    0    0    0    0 -0.00000000000E+00 -0.00000000000E+00 -0.45593999997E+02  0.45594000000E+02  0.51100000000E-03 0. -1.
    9900012    2    1    2    0    0 -0.57286554204E+01  0.27291460827E+02 -0.15462128265E+02  0.59301972692E+02  0.50000052276E+02 0.  0.
        -12    1    1    2    0    0  0.57286554204E+01 -0.27291460827E+02  0.15462128265E+02  0.31886027308E+02  0.00000000000E+00 0.  1.
         11    1    3    3    0    0 -0.47206377093E+01 -0.77306994664E+01  0.90890241669E+01  0.12831932637E+02  0.51100000000E-03 0.  1.
        -11    1    3    3    0    0  0.75132070755E+01  0.13018442225E+02 -0.50441032032E+01  0.15854686876E+02  0.51100000000E-03 0. -1.
        -12    1    3    3    0    0 -0.85212247867E+01  0.22003718068E+02 -0.19507049229E+02  0.30615353180E+02  0.00000000000E+00 0.  1.
</event>
<event>
 7    1  0.5755468E-013  0.5930196E+02  0.7816164E-02  0.1266605E+00
        -11   -1    0    0    0    0  0.00000000000E+00  0.00000000000E+00  0.45593999997E+02  0.45594000000E+02  0.51100000000E-03 0. -1.
         11   -1    0    0    0    0 -0.00000000000E+00 -0.00000000000E+00 -0.45593999997E+02  0.45594000000E+02  0.51100000000E-03 0.  1.
    9900012    2    1    2    0    0  0.78451158834E+00  0.21500445019E+02  0.23533697436E+02  0.59301960587E+02  0.50000030201E+02 0.  0.
        -12    1    1    2    0    0 -0.78451158834E+00 -0.21500445019E+02 -0.23533697436E+02  0.31886039413E+02  0.00000000000E+00 0.  1.
         11    1    3    3    0    0 -0.44403643069E+01  0.28639654030E+01  0.26532530266E+02  0.27053544973E+02  0.51100000000E-03 0. -1.
        -11    1    3    3    0    0 -0.75408155927E+01  0.17770143085E+02 -0.21911752585E+01  0.19427895777E+02  0.51100000000E-03 0.  1.
         12    1    3    3    0    0  0.12765691488E+02  0.86633653080E+00 -0.80765757189E+00  0.12820519838E+02  0.00000000000E+00 0. -1.
</event>
<event>
 7    1  0.5755468E-013  0.5930194E+02  0.7816164E-02  0.1266605E+00
        -11   -1    0    0    0    0  0.00000000000E+00  0.00000000000E+00  0.45593999997E+02  0.45594000000E+02  0.51100000000E-03 0. -1.
         11   -1    0    0    0    0 -0.00000000000E+00 -0.00000000000E+00 -0.45593999997E+02  0.45594000000E+02  0.51100000000E-03 0.  1.
    9900012    2    1    2    0    0 -0.28055565627E+02  0.10234844678E+02  0.11173797841E+02  0.59301944013E+02  0.49999999973E+02 0.  0.
        -12    1    1    2    0    0  0.28055565627E+02 -0.10234844678E+02 -0.11173797841E+02  0.31886055987E+02  0.00000000000E+00 0.  1.
         11    1    3    3    0    0  0.48181581471E+01  0.13802234630E+02  0.39191735402E+01  0.15135265118E+02  0.51100000000E-03 0. -1.
        -11    1    3    3    0    0 -0.29133232007E+02 -0.14768292005E+01 -0.63923075121E+01  0.29862816800E+02  0.51100000000E-03 0.  1.
         12    1    3    3    0    0 -0.37404917669E+01 -0.20905607510E+01  0.13646931813E+02  0.14303862094E+02  0.00000000000E+00 0. -1.
</event>
<event>
 7    1  0.5755468E-013  0.5930196E+02  0.7816164E-02  0.1266605E+00
        -11   -1    0    0    0    0  0.00000000000E+00  0.00000000000E+00  0.45593999997E+02  0.45594000000E+02  0.51100000000E-03 0. -1.
         11   -1    0    0    0    0 -0.00000000000E+00 -0.00000000000E+00 -0.45593999997E+02  0.45594000000E+02  0.51100000000E-03 0.  1.
    9900012    2    1    2    0    0  0.88757454180E+01  0.28288432482E+02 -0.11734794910E+02  0.59301957904E+02  0.50000025306E+02 0.  0.
        -12    1    1    2    0    0 -0.88757454180E+01 -0.28288432482E+02  0.11734794910E+02  0.31886042096E+02  0.00000000000E+00 0.  1.
         11    1    3    3    0    0  0.63180138737E+01 -0.20226829833E+01  0.61722935568E+01  0.90612225319E+01  0.51100000000E-03 0. -1.
        -11    1    3    3    0    0 -0.66601877292E+01  0.77084287104E+01 -0.23133700896E+02  0.25277382997E+02  0.51100000000E-03 0.  1.
        -12    1    3    3    0    0  0.92179192735E+01  0.22602686755E+02  0.52266124299E+01  0.24963352374E+02  0.00000000000E+00 0.  1.
</event>
<event>
 7    1  0.5755468E-013  0.5930194E+02  0.7816164E-02  0.1266605E+00
        -11   -1    0    0    0    0  0.00000000000E+00  0.00000000000E+00  0.45593999997E+02  0.45594000000E+02  0.51100000000E-03 0.  1.
         11   -1    0    0    0    0 -0.00000000000E+00 -0.00000000000E+00 -0.45593999997E+02  0.45594000000E+02  0.51100000000E-03 0. -1.
    9900012    2    1    2    0    0  0.15516536159E+02 -0.19436298845E+02 -0.19954654348E+02  0.59301939765E+02  0.49999992226E+02 0.  0.
        -12    1    1    2    0    0 -0.15516536159E+02  0.19436298845E+02  0.19954654348E+02  0.31886060235E+02  0.00000000000E+00 0.  1.
         11    1    3    3    0    0 -0.68965910165E+01  0.50310300806E+01  0.44360783954E+00  0.85481588367E+01  0.51100000000E-03 0.  1.
        -11    1    3    3    0    0  0.19903830574E+02 -0.27024097891E+02 -0.27111115401E+02  0.43144836503E+02  0.51100000000E-03 0. -1.
         12    1    3    3    0    0  0.25092966025E+01  0.25567689657E+01  0.67128532142E+01  0.76089444247E+01  0.00000000000E+00 0. -1.
</event>
<event>
 7    1  0.5755468E-013  0.5930194E+02  0.7816164E-02  0.1266605E+00
        -11   -1    0    0    0    0  0.00000000000E+00  0.00000000000E+00  0.45593999997E+02  0.45594000000E+02  0.51100000000E-03 0.  1.
         11   -1    0    0    0    0 -0.00000000000E+00 -0.00000000000E+00 -0.45593999997E+02  0.45594000000E+02  0.51100000000E-03 0. -1.
    9900012    2    1    2    0    0  0.11678293031E+02 -0.19605251959E+02  0.22270430821E+02  0.59301944718E+02  0.50000001258E+02 0.  0.
        -12    1    1    2    0    0 -0.11678293031E+02  0.19605251959E+02 -0.22270430821E+02  0.31886055282E+02  0.00000000000E+00 0.  1.
         11    1    3    3    0    0 -0.22422335796E+00 -0.31294341565E+01 -0.81938764381E+01  0.87740096648E+01  0.51100000000E-03 0. -1.
        -11    1    3    3    0    0  0.18974332399E+02 -0.99611701044E+01  0.34077955116E+02  0.40256145183E+02  0.51100000000E-03 0.  1.
        -12    1    3    3    0    0 -0.70718160095E+01 -0.65146476983E+01 -0.36136478564E+01  0.10271789870E+02  0.00000000000E+00 0.  1.
</event>
<event>
 7    1  0.5755468E-013  0.5930196E+02  0.7816164E-02  0.1266605E+00
        -11   -1    0    0    0    0  0.00000000000E+00  0.00000000000E+00  0.45593999997E+02  0.45594000000E+02  0.51100000000E-03 0.  1.
         11   -1    0    0    0    0 -0.00000000000E+00 -0.00000000000E+00 -0.45593999997E+02  0.45594000000E+02  0.51100000000E-03 0. -1.
    9900012    2    1    2    0    0 -0.12277306660E+02  0.17463612941E+02 -0.23685633721E+02  0.59301964176E+02  0.50000036746E+02 0.  0.
        -12    1    1    2    0    0  0.12277306660E+02 -0.17463612941E+02  0.23685633721E+02  0.31886035824E+02  0.00000000000E+00 0.  1.
         11    1    3    3    0    0 -0.16619257089E+01  0.78005006981E+01 -0.21983127038E+02  0.23385202219E+02  0.51100000000E-03 0. -1.
        -11    1    3    3    0    0 -0.19272013527E+02 -0.39225829198E+01 -0.22685054596E+01  0.19797557410E+02  0.51100000000E-03 0.  1.
        -12    1    3    3    0    0  0.86566325757E+01  0.13585695163E+02  0.56599877610E+00  0.16119204547E+02  0.00000000000E+00 0.  1.
</event>
<event>
 7    1  0.5755468E-013  0.5930192E+02  0.7816164E-02  0.1266605E+00
        -11   -1    0    0    0    0  0.00000000000E+00  0.00000000000E+00  0.45593999997E+02  0.45594000000E+02  0.51100000000E-03 0. -1.
         11   -1    0    0    0    0 -0.00000000000E+00 -0.00000000000E+00 -0.45593999997E+02  0.45594000000E+02  0.51100000000E-03 0.  1.
    9900012    2    1    2    0    0 -0.27945924190E+02 -0.83080576840E+00 -0.15331569459E+02  0.59301922488E+02  0.49999960716E+02 0.  0.
        -12    1    1    2    0    0  0.27945924190E+02  0.83080576840E+00  0.15331569459E+02  0.31886077512E+02  0.00000000000E+00 0.  1.
         11    1    3    3    0    0 -0.15840392779E+02 -0.24406940316E+01  0.16351221065E+01  0.16110513813E+02  0.51100000000E-03 0. -1.
        -11    1    3    3    0    0 -0.10273857170E+02 -0.71038963615E+01 -0.27016627913E+02  0.29764335517E+02  0.51100000000E-03 0.  1.
        -12    1    3    3    0    0 -0.18316742405E+01  0.87137846246E+01  0.10049936348E+02  0.13427073159E+02  0.00000000000E+00 0.  1.
</event>
<event>
 7    1  0.5755468E-013  0.5930186E+02  0.7816164E-02  0.1266605E+00
        -11   -1    0    0    0    0  0.00000000000E+00  0.00000000000E+00  0.45593999997E+02  0.45594000000E+02  0.51100000000E-03 0.  1.
         11   -1    0    0    0    0 -0.00000000000E+00 -0.00000000000E+00 -0.45593999997E+02  0.45594000000E+02  0.51100000000E-03 0. -1.
    9900012    2    1    2    0    0 -0.22536902230E+02 -0.10457209521E+02 -0.19986513662E+02  0.59301860042E+02  0.49999846830E+02 0.  0.
        -12    1    1    2    0    0  0.22536902230E+02  0.10457209521E+02  0.19986513662E+02  0.31886139958E+02  0.00000000000E+00 0.  1.
         11    1    3    3    0    0 -0.22521871035E+02 -0.26283770028E+01 -0.26673580026E+02  0.35008897615E+02  0.51100000000E-03 0. -1.
        -11    1    3    3    0    0 -0.69819156977E+01 -0.28502771543E-01  0.10960136723E+02  0.12995097401E+02  0.51100000000E-03 0.  1.
         12    1    3    3    0    0  0.69668845035E+01 -0.78003297462E+01 -0.42730703594E+01  0.11297865025E+02  0.00000000000E+00 0. -1.
</event>
<event>
 7    1  0.5755468E-013  0.5930196E+02  0.7816164E-02  0.1266605E+00
        -11   -1    0    0    0    0  0.00000000000E+00  0.00000000000E+00  0.45593999997E+02  0.45594000000E+02  0.51100000000E-03 0.  1.
         11   -1    0    0    0    0 -0.00000000000E+00 -0.00000000000E+00 -0.45593999997E+02  0.45594000000E+02  0.51100000000E-03 0. -1.
    9900012    2    1    2    0    0  0.24840480418E+02  0.16122586258E+02 -0.11820851452E+02  0.59301956281E+02  0.50000022346E+02 0.  0.
        -12    1    1    2    0    0 -0.24840480418E+02 -0.16122586258E+02  0.11820851452E+02  0.31886043719E+02  0.00000000000E+00 0.  1.
         11    1    3    3    0    0 -0.11796161787E+02  0.99551278388E+01 -0.38823809548E+01  0.15916245956E+02  0.51100000000E-03 0. -1.
        -11    1    3    3    0    0  0.64497821125E+01  0.48996745115E+01  0.60315799494E+01  0.10098834416E+02  0.51100000000E-03 0.  1.
         12    1    3    3    0    0  0.30186860092E+02  0.12677839074E+01 -0.13970050446E+02  0.33286875908E+02  0.00000000000E+00 0. -1.
</event>
<event>
 7    1  0.5755468E-013  0.5930195E+02  0.7816164E-02  0.1266605E+00
        -11   -1    0    0    0    0  0.00000000000E+00  0.00000000000E+00  0.45593999997E+02  0.45594000000E+02  0.51100000000E-03 0. -1.
         11   -1    0    0    0    0 -0.00000000000E+00 -0.00000000000E+00 -0.45593999997E+02  0.45594000000E+02  0.51100000000E-03 0.  1.
    9900012    2    1    2    0    0 -0.11599580812E+02 -0.21029414662E+02  0.20974596387E+02  0.59301948980E+02  0.50000009032E+02 0.  0.
        -12    1    1    2    0    0  0.11599580812E+02  0.21029414662E+02 -0.20974596387E+02  0.31886051020E+02  0.00000000000E+00 0.  1.
         11    1    3    3    0    0  0.15792402608E+02 -0.70723746765E+01 -0.31578293632E+00  0.17306593623E+02  0.51100000000E-03 0. -1.
        -11    1    3    3    0    0 -0.21044409157E+02 -0.42370956165E+01  0.21503289506E+02  0.30384397244E+02  0.51100000000E-03 0.  1.
        -12    1    3    3    0    0 -0.63475742626E+01 -0.97199443692E+01 -0.21291018325E+00  0.11610958113E+02  0.00000000000E+00 0.  1.
</event>
<event>
 7    1  0.5755468E-013  0.5930197E+02  0.7816164E-02  0.1266605E+00
        -11   -1    0    0    0    0  0.00000000000E+00  0.00000000000E+00  0.45593999997E+02  0.45594000000E+02  0.51100000000E-03 0. -1.
         11   -1    0    0    0    0 -0.00000000000E+00 -0.00000000000E+00 -0.45593999997E+02  0.45594000000E+02  0.51100000000E-03 0.  1.
    9900012    2    1    2    0    0 -0.25557642403E+01 -0.24988079850E+02  0.19641357592E+02  0.59301968678E+02  0.50000044955E+02 0.  0.
        -12    1    1    2    0    0  0.25557642403E+01  0.24988079850E+02 -0.19641357592E+02  0.31886031322E+02  0.00000000000E+00 0.  1.
         11    1    3    3    0    0  0.44170717217E+01 -0.12526269802E+02  0.94184225192E+01  0.16282648457E+02  0.51100000000E-03 0. -1.
        -11    1    3    3    0    0 -0.19390857043E+02 -0.18632107123E+01  0.16499266909E+02  0.25528468419E+02  0.51100000000E-03 0.  1.
        -12    1    3    3    0    0  0.12418021081E+02 -0.10598599335E+02 -0.62763318356E+01  0.17490851802E+02  0.00000000000E+00 0.  1.
</event>
<event>
 7    1  0.5776418E-013  0.5930193E+02  0.7816164E-02  0.1266605E+00
        -11   -1    0    0    0    0  0.00000000000E+00  0.00000000000E+00  0.45593999997E+02  0.45594000000E+02  0.51100000000E-03 0. -1.
         11   -1    0    0    0    0 -0.00000000000E+00 -0.00000000000E+00 -0.45593999997E+02  0.45594000000E+02  0.51100000000E-03 0.  1.
    9900012    2    1    2    0    0  0.25596274989E+02 -0.27347740531E+01  0.18816827760E+02  0.59301932676E+02  0.49999979297E+02 0.  0.
        -12    1    1    2    0    0 -0.25596274989E+02  0.27347740531E+01 -0.18816827760E+02  0.31886067324E+02  0.00000000000E+00 0.  1.
         11    1    3    3    0    0  0.17630141416E+02 -0.73413705786E+00  0.13657822857E+02  0.22313605020E+02  0.51100000000E-03 0. -1.
        -11    1    3    3    0    0  0.78671561842E+01  0.59549854325E+01 -0.13489857201E+02  0.16713175805E+02  0.51100000000E-03 0.  1.
         12    1    3    3    0    0  0.98977389225E-01 -0.79556224277E+01  0.18648862105E+02  0.20275151850E+02  0.00000000000E+00 0. -1.
</event>
<event>
 7    1  0.5755468E-013  0.5930195E+02  0.7816164E-02  0.1266605E+00
        -11   -1    0    0    0    0  0.00000000000E+00  0.00000000000E+00  0.45593999997E+02  0.45594000000E+02  0.51100000000E-03 0.  1.
         11   -1    0    0    0    0 -0.00000000000E+00 -0.00000000000E+00 -0.45593999997E+02  0.45594000000E+02  0.51100000000E-03 0. -1.
    9900012    2    1    2    0    0  0.67918098360E+01 -0.10124442861E+02 -0.29463315028E+02  0.59301953576E+02  0.50000017414E+02 0.  0.
        -12    1    1    2    0    0 -0.67918098360E+01  0.10124442861E+02  0.29463315028E+02  0.31886046424E+02  0.00000000000E+00 0.  1.
         11    1    3    3    0    0  0.62489681549E+01 -0.14255724699E+02 -0.49251281952E+01  0.16325813232E+02  0.51100000000E-03 0. -1.
        -11    1    3    3    0    0 -0.17156700547E+02  0.38347707522E+01 -0.12252491773E+02  0.21428518271E+02  0.51100000000E-03 0.  1.
        -12    1    3    3    0    0  0.17699542228E+02  0.29651108515E+00 -0.12285695060E+02  0.21547622073E+02  0.00000000000E+00 0.  1.
</event>
<event>
 7    1  0.5755468E-013  0.5930196E+02  0.7816164E-02  0.1266605E+00
        -11   -1    0    0    0    0  0.00000000000E+00  0.00000000000E+00  0.45593999997E+02  0.45594000000E+02  0.51100000000E-03 0.  1.
         11   -1    0    0    0    0 -0.00000000000E+00 -0.00000000000E+00 -0.45593999997E+02  0.45594000000E+02  0.51100000000E-03 0. -1.
    9900012    2    1    2    0    0  0.12197844642E+02 -0.29335403715E+02 -0.27140464869E+01  0.59301962721E+02  0.50000034092E+02 0.  0.
        -12    1    1    2    0    0 -0.12197844642E+02  0.29335403715E+02  0.27140464869E+01  0.31886037279E+02  0.00000000000E+00 0.  1.
         11    1    3    3    0    0  0.99558461570E+01 -0.96691733187E+01 -0.91366437723E+01  0.16615957542E+02  0.51100000000E-03 0. -1.
        -11    1    3    3    0    0 -0.83593606287E+01 -0.11105305978E+02  0.19402060556E+02  0.23867272259E+02  0.51100000000E-03 0.  1.
        -12    1    3    3    0    0  0.10601359113E+02 -0.85609244177E+01 -0.12979463270E+02  0.18818732920E+02  0.00000000000E+00 0.  1.
</event>
<event>
 7    1  0.5755468E-013  0.5930194E+02  0.7816164E-02  0.1266605E+00
        -11   -1    0    0    0    0  0.00000000000E+00  0.00000000000E+00  0.45593999997E+02  0.45594000000E+02  0.51100000000E-03 0.  1.
         11   -1    0    0    0    0 -0.00000000000E+00 -0.00000000000E+00 -0.45593999997E+02  0.45594000000E+02  0.51100000000E-03 0. -1.
    9900012    2    1    2    0    0  0.42388332939E+01  0.30775060310E+02 -0.71867253949E+01  0.59301936168E+02  0.49999985667E+02 0.  0.
        -12    1    1    2    0    0 -0.42388332939E+01 -0.30775060310E+02  0.71867253949E+01  0.31886063832E+02  0.00000000000E+00 0.  1.
         11    1    3    3    0    0 -0.30908168472E+01  0.41739129180E+02 -0.97932626468E+01  0.42983904511E+02  0.51100000000E-03 0. -1.
        -11    1    3    3    0    0  0.50602207960E+01 -0.26901044660E+00 -0.46405517858E-01  0.50675787965E+01  0.51100000000E-03 0.  1.
         12    1    3    3    0    0  0.22694293451E+01 -0.10695058424E+02  0.26529427698E+01  0.11250452861E+02  0.00000000000E+00 0. -1.
</event>
<event>
 7    1  0.5755468E-013  0.5930198E+02  0.7816164E-02  0.1266605E+00
        -11   -1    0    0    0    0  0.00000000000E+00  0.00000000000E+00  0.45593999997E+02  0.45594000000E+02  0.51100000000E-03 0. -1.
         11   -1    0    0    0    0 -0.00000000000E+00 -0.00000000000E+00 -0.45593999997E+02  0.45594000000E+02  0.51100000000E-03 0.  1.
    9900012    2    1    2    0    0 -0.18277549277E+02 -0.15185914002E+02  0.21261171188E+02  0.59301981247E+02  0.50000067880E+02 0.  0.
        -12    1    1    2    0    0  0.18277549277E+02  0.15185914002E+02 -0.21261171188E+02  0.31886018753E+02  0.00000000000E+00 0.  1.
         11    1    3    3    0    0 -0.13726106947E+02 -0.67703744527E+01  0.28721504478E+02  0.32544873665E+02  0.51100000000E-03 0. -1.
        -11    1    3    3    0    0  0.68821579272E+01 -0.44939424085E+00 -0.10434858666E+02  0.12508090524E+02  0.51100000000E-03 0.  1.
         12    1    3    3    0    0 -0.11433600257E+02 -0.79661453084E+01  0.29745253754E+01  0.14249017058E+02  0.00000000000E+00 0. -1.
</event>
<event>
 7    1  0.5755468E-013  0.5930193E+02  0.7816164E-02  0.1266605E+00
        -11   -1    0    0    0    0  0.00000000000E+00  0.00000000000E+00  0.45593999997E+02  0.45594000000E+02  0.51100000000E-03 0.  1.
         11   -1    0    0    0    0 -0.00000000000E+00 -0.00000000000E+00 -0.45593999997E+02  0.45594000000E+02  0.51100000000E-03 0. -1.
    9900012    2    1    2    0    0 -0.10706637853E+02  0.12895951079E+02 -0.27125332070E+02  0.59301932693E+02  0.49999979329E+02 0.  0.
        -12    1    1    2    0    0  0.10706637853E+02 -0.12895951079E+02  0.27125332070E+02  0.31886067307E+02  0.00000000000E+00 0.  1.
         11    1    3    3    0    0 -0.12335134474E+02  0.51287712244E+01 -0.19299509687E+02  0.23471917501E+02  0.51100000000E-03 0. -1.
        -11    1    3    3    0    0  0.25530471196E+01 -0.99868957240E+01  0.71827403061E+01  0.12563753196E+02  0.51100000000E-03 0.  1.
        -12    1    3    3    0    0 -0.92455049930E+00  0.17754075579E+02 -0.15008562689E+02  0.23266261996E+02  0.00000000000E+00 0.  1.
</event>
<event>
 7    1  0.5755468E-013  0.5930182E+02  0.7816164E-02  0.1266605E+00
        -11   -1    0    0    0    0  0.00000000000E+00  0.00000000000E+00  0.45593999997E+02  0.45594000000E+02  0.51100000000E-03 0.  1.
         11   -1    0    0    0    0 -0.00000000000E+00 -0.00000000000E+00 -0.45593999997E+02  0.45594000000E+02  0.51100000000E-03 0. -1.
    9900012    2    1    2    0    0 -0.22250120787E+02  0.17128484000E+02 -0.15108787561E+02  0.59301822733E+02  0.49999778786E+02 0.  0.
        -12    1    1    2    0    0  0.22250120787E+02 -0.17128484000E+02  0.15108787561E+02  0.31886177267E+02  0.00000000000E+00 0.  1.
         11    1    3    3    0    0 -0.19659849782E+02  0.10018259216E+02 -0.78245123409E+01  0.23411497278E+02  0.51100000000E-03 0. -1.
        -11    1    3    3    0    0  0.15315630718E+02  0.54826671157E+01  0.55285357091E+00  0.16276788084E+02  0.51100000000E-03 0.  1.
        -12    1    3    3    0    0 -0.17905901724E+02  0.16275576686E+01 -0.78371287907E+01  0.19613537371E+02  0.00000000000E+00 0.  1.
</event>
<event>
 7    1  0.5755468E-013  0.5930192E+02  0.7816164E-02  0.1266605E+00
        -11   -1    0    0    0    0  0.00000000000E+00  0.00000000000E+00  0.45593999997E+02  0.45594000000E+02  0.51100000000E-03 0.  1.
         11   -1    0    0    0    0 -0.00000000000E+00 -0.00000000000E+00 -0.45593999997E+02  0.45594000000E+02  0.51100000000E-03 0. -1.
    9900012    2    1    2    0    0  0.25469591842E+02  0.69365196512E+01 -0.17885941915E+02  0.59301916333E+02  0.49999949491E+02 0.  0.
        -12    1    1    2    0    0 -0.25469591842E+02 -0.69365196512E+01  0.17885941915E+02  0.31886083667E+02  0.00000000000E+00 0.  1.
         11    1    3    3    0    0  0.63606204926E+01 -0.12515920162E+02 -0.25160299393E+02  0.28812261563E+02  0.51100000000E-03 0. -1.
        -11    1    3    3    0    0  0.18744732821E+02  0.15793452657E+02  0.27582293141E+01  0.24665887062E+02  0.51100000000E-03 0.  1.
         12    1    3    3    0    0  0.36423852808E+00  0.36589871560E+01  0.45161281643E+01  0.58237677073E+01  0.00000000000E+00 0. -1.
</event>
<event>
 7    1  0.5755468E-013  0.5930193E+02  0.7816164E-02  0.1266605E+00
        -11   -1    0    0    0    0  0.00000000000E+00  0.00000000000E+00  0.45593999997E+02  0.45594000000E+02  0.51100000000E-03 0.  1.
         11   -1    0    0    0    0 -0.00000000000E+00 -0.00000000000E+00 -0.45593999997E+02  0.45594000000E+02  0.51100000000E-03 0. -1.
    9900012    2    1    2    0    0 -0.80614330857E+01  0.19818850739E+01 -0.30786472573E+02  0.59301929918E+02  0.49999974266E+02 0.  0.
        -12    1    1    2    0    0  0.80614330857E+01 -0.19818850739E+01  0.30786472573E+02  0.31886070082E+02  0.00000000000E+00 0.  1.
         11    1    3    3    0    0 -0.14200106658E+02  0.17745519220E+02 -0.52344634628E+01  0.23322651854E+02  0.51100000000E-03 0. -1.
        -11    1    3    3    0    0  0.12890551748E+01  0.35724640839E+01 -0.99956072351E+01  0.10692816614E+02  0.51100000000E-03 0.  1.
         12    1    3    3    0    0  0.48496183973E+01 -0.19336098230E+02 -0.15556401875E+02  0.25286461450E+02  0.00000000000E+00 0. -1.
</event>
<event>
 7    1  0.5755468E-013  0.5930194E+02  0.7816164E-02  0.1266605E+00
        -11   -1    0    0    0    0  0.00000000000E+00  0.00000000000E+00  0.45593999997E+02  0.45594000000E+02  0.51100000000E-03 0. -1.
         11   -1    0    0    0    0 -0.00000000000E+00 -0.00000000000E+00 -0.45593999997E+02  0.45594000000E+02  0.51100000000E-03 0.  1.
    9900012    2    1    2    0    0  0.57372659982E+01  0.66880276082E+01  0.30644324489E+02  0.59301944147E+02  0.50000000218E+02 0.  0.
        -12    1    1    2    0    0 -0.57372659982E+01 -0.66880276082E+01 -0.30644324489E+02  0.31886055853E+02  0.00000000000E+00 0.  1.
         11    1    3    3    0    0 -0.48157516560E+01  0.11538174699E+02  0.83162688671E+01  0.15016033682E+02  0.51100000000E-03 0. -1.
        -11    1    3    3    0    0  0.87803651599E+01 -0.19070722388E+02  0.21316583815E+02  0.29919625842E+02  0.51100000000E-03 0.  1.
        -12    1    3    3    0    0  0.17726524943E+01  0.14220575297E+02  0.10114718075E+01  0.14366284623E+02  0.00000000000E+00 0.  1.
</event>
<event>
 7    1  0.5755468E-013  0.5930191E+02  0.7816164E-02  0.1266605E+00
        -11   -1    0    0    0    0  0.00000000000E+00  0.00000000000E+00  0.45593999997E+02  0.45594000000E+02  0.51100000000E-03 0.  1.
         11   -1    0    0    0    0 -0.00000000000E+00 -0.00000000000E+00 -0.45593999997E+02  0.45594000000E+02  0.51100000000E-03 0. -1.
    9900012    2    1    2    0    0  0.13858121394E+02 -0.10093552217E+02 -0.26884859773E+02  0.59301905697E+02  0.49999930094E+02 0.  0.
        -12    1    1    2    0    0 -0.13858121394E+02  0.10093552217E+02  0.26884859773E+02  0.31886094303E+02  0.00000000000E+00 0.  1.
         11    1    3    3    0    0  0.27261554559E+02  0.10127523231E+01 -0.93624581176E+01  0.28842219860E+02  0.51100000000E-03 0. -1.
        -11    1    3    3    0    0 -0.66038744766E+01 -0.97838323327E+01 -0.20227343722E+00  0.11805737928E+02  0.51100000000E-03 0.  1.
         12    1    3    3    0    0 -0.67995586884E+01 -0.13224722071E+01 -0.17320128218E+02  0.18653947909E+02  0.00000000000E+00 0. -1.
</event>
<event>
 7    1  0.5755468E-013  0.5930193E+02  0.7816164E-02  0.1266605E+00
        -11   -1    0    0    0    0  0.00000000000E+00  0.00000000000E+00  0.45593999997E+02  0.45594000000E+02  0.51100000000E-03 0.  1.
         11   -1    0    0    0    0 -0.00000000000E+00 -0.00000000000E+00 -0.45593999997E+02  0.45594000000E+02  0.51100000000E-03 0. -1.
    9900012    2    1    2    0    0  0.12798874148E+02  0.56494003035E+01 -0.28652997963E+02  0.59301934148E+02  0.49999981981E+02 0.  0.
        -12    1    1    2    0    0 -0.12798874148E+02 -0.56494003035E+01  0.28652997963E+02  0.31886065852E+02  0.00000000000E+00 0.  1.
         11    1    3    3    0    0 -0.22245040272E+01 -0.10538467367E+02 -0.25285033870E+02  0.27483461403E+02  0.51100000000E-03 0. -1.
        -11    1    3    3    0    0  0.18497016934E+02  0.15124959489E+02 -0.86471817938E+01  0.25410190638E+02  0.51100000000E-03 0.  1.
         12    1    3    3    0    0 -0.34736387584E+01  0.10629081813E+01  0.52792177010E+01  0.64082821068E+01  0.00000000000E+00 0. -1.
</event>
<event>
 7    1  0.5755468E-013  0.5930193E+02  0.7816164E-02  0.1266605E+00
        -11   -1    0    0    0    0  0.00000000000E+00  0.00000000000E+00  0.45593999997E+02  0.45594000000E+02  0.51100000000E-03 0.  1.
         11   -1    0    0    0    0 -0.00000000000E+00 -0.00000000000E+00 -0.45593999997E+02  0.45594000000E+02  0.51100000000E-03 0. -1.
    9900012    2    1    2    0    0  0.25716059822E+02 -0.12874624179E+02 -0.13771338261E+02  0.59301930345E+02  0.49999975046E+02 0.  0.
        -12    1    1    2    0    0 -0.25716059822E+02  0.12874624179E+02  0.13771338261E+02  0.31886069655E+02  0.00000000000E+00 0.  1.
         11    1    3    3    0    0  0.11821386542E+02 -0.11488632312E+02  0.10387065931E+02  0.19483967540E+02  0.51100000000E-03 0. -1.
        -11    1    3    3    0    0  0.84963533862E+01  0.13328756028E+02 -0.14200525135E+02  0.21248498123E+02  0.51100000000E-03 0.  1.
         12    1    3    3    0    0  0.53983198946E+01 -0.14714747894E+02 -0.99578790566E+01  0.18569464682E+02  0.00000000000E+00 0. -1.
</event>
<event>
 7    1  0.5755468E-013  0.5930189E+02  0.7816164E-02  0.1266605E+00
        -11   -1    0    0    0    0  0.00000000000E+00  0.00000000000E+00  0.45593999997E+02  0.45594000000E+02  0.51100000000E-03 0.  1.
         11   -1    0    0    0    0 -0.00000000000E+00 -0.00000000000E+00 -0.45593999997E+02  0.45594000000E+02  0.51100000000E-03 0. -1.
    9900012    2    1    2    0    0  0.27242459687E+02 -0.67622044503E+01 -0.15127625055E+02  0.59301889252E+02  0.49999900102E+02 0.  0.
        -12    1    1    2    0    0 -0.27242459687E+02  0.67622044503E+01  0.15127625055E+02  0.31886110748E+02  0.00000000000E+00 0.  1.
         11    1    3    3    0    0  0.21671801274E+00 -0.13089719548E+02  0.71102744487E+01  0.14897775926E+02  0.51100000000E-03 0. -1.
        -11    1    3    3    0    0 -0.92221257797E+00  0.66210177695E+01 -0.13593543084E+02  0.15148358531E+02  0.51100000000E-03 0.  1.
         12    1    3    3    0    0  0.27947954253E+02 -0.29350267223E+00 -0.86443564192E+01  0.29255754795E+02  0.00000000000E+00 0. -1.
</event>
<event>
 7    1  0.5755468E-013  0.5930187E+02  0.7816164E-02  0.1266605E+00
        -11   -1    0    0    0    0  0.00000000000E+00  0.00000000000E+00  0.45593999997E+02  0.45594000000E+02  0.51100000000E-03 0. -1.
         11   -1    0    0    0    0 -0.00000000000E+00 -0.00000000000E+00 -0.45593999997E+02  0.45594000000E+02  0.51100000000E-03 0.  1.
    9900012    2    1    2    0    0 -0.24877715594E+02 -0.13583479044E+01  0.19899230452E+02  0.59301871123E+02  0.49999867039E+02 0.  0.
        -12    1    1    2    0    0  0.24877715594E+02  0.13583479044E+01 -0.19899230452E+02  0.31886128877E+02  0.00000000000E+00 0.  1.
         11    1    3    3    0    0 -0.69145547936E+01 -0.10115974885E+02 -0.10042063988E+02  0.15842571296E+02  0.51100000000E-03 0.  1.
        -11    1    3    3    0    0 -0.84189503957E+01  0.11027917254E+02  0.30628878116E+02  0.33624720960E+02  0.51100000000E-03 0. -1.
         12    1    3    3    0    0 -0.95442104045E+01 -0.22702902742E+01 -0.68758367581E+00  0.98345788667E+01  0.00000000000E+00 0. -1.
</event>
<event>
 7    1  0.5755468E-013  0.5930196E+02  0.7816164E-02  0.1266605E+00
        -11   -1    0    0    0    0  0.00000000000E+00  0.00000000000E+00  0.45593999997E+02  0.45594000000E+02  0.51100000000E-03 0. -1.
         11   -1    0    0    0    0 -0.00000000000E+00 -0.00000000000E+00 -0.45593999997E+02  0.45594000000E+02  0.51100000000E-03 0.  1.
    9900012    2    1    2    0    0  0.13912119998E+02 -0.11661529198E+02  0.26214141951E+02  0.59301959413E+02  0.50000028059E+02 0.  0.
        -12    1    1    2    0    0 -0.13912119998E+02  0.11661529198E+02 -0.26214141951E+02  0.31886040587E+02  0.00000000000E+00 0.  1.
         11    1    3    3    0    0  0.11801475139E+02  0.70880512432E+01 -0.72192410956E+01  0.15544540139E+02  0.51100000000E-03 0. -1.
        -11    1    3    3    0    0 -0.77059783398E+01 -0.10571288607E+01  0.69613332594E+01  0.10438380363E+02  0.51100000000E-03 0.  1.
         12    1    3    3    0    0  0.98166231988E+01 -0.17692451581E+02  0.26472049787E+02  0.33319038910E+02  0.00000000000E+00 0. -1.
</event>
<event>
 7    1  0.5755468E-013  0.5930192E+02  0.7816164E-02  0.1266605E+00
        -11   -1    0    0    0    0  0.00000000000E+00  0.00000000000E+00  0.45593999997E+02  0.45594000000E+02  0.51100000000E-03 0. -1.
         11   -1    0    0    0    0 -0.00000000000E+00 -0.00000000000E+00 -0.45593999997E+02  0.45594000000E+02  0.51100000000E-03 0.  1.
    9900012    2    1    2    0    0  0.86014360971E+01 -0.29783808371E+02  0.74607059815E+01  0.59301920314E+02  0.49999956751E+02 0.  0.
        -12    1    1    2    0    0 -0.86014360971E+01  0.29783808371E+02 -0.74607059815E+01  0.31886079686E+02  0.00000000000E+00 0.  1.
         11    1    3    3    0    0  0.59782098232E+01 -0.34641238472E+02  0.40091506439E+01  0.35381176983E+02  0.51100000000E-03 0. -1.
        -11    1    3    3    0    0  0.70153493458E+01  0.57144086827E+01 -0.77150719749E+01  0.11890833817E+02  0.51100000000E-03 0.  1.
        -12    1    3    3    0    0 -0.43921230719E+01 -0.85697858210E+00  0.11166627313E+02  0.12029909514E+02  0.00000000000E+00 0.  1.
</event>
<event>
 7    1  0.5755468E-013  0.5930194E+02  0.7816164E-02  0.1266605E+00
        -11   -1    0    0    0    0  0.00000000000E+00  0.00000000000E+00  0.45593999997E+02  0.45594000000E+02  0.51100000000E-03 0. -1.
         11   -1    0    0    0    0 -0.00000000000E+00 -0.00000000000E+00 -0.45593999997E+02  0.45594000000E+02  0.51100000000E-03 0.  1.
    9900012    2    1    2    0    0  0.49844358390E+01 -0.13854687285E+01  0.31463574544E+02  0.59301942744E+02  0.49999997659E+02 0.  0.
        -12    1    1    2    0    0 -0.49844358390E+01  0.13854687285E+01 -0.31463574544E+02  0.31886057256E+02  0.00000000000E+00 0.  1.
         11    1    3    3    0    0 -0.83027014157E+01  0.69440864911E+01  0.18187109727E+02  0.21164265839E+02  0.51100000000E-03 0. -1.
        -11    1    3    3    0    0  0.19589332703E+02  0.70960266889E+00 -0.15515976756E+01  0.19663492754E+02  0.51100000000E-03 0.  1.
        -12    1    3    3    0    0 -0.63021954479E+01 -0.90391578885E+01  0.14828062492E+02  0.18474184152E+02  0.00000000000E+00 0.  1.
</event>
<event>
 7    1  0.5755468E-013  0.5930196E+02  0.7816164E-02  0.1266605E+00
        -11   -1    0    0    0    0  0.00000000000E+00  0.00000000000E+00  0.45593999997E+02  0.45594000000E+02  0.51100000000E-03 0.  1.
         11   -1    0    0    0    0 -0.00000000000E+00 -0.00000000000E+00 -0.45593999997E+02  0.45594000000E+02  0.51100000000E-03 0. -1.
    9900012    2    1    2    0    0  0.24459476526E+02  0.16635279097E+02 -0.11904676080E+02  0.59301955793E+02  0.50000021457E+02 0.  0.
        -12    1    1    2    0    0 -0.24459476526E+02 -0.16635279097E+02  0.11904676080E+02  0.31886044207E+02  0.00000000000E+00 0.  1.
         11    1    3    3    0    0  0.11312853263E+02  0.17206052197E+02 -0.25489130003E+02  0.32767737636E+02  0.51100000000E-03 0. -1.
        -11    1    3    3    0    0 -0.27122657996E+01 -0.54708668168E+01  0.47127866383E+01  0.77134381215E+01  0.51100000000E-03 0.  1.
         12    1    3    3    0    0  0.15858889063E+02  0.49000937164E+01  0.88716672851E+01  0.18820780036E+02  0.00000000000E+00 0. -1.
</event>
<event>
 7    1  0.5755468E-013  0.5930196E+02  0.7816164E-02  0.1266605E+00
        -11   -1    0    0    0    0  0.00000000000E+00  0.00000000000E+00  0.45593999997E+02  0.45594000000E+02  0.51100000000E-03 0.  1.
         11   -1    0    0    0    0 -0.00000000000E+00 -0.00000000000E+00 -0.45593999997E+02  0.45594000000E+02  0.51100000000E-03 0. -1.
    9900012    2    1    2    0    0 -0.62754851553E+01  0.30614944382E+02 -0.63295136549E+01  0.59301964239E+02  0.50000036860E+02 0.  0.
        -12    1    1    2    0    0  0.62754851553E+01 -0.30614944382E+02  0.63295136549E+01  0.31886035761E+02  0.00000000000E+00 0.  1.
         11    1    3    3    0    0  0.85628359154E+01  0.21897715089E+02 -0.59586100605E+01  0.24255661590E+02  0.51100000000E-03 0. -1.
        -11    1    3    3    0    0 -0.16911726834E+02 -0.12917348423E+01 -0.11066445766E+02  0.20251945723E+02  0.51100000000E-03 0.  1.
        -12    1    3    3    0    0  0.20734057632E+01  0.10008964135E+02  0.10695542171E+02  0.14794356926E+02  0.00000000000E+00 0.  1.
</event>
<event>
 7    1  0.5755468E-013  0.5930196E+02  0.7816164E-02  0.1266605E+00
        -11   -1    0    0    0    0  0.00000000000E+00  0.00000000000E+00  0.45593999997E+02  0.45594000000E+02  0.51100000000E-03 0.  1.
         11   -1    0    0    0    0 -0.00000000000E+00 -0.00000000000E+00 -0.45593999997E+02  0.45594000000E+02  0.51100000000E-03 0. -1.
    9900012    2    1    2    0    0 -0.14840579898E+02  0.14223158802E+02 -0.24375775941E+02  0.59301960567E+02  0.50000030163E+02 0.  0.
        -12    1    1    2    0    0  0.14840579898E+02 -0.14223158802E+02  0.24375775941E+02  0.31886039433E+02  0.00000000000E+00 0.  1.
         11    1    3    3    0    0  0.49515378055E+00  0.29530245745E+02 -0.10945643711E+02  0.31497423823E+02  0.51100000000E-03 0. -1.
        -11    1    3    3    0    0 -0.10248200318E+02 -0.94539036946E+01 -0.21379449762E+01  0.14105768813E+02  0.51100000000E-03 0.  1.
         12    1    3    3    0    0 -0.50875333615E+01 -0.58531832479E+01 -0.11292187254E+02  0.13698767930E+02  0.00000000000E+00 0. -1.
</event>
<event>
 7    1  0.5755468E-013  0.5930205E+02  0.7816164E-02  0.1266604E+00
        -11   -1    0    0    0    0  0.00000000000E+00  0.00000000000E+00  0.45593999997E+02  0.45594000000E+02  0.51100000000E-03 0.  1.
         11   -1    0    0    0    0 -0.00000000000E+00 -0.00000000000E+00 -0.45593999997E+02  0.45594000000E+02  0.51100000000E-03 0. -1.
    9900012    2    1    2    0    0 -0.77765162008E+01  0.20214470343E+00 -0.30922458571E+02  0.59302054651E+02  0.50000201750E+02 0.  0.
        -12    1    1    2    0    0  0.77765162008E+01 -0.20214470343E+00  0.30922458571E+02  0.31885945349E+02  0.00000000000E+00 0.  1.
         11    1    3    3    0    0  0.61341960406E+01  0.71186881054E+01 -0.15748488575E+02  0.18339001447E+02  0.51100000000E-03 0. -1.
        -11    1    3    3    0    0 -0.19814745564E+02 -0.16538496028E+02 -0.14614608477E+02  0.29660289510E+02  0.51100000000E-03 0.  1.
        -12    1    3    3    0    0  0.59040333227E+01  0.96219526259E+01 -0.55936151928E+00  0.11302763694E+02  0.00000000000E+00 0.  1.
</event>
<event>
 7    1  0.5755468E-013  0.5930195E+02  0.7816164E-02  0.1266605E+00
        -11   -1    0    0    0    0  0.00000000000E+00  0.00000000000E+00  0.45593999997E+02  0.45594000000E+02  0.51100000000E-03 0.  1.
         11   -1    0    0    0    0 -0.00000000000E+00 -0.00000000000E+00 -0.45593999997E+02  0.45594000000E+02  0.51100000000E-03 0. -1.
    9900012    2    1    2    0    0  0.47368278115E+01 -0.31532205024E+02 -0.51440551458E-01  0.59301950738E+02  0.50000012238E+02 0.  0.
        -12    1    1    2    0    0 -0.47368278115E+01  0.31532205024E+02  0.51440551458E-01  0.31886049262E+02  0.00000000000E+00 0.  1.
         11    1    3    3    0    0  0.20115014126E+02 -0.28328900417E+02 -0.89252941537E+01  0.35872012323E+02  0.51100000000E-03 0. -1.
        -11    1    3    3    0    0 -0.17230336917E+02  0.17050520169E+00  0.92602011868E+01  0.19561822732E+02  0.51100000000E-03 0.  1.
        -12    1    3    3    0    0  0.18521506021E+01 -0.33738098090E+01 -0.38634758458E+00  0.38681156829E+01  0.00000000000E+00 0.  1.
</event>
<event>
 7    1  0.5755468E-013  0.5930191E+02  0.7816164E-02  0.1266605E+00
        -11   -1    0    0    0    0  0.00000000000E+00  0.00000000000E+00  0.45593999997E+02  0.45594000000E+02  0.51100000000E-03 0. -1.
         11   -1    0    0    0    0 -0.00000000000E+00 -0.00000000000E+00 -0.45593999997E+02  0.45594000000E+02  0.51100000000E-03 0.  1.
    9900012    2    1    2    0    0 -0.19805575854E+01 -0.30991349268E+02  0.72343683646E+01  0.59301914893E+02  0.49999946866E+02 0.  0.
        -12    1    1    2    0    0  0.19805575854E+01  0.30991349268E+02 -0.72343683646E+01  0.31886085107E+02  0.00000000000E+00 0.  1.
         11    1    3    3    0    0 -0.20371735083E+02 -0.97984787040E+01  0.12578824346E+02  0.25869762221E+02  0.51100000000E-03 0. -1.
        -11    1    3    3    0    0  0.15028501136E+01 -0.92975596991E+01 -0.83138400372E+01  0.12562766863E+02  0.51100000000E-03 0.  1.
         12    1    3    3    0    0  0.16888327384E+02 -0.11895310865E+02  0.29693840562E+01  0.20869385809E+02  0.00000000000E+00 0. -1.
</event>
<event>
 7    1  0.5755468E-013  0.5930192E+02  0.7816164E-02  0.1266605E+00
        -11   -1    0    0    0    0  0.00000000000E+00  0.00000000000E+00  0.45593999997E+02  0.45594000000E+02  0.51100000000E-03 0.  1.
         11   -1    0    0    0    0 -0.00000000000E+00 -0.00000000000E+00 -0.45593999997E+02  0.45594000000E+02  0.51100000000E-03 0. -1.
    9900012    2    1    2    0    0  0.64139094266E+01  0.10435970882E+02 -0.29439329319E+02  0.59301924149E+02  0.49999963746E+02 0.  0.
        -12    1    1    2    0    0 -0.64139094266E+01 -0.10435970882E+02  0.29439329319E+02  0.31886075851E+02  0.00000000000E+00 0.  1.
         11    1    3    3    0    0  0.10149435475E+02  0.54539497170E+00 -0.21534996646E+02  0.23813117749E+02  0.51100000000E-03 0. -1.
        -11    1    3    3    0    0 -0.94033899851E+01  0.83813301212E+01  0.10357654024E+02  0.16308017506E+02  0.51100000000E-03 0.  1.
        -12    1    3    3    0    0  0.56678639366E+01  0.15092457891E+01 -0.18261986698E+02  0.19180788895E+02  0.00000000000E+00 0.  1.
</event>
<event>
 7    1  0.5755468E-013  0.5930193E+02  0.7816164E-02  0.1266605E+00
        -11   -1    0    0    0    0  0.00000000000E+00  0.00000000000E+00  0.45593999997E+02  0.45594000000E+02  0.51100000000E-03 0. -1.
         11   -1    0    0    0    0 -0.00000000000E+00 -0.00000000000E+00 -0.45593999997E+02  0.45594000000E+02  0.51100000000E-03 0.  1.
    9900012    2    1    2    0    0 -0.10864838873E+02  0.23409557928E+02  0.18726160344E+02  0.59301933963E+02  0.49999981644E+02 0.  0.
        -12    1    1    2    0    0  0.10864838873E+02 -0.23409557928E+02 -0.18726160344E+02  0.31886066037E+02  0.00000000000E+00 0.  1.
         11    1    3    3    0    0  0.13278334034E+02  0.21502637509E+02 -0.15989782429E+01  0.25322604649E+02  0.51100000000E-03 0. -1.
        -11    1    3    3    0    0 -0.95596418058E+01 -0.50002257951E+01  0.10676436099E+02  0.15178119037E+02  0.51100000000E-03 0.  1.
        -12    1    3    3    0    0 -0.14583531101E+02  0.69071462143E+01  0.96487024875E+01  0.18801210277E+02  0.00000000000E+00 0.  1.
</event>
<event>
 7    1  0.5755468E-013  0.5930195E+02  0.7816164E-02  0.1266605E+00
        -11   -1    0    0    0    0  0.00000000000E+00  0.00000000000E+00  0.45593999997E+02  0.45594000000E+02  0.51100000000E-03 0. -1.
         11   -1    0    0    0    0 -0.00000000000E+00 -0.00000000000E+00 -0.45593999997E+02  0.45594000000E+02  0.51100000000E-03 0.  1.
    9900012    2    1    2    0    0 -0.35044870976E+01  0.80099472095E+01  0.30663979076E+02  0.59301948239E+02  0.50000007681E+02 0.  0.
        -12    1    1    2    0    0  0.35044870976E+01 -0.80099472095E+01 -0.30663979076E+02  0.31886051761E+02  0.00000000000E+00 0.  1.
         11    1    3    3    0    0 -0.18164364852E+02 -0.25893004370E+01 -0.47363372503E+01  0.18949446379E+02  0.51100000000E-03 0.  1.
        -11    1    3    3    0    0  0.13387005773E+02  0.10994599345E+02  0.34835163832E+02  0.38904778341E+02  0.51100000000E-03 0. -1.
        -12    1    3    3    0    0  0.12728719818E+01 -0.39535169819E+00  0.56515249386E+00  0.14477235194E+01  0.00000000000E+00 0.  1.
</event>
<event>
 7    1  0.5755468E-013  0.5930190E+02  0.7816164E-02  0.1266605E+00
        -11   -1    0    0    0    0  0.00000000000E+00  0.00000000000E+00  0.45593999997E+02  0.45594000000E+02  0.51100000000E-03 0.  1.
         11   -1    0    0    0    0 -0.00000000000E+00 -0.00000000000E+00 -0.45593999997E+02  0.45594000000E+02  0.51100000000E-03 0. -1.
    9900012    2    1    2    0    0 -0.18113496164E+02  0.21476835328E+02 -0.15078804748E+02  0.59301897203E+02  0.49999914602E+02 0.  0.
        -12    1    1    2    0    0  0.18113496164E+02 -0.21476835328E+02  0.15078804748E+02  0.31886102797E+02  0.00000000000E+00 0.  1.
         11    1    3    3    0    0 -0.44985433099E+01  0.29025965230E+02 -0.22294916682E+02  0.36875559109E+02  0.51100000000E-03 0. -1.
        -11    1    3    3    0    0  0.19428202570E+01 -0.45039101400E+01  0.38115021472E+01  0.62118681553E+01  0.51100000000E-03 0.  1.
         12    1    3    3    0    0 -0.15557773111E+02 -0.30452197621E+01  0.34046097876E+01  0.16214469939E+02  0.00000000000E+00 0. -1.
</event>
<event>
 7    1  0.5755468E-013  0.5930191E+02  0.7816164E-02  0.1266605E+00
        -11   -1    0    0    0    0  0.00000000000E+00  0.00000000000E+00  0.45593999997E+02  0.45594000000E+02  0.51100000000E-03 0. -1.
         11   -1    0    0    0    0 -0.00000000000E+00 -0.00000000000E+00 -0.45593999997E+02  0.45594000000E+02  0.51100000000E-03 0.  1.
    9900012    2    1    2    0    0 -0.57891177171E+01 -0.30858881462E+02  0.55622337355E+01  0.59301907527E+02  0.49999933432E+02 0.  0.
        -12    1    1    2    0    0  0.57891177171E+01  0.30858881462E+02 -0.55622337355E+01  0.31886092473E+02  0.00000000000E+00 0.  1.
         11    1    3    3    0    0  0.14752050865E+02 -0.21118842502E+02  0.16540471472E+02  0.30613978998E+02  0.51100000000E-03 0. -1.
        -11    1    3    3    0    0 -0.14986824554E+02 -0.43841248142E-01 -0.85446744855E+01  0.17251617159E+02  0.51100000000E-03 0.  1.
         12    1    3    3    0    0 -0.55543440275E+01 -0.96961977125E+01 -0.24335632512E+01  0.11436311370E+02  0.00000000000E+00 0. -1.
</event>
<event>
 7    1  0.5755468E-013  0.5930193E+02  0.7816164E-02  0.1266605E+00
        -11   -1    0    0    0    0  0.00000000000E+00  0.00000000000E+00  0.45593999997E+02  0.45594000000E+02  0.51100000000E-03 0.  1.
         11   -1    0    0    0    0 -0.00000000000E+00 -0.00000000000E+00 -0.45593999997E+02  0.45594000000E+02  0.51100000000E-03 0. -1.
    9900012    2    1    2    0    0 -0.60594649598E+00 -0.18852201465E+02 -0.25708927592E+02  0.59301927348E+02  0.49999969580E+02 0.  0.
        -12    1    1    2    0    0  0.60594649598E+00  0.18852201465E+02  0.25708927592E+02  0.31886072652E+02  0.00000000000E+00 0.  1.
         11    1    3    3    0    0  0.10122418475E+02 -0.30578565292E+02 -0.19464063860E+02  0.37634582412E+02  0.51100000000E-03 0.  1.
        -11    1    3    3    0    0 -0.13138858216E+02  0.58947082386E+01 -0.37414663883E+01  0.14878701268E+02  0.51100000000E-03 0. -1.
        -12    1    3    3    0    0  0.24104932445E+01  0.58316555882E+01 -0.25033973441E+01  0.67886436675E+01  0.00000000000E+00 0.  1.
</event>
<event>
 7    1  0.5755468E-013  0.5930193E+02  0.7816164E-02  0.1266605E+00
        -11   -1    0    0    0    0  0.00000000000E+00  0.00000000000E+00  0.45593999997E+02  0.45594000000E+02  0.51100000000E-03 0. -1.
         11   -1    0    0    0    0 -0.00000000000E+00 -0.00000000000E+00 -0.45593999997E+02  0.45594000000E+02  0.51100000000E-03 0.  1.
    9900012    2    1    2    0    0 -0.17151675595E+02 -0.26862758221E+02  0.96612341006E+00  0.59301934871E+02  0.49999983300E+02 0.  0.
        -12    1    1    2    0    0  0.17151675595E+02  0.26862758221E+02 -0.96612341006E+00  0.31886065129E+02  0.00000000000E+00 0.  1.
         11    1    3    3    0    0 -0.15190852382E+01 -0.17324069631E+01 -0.18439481949E+02  0.18582877836E+02  0.51100000000E-03 0.  1.
        -11    1    3    3    0    0 -0.68025565545E+01 -0.22531215493E+02  0.20799631871E+02  0.31409475218E+02  0.51100000000E-03 0. -1.
         12    1    3    3    0    0 -0.88300338026E+01 -0.25991357655E+01 -0.13940265113E+01  0.93095818164E+01  0.00000000000E+00 0. -1.
</event>
<event>
 7    1  0.5755468E-013  0.5930195E+02  0.7816164E-02  0.1266605E+00
        -11   -1    0    0    0    0  0.00000000000E+00  0.00000000000E+00  0.45593999997E+02  0.45594000000E+02  0.51100000000E-03 0.  1.
         11   -1    0    0    0    0 -0.00000000000E+00 -0.00000000000E+00 -0.45593999997E+02  0.45594000000E+02  0.51100000000E-03 0. -1.
    9900012    2    1    2    0    0 -0.46026150893E+01 -0.30109690438E+02 -0.94309257815E+01  0.59301954697E+02  0.50000019459E+02 0.  0.
        -12    1    1    2    0    0  0.46026150893E+01  0.30109690438E+02  0.94309257815E+01  0.31886045303E+02  0.00000000000E+00 0.  1.
         11    1    3    3    0    0 -0.17766022977E+01 -0.14890533027E+02  0.17377887396E+02  0.22953763530E+02  0.51100000000E-03 0. -1.
        -11    1    3    3    0    0 -0.27618853821E+00  0.44593259362E+01 -0.70421138305E+01  0.83398582348E+01  0.51100000000E-03 0.  1.
         12    1    3    3    0    0 -0.25498242533E+01 -0.19678483347E+02 -0.19766699347E+02  0.28008332933E+02  0.00000000000E+00 0. -1.
</event>
<event>
 7    1  0.5755468E-013  0.5930193E+02  0.7816164E-02  0.1266605E+00
        -11   -1    0    0    0    0  0.00000000000E+00  0.00000000000E+00  0.45593999997E+02  0.45594000000E+02  0.51100000000E-03 0.  1.
         11   -1    0    0    0    0 -0.00000000000E+00 -0.00000000000E+00 -0.45593999997E+02  0.45594000000E+02  0.51100000000E-03 0. -1.
    9900012    2    1    2    0    0 -0.28024274290E+02 -0.15203403456E+02  0.46694809472E+00  0.59301929896E+02  0.49999974227E+02 0.  0.
        -12    1    1    2    0    0  0.28024274290E+02  0.15203403456E+02 -0.46694809472E+00  0.31886070104E+02  0.00000000000E+00 0.  1.
         11    1    3    3    0    0  0.49870198954E+01 -0.93665552282E+00 -0.12795152517E+02  0.13764578424E+02  0.51100000000E-03 0.  1.
        -11    1    3    3    0    0 -0.17064760388E+02 -0.19795362827E+02  0.44976281632E+01  0.26519636044E+02  0.51100000000E-03 0. -1.
        -12    1    3    3    0    0 -0.15946533798E+02  0.55286148937E+01  0.87644724482E+01  0.19017715428E+02  0.00000000000E+00 0.  1.
</event>
<event>
 7    1  0.5755468E-013  0.5930189E+02  0.7816164E-02  0.1266605E+00
        -11   -1    0    0    0    0  0.00000000000E+00  0.00000000000E+00  0.45593999997E+02  0.45594000000E+02  0.51100000000E-03 0.  1.
         11   -1    0    0    0    0 -0.00000000000E+00 -0.00000000000E+00 -0.45593999997E+02  0.45594000000E+02  0.51100000000E-03 0. -1.
    9900012    2    1    2    0    0  0.18488183123E+02  0.24366693420E+01 -0.25864521545E+02  0.59301894132E+02  0.49999909002E+02 0.  0.
        -12    1    1    2    0    0 -0.18488183123E+02 -0.24366693420E+01  0.25864521545E+02  0.31886105868E+02  0.00000000000E+00 0.  1.
         11    1    3    3    0    0 -0.46638321190E+01  0.30646045588E+01 -0.23312503113E+01  0.60479632448E+01  0.51100000000E-03 0. -1.
        -11    1    3    3    0    0  0.66625619472E+01 -0.12270438937E+02 -0.29133082652E+02  0.32306189941E+02  0.51100000000E-03 0.  1.
        -12    1    3    3    0    0  0.16489453295E+02  0.11642503721E+02  0.55998114182E+01  0.20947740947E+02  0.00000000000E+00 0.  1.
</event>
<event>
 7    1  0.5755468E-013  0.5930192E+02  0.7816164E-02  0.1266605E+00
        -11   -1    0    0    0    0  0.00000000000E+00  0.00000000000E+00  0.45593999997E+02  0.45594000000E+02  0.51100000000E-03 0.  1.
         11   -1    0    0    0    0 -0.00000000000E+00 -0.00000000000E+00 -0.45593999997E+02  0.45594000000E+02  0.51100000000E-03 0. -1.
    9900012    2    1    2    0    0  0.31823446483E+02 -0.22045477303E+00 -0.19854508648E+01  0.59301915865E+02  0.49999948637E+02 0.  0.
        -12    1    1    2    0    0 -0.31823446483E+02  0.22045477303E+00  0.19854508648E+01  0.31886084135E+02  0.00000000000E+00 0.  1.
         11    1    3    3    0    0  0.39191153384E+02 -0.17073689297E+01 -0.14906493982E+02  0.41965047067E+02  0.51100000000E-03 0. -1.
        -11    1    3    3    0    0 -0.22149849766E+01  0.48767260135E+01  0.66825468109E+01  0.85641723009E+01  0.51100000000E-03 0.  1.
         12    1    3    3    0    0 -0.51527219249E+01 -0.33898118568E+01  0.62384963062E+01  0.87726964967E+01  0.00000000000E+00 0. -1.
</event>
<event>
 7    1  0.5755468E-013  0.5930197E+02  0.7816164E-02  0.1266605E+00
        -11   -1    0    0    0    0  0.00000000000E+00  0.00000000000E+00  0.45593999997E+02  0.45594000000E+02  0.51100000000E-03 0. -1.
         11   -1    0    0    0    0 -0.00000000000E+00 -0.00000000000E+00 -0.45593999997E+02  0.45594000000E+02  0.51100000000E-03 0.  1.
    9900012    2    1    2    0    0 -0.14726327257E+02  0.14468205335E+01  0.28244659558E+02  0.59301971748E+02  0.50000050556E+02 0.  0.
        -12    1    1    2    0    0  0.14726327257E+02 -0.14468205335E+01 -0.28244659558E+02  0.31886028252E+02  0.00000000000E+00 0.  1.
         11    1    3    3    0    0 -0.90219204365E+01 -0.20800404013E+02  0.19900947710E+02  0.30167856661E+02  0.51100000000E-03 0. -1.
        -11    1    3    3    0    0 -0.20507221568E+01  0.17898958504E+02 -0.11700639741E+01  0.18054008609E+02  0.51100000000E-03 0.  1.
        -12    1    3    3    0    0 -0.36536846635E+01  0.43482660428E+01  0.95137758213E+01  0.11080106479E+02  0.00000000000E+00 0.  1.
</event>
<event>
 7    1  0.5755468E-013  0.5930196E+02  0.7816164E-02  0.1266605E+00
        -11   -1    0    0    0    0  0.00000000000E+00  0.00000000000E+00  0.45593999997E+02  0.45594000000E+02  0.51100000000E-03 0. -1.
         11   -1    0    0    0    0 -0.00000000000E+00 -0.00000000000E+00 -0.45593999997E+02  0.45594000000E+02  0.51100000000E-03 0.  1.
    9900012    2    1    2    0    0  0.11327845076E+02  0.25054653909E+02  0.16145094173E+02  0.59301955679E+02  0.50000021249E+02 0.  0.
        -12    1    1    2    0    0 -0.11327845076E+02 -0.25054653909E+02 -0.16145094173E+02  0.31886044321E+02  0.00000000000E+00 0.  1.
         11    1    3    3    0    0  0.78684251992E+01  0.10349622234E+02  0.30176275643E+02  0.32857790666E+02  0.51100000000E-03 0. -1.
        -11    1    3    3    0    0  0.56468050699E+01  0.10596270054E+02 -0.37099936710E+00  0.12012701084E+02  0.51100000000E-03 0.  1.
         12    1    3    3    0    0 -0.21873851928E+01  0.41087616213E+01 -0.13660182103E+02  0.14431463929E+02  0.00000000000E+00 0. -1.
</event>
<event>
 7    1  0.5755468E-013  0.5930182E+02  0.7816164E-02  0.1266605E+00
        -11   -1    0    0    0    0  0.00000000000E+00  0.00000000000E+00  0.45593999997E+02  0.45594000000E+02  0.51100000000E-03 0. -1.
         11   -1    0    0    0    0 -0.00000000000E+00 -0.00000000000E+00 -0.45593999997E+02  0.45594000000E+02  0.51100000000E-03 0.  1.
    9900012    2    1    2    0    0 -0.21083000027E+02 -0.16109560502E+02 -0.17683819905E+02  0.59301822491E+02  0.49999778345E+02 0.  0.
        -12    1    1    2    0    0  0.21083000027E+02  0.16109560502E+02  0.17683819905E+02  0.31886177509E+02  0.00000000000E+00 0.  1.
         11    1    3    3    0    0 -0.74061250188E+01  0.13063062838E+02  0.34089168241E+01  0.15398539303E+02  0.51100000000E-03 0.  1.
        -11    1    3    3    0    0 -0.13174794402E+02 -0.25672082085E+02 -0.74387307987E+01  0.29798753703E+02  0.51100000000E-03 0. -1.
        -12    1    3    3    0    0 -0.50208060665E+00 -0.35005412550E+01 -0.13654005930E+02  0.14104529484E+02  0.00000000000E+00 0.  1.
</event>
<event>
 7    1  0.5755468E-013  0.5930193E+02  0.7816164E-02  0.1266605E+00
        -11   -1    0    0    0    0  0.00000000000E+00  0.00000000000E+00  0.45593999997E+02  0.45594000000E+02  0.51100000000E-03 0.  1.
         11   -1    0    0    0    0 -0.00000000000E+00 -0.00000000000E+00 -0.45593999997E+02  0.45594000000E+02  0.51100000000E-03 0. -1.
    9900012    2    1    2    0    0  0.62361030204E+01  0.31046235634E+02 -0.37368084112E+01  0.59301929922E+02  0.49999974274E+02 0.  0.
        -12    1    1    2    0    0 -0.62361030204E+01 -0.31046235634E+02  0.37368084112E+01  0.31886070078E+02  0.00000000000E+00 0.  1.
         11    1    3    3    0    0 -0.79131736040E+00  0.10623058594E+02 -0.71897767079E+01  0.12851787675E+02  0.51100000000E-03 0. -1.
        -11    1    3    3    0    0  0.20352406310E+02  0.32008375566E+01 -0.76880220411E+01  0.21990258908E+02  0.51100000000E-03 0.  1.
        -12    1    3    3    0    0 -0.13324985929E+02  0.17222339483E+02  0.11140990338E+02  0.24459883340E+02  0.00000000000E+00 0.  1.
</event>
<event>
 7    1  0.5755468E-013  0.5930195E+02  0.7816164E-02  0.1266605E+00
        -11   -1    0    0    0    0  0.00000000000E+00  0.00000000000E+00  0.45593999997E+02  0.45594000000E+02  0.51100000000E-03 0.  1.
         11   -1    0    0    0    0 -0.00000000000E+00 -0.00000000000E+00 -0.45593999997E+02  0.45594000000E+02  0.51100000000E-03 0. -1.
    9900012    2    1    2    0    0  0.17784336973E+02 -0.20308581757E+02 -0.16970526378E+02  0.59301954461E+02  0.50000019028E+02 0.  0.
        -12    1    1    2    0    0 -0.17784336973E+02  0.20308581757E+02  0.16970526378E+02  0.31886045539E+02  0.00000000000E+00 0.  1.
         11    1    3    3    0    0  0.44389524876E+01 -0.26107722835E+02 -0.19981106578E+02  0.33174720966E+02  0.51100000000E-03 0. -1.
        -11    1    3    3    0    0  0.34262102514E+01  0.12709472014E+02  0.45791704868E+01  0.13936943646E+02  0.51100000000E-03 0.  1.
         12    1    3    3    0    0  0.99191742339E+01 -0.69103309370E+01 -0.15685902863E+01  0.12190289850E+02  0.00000000000E+00 0. -1.
</event>
<event>
 7    1  0.5755468E-013  0.5930195E+02  0.7816164E-02  0.1266605E+00
        -11   -1    0    0    0    0  0.00000000000E+00  0.00000000000E+00  0.45593999997E+02  0.45594000000E+02  0.51100000000E-03 0.  1.
         11   -1    0    0    0    0 -0.00000000000E+00 -0.00000000000E+00 -0.45593999997E+02  0.45594000000E+02  0.51100000000E-03 0. -1.
    9900012    2    1    2    0    0  0.29068088225E+02 -0.40863252223E+01 -0.12452643195E+02  0.59301950865E+02  0.50000012470E+02 0.  0.
        -12    1    1    2    0    0 -0.29068088225E+02  0.40863252223E+01  0.12452643195E+02  0.31886049135E+02  0.00000000000E+00 0.  1.
         11    1    3    3    0    0 -0.52001759977E+01  0.17256022131E+01 -0.14761923341E+02  0.15745917388E+02  0.51100000000E-03 0. -1.
        -11    1    3    3    0    0  0.15099295865E+02 -0.14476609852E+02  0.68962875524E+01  0.22025434177E+02  0.51100000000E-03 0.  1.
         12    1    3    3    0    0  0.19168968358E+02  0.86646824168E+01 -0.45870074064E+01  0.21530599300E+02  0.00000000000E+00 0. -1.
</event>
<event>
 7    1  0.5755468E-013  0.5930195E+02  0.7816164E-02  0.1266605E+00
        -11   -1    0    0    0    0  0.00000000000E+00  0.00000000000E+00  0.45593999997E+02  0.45594000000E+02  0.51100000000E-03 0. -1.
         11   -1    0    0    0    0 -0.00000000000E+00 -0.00000000000E+00 -0.45593999997E+02  0.45594000000E+02  0.51100000000E-03 0.  1.
    9900012    2    1    2    0    0 -0.20527529802E+02 -0.23242752290E+02 -0.74239763665E+01  0.59301946013E+02  0.50000003620E+02 0.  0.
        -12    1    1    2    0    0  0.20527529802E+02  0.23242752290E+02  0.74239763665E+01  0.31886053987E+02  0.00000000000E+00 0.  1.
         11    1    3    3    0    0 -0.15650427091E+02 -0.10560734004E+02 -0.13226243875E+02  0.23052082295E+02  0.51100000000E-03 0. -1.
        -11    1    3    3    0    0 -0.14561200075E+02 -0.18179680108E+01  0.13365149912E+02  0.19848445474E+02  0.51100000000E-03 0.  1.
        -12    1    3    3    0    0  0.96840973644E+01 -0.10864050276E+02 -0.75628824030E+01  0.16401418244E+02  0.00000000000E+00 0.  1.
</event>
<event>
 7    1  0.5755468E-013  0.5930194E+02  0.7816164E-02  0.1266605E+00
        -11   -1    0    0    0    0  0.00000000000E+00  0.00000000000E+00  0.45593999997E+02  0.45594000000E+02  0.51100000000E-03 0.  1.
         11   -1    0    0    0    0 -0.00000000000E+00 -0.00000000000E+00 -0.45593999997E+02  0.45594000000E+02  0.51100000000E-03 0. -1.
    9900012    2    1    2    0    0 -0.40140432555E+01 -0.11015994315E+02 -0.29652248720E+02  0.59301944613E+02  0.50000001068E+02 0.  0.
        -12    1    1    2    0    0  0.40140432555E+01  0.11015994315E+02  0.29652248720E+02  0.31886055387E+02  0.00000000000E+00 0.  1.
         11    1    3    3    0    0 -0.20985020953E+02 -0.18741607190E+02 -0.22603542999E+02  0.36090706571E+02  0.51100000000E-03 0. -1.
        -11    1    3    3    0    0  0.52916479036E+01 -0.24750440285E+01  0.68684640634E+00  0.58821032569E+01  0.51100000000E-03 0.  1.
         12    1    3    3    0    0  0.11679329794E+02  0.10200656903E+02 -0.77355521275E+01  0.17329134785E+02  0.00000000000E+00 0. -1.
</event>
<event>
 7    1  0.5755468E-013  0.5930194E+02  0.7816164E-02  0.1266605E+00
        -11   -1    0    0    0    0  0.00000000000E+00  0.00000000000E+00  0.45593999997E+02  0.45594000000E+02  0.51100000000E-03 0.  1.
         11   -1    0    0    0    0 -0.00000000000E+00 -0.00000000000E+00 -0.45593999997E+02  0.45594000000E+02  0.51100000000E-03 0. -1.
    9900012    2    1    2    0    0 -0.73260925414E+01  0.30506857133E+02  0.56904298375E+01  0.59301937907E+02  0.49999988838E+02 0.  0.
        -12    1    1    2    0    0  0.73260925414E+01 -0.30506857133E+02 -0.56904298375E+01  0.31886062093E+02  0.00000000000E+00 0.  1.
         11    1    3    3    0    0 -0.62786927521E+01  0.19389698101E+02 -0.10976151480E+02  0.23148612846E+02  0.51100000000E-03 0. -1.
        -11    1    3    3    0    0  0.12474452464E+02  0.11688301458E+02  0.14563159547E+02  0.22456935933E+02  0.51100000000E-03 0.  1.
        -12    1    3    3    0    0 -0.13521852253E+02 -0.57114242632E+00  0.21034217699E+01  0.13696389129E+02  0.00000000000E+00 0.  1.
</event>
<event>
 7    1  0.5755468E-013  0.5930179E+02  0.7816164E-02  0.1266605E+00
        -11   -1    0    0    0    0  0.00000000000E+00  0.00000000000E+00  0.45593999997E+02  0.45594000000E+02  0.51100000000E-03 0. -1.
         11   -1    0    0    0    0 -0.00000000000E+00 -0.00000000000E+00 -0.45593999997E+02  0.45594000000E+02  0.51100000000E-03 0.  1.
    9900012    2    1    2    0    0  0.29557474993E+02 -0.11809822881E+02 -0.19011610432E+01  0.59301785773E+02  0.49999711380E+02 0.  0.
        -12    1    1    2    0    0 -0.29557474993E+02  0.11809822881E+02  0.19011610432E+01  0.31886214227E+02  0.00000000000E+00 0.  1.
         11    1    3    3    0    0 -0.13212890878E+01  0.15326264673E+02 -0.15358597101E+01  0.15459594399E+02  0.51100000000E-03 0. -1.
        -11    1    3    3    0    0  0.26619065927E+02 -0.15103098250E+02 -0.31827300540E+01  0.30770245668E+02  0.51100000000E-03 0.  1.
         12    1    3    3    0    0  0.42596981533E+01 -0.12032989304E+02  0.28174287209E+01  0.13071945706E+02  0.00000000000E+00 0. -1.
</event>
<event>
 7    1  0.5755468E-013  0.5930201E+02  0.7816164E-02  0.1266605E+00
        -11   -1    0    0    0    0  0.00000000000E+00  0.00000000000E+00  0.45593999997E+02  0.45594000000E+02  0.51100000000E-03 0.  1.
         11   -1    0    0    0    0 -0.00000000000E+00 -0.00000000000E+00 -0.45593999997E+02  0.45594000000E+02  0.51100000000E-03 0. -1.
    9900012    2    1    2    0    0 -0.15001822589E+02  0.27241644371E+02 -0.70394725247E+01  0.59302014952E+02  0.50000129349E+02 0.  0.
        -12    1    1    2    0    0  0.15001822589E+02 -0.27241644371E+02  0.70394725247E+01  0.31885985048E+02  0.00000000000E+00 0.  1.
         11    1    3    3    0    0  0.17466315213E+01  0.18264104106E+02 -0.20322920380E+02  0.27379724497E+02  0.51100000000E-03 0. -1.
        -11    1    3    3    0    0  0.81833639040E+00 -0.36346992170E+01  0.91850346238E+01  0.99118905436E+01  0.51100000000E-03 0.  1.
         12    1    3    3    0    0 -0.17566790501E+02  0.12612239482E+02  0.40984132318E+01  0.22010399912E+02  0.00000000000E+00 0. -1.
</event>
<event>
 7    1  0.5755468E-013  0.5930194E+02  0.7816164E-02  0.1266605E+00
        -11   -1    0    0    0    0  0.00000000000E+00  0.00000000000E+00  0.45593999997E+02  0.45594000000E+02  0.51100000000E-03 0.  1.
         11   -1    0    0    0    0 -0.00000000000E+00 -0.00000000000E+00 -0.45593999997E+02  0.45594000000E+02  0.51100000000E-03 0. -1.
    9900012    2    1    2    0    0  0.92387590401E+00  0.29729961800E+02  0.11488970213E+02  0.59301943300E+02  0.49999998674E+02 0.  0.
        -12    1    1    2    0    0 -0.92387590401E+00 -0.29729961800E+02 -0.11488970213E+02  0.31886056700E+02  0.00000000000E+00 0.  1.
         11    1    3    3    0    0 -0.34815951253E+00  0.30401074495E+02  0.17714166355E+02  0.35187188512E+02  0.51100000000E-03 0. -1.
        -11    1    3    3    0    0 -0.68860653975E+01 -0.75467950595E+01 -0.84000840464E+01  0.13226240001E+02  0.51100000000E-03 0.  1.
        -12    1    3    3    0    0  0.81581008141E+01  0.68756823644E+01  0.21748879045E+01  0.10888514787E+02  0.00000000000E+00 0.  1.
</event>
<event>
 7    1  0.5755468E-013  0.5930194E+02  0.7816164E-02  0.1266605E+00
        -11   -1    0    0    0    0  0.00000000000E+00  0.00000000000E+00  0.45593999997E+02  0.45594000000E+02  0.51100000000E-03 0. -1.
         11   -1    0    0    0    0 -0.00000000000E+00 -0.00000000000E+00 -0.45593999997E+02  0.45594000000E+02  0.51100000000E-03 0.  1.
    9900012    2    1    2    0    0 -0.17072523292E+02 -0.26116083361E+02 -0.65726532237E+01  0.59301942984E+02  0.49999998096E+02 0.  0.
        -12    1    1    2    0    0  0.17072523292E+02  0.26116083361E+02  0.65726532237E+01  0.31886057016E+02  0.00000000000E+00 0.  1.
         11    1    3    3    0    0 -0.42843728292E+01 -0.14255761784E+02  0.26552103245E+01  0.15120606360E+02  0.51100000000E-03 0. -1.
        -11    1    3    3    0    0 -0.15238100882E+01  0.14308679362E+02 -0.55564775748E+00  0.14400314127E+02  0.51100000000E-03 0.  1.
        -12    1    3    3    0    0 -0.11264340374E+02 -0.26169000939E+02 -0.86722157907E+01  0.29781022496E+02  0.00000000000E+00 0.  1.
</event>
<event>
 7    1  0.5755468E-013  0.5930194E+02  0.7816164E-02  0.1266605E+00
        -11   -1    0    0    0    0  0.00000000000E+00  0.00000000000E+00  0.45593999997E+02  0.45594000000E+02  0.51100000000E-03 0. -1.
         11   -1    0    0    0    0 -0.00000000000E+00 -0.00000000000E+00 -0.45593999997E+02  0.45594000000E+02  0.51100000000E-03 0.  1.
    9900012    2    1    2    0    0 -0.22701460815E+02  0.83953231438E+01  0.20757724553E+02  0.59301938744E+02  0.49999990363E+02 0.  0.
        -12    1    1    2    0    0  0.22701460815E+02 -0.83953231438E+01 -0.20757724553E+02  0.31886061256E+02  0.00000000000E+00 0.  1.
         11    1    3    3    0    0  0.11415371822E+02  0.53803147822E+01  0.11236383110E+01  0.12669690774E+02  0.51100000000E-03 0. -1.
        -11    1    3    3    0    0 -0.26144911808E+02 -0.47133033345E+00  0.11172264099E+01  0.26173015891E+02  0.51100000000E-03 0.  1.
        -12    1    3    3    0    0 -0.79719208290E+01  0.34863386950E+01  0.18516859832E+02  0.20459232079E+02  0.00000000000E+00 0.  1.
</event>
<event>
 7    1  0.5755468E-013  0.5930195E+02  0.7816164E-02  0.1266605E+00
        -11   -1    0    0    0    0  0.00000000000E+00  0.00000000000E+00  0.45593999997E+02  0.45594000000E+02  0.51100000000E-03 0.  1.
         11   -1    0    0    0    0 -0.00000000000E+00 -0.00000000000E+00 -0.45593999997E+02  0.45594000000E+02  0.51100000000E-03 0. -1.
    9900012    2    1    2    0    0 -0.14270139051E+02  0.17122054547E+02  0.22801718232E+02  0.59301953290E+02  0.50000016893E+02 0.  0.
        -12    1    1    2    0    0  0.14270139051E+02 -0.17122054547E+02 -0.22801718232E+02  0.31886046710E+02  0.00000000000E+00 0.  1.
         11    1    3    3    0    0 -0.42100821185E+01  0.68856578840E+01 -0.76241988160E+01  0.11102498988E+02  0.51100000000E-03 0. -1.
        -11    1    3    3    0    0  0.10435647474E+02 -0.45265914320E+01  0.14130745928E+02  0.18140307300E+02  0.51100000000E-03 0.  1.
        -12    1    3    3    0    0 -0.20495704407E+02  0.14762988095E+02  0.16295171120E+02  0.30059147002E+02  0.00000000000E+00 0.  1.
</event>
<event>
 7    1  0.5755468E-013  0.5930197E+02  0.7816164E-02  0.1266605E+00
        -11   -1    0    0    0    0  0.00000000000E+00  0.00000000000E+00  0.45593999997E+02  0.45594000000E+02  0.51100000000E-03 0.  1.
         11   -1    0    0    0    0 -0.00000000000E+00 -0.00000000000E+00 -0.45593999997E+02  0.45594000000E+02  0.51100000000E-03 0. -1.
    9900012    2    1    2    0    0  0.26419457786E+02 -0.23192840401E+01 -0.17701758590E+02  0.59301967238E+02  0.50000042329E+02 0.  0.
        -12    1    1    2    0    0 -0.26419457786E+02  0.23192840401E+01  0.17701758590E+02  0.31886032762E+02  0.00000000000E+00 0.  1.
         11    1    3    3    0    0 -0.17834447068E+01  0.18193906888E+02 -0.14883016058E+02  0.23573355512E+02  0.51100000000E-03 0.  1.
        -11    1    3    3    0    0  0.90755405414E+01 -0.95628175137E+01 -0.36271853378E+01  0.13673675024E+02  0.51100000000E-03 0. -1.
         12    1    3    3    0    0  0.19127361951E+02 -0.10950373415E+02  0.80844280591E+00  0.22054936701E+02  0.00000000000E+00 0. -1.
</event>
<event>
 7    1  0.5755468E-013  0.5930194E+02  0.7816164E-02  0.1266605E+00
        -11   -1    0    0    0    0  0.00000000000E+00  0.00000000000E+00  0.45593999997E+02  0.45594000000E+02  0.51100000000E-03 0.  1.
         11   -1    0    0    0    0 -0.00000000000E+00 -0.00000000000E+00 -0.45593999997E+02  0.45594000000E+02  0.51100000000E-03 0. -1.
    9900012    2    1    2    0    0 -0.28883604707E+01  0.31311993816E+02 -0.52855837806E+01  0.59301937545E+02  0.49999988178E+02 0.  0.
        -12    1    1    2    0    0  0.28883604707E+01 -0.31311993816E+02  0.52855837806E+01  0.31886062455E+02  0.00000000000E+00 0.  1.
         11    1    3    3    0    0  0.20694055492E+02  0.12472875282E+02 -0.41061504955E+00  0.24165784810E+02  0.51100000000E-03 0. -1.
        -11    1    3    3    0    0 -0.16043397699E+02  0.18322986103E+01 -0.13678029515E+01  0.16205517983E+02  0.51100000000E-03 0.  1.
         12    1    3    3    0    0 -0.75390182642E+01  0.17006819924E+02 -0.35071657795E+01  0.18930634752E+02  0.00000000000E+00 0. -1.
</event>
<event>
 7    1  0.5755468E-013  0.5930193E+02  0.7816164E-02  0.1266605E+00
        -11   -1    0    0    0    0  0.00000000000E+00  0.00000000000E+00  0.45593999997E+02  0.45594000000E+02  0.51100000000E-03 0.  1.
         11   -1    0    0    0    0 -0.00000000000E+00 -0.00000000000E+00 -0.45593999997E+02  0.45594000000E+02  0.51100000000E-03 0. -1.
    9900012    2    1    2    0    0 -0.64755643253E+01 -0.24777764591E+02 -0.18996069857E+02  0.59301933741E+02  0.49999981240E+02 0.  0.
        -12    1    1    2    0    0  0.64755643253E+01  0.24777764591E+02  0.18996069857E+02  0.31886066259E+02  0.00000000000E+00 0.  1.
         11    1    3    3    0    0  0.25727281457E+01 -0.16349843171E+02  0.10974969262E+02  0.19859160415E+02  0.51100000000E-03 0. -1.
        -11    1    3    3    0    0  0.31227720403E+01 -0.41035972682E+01 -0.25122531784E+02  0.25646302253E+02  0.51100000000E-03 0.  1.
        -12    1    3    3    0    0 -0.12171064511E+02 -0.43243241517E+01 -0.48485073343E+01  0.13796471073E+02  0.00000000000E+00 0.  1.
</event>
<event>
 7    1  0.5755468E-013  0.5930200E+02  0.7816164E-02  0.1266605E+00
        -11   -1    0    0    0    0  0.00000000000E+00  0.00000000000E+00  0.45593999997E+02  0.45594000000E+02  0.51100000000E-03 0.  1.
         11   -1    0    0    0    0 -0.00000000000E+00 -0.00000000000E+00 -0.45593999997E+02  0.45594000000E+02  0.51100000000E-03 0. -1.
    9900012    2    1    2    0    0  0.48340513273E+01 -0.10879685012E+02 -0.29580080232E+02  0.59302003940E+02  0.50000109266E+02 0.  0.
        -12    1    1    2    0    0 -0.48340513273E+01  0.10879685012E+02  0.29580080232E+02  0.31885996060E+02  0.00000000000E+00 0.  1.
         11    1    3    3    0    0 -0.50195499095E+00 -0.74428481253E+01  0.69682500123E+01  0.10208058362E+02  0.51100000000E-03 0. -1.
        -11    1    3    3    0    0  0.84293058302E+01 -0.15845683752E+02 -0.29393239319E+02  0.34439823000E+02  0.51100000000E-03 0.  1.
        -12    1    3    3    0    0 -0.30932995119E+01  0.12408846865E+02 -0.71550909251E+01  0.14654122578E+02  0.00000000000E+00 0.  1.
</event>
<event>
 7    1  0.5755468E-013  0.5930193E+02  0.7816164E-02  0.1266605E+00
        -11   -1    0    0    0    0  0.00000000000E+00  0.00000000000E+00  0.45593999997E+02  0.45594000000E+02  0.51100000000E-03 0.  1.
         11   -1    0    0    0    0 -0.00000000000E+00 -0.00000000000E+00 -0.45593999997E+02  0.45594000000E+02  0.51100000000E-03 0. -1.
    9900012    2    1    2    0    0  0.76854745920E+00  0.61115941827E+01 -0.31285447513E+02  0.59301929769E+02  0.49999973996E+02 0.  0.
        -12    1    1    2    0    0 -0.76854745920E+00 -0.61115941827E+01  0.31285447513E+02  0.31886070231E+02  0.00000000000E+00 0.  1.
         11    1    3    3    0    0  0.21616165996E+02  0.11088178524E+02 -0.25178331027E+02  0.34987922043E+02  0.51100000000E-03 0. -1.
        -11    1    3    3    0    0 -0.83428870642E+01 -0.80044092297E+00 -0.72487674384E+01  0.11081024315E+02  0.51100000000E-03 0.  1.
         12    1    3    3    0    0 -0.12504731472E+02 -0.41761434187E+01  0.11416509519E+01  0.13232983411E+02  0.00000000000E+00 0. -1.
</event>
<event>
 7    1  0.5755468E-013  0.5930194E+02  0.7816164E-02  0.1266605E+00
        -11   -1    0    0    0    0  0.00000000000E+00  0.00000000000E+00  0.45593999997E+02  0.45594000000E+02  0.51100000000E-03 0.  1.
         11   -1    0    0    0    0 -0.00000000000E+00 -0.00000000000E+00 -0.45593999997E+02  0.45594000000E+02  0.51100000000E-03 0. -1.
    9900012    2    1    2    0    0  0.27747764468E+02 -0.68990822278E+01  0.14113304551E+02  0.59301935114E+02  0.49999983743E+02 0.  0.
        -12    1    1    2    0    0 -0.27747764468E+02  0.68990822278E+01 -0.14113304551E+02  0.31886064886E+02  0.00000000000E+00 0.  1.
         11    1    3    3    0    0  0.66642739738E+01  0.11512648805E+02  0.19918344295E+02  0.23951911611E+02  0.51100000000E-03 0. -1.
        -11    1    3    3    0    0 -0.13311350815E+01 -0.26232519433E+01 -0.73222800980E+01  0.78910808802E+01  0.51100000000E-03 0.  1.
         12    1    3    3    0    0  0.22414625576E+02 -0.15788479089E+02  0.15172403539E+01  0.27458942623E+02  0.00000000000E+00 0. -1.
</event>
<event>
 7    1  0.5755468E-013  0.5930194E+02  0.7816164E-02  0.1266605E+00
        -11   -1    0    0    0    0  0.00000000000E+00  0.00000000000E+00  0.45593999997E+02  0.45594000000E+02  0.51100000000E-03 0. -1.
         11   -1    0    0    0    0 -0.00000000000E+00 -0.00000000000E+00 -0.45593999997E+02  0.45594000000E+02  0.51100000000E-03 0.  1.
    9900012    2    1    2    0    0  0.30512296073E+02 -0.92027419719E+01 -0.10151081243E+01  0.59301935395E+02  0.49999984256E+02 0.  0.
        -12    1    1    2    0    0 -0.30512296073E+02  0.92027419719E+01  0.10151081243E+01  0.31886064605E+02  0.00000000000E+00 0.  1.
         11    1    3    3    0    0 -0.73933139641E+01  0.49106973205E+01  0.74507132923E+01  0.11588320343E+02  0.51100000000E-03 0. -1.
        -11    1    3    3    0    0  0.55768076590E+01 -0.28267434533E+00 -0.11127471672E+02  0.12449952390E+02  0.51100000000E-03 0.  1.
         12    1    3    3    0    0  0.32328802379E+02 -0.13830764947E+02  0.26616502554E+01  0.35263662662E+02  0.00000000000E+00 0. -1.
</event>
<event>
 7    1  0.5755468E-013  0.5930196E+02  0.7816164E-02  0.1266605E+00
        -11   -1    0    0    0    0  0.00000000000E+00  0.00000000000E+00  0.45593999997E+02  0.45594000000E+02  0.51100000000E-03 0.  1.
         11   -1    0    0    0    0 -0.00000000000E+00 -0.00000000000E+00 -0.45593999997E+02  0.45594000000E+02  0.51100000000E-03 0. -1.
    9900012    2    1    2    0    0  0.17427104276E+02 -0.82712944675E+01 -0.25388994378E+02  0.59301963697E+02  0.50000035871E+02 0.  0.
        -12    1    1    2    0    0 -0.17427104276E+02  0.82712944675E+01  0.25388994378E+02  0.31886036303E+02  0.00000000000E+00 0.  1.
         11    1    3    3    0    0 -0.90460917345E+01  0.14463207203E+01 -0.13083153629E+02  0.15971616338E+02  0.51100000000E-03 0. -1.
        -11    1    3    3    0    0  0.32066326484E+02 -0.12284642439E+02 -0.66600151792E+01  0.34978815538E+02  0.51100000000E-03 0.  1.
        -12    1    3    3    0    0 -0.55931304729E+01  0.25670272509E+01 -0.56458255695E+01  0.83515318208E+01  0.00000000000E+00 0.  1.
</event>
<event>
 7    1  0.5755468E-013  0.5930195E+02  0.7816164E-02  0.1266605E+00
        -11   -1    0    0    0    0  0.00000000000E+00  0.00000000000E+00  0.45593999997E+02  0.45594000000E+02  0.51100000000E-03 0.  1.
         11   -1    0    0    0    0 -0.00000000000E+00 -0.00000000000E+00 -0.45593999997E+02  0.45594000000E+02  0.51100000000E-03 0. -1.
    9900012    2    1    2    0    0  0.13374202085E+02  0.17396790480E+02 -0.23134442635E+02  0.59301952323E+02  0.50000015129E+02 0.  0.
        -12    1    1    2    0    0 -0.13374202085E+02 -0.17396790480E+02  0.23134442635E+02  0.31886047677E+02  0.00000000000E+00 0.  1.
         11    1    3    3    0    0  0.22908481571E+01 -0.10986575654E+02 -0.60224694189E+01  0.12736678062E+02  0.51100000000E-03 0. -1.
        -11    1    3    3    0    0 -0.12648263110E+01  0.23894114661E+02  0.12805698870E+01  0.23961810460E+02  0.51100000000E-03 0.  1.
        -12    1    3    3    0    0  0.12348180239E+02  0.44892514731E+01 -0.18392543103E+02  0.22603463801E+02  0.00000000000E+00 0.  1.
</event>
<event>
 7    1  0.6003972E-013  0.5930194E+02  0.7816164E-02  0.1266605E+00
        -11   -1    0    0    0    0  0.00000000000E+00  0.00000000000E+00  0.45593999997E+02  0.45594000000E+02  0.51100000000E-03 0.  1.
         11   -1    0    0    0    0 -0.00000000000E+00 -0.00000000000E+00 -0.45593999997E+02  0.45594000000E+02  0.51100000000E-03 0. -1.
    9900012    2    1    2    0    0  0.28185944207E+02 -0.14835195513E+02 -0.14800744839E+01  0.59301935689E+02  0.49999984793E+02 0.  0.
        -12    1    1    2    0    0 -0.28185944207E+02  0.14835195513E+02  0.14800744839E+01  0.31886064311E+02  0.00000000000E+00 0.  1.
         11    1    3    3    0    0  0.18014761866E+02  0.36366212011E+00 -0.12773817553E+02  0.22086971507E+02  0.51100000000E-03 0. -1.
        -11    1    3    3    0    0  0.11784871752E+02 -0.49117871394E+01  0.19942094236E+02  0.23679019783E+02  0.51100000000E-03 0.  1.
         12    1    3    3    0    0 -0.16136894104E+01 -0.10287070494E+02 -0.86483511673E+01  0.13535944399E+02  0.00000000000E+00 0. -1.
</event>
<event>
 7    1  0.5755468E-013  0.5930193E+02  0.7816164E-02  0.1266605E+00
        -11   -1    0    0    0    0  0.00000000000E+00  0.00000000000E+00  0.45593999997E+02  0.45594000000E+02  0.51100000000E-03 0.  1.
         11   -1    0    0    0    0 -0.00000000000E+00 -0.00000000000E+00 -0.45593999997E+02  0.45594000000E+02  0.51100000000E-03 0. -1.
    9900012    2    1    2    0    0  0.87908050921E+01  0.29434724200E+02 -0.85463488262E+01  0.59301932178E+02  0.49999978390E+02 0.  0.
        -12    1    1    2    0    0 -0.87908050921E+01 -0.29434724200E+02  0.85463488262E+01  0.31886067822E+02  0.00000000000E+00 0.  1.
         11    1    3    3    0    0 -0.13508200282E+02 -0.66924181987E+01 -0.72459935969E+01  0.16726157947E+02  0.51100000000E-03 0. -1.
        -11    1    3    3    0    0  0.10264139450E+02  0.16933745031E+02 -0.20606956866E+01  0.19908559627E+02  0.51100000000E-03 0.  1.
         12    1    3    3    0    0  0.12034865924E+02  0.19193397367E+02  0.76034045724E+00  0.22667214604E+02  0.00000000000E+00 0. -1.
</event>
<event>
 7    1  0.5755468E-013  0.5930198E+02  0.7816164E-02  0.1266605E+00
        -11   -1    0    0    0    0  0.00000000000E+00  0.00000000000E+00  0.45593999997E+02  0.45594000000E+02  0.51100000000E-03 0. -1.
         11   -1    0    0    0    0 -0.00000000000E+00 -0.00000000000E+00 -0.45593999997E+02  0.45594000000E+02  0.51100000000E-03 0.  1.
    9900012    2    1    2    0    0  0.11631269766E+02  0.14010658483E+02  0.26175050873E+02  0.59301979933E+02  0.50000065483E+02 0.  0.
        -12    1    1    2    0    0 -0.11631269766E+02 -0.14010658483E+02 -0.26175050873E+02  0.31886020067E+02  0.00000000000E+00 0.  1.
         11    1    3    3    0    0  0.24935577968E+02  0.17266305062E+02  0.16022060016E+02  0.34301818414E+02  0.51100000000E-03 0. -1.
        -11    1    3    3    0    0 -0.65123109397E+01 -0.54530858059E+01 -0.38168435512E+01  0.93120692404E+01  0.51100000000E-03 0.  1.
         12    1    3    3    0    0 -0.67919972626E+01  0.21974392267E+01  0.13969834408E+02  0.15688092279E+02  0.00000000000E+00 0. -1.
</event>
<event>
 7    1  0.5755468E-013  0.5930192E+02  0.7816164E-02  0.1266605E+00
        -11   -1    0    0    0    0  0.00000000000E+00  0.00000000000E+00  0.45593999997E+02  0.45594000000E+02  0.51100000000E-03 0. -1.
         11   -1    0    0    0    0 -0.00000000000E+00 -0.00000000000E+00 -0.45593999997E+02  0.45594000000E+02  0.51100000000E-03 0.  1.
    9900012    2    1    2    0    0  0.64917762385E+01 -0.25952103791E+02  0.17351284699E+02  0.59301922621E+02  0.49999960959E+02 0.  0.
        -12    1    1    2    0    0 -0.64917762385E+01  0.25952103791E+02 -0.17351284699E+02  0.31886077379E+02  0.00000000000E+00 0.  1.
         11    1    3    3    0    0  0.17863490058E+02  0.75429134911E+01  0.41775345399E+01  0.19835614840E+02  0.51100000000E-03 0. -1.
        -11    1    3    3    0    0 -0.12352963861E+02 -0.20164533523E+02  0.64904099151E+01  0.24522021725E+02  0.51100000000E-03 0.  1.
         12    1    3    3    0    0  0.98125004183E+00 -0.13330483759E+02  0.66833402437E+01  0.14944286056E+02  0.00000000000E+00 0. -1.
</event>
<event>
 7    1  0.5755468E-013  0.5930194E+02  0.7816164E-02  0.1266605E+00
        -11   -1    0    0    0    0  0.00000000000E+00  0.00000000000E+00  0.45593999997E+02  0.45594000000E+02  0.51100000000E-03 0.  1.
         11   -1    0    0    0    0 -0.00000000000E+00 -0.00000000000E+00 -0.45593999997E+02  0.45594000000E+02  0.51100000000E-03 0. -1.
    9900012    2    1    2    0    0 -0.20414502276E+02 -0.88693254537E+01 -0.22832080753E+02  0.59301941155E+02  0.49999994760E+02 0.  0.
        -12    1    1    2    0    0  0.20414502276E+02  0.88693254537E+01  0.22832080753E+02  0.31886058845E+02  0.00000000000E+00 0.  1.
         11    1    3    3    0    0 -0.16588182151E+02 -0.16589237412E+01  0.11739401029E+02  0.20389540256E+02  0.51100000000E-03 0. -1.
        -11    1    3    3    0    0 -0.90683615343E+00 -0.52029776742E+01 -0.12818375905E+01  0.54347434491E+01  0.51100000000E-03 0.  1.
         12    1    3    3    0    0 -0.29194839717E+01 -0.20074240383E+01 -0.33289644192E+02  0.33477657450E+02  0.00000000000E+00 0. -1.
</event>
<event>
 7    1  0.5755468E-013  0.5930192E+02  0.7816164E-02  0.1266605E+00
        -11   -1    0    0    0    0  0.00000000000E+00  0.00000000000E+00  0.45593999997E+02  0.45594000000E+02  0.51100000000E-03 0.  1.
         11   -1    0    0    0    0 -0.00000000000E+00 -0.00000000000E+00 -0.45593999997E+02  0.45594000000E+02  0.51100000000E-03 0. -1.
    9900012    2    1    2    0    0  0.18304999960E+02 -0.98985980434E+01 -0.24159193068E+02  0.59301923470E+02  0.49999962507E+02 0.  0.
        -12    1    1    2    0    0 -0.18304999960E+02  0.98985980434E+01  0.24159193068E+02  0.31886076530E+02  0.00000000000E+00 0.  1.
         11    1    3    3    0    0  0.42250846363E+01  0.14560910011E+02 -0.17537354322E+02  0.23182541652E+02  0.51100000000E-03 0. -1.
        -11    1    3    3    0    0  0.19506056034E+01 -0.12547033094E+02  0.68503387690E+01  0.14427752535E+02  0.51100000000E-03 0.  1.
        -12    1    3    3    0    0  0.12129309721E+02 -0.11912474960E+02 -0.13472177515E+02  0.21691629283E+02  0.00000000000E+00 0.  1.
</event>
<event>
 7    1  0.5755468E-013  0.5930193E+02  0.7816164E-02  0.1266605E+00
        -11   -1    0    0    0    0  0.00000000000E+00  0.00000000000E+00  0.45593999997E+02  0.45594000000E+02  0.51100000000E-03 0. -1.
         11   -1    0    0    0    0 -0.00000000000E+00 -0.00000000000E+00 -0.45593999997E+02  0.45594000000E+02  0.51100000000E-03 0.  1.
    9900012    2    1    2    0    0 -0.77380646799E+01  0.83890998907E+01  0.29773588374E+02  0.59301933974E+02  0.49999981664E+02 0.  0.
        -12    1    1    2    0    0  0.77380646799E+01 -0.83890998907E+01 -0.29773588374E+02  0.31886066026E+02  0.00000000000E+00 0.  1.
         11    1    3    3    0    0  0.13704102805E+02 -0.71093614724E+01  0.22861061536E+02  0.27585749746E+02  0.51100000000E-03 0. -1.
        -11    1    3    3    0    0 -0.13036655053E+02  0.83198658071E+01  0.11973830950E+02  0.19558813100E+02  0.51100000000E-03 0.  1.
         12    1    3    3    0    0 -0.84055124325E+01  0.71785955561E+01 -0.50613041120E+01  0.12157371127E+02  0.00000000000E+00 0. -1.
</event>
<event>
 7    1  0.5755468E-013  0.5930199E+02  0.7816164E-02  0.1266605E+00
        -11   -1    0    0    0    0  0.00000000000E+00  0.00000000000E+00  0.45593999997E+02  0.45594000000E+02  0.51100000000E-03 0. -1.
         11   -1    0    0    0    0 -0.00000000000E+00 -0.00000000000E+00 -0.45593999997E+02  0.45594000000E+02  0.51100000000E-03 0.  1.
    9900012    2    1    2    0    0  0.84527422650E+01  0.29726720964E+02  0.78479843972E+01  0.59301989742E+02  0.50000083372E+02 0.  0.
        -12    1    1    2    0    0 -0.84527422650E+01 -0.29726720964E+02 -0.78479843972E+01  0.31886010258E+02  0.00000000000E+00 0.  1.
         11    1    3    3    0    0 -0.17698778446E+02  0.40163070158E+01 -0.20908395489E+01  0.18268801023E+02  0.51100000000E-03 0. -1.
        -11    1    3    3    0    0  0.10881849801E+02  0.14193984139E+02 -0.27296092683E+01  0.18092390883E+02  0.51100000000E-03 0.  1.
         12    1    3    3    0    0  0.15269670910E+02  0.11516429809E+02  0.12668433214E+02  0.22940797836E+02  0.00000000000E+00 0. -1.
</event>
<event>
 7    1  0.5755468E-013  0.5930191E+02  0.7816164E-02  0.1266605E+00
        -11   -1    0    0    0    0  0.00000000000E+00  0.00000000000E+00  0.45593999997E+02  0.45594000000E+02  0.51100000000E-03 0. -1.
         11   -1    0    0    0    0 -0.00000000000E+00 -0.00000000000E+00 -0.45593999997E+02  0.45594000000E+02  0.51100000000E-03 0.  1.
    9900012    2    1    2    0    0  0.29852943461E+02  0.72409838915E+01  0.85494204274E+01  0.59301911017E+02  0.49999939796E+02 0.  0.
        -12    1    1    2    0    0 -0.29852943461E+02 -0.72409838915E+01 -0.85494204274E+01  0.31886088983E+02  0.00000000000E+00 0.  1.
         11    1    3    3    0    0  0.76138782515E+01  0.13850044370E+02 -0.13781078954E+02  0.20969334955E+02  0.51100000000E-03 0.  1.
        -11    1    3    3    0    0  0.19881126179E+02 -0.13391811894E+02  0.17467242600E+02  0.29659810658E+02  0.51100000000E-03 0. -1.
         12    1    3    3    0    0  0.23579390305E+01  0.67827514154E+01  0.48632567805E+01  0.86727654037E+01  0.00000000000E+00 0. -1.
</event>
<event>
 7    1  0.5755468E-013  0.5930195E+02  0.7816164E-02  0.1266605E+00
        -11   -1    0    0    0    0  0.00000000000E+00  0.00000000000E+00  0.45593999997E+02  0.45594000000E+02  0.51100000000E-03 0.  1.
         11   -1    0    0    0    0 -0.00000000000E+00 -0.00000000000E+00 -0.45593999997E+02  0.45594000000E+02  0.51100000000E-03 0. -1.
    9900012    2    1    2    0    0 -0.27699330873E+02  0.16193065583E+01 -0.15711303303E+02  0.59301950762E+02  0.50000012282E+02 0.  0.
        -12    1    1    2    0    0  0.27699330873E+02 -0.16193065583E+01  0.15711303303E+02  0.31886049238E+02  0.00000000000E+00 0.  1.
         11    1    3    3    0    0  0.64756111637E+01 -0.95648198222E+01 -0.60396462678E+01  0.13034440743E+02  0.51100000000E-03 0. -1.
        -11    1    3    3    0    0 -0.19994792651E+02  0.18011922024E+02 -0.13445164968E+02  0.30083110369E+02  0.51100000000E-03 0.  1.
         12    1    3    3    0    0 -0.14180149385E+02 -0.68277956434E+01  0.37735079329E+01  0.16184399651E+02  0.00000000000E+00 0. -1.
</event>
<event>
 7    1  0.5755468E-013  0.5930176E+02  0.7816164E-02  0.1266605E+00
        -11   -1    0    0    0    0  0.00000000000E+00  0.00000000000E+00  0.45593999997E+02  0.45594000000E+02  0.51100000000E-03 0.  1.
         11   -1    0    0    0    0 -0.00000000000E+00 -0.00000000000E+00 -0.45593999997E+02  0.45594000000E+02  0.51100000000E-03 0. -1.
    9900012    2    1    2    0    0  0.13163039913E+02  0.19592391944E+02 -0.21438401309E+02  0.59301757002E+02  0.49999658909E+02 0.  0.
        -12    1    1    2    0    0 -0.13163039913E+02 -0.19592391944E+02  0.21438401309E+02  0.31886242998E+02  0.00000000000E+00 0.  1.
         11    1    3    3    0    0  0.65198168783E+01  0.11463780354E+02  0.20856175556E+01  0.13352006328E+02  0.51100000000E-03 0. -1.
        -11    1    3    3    0    0  0.11631052819E+02 -0.13178879239E+02 -0.99491872875E+01  0.20197786404E+02  0.51100000000E-03 0.  1.
        -12    1    3    3    0    0 -0.49878297846E+01  0.21307490829E+02 -0.13574831577E+02  0.25751964270E+02  0.00000000000E+00 0.  1.
</event>
<event>
 7    1  0.5755468E-013  0.5930197E+02  0.7816164E-02  0.1266605E+00
        -11   -1    0    0    0    0  0.00000000000E+00  0.00000000000E+00  0.45593999997E+02  0.45594000000E+02  0.51100000000E-03 0. -1.
         11   -1    0    0    0    0 -0.00000000000E+00 -0.00000000000E+00 -0.45593999997E+02  0.45594000000E+02  0.51100000000E-03 0.  1.
    9900012    2    1    2    0    0 -0.15058853994E+02 -0.20654743659E+02  0.19061250208E+02  0.59301972045E+02  0.50000051097E+02 0.  0.
        -12    1    1    2    0    0  0.15058853994E+02  0.20654743659E+02 -0.19061250208E+02  0.31886027955E+02  0.00000000000E+00 0.  1.
         11    1    3    3    0    0 -0.12734854747E+02 -0.10789927919E+02  0.26513911208E+02  0.31330281801E+02  0.51100000000E-03 0. -1.
        -11    1    3    3    0    0 -0.98771057515E+01 -0.20164113886E+01 -0.12423161361E+02  0.15998689677E+02  0.51100000000E-03 0.  1.
        -12    1    3    3    0    0  0.75531065052E+01 -0.78484043518E+01  0.49705003606E+01  0.11973000567E+02  0.00000000000E+00 0.  1.
</event>
<event>
 7    1  0.5755468E-013  0.5930190E+02  0.7816164E-02  0.1266605E+00
        -11   -1    0    0    0    0  0.00000000000E+00  0.00000000000E+00  0.45593999997E+02  0.45594000000E+02  0.51100000000E-03 0. -1.
         11   -1    0    0    0    0 -0.00000000000E+00 -0.00000000000E+00 -0.45593999997E+02  0.45594000000E+02  0.51100000000E-03 0.  1.
    9900012    2    1    2    0    0 -0.22190415367E+02  0.19640193707E+02  0.11771654777E+02  0.59301896456E+02  0.49999913241E+02 0.  0.
        -12    1    1    2    0    0  0.22190415367E+02 -0.19640193707E+02 -0.11771654777E+02  0.31886103544E+02  0.00000000000E+00 0.  1.
         11    1    3    3    0    0  0.48102425284E+01  0.80675794383E+01 -0.44912474568E+01  0.10411319568E+02  0.51100000000E-03 0. -1.
        -11    1    3    3    0    0 -0.21134793437E+02  0.10233876935E+02  0.27489331522E+02  0.36153493310E+02  0.51100000000E-03 0.  1.
        -12    1    3    3    0    0 -0.58658644587E+01  0.13387373332E+01 -0.11226429289E+02  0.12737083578E+02  0.00000000000E+00 0.  1.
</event>
<event>
 7    1  0.5755468E-013  0.5930194E+02  0.7816164E-02  0.1266605E+00
        -11   -1    0    0    0    0  0.00000000000E+00  0.00000000000E+00  0.45593999997E+02  0.45594000000E+02  0.51100000000E-03 0. -1.
         11   -1    0    0    0    0 -0.00000000000E+00 -0.00000000000E+00 -0.45593999997E+02  0.45594000000E+02  0.51100000000E-03 0.  1.
    9900012    2    1    2    0    0 -0.36886243235E+01 -0.20747613077E+02  0.23930130692E+02  0.59301944227E+02  0.50000000363E+02 0.  0.
        -12    1    1    2    0    0  0.36886243235E+01  0.20747613077E+02 -0.23930130692E+02  0.31886055773E+02  0.00000000000E+00 0.  1.
         11    1    3    3    0    0 -0.15728010539E+02 -0.24218345650E+02  0.20216960242E+02  0.35250873227E+02  0.51100000000E-03 0. -1.
        -11    1    3    3    0    0  0.12130121740E+01  0.50933579318E+01 -0.69949473815E+01  0.87374471493E+01  0.51100000000E-03 0.  1.
        -12    1    3    3    0    0  0.10826374042E+02 -0.16226253589E+01  0.10708117832E+02  0.15313623851E+02  0.00000000000E+00 0.  1.
</event>
<event>
 7    1  0.5755468E-013  0.5930189E+02  0.7816164E-02  0.1266605E+00
        -11   -1    0    0    0    0  0.00000000000E+00  0.00000000000E+00  0.45593999997E+02  0.45594000000E+02  0.51100000000E-03 0.  1.
         11   -1    0    0    0    0 -0.00000000000E+00 -0.00000000000E+00 -0.45593999997E+02  0.45594000000E+02  0.51100000000E-03 0. -1.
    9900012    2    1    2    0    0  0.20883889024E+02  0.64606955810E+01 -0.23213063141E+02  0.59301894741E+02  0.49999910113E+02 0.  0.
        -12    1    1    2    0    0 -0.20883889024E+02 -0.64606955810E+01  0.23213063141E+02  0.31886105259E+02  0.00000000000E+00 0.  1.
         11    1    3    3    0    0  0.64997805104E+01  0.19599314548E+02 -0.15007694467E+02  0.25526675673E+02  0.51100000000E-03 0. -1.
        -11    1    3    3    0    0  0.15077940867E+02 -0.15474070613E+02 -0.15168356918E+02  0.26398299453E+02  0.51100000000E-03 0.  1.
        -12    1    3    3    0    0 -0.69383235322E+00  0.23354516462E+01  0.69629882441E+01  0.73769196155E+01  0.00000000000E+00 0.  1.
</event>
<event>
 7    1  0.5755468E-013  0.5930191E+02  0.7816164E-02  0.1266605E+00
        -11   -1    0    0    0    0  0.00000000000E+00  0.00000000000E+00  0.45593999997E+02  0.45594000000E+02  0.51100000000E-03 0. -1.
         11   -1    0    0    0    0 -0.00000000000E+00 -0.00000000000E+00 -0.45593999997E+02  0.45594000000E+02  0.51100000000E-03 0.  1.
    9900012    2    1    2    0    0  0.20245349846E+02  0.10630598251E+02  0.22222480099E+02  0.59301914770E+02  0.49999946641E+02 0.  0.
        -12    1    1    2    0    0 -0.20245349846E+02 -0.10630598251E+02 -0.22222480099E+02  0.31886085230E+02  0.00000000000E+00 0.  1.
         11    1    3    3    0    0  0.11435267174E+02  0.15541663327E+02  0.22831697971E+02  0.29893060512E+02  0.51100000000E-03 0. -1.
        -11    1    3    3    0    0  0.14849766440E+02 -0.81606762355E+01 -0.84977010228E+01  0.18955820290E+02  0.51100000000E-03 0.  1.
        -12    1    3    3    0    0 -0.60396837677E+01  0.32496111593E+01  0.78884831510E+01  0.10453033967E+02  0.00000000000E+00 0.  1.
</event>
<event>
 7    1  0.5755468E-013  0.5930196E+02  0.7816164E-02  0.1266605E+00
        -11   -1    0    0    0    0  0.00000000000E+00  0.00000000000E+00  0.45593999997E+02  0.45594000000E+02  0.51100000000E-03 0.  1.
         11   -1    0    0    0    0 -0.00000000000E+00 -0.00000000000E+00 -0.45593999997E+02  0.45594000000E+02  0.51100000000E-03 0. -1.
    9900012    2    1    2    0    0  0.15871911942E+02  0.13561906694E+02 -0.24101384489E+02  0.59301958600E+02  0.50000026576E+02 0.  0.
        -12    1    1    2    0    0 -0.15871911942E+02 -0.13561906694E+02  0.24101384489E+02  0.31886041400E+02  0.00000000000E+00 0.  1.
         11    1    3    3    0    0  0.10185975364E+02  0.92507546830E+01 -0.33861426495E+02  0.36550331884E+02  0.51100000000E-03 0. -1.
        -11    1    3    3    0    0  0.92928029087E+01 -0.18705840930E+00  0.13119707175E+02  0.16078491639E+02  0.51100000000E-03 0.  1.
        -12    1    3    3    0    0 -0.36068663300E+01  0.44982104201E+01 -0.33596651694E+01  0.66731350771E+01  0.00000000000E+00 0.  1.
</event>
<event>
 7    1  0.5755468E-013  0.5930194E+02  0.7816164E-02  0.1266605E+00
        -11   -1    0    0    0    0  0.00000000000E+00  0.00000000000E+00  0.45593999997E+02  0.45594000000E+02  0.51100000000E-03 0. -1.
         11   -1    0    0    0    0 -0.00000000000E+00 -0.00000000000E+00 -0.45593999997E+02  0.45594000000E+02  0.51100000000E-03 0.  1.
    9900012    2    1    2    0    0 -0.68378880687E+01 -0.13180330270E+02  0.28217775269E+02  0.59301942539E+02  0.49999997285E+02 0.  0.
        -12    1    1    2    0    0  0.68378880687E+01  0.13180330270E+02 -0.28217775269E+02  0.31886057461E+02  0.00000000000E+00 0.  1.
         11    1    3    3    0    0  0.13207567259E+02 -0.10812987050E+02  0.16398601495E+02  0.23670121527E+02  0.51100000000E-03 0. -1.
        -11    1    3    3    0    0 -0.15910795832E+02 -0.32460303449E+01 -0.60049947692E+01  0.17313292566E+02  0.51100000000E-03 0.  1.
        -12    1    3    3    0    0 -0.41346594948E+01  0.87868712560E+00  0.17824168543E+02  0.18318528447E+02  0.00000000000E+00 0.  1.
</event>
<event>
 7    1  0.5755468E-013  0.5930193E+02  0.7816164E-02  0.1266605E+00
        -11   -1    0    0    0    0  0.00000000000E+00  0.00000000000E+00  0.45593999997E+02  0.45594000000E+02  0.51100000000E-03 0. -1.
         11   -1    0    0    0    0 -0.00000000000E+00 -0.00000000000E+00 -0.45593999997E+02  0.45594000000E+02  0.51100000000E-03 0.  1.
    9900012    2    1    2    0    0 -0.17209340615E+02 -0.50637374147E+01  0.26361306309E+02  0.59301932332E+02  0.49999978670E+02 0.  0.
        -12    1    1    2    0    0  0.17209340615E+02  0.50637374147E+01 -0.26361306309E+02  0.31886067668E+02  0.00000000000E+00 0.  1.
         11    1    3    3    0    0 -0.76716138468E+01  0.10132833803E+02 -0.57717736480E+01  0.13958558350E+02  0.51100000000E-03 0.  1.
        -11    1    3    3    0    0  0.18216428704E+01 -0.19587035752E+02  0.17737877972E+02  0.26487783363E+02  0.51100000000E-03 0. -1.
         12    1    3    3    0    0 -0.11359369638E+02  0.43904645340E+01  0.14395201985E+02  0.18855590619E+02  0.00000000000E+00 0. -1.
</event>
<event>
 7    1  0.5755468E-013  0.5930194E+02  0.7816164E-02  0.1266605E+00
        -11   -1    0    0    0    0  0.00000000000E+00  0.00000000000E+00  0.45593999997E+02  0.45594000000E+02  0.51100000000E-03 0. -1.
         11   -1    0    0    0    0 -0.00000000000E+00 -0.00000000000E+00 -0.45593999997E+02  0.45594000000E+02  0.51100000000E-03 0.  1.
    9900012    2    1    2    0    0  0.21974731819E+02 -0.10199924349E+02 -0.20731459955E+02  0.59301941493E+02  0.49999995377E+02 0.  0.
        -12    1    1    2    0    0 -0.21974731819E+02  0.10199924349E+02  0.20731459955E+02  0.31886058507E+02  0.00000000000E+00 0.  1.
         11    1    3    3    0    0  0.20713019914E+02 -0.13929021183E+02  0.65680239432E+01  0.25810574652E+02  0.51100000000E-03 0. -1.
        -11    1    3    3    0    0 -0.43081516537E+01  0.10074811075E+02 -0.15290301016E+02  0.18811041818E+02  0.51100000000E-03 0.  1.
        -12    1    3    3    0    0  0.55698635589E+01 -0.63457142413E+01 -0.12009182882E+02  0.14680325023E+02  0.00000000000E+00 0.  1.
</event>
<event>
 7    1  0.5755468E-013  0.5930196E+02  0.7816164E-02  0.1266605E+00
        -11   -1    0    0    0    0  0.00000000000E+00  0.00000000000E+00  0.45593999997E+02  0.45594000000E+02  0.51100000000E-03 0. -1.
         11   -1    0    0    0    0 -0.00000000000E+00 -0.00000000000E+00 -0.45593999997E+02  0.45594000000E+02  0.51100000000E-03 0.  1.
    9900012    2    1    2    0    0  0.17151598143E+02  0.18184546322E+02  0.19795571223E+02  0.59301957852E+02  0.50000025212E+02 0.  0.
        -12    1    1    2    0    0 -0.17151598143E+02 -0.18184546322E+02 -0.19795571223E+02  0.31886042148E+02  0.00000000000E+00 0.  1.
         11    1    3    3    0    0 -0.56910829844E+01  0.77919314172E+01  0.71147072654E+01  0.11988397744E+02  0.51100000000E-03 0. -1.
        -11    1    3    3    0    0  0.23313338970E+02 -0.97993220587E+01  0.55220224333E+01  0.25884961247E+02  0.51100000000E-03 0.  1.
        -12    1    3    3    0    0 -0.47065784228E+00  0.20191936964E+02  0.71588415241E+01  0.21428598861E+02  0.00000000000E+00 0.  1.
</event>
<event>
 7    1  0.5755468E-013  0.5930192E+02  0.7816164E-02  0.1266605E+00
        -11   -1    0    0    0    0  0.00000000000E+00  0.00000000000E+00  0.45593999997E+02  0.45594000000E+02  0.51100000000E-03 0.  1.
         11   -1    0    0    0    0 -0.00000000000E+00 -0.00000000000E+00 -0.45593999997E+02  0.45594000000E+02  0.51100000000E-03 0. -1.
    9900012    2    1    2    0    0  0.21202168946E+02  0.23354581383E+02  0.46640533158E+01  0.59301924153E+02  0.49999963753E+02 0.  0.
        -12    1    1    2    0    0 -0.21202168946E+02 -0.23354581383E+02 -0.46640533158E+01  0.31886075847E+02  0.00000000000E+00 0.  1.
         11    1    3    3    0    0  0.12104089957E+02  0.17837688930E+02 -0.99417252897E+01  0.23738787712E+02  0.51100000000E-03 0. -1.
        -11    1    3    3    0    0  0.66399519342E+00  0.95900846435E+01  0.21752380168E+02  0.23781855611E+02  0.51100000000E-03 0.  1.
        -12    1    3    3    0    0  0.84340837952E+01 -0.40731921904E+01 -0.71466015624E+01  0.11781280829E+02  0.00000000000E+00 0.  1.
</event>
<event>
 7    1  0.5755468E-013  0.5930197E+02  0.7816164E-02  0.1266605E+00
        -11   -1    0    0    0    0  0.00000000000E+00  0.00000000000E+00  0.45593999997E+02  0.45594000000E+02  0.51100000000E-03 0. -1.
         11   -1    0    0    0    0 -0.00000000000E+00 -0.00000000000E+00 -0.45593999997E+02  0.45594000000E+02  0.51100000000E-03 0.  1.
    9900012    2    1    2    0    0  0.10959807702E+02  0.23872279670E+02  0.18075281828E+02  0.59301969600E+02  0.50000046638E+02 0.  0.
        -12    1    1    2    0    0 -0.10959807702E+02 -0.23872279670E+02 -0.18075281828E+02  0.31886030400E+02  0.00000000000E+00 0.  1.
         11    1    3    3    0    0 -0.10443467496E+02  0.17554536841E+02  0.13979460127E+02  0.24751829887E+02  0.51100000000E-03 0. -1.
        -11    1    3    3    0    0  0.23456021242E+02  0.11474184498E+02 -0.21430794081E+01  0.26199897558E+02  0.51100000000E-03 0.  1.
        -12    1    3    3    0    0 -0.20527460443E+01 -0.51564416690E+01  0.62389011087E+01  0.83502421553E+01  0.00000000000E+00 0.  1.
</event>
<event>
 7    1  0.5755468E-013  0.5930192E+02  0.7816164E-02  0.1266605E+00
        -11   -1    0    0    0    0  0.00000000000E+00  0.00000000000E+00  0.45593999997E+02  0.45594000000E+02  0.51100000000E-03 0.  1.
         11   -1    0    0    0    0 -0.00000000000E+00 -0.00000000000E+00 -0.45593999997E+02  0.45594000000E+02  0.51100000000E-03 0. -1.
    9900012    2    1    2    0    0  0.24311696782E+02  0.32386809328E+00 -0.20629079501E+02  0.59301915072E+02  0.49999947191E+02 0.  0.
        -12    1    1    2    0    0 -0.24311696782E+02 -0.32386809328E+00  0.20629079501E+02  0.31886084928E+02  0.00000000000E+00 0.  1.
         11    1    3    3    0    0  0.10533785885E+02 -0.39130204819E+01 -0.79542735060E+01  0.13767455888E+02  0.51100000000E-03 0. -1.
        -11    1    3    3    0    0 -0.48257452752E+01  0.17652256209E+02 -0.13246529402E+02  0.22591159957E+02  0.51100000000E-03 0.  1.
        -12    1    3    3    0    0  0.18603656172E+02 -0.13415367634E+02  0.57172340699E+00  0.22943299226E+02  0.00000000000E+00 0.  1.
</event>
<event>
 7    1  0.5755468E-013  0.5930199E+02  0.7816164E-02  0.1266605E+00
        -11   -1    0    0    0    0  0.00000000000E+00  0.00000000000E+00  0.45593999997E+02  0.45594000000E+02  0.51100000000E-03 0. -1.
         11   -1    0    0    0    0 -0.00000000000E+00 -0.00000000000E+00 -0.45593999997E+02  0.45594000000E+02  0.51100000000E-03 0.  1.
    9900012    2    1    2    0    0  0.16020262926E+02  0.22696707579E+00  0.27568410770E+02  0.59301990361E+02  0.50000084501E+02 0.  0.
        -12    1    1    2    0    0 -0.16020262926E+02 -0.22696707579E+00 -0.27568410770E+02  0.31886009639E+02  0.00000000000E+00 0.  1.
         11    1    3    3    0    0  0.11851035319E+02  0.17505596442E+02 -0.44246585377E+01  0.21597929261E+02  0.51100000000E-03 0. -1.
        -11    1    3    3    0    0 -0.28345983504E+01 -0.65577537021E+01  0.11287253194E+02  0.13358187241E+02  0.51100000000E-03 0.  1.
         12    1    3    3    0    0  0.70038259573E+01 -0.10720875664E+02  0.20705816114E+02  0.24345873860E+02  0.00000000000E+00 0. -1.
</event>
<event>
 7    1  0.5755468E-013  0.5930182E+02  0.7816164E-02  0.1266605E+00
        -11   -1    0    0    0    0  0.00000000000E+00  0.00000000000E+00  0.45593999997E+02  0.45594000000E+02  0.51100000000E-03 0.  1.
         11   -1    0    0    0    0 -0.00000000000E+00 -0.00000000000E+00 -0.45593999997E+02  0.45594000000E+02  0.51100000000E-03 0. -1.
    9900012    2    1    2    0    0  0.17577172373E+02 -0.26024007398E+02  0.55247218340E+01  0.59301819592E+02  0.49999773059E+02 0.  0.
        -12    1    1    2    0    0 -0.17577172373E+02  0.26024007398E+02 -0.55247218340E+01  0.31886180408E+02  0.00000000000E+00 0.  1.
         11    1    3    3    0    0  0.24077694620E+02 -0.16778226778E+02 -0.70741314212E+01  0.30187540603E+02  0.51100000000E-03 0. -1.
        -11    1    3    3    0    0 -0.38202953991E+01  0.44213838616E+01  0.13947112204E+02  0.15121680835E+02  0.51100000000E-03 0.  1.
        -12    1    3    3    0    0 -0.26802268477E+01 -0.13667164481E+02 -0.13482589488E+01  0.13992598154E+02  0.00000000000E+00 0.  1.
</event>
<event>
 7    1  0.5755468E-013  0.5930193E+02  0.7816164E-02  0.1266605E+00
        -11   -1    0    0    0    0  0.00000000000E+00  0.00000000000E+00  0.45593999997E+02  0.45594000000E+02  0.51100000000E-03 0.  1.
         11   -1    0    0    0    0 -0.00000000000E+00 -0.00000000000E+00 -0.45593999997E+02  0.45594000000E+02  0.51100000000E-03 0. -1.
    9900012    2    1    2    0    0 -0.25581280989E+02  0.11370077255E+02 -0.15265676330E+02  0.59301929880E+02  0.49999974199E+02 0.  0.
        -12    1    1    2    0    0  0.25581280989E+02 -0.11370077255E+02  0.15265676330E+02  0.31886070120E+02  0.00000000000E+00 0.  1.
         11    1    3    3    0    0 -0.11132740995E+02  0.72476737153E+01  0.17416733185E+01  0.13397765580E+02  0.51100000000E-03 0. -1.
        -11    1    3    3    0    0 -0.21743429209E+01  0.16568097749E+02 -0.22091726506E+02  0.27699711378E+02  0.51100000000E-03 0.  1.
        -12    1    3    3    0    0 -0.12274197074E+02 -0.12445694209E+02  0.50843768576E+01  0.18204452921E+02  0.00000000000E+00 0.  1.
</event>
<event>
 7    1  0.5755468E-013  0.5930199E+02  0.7816164E-02  0.1266605E+00
        -11   -1    0    0    0    0  0.00000000000E+00  0.00000000000E+00  0.45593999997E+02  0.45594000000E+02  0.51100000000E-03 0.  1.
         11   -1    0    0    0    0 -0.00000000000E+00 -0.00000000000E+00 -0.45593999997E+02  0.45594000000E+02  0.51100000000E-03 0. -1.
    9900012    2    1    2    0    0  0.25805921840E+02 -0.72879248625E+01 -0.17252775131E+02  0.59301988952E+02  0.50000081932E+02 0.  0.
        -12    1    1    2    0    0 -0.25805921840E+02  0.72879248625E+01  0.17252775131E+02  0.31886011048E+02  0.00000000000E+00 0.  1.
         11    1    3    3    0    0  0.13884554214E+02 -0.10626511738E+01 -0.33359565029E+02  0.36149282876E+02  0.51100000000E-03 0. -1.
        -11    1    3    3    0    0 -0.70614532701E+00  0.15908216479E+01  0.22180977670E+01  0.28194525539E+01  0.51100000000E-03 0.  1.
         12    1    3    3    0    0  0.12627512953E+02 -0.78160953367E+01  0.13888692132E+02  0.20333253523E+02  0.00000000000E+00 0. -1.
</event>
<event>
 7    1  0.5755468E-013  0.5930197E+02  0.7816164E-02  0.1266605E+00
        -11   -1    0    0    0    0  0.00000000000E+00  0.00000000000E+00  0.45593999997E+02  0.45594000000E+02  0.51100000000E-03 0. -1.
         11   -1    0    0    0    0 -0.00000000000E+00 -0.00000000000E+00 -0.45593999997E+02  0.45594000000E+02  0.51100000000E-03 0.  1.
    9900012    2    1    2    0    0  0.31115085431E+02 -0.56668597898E+01  0.40567574229E+01  0.59301966662E+02  0.50000041280E+02 0.  0.
        -12    1    1    2    0    0 -0.31115085431E+02  0.56668597898E+01 -0.40567574229E+01  0.31886033338E+02  0.00000000000E+00 0.  1.
         11    1    3    3    0    0 -0.54473106855E+01 -0.57898729548E+01  0.15436785052E+02  0.17363471875E+02  0.51100000000E-03 0. -1.
        -11    1    3    3    0    0  0.29610837705E+01 -0.35331532489E+01 -0.62279319108E+01  0.77484401735E+01  0.51100000000E-03 0.  1.
         12    1    3    3    0    0  0.33601312346E+02  0.36561664138E+01 -0.51520957185E+01  0.34190054614E+02  0.00000000000E+00 0. -1.
</event>
<event>
 7    1  0.5755468E-013  0.5930196E+02  0.7816164E-02  0.1266605E+00
        -11   -1    0    0    0    0  0.00000000000E+00  0.00000000000E+00  0.45593999997E+02  0.45594000000E+02  0.51100000000E-03 0. -1.
         11   -1    0    0    0    0 -0.00000000000E+00 -0.00000000000E+00 -0.45593999997E+02  0.45594000000E+02  0.51100000000E-03 0.  1.
    9900012    2    1    2    0    0  0.31171489038E+02  0.20924571224E+01  0.63780297486E+01  0.59301962787E+02  0.50000034212E+02 0.  0.
        -12    1    1    2    0    0 -0.31171489038E+02 -0.20924571224E+01 -0.63780297486E+01  0.31886037213E+02  0.00000000000E+00 0.  1.
         11    1    3    3    0    0  0.11146177189E+01 -0.89711806487E+01  0.20604197449E+02  0.22500164615E+02  0.51100000000E-03 0.  1.
        -11    1    3    3    0    0  0.18209309001E+02  0.51538628715E+01 -0.24498191379E+01  0.19082527371E+02  0.51100000000E-03 0. -1.
         12    1    3    3    0    0  0.11847562318E+02  0.59097748997E+01 -0.11776348563E+02  0.17719270801E+02  0.00000000000E+00 0. -1.
</event>
<event>
 7    1  0.5755468E-013  0.5930191E+02  0.7816164E-02  0.1266605E+00
        -11   -1    0    0    0    0  0.00000000000E+00  0.00000000000E+00  0.45593999997E+02  0.45594000000E+02  0.51100000000E-03 0.  1.
         11   -1    0    0    0    0 -0.00000000000E+00 -0.00000000000E+00 -0.45593999997E+02  0.45594000000E+02  0.51100000000E-03 0. -1.
    9900012    2    1    2    0    0  0.15135544208E+02 -0.39921356146E+01 -0.27779500135E+02  0.59301914116E+02  0.49999945448E+02 0.  0.
        -12    1    1    2    0    0 -0.15135544208E+02  0.39921356146E+01  0.27779500135E+02  0.31886085884E+02  0.00000000000E+00 0.  1.
         11    1    3    3    0    0 -0.80778584231E+01  0.50090353159E+01 -0.23450037699E+02  0.25303092693E+02  0.51100000000E-03 0. -1.
        -11    1    3    3    0    0  0.13536443611E+02 -0.98042577252E+01  0.78140307222E+01  0.18450416027E+02  0.51100000000E-03 0.  1.
         12    1    3    3    0    0  0.96769590204E+01  0.80308679468E+00 -0.12143493159E+02  0.15548405397E+02  0.00000000000E+00 0. -1.
</event>
<event>
 7    1  0.5755468E-013  0.5930192E+02  0.7816164E-02  0.1266605E+00
        -11   -1    0    0    0    0  0.00000000000E+00  0.00000000000E+00  0.45593999997E+02  0.45594000000E+02  0.51100000000E-03 0.  1.
         11   -1    0    0    0    0 -0.00000000000E+00 -0.00000000000E+00 -0.45593999997E+02  0.45594000000E+02  0.51100000000E-03 0. -1.
    9900012    2    1    2    0    0  0.70117523745E+01 -0.27882110997E+01 -0.30980374546E+02  0.59301915269E+02  0.49999947551E+02 0.  0.
        -12    1    1    2    0    0 -0.70117523745E+01  0.27882110997E+01  0.30980374546E+02  0.31886084731E+02  0.00000000000E+00 0.  1.
         11    1    3    3    0    0  0.81143331500E+01 -0.14445634560E+01 -0.30965720234E+02  0.32043798089E+02  0.51100000000E-03 0. -1.
        -11    1    3    3    0    0  0.11106925647E+02  0.13470524177E+01  0.67258996065E+01  0.13054350743E+02  0.51100000000E-03 0.  1.
         12    1    3    3    0    0 -0.12209506422E+02 -0.26907000614E+01 -0.67405539177E+01  0.14203766437E+02  0.00000000000E+00 0. -1.
</event>
<event>
 7    1  0.5755468E-013  0.5930193E+02  0.7816164E-02  0.1266605E+00
        -11   -1    0    0    0    0  0.00000000000E+00  0.00000000000E+00  0.45593999997E+02  0.45594000000E+02  0.51100000000E-03 0. -1.
         11   -1    0    0    0    0 -0.00000000000E+00 -0.00000000000E+00 -0.45593999997E+02  0.45594000000E+02  0.51100000000E-03 0.  1.
    9900012    2    1    2    0    0 -0.10787790950E+02  0.16293266320E+02 -0.25196717807E+02  0.59301928602E+02  0.49999971868E+02 0.  0.
        -12    1    1    2    0    0  0.10787790950E+02 -0.16293266320E+02  0.25196717807E+02  0.31886071398E+02  0.00000000000E+00 0.  1.
         11    1    3    3    0    0 -0.72145100525E+01  0.34279834960E+01  0.11804805968E+02  0.14253198601E+02  0.51100000000E-03 0. -1.
        -11    1    3    3    0    0 -0.82680221125E+01  0.13613069120E+02 -0.37013436284E+02  0.40294792546E+02  0.51100000000E-03 0.  1.
         12    1    3    3    0    0  0.46947412154E+01 -0.74778629655E+00  0.11912508331E-01  0.47539374557E+01  0.00000000000E+00 0. -1.
</event>
<event>
 7    1  0.5755468E-013  0.5930195E+02  0.7816164E-02  0.1266605E+00
        -11   -1    0    0    0    0  0.00000000000E+00  0.00000000000E+00  0.45593999997E+02  0.45594000000E+02  0.51100000000E-03 0.  1.
         11   -1    0    0    0    0 -0.00000000000E+00 -0.00000000000E+00 -0.45593999997E+02  0.45594000000E+02  0.51100000000E-03 0. -1.
    9900012    2    1    2    0    0 -0.30935019529E+02 -0.38771366310E+01  0.66867355737E+01  0.59301952043E+02  0.50000014617E+02 0.  0.
        -12    1    1    2    0    0  0.30935019529E+02  0.38771366310E+01 -0.66867355737E+01  0.31886047957E+02  0.00000000000E+00 0.  1.
         11    1    3    3    0    0 -0.33589677377E+01 -0.15174901346E+02 -0.11910217099E+02  0.19580949076E+02  0.51100000000E-03 0. -1.
        -11    1    3    3    0    0 -0.19900565059E+02  0.48665971561E+01  0.21089198273E+02  0.29401879899E+02  0.51100000000E-03 0.  1.
        -12    1    3    3    0    0 -0.76754867320E+01  0.64311675591E+01 -0.24922456005E+01  0.10319123067E+02  0.00000000000E+00 0.  1.
</event>
<event>
 7    1  0.5755468E-013  0.5930195E+02  0.7816164E-02  0.1266605E+00
        -11   -1    0    0    0    0  0.00000000000E+00  0.00000000000E+00  0.45593999997E+02  0.45594000000E+02  0.51100000000E-03 0. -1.
         11   -1    0    0    0    0 -0.00000000000E+00 -0.00000000000E+00 -0.45593999997E+02  0.45594000000E+02  0.51100000000E-03 0.  1.
    9900012    2    1    2    0    0 -0.16415581744E+02 -0.29319970791E+01  0.27178159008E+02  0.59301948850E+02  0.50000008794E+02 0.  0.
        -12    1    1    2    0    0  0.16415581744E+02  0.29319970791E+01 -0.27178159008E+02  0.31886051150E+02  0.00000000000E+00 0.  1.
         11    1    3    3    0    0 -0.21976493491E+02 -0.91163434372E+01  0.10426763795E+02  0.25976747051E+02  0.51100000000E-03 0. -1.
        -11    1    3    3    0    0  0.83334656915E+01  0.36209353605E+01 -0.55893183872E+01  0.10667628772E+02  0.51100000000E-03 0.  1.
        -12    1    3    3    0    0 -0.27725539445E+01  0.25634109976E+01  0.22340713600E+02  0.22657573027E+02  0.00000000000E+00 0.  1.
</event>
<event>
 7    1  0.5755468E-013  0.5930196E+02  0.7816164E-02  0.1266605E+00
        -11   -1    0    0    0    0  0.00000000000E+00  0.00000000000E+00  0.45593999997E+02  0.45594000000E+02  0.51100000000E-03 0. -1.
         11   -1    0    0    0    0 -0.00000000000E+00 -0.00000000000E+00 -0.45593999997E+02  0.45594000000E+02  0.51100000000E-03 0.  1.
    9900012    2    1    2    0    0  0.14663028989E+02 -0.24257144720E+02  0.14605009239E+02  0.59301956282E+02  0.50000022349E+02 0.  0.
        -12    1    1    2    0    0 -0.14663028989E+02  0.24257144720E+02 -0.14605009239E+02  0.31886043718E+02  0.00000000000E+00 0.  1.
         11    1    3    3    0    0 -0.12851331249E+02 -0.20941750572E+02  0.32486942482E+00  0.24572732292E+02  0.51100000000E-03 0. -1.
        -11    1    3    3    0    0  0.15491284199E+02 -0.49439242464E+01  0.36188993115E+00  0.16265092611E+02  0.51100000000E-03 0.  1.
         12    1    3    3    0    0  0.12023076040E+02  0.16285300986E+01  0.13918249883E+02  0.18464131378E+02  0.00000000000E+00 0. -1.
</event>
<event>
 7    1  0.5755468E-013  0.5930193E+02  0.7816164E-02  0.1266605E+00
        -11   -1    0    0    0    0  0.00000000000E+00  0.00000000000E+00  0.45593999997E+02  0.45594000000E+02  0.51100000000E-03 0. -1.
         11   -1    0    0    0    0 -0.00000000000E+00 -0.00000000000E+00 -0.45593999997E+02  0.45594000000E+02  0.51100000000E-03 0.  1.
    9900012    2    1    2    0    0 -0.18292676762E+02  0.24831332881E+02  0.80934645427E+01  0.59301932760E+02  0.49999979450E+02 0.  0.
        -12    1    1    2    0    0  0.18292676762E+02 -0.24831332881E+02 -0.80934645427E+01  0.31886067240E+02  0.00000000000E+00 0.  1.
         11    1    3    3    0    0 -0.20030001071E+02  0.20534782623E+02 -0.13037900436E+02  0.31509761794E+02  0.51100000000E-03 0. -1.
        -11    1    3    3    0    0  0.67964533633E+01  0.83938753980E+00  0.12156853736E+01  0.69551593045E+01  0.51100000000E-03 0.  1.
         12    1    3    3    0    0 -0.50591290544E+01  0.34571627184E+01  0.19915679605E+02  0.20837011661E+02  0.00000000000E+00 0. -1.
</event>
<event>
 7    1  0.5755468E-013  0.5930195E+02  0.7816164E-02  0.1266605E+00
        -11   -1    0    0    0    0  0.00000000000E+00  0.00000000000E+00  0.45593999997E+02  0.45594000000E+02  0.51100000000E-03 0.  1.
         11   -1    0    0    0    0 -0.00000000000E+00 -0.00000000000E+00 -0.45593999997E+02  0.45594000000E+02  0.51100000000E-03 0. -1.
    9900012    2    1    2    0    0  0.62937369838E+00  0.12391865912E+02 -0.29372873753E+02  0.59301950315E+02  0.50000011466E+02 0.  0.
        -12    1    1    2    0    0 -0.62937369838E+00 -0.12391865912E+02  0.29372873753E+02  0.31886049685E+02  0.00000000000E+00 0.  1.
         11    1    3    3    0    0 -0.13647658461E+02 -0.12698409419E+02 -0.15498842323E+02  0.24242984487E+02  0.51100000000E-03 0. -1.
        -11    1    3    3    0    0  0.63968362857E+01  0.52143145143E+01  0.19245954132E+01  0.84742349558E+01  0.51100000000E-03 0.  1.
         12    1    3    3    0    0  0.78801958741E+01  0.19875960816E+02 -0.15798626843E+02  0.26584730872E+02  0.00000000000E+00 0. -1.
</event>
<event>
 7    1  0.5755468E-013  0.5930193E+02  0.7816164E-02  0.1266605E+00
        -11   -1    0    0    0    0  0.00000000000E+00  0.00000000000E+00  0.45593999997E+02  0.45594000000E+02  0.51100000000E-03 0.  1.
         11   -1    0    0    0    0 -0.00000000000E+00 -0.00000000000E+00 -0.45593999997E+02  0.45594000000E+02  0.51100000000E-03 0. -1.
    9900012    2    1    2    0    0  0.20206004348E+02 -0.20325764957E+02 -0.13975043297E+02  0.59301934581E+02  0.49999982771E+02 0.  0.
        -12    1    1    2    0    0 -0.20206004348E+02  0.20325764957E+02  0.13975043297E+02  0.31886065419E+02  0.00000000000E+00 0.  1.
         11    1    3    3    0    0 -0.23874093827E+01  0.23481043419E+01 -0.20697454383E+02  0.20966590943E+02  0.51100000000E-03 0. -1.
        -11    1    3    3    0    0  0.41541011675E+01 -0.86204440229E+01  0.11191061252E+02  0.14724417268E+02  0.51100000000E-03 0.  1.
         12    1    3    3    0    0  0.18439312563E+02 -0.14053425275E+02 -0.44686501661E+01  0.23610926370E+02  0.00000000000E+00 0. -1.
</event>
<event>
 7    1  0.5755468E-013  0.5930193E+02  0.7816164E-02  0.1266605E+00
        -11   -1    0    0    0    0  0.00000000000E+00  0.00000000000E+00  0.45593999997E+02  0.45594000000E+02  0.51100000000E-03 0.  1.
         11   -1    0    0    0    0 -0.00000000000E+00 -0.00000000000E+00 -0.45593999997E+02  0.45594000000E+02  0.51100000000E-03 0. -1.
    9900012    2    1    2    0    0 -0.21553041064E+02  0.12641864866E+02 -0.19808360193E+02  0.59301930002E+02  0.49999974421E+02 0.  0.
        -12    1    1    2    0    0  0.21553041064E+02 -0.12641864866E+02  0.19808360193E+02  0.31886069998E+02  0.00000000000E+00 0.  1.
         11    1    3    3    0    0 -0.26376891404E+02  0.10596386235E+02 -0.15464065781E+02  0.32359869161E+02  0.51100000000E-03 0. -1.
        -11    1    3    3    0    0  0.12136804877E+01 -0.11537021888E+02  0.15465191010E+01  0.11703316452E+02  0.51100000000E-03 0.  1.
         12    1    3    3    0    0  0.36101698529E+01  0.13582500519E+02 -0.58908135133E+01  0.15238744389E+02  0.00000000000E+00 0. -1.
</event>
<event>
 7    1  0.5755468E-013  0.5930193E+02  0.7816164E-02  0.1266605E+00
        -11   -1    0    0    0    0  0.00000000000E+00  0.00000000000E+00  0.45593999997E+02  0.45594000000E+02  0.51100000000E-03 0. -1.
         11   -1    0    0    0    0 -0.00000000000E+00 -0.00000000000E+00 -0.45593999997E+02  0.45594000000E+02  0.51100000000E-03 0.  1.
    9900012    2    1    2    0    0 -0.17878456343E+02 -0.13450143305E+01  0.26368028373E+02  0.59301934312E+02  0.49999982281E+02 0.  0.
        -12    1    1    2    0    0  0.17878456343E+02  0.13450143305E+01 -0.26368028373E+02  0.31886065688E+02  0.00000000000E+00 0.  1.
         11    1    3    3    0    0 -0.15526630784E+01 -0.14726701228E+02  0.16523841022E+02  0.22188371145E+02  0.51100000000E-03 0. -1.
        -11    1    3    3    0    0 -0.21030853579E+02  0.97658406853E+01  0.16301007686E+02  0.28344158100E+02  0.51100000000E-03 0.  1.
        -12    1    3    3    0    0  0.47050603149E+01  0.36158462120E+01 -0.64568203348E+01  0.87694050671E+01  0.00000000000E+00 0.  1.
</event>
<event>
 7    1  0.5755468E-013  0.5930191E+02  0.7816164E-02  0.1266605E+00
        -11   -1    0    0    0    0  0.00000000000E+00  0.00000000000E+00  0.45593999997E+02  0.45594000000E+02  0.51100000000E-03 0. -1.
         11   -1    0    0    0    0 -0.00000000000E+00 -0.00000000000E+00 -0.45593999997E+02  0.45594000000E+02  0.51100000000E-03 0.  1.
    9900012    2    1    2    0    0  0.20067483455E+02 -0.11866608188E+02  0.21753210187E+02  0.59301914703E+02  0.49999946519E+02 0.  0.
        -12    1    1    2    0    0 -0.20067483455E+02  0.11866608188E+02 -0.21753210187E+02  0.31886085297E+02  0.00000000000E+00 0.  1.
         11    1    3    3    0    0 -0.13212226586E+02 -0.60175766965E+01  0.11716824956E+02  0.18656316570E+02  0.51100000000E-03 0. -1.
        -11    1    3    3    0    0  0.32603347866E+02 -0.17611074366E+01  0.13414913090E+02  0.35299287315E+02  0.51100000000E-03 0.  1.
        -12    1    3    3    0    0  0.67636217429E+00 -0.40879240551E+01 -0.33785278587E+01  0.53463108180E+01  0.00000000000E+00 0.  1.
</event>
<event>
 7    1  0.5755468E-013  0.5930193E+02  0.7816164E-02  0.1266605E+00
        -11   -1    0    0    0    0  0.00000000000E+00  0.00000000000E+00  0.45593999997E+02  0.45594000000E+02  0.51100000000E-03 0.  1.
         11   -1    0    0    0    0 -0.00000000000E+00 -0.00000000000E+00 -0.45593999997E+02  0.45594000000E+02  0.51100000000E-03 0. -1.
    9900012    2    1    2    0    0 -0.63968496114E+01  0.23926956666E+02 -0.20082394666E+02  0.59301929126E+02  0.49999972823E+02 0.  0.
        -12    1    1    2    0    0  0.63968496114E+01 -0.23926956666E+02  0.20082394666E+02  0.31886070874E+02  0.00000000000E+00 0.  1.
         11    1    3    3    0    0 -0.54044886271E+00  0.92644492208E+01 -0.24309753795E+02  0.26020880734E+02  0.51100000000E-03 0. -1.
        -11    1    3    3    0    0 -0.95537450573E+01  0.19621624007E+02  0.10719010276E+02  0.24314180119E+02  0.51100000000E-03 0.  1.
        -12    1    3    3    0    0  0.36973443087E+01 -0.49591165627E+01 -0.64916511464E+01  0.89668682730E+01  0.00000000000E+00 0.  1.
</event>
<event>
 7    1  0.5755468E-013  0.5930231E+02  0.7816164E-02  0.1266603E+00
        -11   -1    0    0    0    0  0.00000000000E+00  0.00000000000E+00  0.45593999997E+02  0.45594000000E+02  0.51100000000E-03 0.  1.
         11   -1    0    0    0    0 -0.00000000000E+00 -0.00000000000E+00 -0.45593999997E+02  0.45594000000E+02  0.51100000000E-03 0. -1.
    9900012    2    1    2    0    0  0.18793643720E+02 -0.14930344760E+02 -0.20990022850E+02  0.59302308881E+02  0.50000665400E+02 0.  0.
        -12    1    1    2    0    0 -0.18793643720E+02  0.14930344760E+02  0.20990022850E+02  0.31885691119E+02  0.00000000000E+00 0.  1.
         11    1    3    3    0    0  0.55529252103E+01 -0.15501482417E+02 -0.15400517858E+02  0.22545662245E+02  0.51100000000E-03 0. -1.
        -11    1    3    3    0    0 -0.43421575034E+01  0.13561337517E+02 -0.42250295318E+01  0.14853116907E+02  0.51100000000E-03 0.  1.
        -12    1    3    3    0    0  0.17582876013E+02 -0.12990199861E+02 -0.13644754602E+01  0.21903529729E+02  0.00000000000E+00 0.  1.
</event>
<event>
 7    1  0.5755468E-013  0.5930196E+02  0.7816164E-02  0.1266605E+00
        -11   -1    0    0    0    0  0.00000000000E+00  0.00000000000E+00  0.45593999997E+02  0.45594000000E+02  0.51100000000E-03 0.  1.
         11   -1    0    0    0    0 -0.00000000000E+00 -0.00000000000E+00 -0.45593999997E+02  0.45594000000E+02  0.51100000000E-03 0. -1.
    9900012    2    1    2    0    0 -0.17946796415E+02  0.15938472795E+02 -0.20990401216E+02  0.59301962934E+02  0.50000034480E+02 0.  0.
        -12    1    1    2    0    0  0.17946796415E+02 -0.15938472795E+02  0.20990401216E+02  0.31886037066E+02  0.00000000000E+00 0.  1.
         11    1    3    3    0    0 -0.24667678112E+02  0.29716517565E+02 -0.15231722438E+02  0.41515914158E+02  0.51100000000E-03 0. -1.
        -11    1    3    3    0    0  0.32069623247E+01 -0.93593823528E+01 -0.68532761201E+01  0.12035366185E+02  0.51100000000E-03 0.  1.
         12    1    3    3    0    0  0.35139193728E+01 -0.44186624172E+01  0.10945973428E+01  0.57506825907E+01  0.00000000000E+00 0. -1.
</event>
<event>
 7    1  0.5755468E-013  0.5930173E+02  0.7816164E-02  0.1266605E+00
        -11   -1    0    0    0    0  0.00000000000E+00  0.00000000000E+00  0.45593999997E+02  0.45594000000E+02  0.51100000000E-03 0.  1.
         11   -1    0    0    0    0 -0.00000000000E+00 -0.00000000000E+00 -0.45593999997E+02  0.45594000000E+02  0.51100000000E-03 0. -1.
    9900012    2    1    2    0    0  0.12686082736E+02  0.13445045718E+02 -0.25981301991E+02  0.59301733321E+02  0.49999615720E+02 0.  0.
        -12    1    1    2    0    0 -0.12686082736E+02 -0.13445045718E+02  0.25981301991E+02  0.31886266679E+02  0.00000000000E+00 0.  1.
         11    1    3    3    0    0  0.19977778377E+02 -0.38671248258E+01 -0.25467114633E+02  0.32598162698E+02  0.51100000000E-03 0. -1.
        -11    1    3    3    0    0 -0.71272515577E+01  0.20849588267E+02 -0.31916230778E+01  0.22264085514E+02  0.51100000000E-03 0.  1.
        -12    1    3    3    0    0 -0.16444408385E+00 -0.35374177223E+01  0.26774357194E+01  0.44394851087E+01  0.00000000000E+00 0.  1.
</event>
<event>
 7    1  0.5755468E-013  0.5930197E+02  0.7816164E-02  0.1266605E+00
        -11   -1    0    0    0    0  0.00000000000E+00  0.00000000000E+00  0.45593999997E+02  0.45594000000E+02  0.51100000000E-03 0. -1.
         11   -1    0    0    0    0 -0.00000000000E+00 -0.00000000000E+00 -0.45593999997E+02  0.45594000000E+02  0.51100000000E-03 0.  1.
    9900012    2    1    2    0    0  0.24038072802E+02 -0.18208321247E+02  0.10360838733E+02  0.59301970364E+02  0.50000048031E+02 0.  0.
        -12    1    1    2    0    0 -0.24038072802E+02  0.18208321247E+02 -0.10360838733E+02  0.31886029636E+02  0.00000000000E+00 0.  1.
         11    1    3    3    0    0  0.45760024747E+01  0.86091992877E+01  0.19215095565E+02  0.21547111381E+02  0.51100000000E-03 0. -1.
        -11    1    3    3    0    0  0.18167109148E+02 -0.13766752224E+02 -0.93343236524E+01  0.24631218401E+02  0.51100000000E-03 0.  1.
         12    1    3    3    0    0  0.12949611796E+01 -0.13050768312E+02  0.48006681989E+00  0.13123640582E+02  0.00000000000E+00 0. -1.
</event>
<event>
 7    1  0.5755468E-013  0.5930191E+02  0.7816164E-02  0.1266605E+00
        -11   -1    0    0    0    0  0.00000000000E+00  0.00000000000E+00  0.45593999997E+02  0.45594000000E+02  0.51100000000E-03 0.  1.
         11   -1    0    0    0    0 -0.00000000000E+00 -0.00000000000E+00 -0.45593999997E+02  0.45594000000E+02  0.51100000000E-03 0. -1.
    9900012    2    1    2    0    0 -0.26676114350E+01 -0.20393446964E+02 -0.24366239935E+02  0.59301914031E+02  0.49999945293E+02 0.  0.
        -12    1    1    2    0    0  0.26676114350E+01  0.20393446964E+02  0.24366239935E+02  0.31886085969E+02  0.00000000000E+00 0.  1.
         11    1    3    3    0    0 -0.22625846911E+02  0.78351001182E+00 -0.14569076294E+02  0.26922125115E+02  0.51100000000E-03 0. -1.
        -11    1    3    3    0    0  0.13103238715E+02 -0.19987869012E+02 -0.73513884524E+01  0.25005053188E+02  0.51100000000E-03 0.  1.
         12    1    3    3    0    0  0.68549967617E+01 -0.11890879640E+01 -0.24457751886E+01  0.73747357283E+01  0.00000000000E+00 0. -1.
</event>
<event>
 7    1  0.5755468E-013  0.5930194E+02  0.7816164E-02  0.1266605E+00
        -11   -1    0    0    0    0  0.00000000000E+00  0.00000000000E+00  0.45593999997E+02  0.45594000000E+02  0.51100000000E-03 0.  1.
         11   -1    0    0    0    0 -0.00000000000E+00 -0.00000000000E+00 -0.45593999997E+02  0.45594000000E+02  0.51100000000E-03 0. -1.
    9900012    2    1    2    0    0  0.14570934687E+02 -0.35496395576E+01 -0.28139092994E+02  0.59301942966E+02  0.49999998063E+02 0.  0.
        -12    1    1    2    0    0 -0.14570934687E+02  0.35496395576E+01  0.28139092994E+02  0.31886057034E+02  0.00000000000E+00 0.  1.
         11    1    3    3    0    0  0.26203139321E+02 -0.72533453179E+01 -0.23741401445E+02  0.36095286000E+02  0.51100000000E-03 0. -1.
        -11    1    3    3    0    0 -0.35781012831E+01 -0.23106622906E+01  0.68848272502E+01  0.80958517489E+01  0.51100000000E-03 0.  1.
         12    1    3    3    0    0 -0.80541033509E+01  0.60143680509E+01 -0.11282518800E+02  0.15110805217E+02  0.00000000000E+00 0. -1.
</event>
<event>
 7    1  0.5755468E-013  0.5930201E+02  0.7816164E-02  0.1266605E+00
        -11   -1    0    0    0    0  0.00000000000E+00  0.00000000000E+00  0.45593999997E+02  0.45594000000E+02  0.51100000000E-03 0.  1.
         11   -1    0    0    0    0 -0.00000000000E+00 -0.00000000000E+00 -0.45593999997E+02  0.45594000000E+02  0.51100000000E-03 0. -1.
    9900012    2    1    2    0    0  0.27649557174E+02  0.15878555926E+02 -0.29945550623E+00  0.59302012108E+02  0.50000124162E+02 0.  0.
        -12    1    1    2    0    0 -0.27649557174E+02 -0.15878555926E+02  0.29945550623E+00  0.31885987892E+02  0.00000000000E+00 0.  1.
         11    1    3    3    0    0  0.23059337631E+02 -0.10462659882E+02  0.14396836847E+01  0.25362826995E+02  0.51100000000E-03 0. -1.
        -11    1    3    3    0    0  0.99479731714E+00  0.27084431067E+02 -0.65543499603E+01  0.27883965492E+02  0.51100000000E-03 0.  1.
         12    1    3    3    0    0  0.35954222261E+01 -0.74321525820E+00  0.48152107693E+01  0.60552196209E+01  0.00000000000E+00 0. -1.
</event>
<event>
 7    1  0.5755468E-013  0.5930196E+02  0.7816164E-02  0.1266605E+00
        -11   -1    0    0    0    0  0.00000000000E+00  0.00000000000E+00  0.45593999997E+02  0.45594000000E+02  0.51100000000E-03 0. -1.
         11   -1    0    0    0    0 -0.00000000000E+00 -0.00000000000E+00 -0.45593999997E+02  0.45594000000E+02  0.51100000000E-03 0.  1.
    9900012    2    1    2    0    0  0.23054360542E+02  0.14942723884E+02  0.16184290884E+02  0.59301955898E+02  0.50000021648E+02 0.  0.
        -12    1    1    2    0    0 -0.23054360542E+02 -0.14942723884E+02 -0.16184290884E+02  0.31886044102E+02  0.00000000000E+00 0.  1.
         11    1    3    3    0    0  0.23298915450E+02  0.13932476200E+02 -0.84723855067E+00  0.27160102497E+02  0.51100000000E-03 0. -1.
        -11    1    3    3    0    0 -0.10607201507E+02  0.90440407800E+01  0.10748233486E+02  0.17602043085E+02  0.51100000000E-03 0.  1.
         12    1    3    3    0    0  0.10362646599E+02 -0.80337930958E+01  0.62832959488E+01  0.14539810316E+02  0.00000000000E+00 0. -1.
</event>
<event>
 7    1  0.5755468E-013  0.5930200E+02  0.7816164E-02  0.1266605E+00
        -11   -1    0    0    0    0  0.00000000000E+00  0.00000000000E+00  0.45593999997E+02  0.45594000000E+02  0.51100000000E-03 0.  1.
         11   -1    0    0    0    0 -0.00000000000E+00 -0.00000000000E+00 -0.45593999997E+02  0.45594000000E+02  0.51100000000E-03 0. -1.
    9900012    2    1    2    0    0 -0.17277635528E+02  0.21703801075E+02 -0.15720848970E+02  0.59302003656E+02  0.50000108747E+02 0.  0.
        -12    1    1    2    0    0  0.17277635528E+02 -0.21703801075E+02  0.15720848970E+02  0.31885996344E+02  0.00000000000E+00 0.  1.
         11    1    3    3    0    0 -0.57349325191E+01  0.16469195815E+02  0.12671936527E+02  0.21556944064E+02  0.51100000000E-03 0.  1.
        -11    1    3    3    0    0  0.89853695920E+00 -0.11042628936E+01 -0.22572832654E+02  0.22617682010E+02  0.51100000000E-03 0. -1.
         12    1    3    3    0    0 -0.12441239968E+02  0.63388681539E+01 -0.58199528423E+01  0.15127377581E+02  0.00000000000E+00 0. -1.
</event>
<event>
 7    1  0.5755468E-013  0.5930192E+02  0.7816164E-02  0.1266605E+00
        -11   -1    0    0    0    0  0.00000000000E+00  0.00000000000E+00  0.45593999997E+02  0.45594000000E+02  0.51100000000E-03 0.  1.
         11   -1    0    0    0    0 -0.00000000000E+00 -0.00000000000E+00 -0.45593999997E+02  0.45594000000E+02  0.51100000000E-03 0. -1.
    9900012    2    1    2    0    0 -0.77047310229E+01  0.44370850566E+01 -0.30621420468E+02  0.59301921605E+02  0.49999959107E+02 0.  0.
        -12    1    1    2    0    0  0.77047310229E+01 -0.44370850566E+01  0.30621420468E+02  0.31886078395E+02  0.00000000000E+00 0.  1.
         11    1    3    3    0    0  0.92861100049E+01  0.16361522786E+02 -0.28472702486E+01  0.19027301832E+02  0.51100000000E-03 0. -1.
        -11    1    3    3    0    0 -0.17457342218E+02 -0.80711244600E+01 -0.92379424740E+01  0.21336387435E+02  0.51100000000E-03 0.  1.
         12    1    3    3    0    0  0.46650119043E+00 -0.38533132689E+01 -0.18536207745E+02  0.18938232338E+02  0.00000000000E+00 0. -1.
</event>
<event>
 7    1  0.5755468E-013  0.5930192E+02  0.7816164E-02  0.1266605E+00
        -11   -1    0    0    0    0  0.00000000000E+00  0.00000000000E+00  0.45593999997E+02  0.45594000000E+02  0.51100000000E-03 0. -1.
         11   -1    0    0    0    0 -0.00000000000E+00 -0.00000000000E+00 -0.45593999997E+02  0.45594000000E+02  0.51100000000E-03 0.  1.
    9900012    2    1    2    0    0  0.20294627339E+02 -0.24519328501E+02  0.19111989891E+01  0.59301920740E+02  0.49999957529E+02 0.  0.
        -12    1    1    2    0    0 -0.20294627339E+02  0.24519328501E+02 -0.19111989891E+01  0.31886079260E+02  0.00000000000E+00 0.  1.
         11    1    3    3    0    0  0.17758167740E+02 -0.98601478261E+01  0.13745069941E+01  0.20358396459E+02  0.51100000000E-03 0. -1.
        -11    1    3    3    0    0 -0.15834374062E+02 -0.53050358487E+01  0.57809194936E+01  0.17671724243E+02  0.51100000000E-03 0.  1.
        -12    1    3    3    0    0  0.18370833660E+02 -0.93541448266E+01 -0.52442274987E+01  0.21271800038E+02  0.00000000000E+00 0.  1.
</event>
<event>
 7    1  0.5755468E-013  0.5930195E+02  0.7816164E-02  0.1266605E+00
        -11   -1    0    0    0    0  0.00000000000E+00  0.00000000000E+00  0.45593999997E+02  0.45594000000E+02  0.51100000000E-03 0. -1.
         11   -1    0    0    0    0 -0.00000000000E+00 -0.00000000000E+00 -0.45593999997E+02  0.45594000000E+02  0.51100000000E-03 0.  1.
    9900012    2    1    2    0    0  0.35233794251E+01 -0.31635381757E+02 -0.18731901380E+01  0.59301946265E+02  0.50000004080E+02 0.  0.
        -12    1    1    2    0    0 -0.35233794251E+01  0.31635381757E+02  0.18731901380E+01  0.31886053735E+02  0.00000000000E+00 0.  1.
         11    1    3    3    0    0 -0.11566088794E+02 -0.58151536095E+01  0.10734157143E+02  0.16817031585E+02  0.51100000000E-03 0. -1.
        -11    1    3    3    0    0  0.21587900527E+01 -0.19452419699E+02 -0.18482895474E+02  0.26919777711E+02  0.51100000000E-03 0.  1.
         12    1    3    3    0    0  0.12930678167E+02 -0.63678084491E+01  0.58755481931E+01  0.15565136969E+02  0.00000000000E+00 0. -1.
</event>
<event>
 7    1  0.5755468E-013  0.5930194E+02  0.7816164E-02  0.1266605E+00
        -11   -1    0    0    0    0  0.00000000000E+00  0.00000000000E+00  0.45593999997E+02  0.45594000000E+02  0.51100000000E-03 0.  1.
         11   -1    0    0    0    0 -0.00000000000E+00 -0.00000000000E+00 -0.45593999997E+02  0.45594000000E+02  0.51100000000E-03 0. -1.
    9900012    2    1    2    0    0  0.76050589216E+01  0.26661966225E+02 -0.15748761378E+02  0.59301939580E+02  0.49999991888E+02 0.  0.
        -12    1    1    2    0    0 -0.76050589216E+01 -0.26661966225E+02  0.15748761378E+02  0.31886060420E+02  0.00000000000E+00 0.  1.
         11    1    3    3    0    0 -0.20281704877E+02  0.87993000158E+01 -0.13431856168E+02  0.25868706846E+02  0.51100000000E-03 0. -1.
        -11    1    3    3    0    0  0.11835290608E+02  0.63205750297E+01  0.69213160521E+00  0.13435133751E+02  0.51100000000E-03 0.  1.
         12    1    3    3    0    0  0.16051473190E+02  0.11542091180E+02 -0.30090368149E+01  0.19998098983E+02  0.00000000000E+00 0. -1.
</event>
<event>
 7    1  0.5755468E-013  0.5930181E+02  0.7816164E-02  0.1266605E+00
        -11   -1    0    0    0    0  0.00000000000E+00  0.00000000000E+00  0.45593999997E+02  0.45594000000E+02  0.51100000000E-03 0.  1.
         11   -1    0    0    0    0 -0.00000000000E+00 -0.00000000000E+00 -0.45593999997E+02  0.45594000000E+02  0.51100000000E-03 0. -1.
    9900012    2    1    2    0    0  0.12787389459E+01 -0.52690069500E+01 -0.31421826953E+02  0.59301814644E+02  0.49999764034E+02 0.  0.
        -12    1    1    2    0    0 -0.12787389459E+01  0.52690069500E+01  0.31421826953E+02  0.31886185356E+02  0.00000000000E+00 0.  1.
         11    1    3    3    0    0  0.22884379830E+02 -0.42390374485E+01 -0.83026475091E+01  0.24710286008E+02  0.51100000000E-03 0. -1.
        -11    1    3    3    0    0 -0.15390472510E+02  0.22243192645E+00 -0.63259320957E+01  0.16641320175E+02  0.51100000000E-03 0.  1.
        -12    1    3    3    0    0 -0.62151683745E+01 -0.12524014280E+01 -0.16793247348E+02  0.17950208460E+02  0.00000000000E+00 0.  1.
</event>
<event>
 7    1  0.5755468E-013  0.5930196E+02  0.7816164E-02  0.1266605E+00
        -11   -1    0    0    0    0  0.00000000000E+00  0.00000000000E+00  0.45593999997E+02  0.45594000000E+02  0.51100000000E-03 0.  1.
         11   -1    0    0    0    0 -0.00000000000E+00 -0.00000000000E+00 -0.45593999997E+02  0.45594000000E+02  0.51100000000E-03 0. -1.
    9900012    2    1    2    0    0  0.29643174609E+01 -0.16837349882E+02 -0.26915344405E+02  0.59301963973E+02  0.50000036376E+02 0.  0.
        -12    1    1    2    0    0 -0.29643174609E+01  0.16837349882E+02  0.26915344405E+02  0.31886036027E+02  0.00000000000E+00 0.  1.
         11    1    3    3    0    0 -0.94522967075E+00  0.60006624584E+01 -0.46660784531E+01  0.76598758125E+01  0.51100000000E-03 0. -1.
        -11    1    3    3    0    0 -0.18708529962E+01 -0.24289651343E+02 -0.31997685002E+02  0.40216154702E+02  0.51100000000E-03 0.  1.
        -12    1    3    3    0    0  0.57804001279E+01  0.14516390027E+01  0.97484190496E+01  0.11425933459E+02  0.00000000000E+00 0.  1.
</event>
<event>
 7    1  0.5755468E-013  0.5930193E+02  0.7816164E-02  0.1266605E+00
        -11   -1    0    0    0    0  0.00000000000E+00  0.00000000000E+00  0.45593999997E+02  0.45594000000E+02  0.51100000000E-03 0.  1.
         11   -1    0    0    0    0 -0.00000000000E+00 -0.00000000000E+00 -0.45593999997E+02  0.45594000000E+02  0.51100000000E-03 0. -1.
    9900012    2    1    2    0    0 -0.24839589261E+02 -0.18306943899E+02 -0.80356573547E+01  0.59301934411E+02  0.49999982462E+02 0.  0.
        -12    1    1    2    0    0  0.24839589261E+02  0.18306943899E+02  0.80356573547E+01  0.31886065589E+02  0.00000000000E+00 0.  1.
         11    1    3    3    0    0 -0.78214157650E+01 -0.21715065923E+02  0.11648869682E+02  0.25853719224E+02  0.51100000000E-03 0. -1.
        -11    1    3    3    0    0 -0.64008596083E+01  0.10416027202E+02 -0.32218506513E+01  0.12642980198E+02  0.51100000000E-03 0.  1.
         12    1    3    3    0    0 -0.10617313888E+02 -0.70079051789E+01 -0.16462676385E+02  0.20805234989E+02  0.00000000000E+00 0. -1.
</event>
<event>
 7    1  0.5755468E-013  0.5930195E+02  0.7816164E-02  0.1266605E+00
        -11   -1    0    0    0    0  0.00000000000E+00  0.00000000000E+00  0.45593999997E+02  0.45594000000E+02  0.51100000000E-03 0.  1.
         11   -1    0    0    0    0 -0.00000000000E+00 -0.00000000000E+00 -0.45593999997E+02  0.45594000000E+02  0.51100000000E-03 0. -1.
    9900012    2    1    2    0    0 -0.41562414580E+01  0.15355454832E+02 -0.27634328130E+02  0.59301946194E+02  0.50000003950E+02 0.  0.
        -12    1    1    2    0    0  0.41562414580E+01 -0.15355454832E+02  0.27634328130E+02  0.31886053806E+02  0.00000000000E+00 0.  1.
         11    1    3    3    0    0  0.13685090306E+02  0.11852874519E+02 -0.28096168361E+02  0.33424048347E+02  0.51100000000E-03 0. -1.
        -11    1    3    3    0    0 -0.12257410666E+02 -0.15461619599E+01 -0.78705271352E+01  0.14648547051E+02  0.51100000000E-03 0.  1.
         12    1    3    3    0    0 -0.55839210972E+01  0.50487422738E+01  0.83323673671E+01  0.11229350796E+02  0.00000000000E+00 0. -1.
</event>
<event>
 7    1  0.5755468E-013  0.5930230E+02  0.7816164E-02  0.1266604E+00
        -11   -1    0    0    0    0  0.00000000000E+00  0.00000000000E+00  0.45593999997E+02  0.45594000000E+02  0.51100000000E-03 0. -1.
         11   -1    0    0    0    0 -0.00000000000E+00 -0.00000000000E+00 -0.45593999997E+02  0.45594000000E+02  0.51100000000E-03 0.  1.
    9900012    2    1    2    0    0 -0.18052155418E+02 -0.23653975740E+02 -0.11458916569E+02  0.59302303324E+02  0.50000655267E+02 0.  0.
        -12    1    1    2    0    0  0.18052155418E+02  0.23653975740E+02  0.11458916569E+02  0.31885696676E+02  0.00000000000E+00 0.  1.
         11    1    3    3    0    0  0.12145197086E+01  0.53005650231E+01 -0.10021099778E+02  0.11401468708E+02  0.51100000000E-03 0. -1.
        -11    1    3    3    0    0 -0.31450329437E+01 -0.28254254797E+02  0.75709518508E+01  0.29419610102E+02  0.51100000000E-03 0.  1.
        -12    1    3    3    0    0 -0.16121642183E+02 -0.70028596644E+00 -0.90087686415E+01  0.18481224514E+02  0.00000000000E+00 0.  1.
</event>
<event>
 7    1  0.5755468E-013  0.5930191E+02  0.7816164E-02  0.1266605E+00
        -11   -1    0    0    0    0  0.00000000000E+00  0.00000000000E+00  0.45593999997E+02  0.45594000000E+02  0.51100000000E-03 0. -1.
         11   -1    0    0    0    0 -0.00000000000E+00 -0.00000000000E+00 -0.45593999997E+02  0.45594000000E+02  0.51100000000E-03 0.  1.
    9900012    2    1    2    0    0  0.10662762617E+02  0.68226555063E+01  0.29265676602E+02  0.59301906452E+02  0.49999931470E+02 0.  0.
        -12    1    1    2    0    0 -0.10662762617E+02 -0.68226555063E+01 -0.29265676602E+02  0.31886093548E+02  0.00000000000E+00 0.  1.
         11    1    3    3    0    0  0.57383999084E+01 -0.58743601229E+01  0.22934932722E+02  0.24360798008E+02  0.51100000000E-03 0. -1.
        -11    1    3    3    0    0 -0.60798398421E+01  0.19547852775E+02  0.77753024333E+01  0.21898363610E+02  0.51100000000E-03 0.  1.
        -12    1    3    3    0    0  0.11004202551E+02 -0.68508371456E+01 -0.14445585533E+01  0.13042744833E+02  0.00000000000E+00 0.  1.
</event>
<event>
 7    1  0.5755468E-013  0.5930193E+02  0.7816164E-02  0.1266605E+00
        -11   -1    0    0    0    0  0.00000000000E+00  0.00000000000E+00  0.45593999997E+02  0.45594000000E+02  0.51100000000E-03 0.  1.
         11   -1    0    0    0    0 -0.00000000000E+00 -0.00000000000E+00 -0.45593999997E+02  0.45594000000E+02  0.51100000000E-03 0. -1.
    9900012    2    1    2    0    0  0.28193336513E+02 -0.16093136550E+01 -0.14807669840E+02  0.59301934073E+02  0.49999981845E+02 0.  0.
        -12    1    1    2    0    0 -0.28193336513E+02  0.16093136550E+01  0.14807669840E+02  0.31886065927E+02  0.00000000000E+00 0.  1.
         11    1    3    3    0    0  0.21180890436E+02  0.18356256015E+02 -0.20469553175E+02  0.34707129844E+02  0.51100000000E-03 0. -1.
        -11    1    3    3    0    0  0.96234971542E+01 -0.14097088433E+02  0.19588986488E+01  0.17180712556E+02  0.51100000000E-03 0.  1.
        -12    1    3    3    0    0 -0.26110510765E+01 -0.58684812373E+01  0.37029846862E+01  0.74140916734E+01  0.00000000000E+00 0.  1.
</event>
<event>
 7    1  0.5755468E-013  0.5930194E+02  0.7816164E-02  0.1266605E+00
        -11   -1    0    0    0    0  0.00000000000E+00  0.00000000000E+00  0.45593999997E+02  0.45594000000E+02  0.51100000000E-03 0.  1.
         11   -1    0    0    0    0 -0.00000000000E+00 -0.00000000000E+00 -0.45593999997E+02  0.45594000000E+02  0.51100000000E-03 0. -1.
    9900012    2    1    2    0    0  0.90359799920E+01 -0.21372706822E+02 -0.21869602636E+02  0.59301936418E+02  0.49999986122E+02 0.  0.
        -12    1    1    2    0    0 -0.90359799920E+01  0.21372706822E+02  0.21869602636E+02  0.31886063582E+02  0.00000000000E+00 0.  1.
         11    1    3    3    0    0 -0.86828831261E+00 -0.13022173235E+02 -0.75751761150E+01  0.15090202576E+02  0.51100000000E-03 0. -1.
        -11    1    3    3    0    0 -0.11165690840E+02  0.91567910863E+01 -0.46996753230E+01  0.15185730912E+02  0.51100000000E-03 0.  1.
        -12    1    3    3    0    0  0.21069959144E+02 -0.17507324674E+02 -0.95947511977E+01  0.29026002930E+02  0.00000000000E+00 0.  1.
</event>
<event>
 7    1  0.5755468E-013  0.5930195E+02  0.7816164E-02  0.1266605E+00
        -11   -1    0    0    0    0  0.00000000000E+00  0.00000000000E+00  0.45593999997E+02  0.45594000000E+02  0.51100000000E-03 0. -1.
         11   -1    0    0    0    0 -0.00000000000E+00 -0.00000000000E+00 -0.45593999997E+02  0.45594000000E+02  0.51100000000E-03 0.  1.
    9900012    2    1    2    0    0  0.15792036898E+02  0.30749440110E+00  0.27699051700E+02  0.59301945881E+02  0.50000003380E+02 0.  0.
        -12    1    1    2    0    0 -0.15792036898E+02 -0.30749440110E+00 -0.27699051700E+02  0.31886054119E+02  0.00000000000E+00 0.  1.
         11    1    3    3    0    0 -0.34362439887E+01  0.15365764571E+02  0.30148917083E+02  0.34012816631E+02  0.51100000000E-03 0. -1.
        -11    1    3    3    0    0  0.54420507330E+01 -0.48950691134E+01 -0.35324295356E+01  0.81274643334E+01  0.51100000000E-03 0.  1.
         12    1    3    3    0    0  0.13786230154E+02 -0.10163201057E+02  0.10825641519E+01  0.17161664917E+02  0.00000000000E+00 0. -1.
</event>
<event>
 7    1  0.5755468E-013  0.5930162E+02  0.7816164E-02  0.1266606E+00
        -11   -1    0    0    0    0  0.00000000000E+00  0.00000000000E+00  0.45593999997E+02  0.45594000000E+02  0.51100000000E-03 0. -1.
         11   -1    0    0    0    0 -0.00000000000E+00 -0.00000000000E+00 -0.45593999997E+02  0.45594000000E+02  0.51100000000E-03 0.  1.
    9900012    2    1    2    0    0 -0.19055591717E+02 -0.18564776629E+02 -0.17577675331E+02  0.59301620823E+02  0.49999410548E+02 0.  0.
        -12    1    1    2    0    0  0.19055591717E+02  0.18564776629E+02  0.17577675331E+02  0.31886379177E+02  0.00000000000E+00 0.  1.
         11    1    3    3    0    0 -0.95287540131E+00  0.85102886333E+01 -0.16353436318E+02  0.18459898803E+02  0.51100000000E-03 0. -1.
        -11    1    3    3    0    0 -0.85794098614E+01 -0.27773429274E+02 -0.67051328498E+01  0.29831668643E+02  0.51100000000E-03 0.  1.
         12    1    3    3    0    0 -0.95233064546E+01  0.69836401111E+00  0.54808938371E+01  0.11010053377E+02  0.00000000000E+00 0. -1.
</event>
<event>
 7    1  0.5755468E-013  0.5930194E+02  0.7816164E-02  0.1266605E+00
        -11   -1    0    0    0    0  0.00000000000E+00  0.00000000000E+00  0.45593999997E+02  0.45594000000E+02  0.51100000000E-03 0. -1.
         11   -1    0    0    0    0 -0.00000000000E+00 -0.00000000000E+00 -0.45593999997E+02  0.45594000000E+02  0.51100000000E-03 0.  1.
    9900012    2    1    2    0    0  0.11323066968E+02 -0.29434967508E+02  0.47001733794E+01  0.59301940545E+02  0.49999993648E+02 0.  0.
        -12    1    1    2    0    0 -0.11323066968E+02  0.29434967508E+02 -0.47001733794E+01  0.31886059455E+02  0.00000000000E+00 0.  1.
         11    1    3    3    0    0  0.11074883510E+02 -0.25343582865E+02  0.98037582380E+01  0.29343890557E+02  0.51100000000E-03 0. -1.
        -11    1    3    3    0    0 -0.10685320641E+02  0.22022935946E+01 -0.11467599306E+02  0.15828202942E+02  0.51100000000E-03 0.  1.
        -12    1    3    3    0    0  0.10933504099E+02 -0.62936782379E+01  0.63640144477E+01  0.14129847045E+02  0.00000000000E+00 0.  1.
</event>
<event>
 7    1  0.7941544E-013  0.5930193E+02  0.7816164E-02  0.1266605E+00
        -11   -1    0    0    0    0  0.00000000000E+00  0.00000000000E+00  0.45593999997E+02  0.45594000000E+02  0.51100000000E-03 0. -1.
         11   -1    0    0    0    0 -0.00000000000E+00 -0.00000000000E+00 -0.45593999997E+02  0.45594000000E+02  0.51100000000E-03 0.  1.
    9900012    2    1    2    0    0  0.26791293409E+02  0.14172966204E+01  0.17231921591E+02  0.59301933232E+02  0.49999980311E+02 0.  0.
        -12    1    1    2    0    0 -0.26791293409E+02 -0.14172966204E+01 -0.17231921591E+02  0.31886066768E+02  0.00000000000E+00 0.  1.
         11    1    3    3    0    0  0.26689447606E+02  0.17660105616E+02  0.16962921140E+02  0.36220803936E+02  0.51100000000E-03 0. -1.
        -11    1    3    3    0    0 -0.43064390996E+01  0.45153078583E+00 -0.33066441634E+01  0.54482284877E+01  0.51100000000E-03 0.  1.
         12    1    3    3    0    0  0.44082849023E+01 -0.16694339781E+02  0.35756446137E+01  0.17632900808E+02  0.00000000000E+00 0. -1.
</event>
<event>
 7    1  0.5755468E-013  0.5930201E+02  0.7816164E-02  0.1266605E+00
        -11   -1    0    0    0    0  0.00000000000E+00  0.00000000000E+00  0.45593999997E+02  0.45594000000E+02  0.51100000000E-03 0.  1.
         11   -1    0    0    0    0 -0.00000000000E+00 -0.00000000000E+00 -0.45593999997E+02  0.45594000000E+02  0.51100000000E-03 0. -1.
    9900012    2    1    2    0    0  0.29183276560E+01 -0.13014801351E+02 -0.28962299096E+02  0.59302008413E+02  0.50000117423E+02 0.  0.
        -12    1    1    2    0    0 -0.29183276560E+01  0.13014801351E+02  0.28962299096E+02  0.31885991587E+02  0.00000000000E+00 0.  1.
         11    1    3    3    0    0 -0.14830399340E+02  0.16935400020E+01  0.45874349155E+00  0.14933829655E+02  0.51100000000E-03 0. -1.
        -11    1    3    3    0    0  0.20727685308E+02 -0.11066938921E+02 -0.12119797614E+02  0.26438675643E+02  0.51100000000E-03 0.  1.
         12    1    3    3    0    0 -0.29789583123E+01 -0.36414024329E+01 -0.17301244974E+02  0.17929503116E+02  0.00000000000E+00 0. -1.
</event>
<event>
 7    1  0.5755468E-013  0.5930190E+02  0.7816164E-02  0.1266605E+00
        -11   -1    0    0    0    0  0.00000000000E+00  0.00000000000E+00  0.45593999997E+02  0.45594000000E+02  0.51100000000E-03 0.  1.
         11   -1    0    0    0    0 -0.00000000000E+00 -0.00000000000E+00 -0.45593999997E+02  0.45594000000E+02  0.51100000000E-03 0. -1.
    9900012    2    1    2    0    0  0.58151362081E+01 -0.18207441513E+02 -0.25522474599E+02  0.59301898871E+02  0.49999917645E+02 0.  0.
        -12    1    1    2    0    0 -0.58151362081E+01  0.18207441513E+02  0.25522474599E+02  0.31886101129E+02  0.00000000000E+00 0.  1.
         11    1    3    3    0    0 -0.17963111470E+01 -0.59234507634E+01 -0.10820795332E+02  0.12466098610E+02  0.51100000000E-03 0. -1.
        -11    1    3    3    0    0 -0.12081799056E+02 -0.15142986791E+02  0.37110885448E+01  0.19724403561E+02  0.51100000000E-03 0.  1.
        -12    1    3    3    0    0  0.19693246411E+02  0.28589960416E+01 -0.18412767811E+02  0.27111396700E+02  0.00000000000E+00 0.  1.
</event>
<event>
 7    1  0.5755468E-013  0.5930199E+02  0.7816164E-02  0.1266605E+00
        -11   -1    0    0    0    0  0.00000000000E+00  0.00000000000E+00  0.45593999997E+02  0.45594000000E+02  0.51100000000E-03 0.  1.
         11   -1    0    0    0    0 -0.00000000000E+00 -0.00000000000E+00 -0.45593999997E+02  0.45594000000E+02  0.51100000000E-03 0. -1.
    9900012    2    1    2    0    0 -0.61114443901E+01 -0.27789826608E+02 -0.14390750251E+02  0.59301985696E+02  0.50000075993E+02 0.  0.
        -12    1    1    2    0    0  0.61114443901E+01  0.27789826608E+02  0.14390750251E+02  0.31886014304E+02  0.00000000000E+00 0.  1.
         11    1    3    3    0    0 -0.59562413308E+01  0.70664442875E+01  0.54237865465E+00  0.92577330122E+01  0.51100000000E-03 0. -1.
        -11    1    3    3    0    0  0.12078032941E+02 -0.28432696099E+02 -0.17410696989E+01  0.30940724153E+02  0.51100000000E-03 0.  1.
        -12    1    3    3    0    0 -0.12233236001E+02 -0.64235747965E+01 -0.13192059207E+02  0.19103528531E+02  0.00000000000E+00 0.  1.
</event>
<event>
 7    1  0.5755468E-013  0.5930194E+02  0.7816164E-02  0.1266605E+00
        -11   -1    0    0    0    0  0.00000000000E+00  0.00000000000E+00  0.45593999997E+02  0.45594000000E+02  0.51100000000E-03 0.  1.
         11   -1    0    0    0    0 -0.00000000000E+00 -0.00000000000E+00 -0.45593999997E+02  0.45594000000E+02  0.51100000000E-03 0. -1.
    9900012    2    1    2    0    0 -0.22923861229E+02 -0.96167075755E+01 -0.19968377144E+02  0.59301944051E+02  0.50000000043E+02 0.  0.
        -12    1    1    2    0    0  0.22923861229E+02  0.96167075755E+01  0.19968377144E+02  0.31886055949E+02  0.00000000000E+00 0.  1.
         11    1    3    3    0    0 -0.13156085114E+02  0.41299312284E+01 -0.95535423920E+01  0.16775252009E+02  0.51100000000E-03 0. -1.
        -11    1    3    3    0    0 -0.14139072801E+02 -0.15440166400E+02  0.88280158693E+01  0.22721047128E+02  0.51100000000E-03 0.  1.
        -12    1    3    3    0    0  0.43712966866E+01  0.16935275959E+01 -0.19242850621E+02  0.19805644914E+02  0.00000000000E+00 0.  1.
</event>
<event>
 7    1  0.5755468E-013  0.5930188E+02  0.7816164E-02  0.1266605E+00
        -11   -1    0    0    0    0  0.00000000000E+00  0.00000000000E+00  0.45593999997E+02  0.45594000000E+02  0.51100000000E-03 0. -1.
         11   -1    0    0    0    0 -0.00000000000E+00 -0.00000000000E+00 -0.45593999997E+02  0.45594000000E+02  0.51100000000E-03 0.  1.
    9900012    2    1    2    0    0  0.80641180013E+01 -0.30745958244E+02 -0.25260377284E+01  0.59301877406E+02  0.49999878498E+02 0.  0.
        -12    1    1    2    0    0 -0.80641180013E+01  0.30745958244E+02  0.25260377284E+01  0.31886122594E+02  0.00000000000E+00 0.  1.
         11    1    3    3    0    0 -0.30995537684E+01 -0.20243944769E+01  0.11956717396E+02  0.12516728715E+02  0.51100000000E-03 0. -1.
        -11    1    3    3    0    0  0.20357315061E+02 -0.25915310409E+02 -0.16663848643E+02  0.36928409686E+02  0.51100000000E-03 0.  1.
         12    1    3    3    0    0 -0.91936432911E+01 -0.28062533578E+01  0.21810935183E+01  0.98567390047E+01  0.00000000000E+00 0. -1.
</event>
<event>
 7    1  0.5755468E-013  0.5930196E+02  0.7816164E-02  0.1266605E+00
        -11   -1    0    0    0    0  0.00000000000E+00  0.00000000000E+00  0.45593999997E+02  0.45594000000E+02  0.51100000000E-03 0.  1.
         11   -1    0    0    0    0 -0.00000000000E+00 -0.00000000000E+00 -0.45593999997E+02  0.45594000000E+02  0.51100000000E-03 0. -1.
    9900012    2    1    2    0    0 -0.12838662089E+02 -0.20270117229E+02  0.21000246693E+02  0.59301964532E+02  0.50000037394E+02 0.  0.
        -12    1    1    2    0    0  0.12838662089E+02  0.20270117229E+02 -0.21000246693E+02  0.31886035468E+02  0.00000000000E+00 0.  1.
         11    1    3    3    0    0  0.55684018478E+00 -0.76199774257E+01 -0.15621335730E+02  0.17389659491E+02  0.51100000000E-03 0. -1.
        -11    1    3    3    0    0 -0.40069040181E+01 -0.26911401222E+01  0.18979347591E+02  0.19583491778E+02  0.51100000000E-03 0.  1.
         12    1    3    3    0    0 -0.93885982559E+01 -0.99589996809E+01  0.17642234832E+02  0.22328813263E+02  0.00000000000E+00 0. -1.
</event>
<event>
 7    1  0.5755468E-013  0.5930196E+02  0.7816164E-02  0.1266605E+00
        -11   -1    0    0    0    0  0.00000000000E+00  0.00000000000E+00  0.45593999997E+02  0.45594000000E+02  0.51100000000E-03 0.  1.
         11   -1    0    0    0    0 -0.00000000000E+00 -0.00000000000E+00 -0.45593999997E+02  0.45594000000E+02  0.51100000000E-03 0. -1.
    9900012    2    1    2    0    0  0.18431421586E+02  0.25749749776E+02  0.37352871409E+01  0.59301964103E+02  0.50000036612E+02 0.  0.
        -12    1    1    2    0    0 -0.18431421586E+02 -0.25749749776E+02 -0.37352871409E+01  0.31886035897E+02  0.00000000000E+00 0.  1.
         11    1    3    3    0    0  0.29418956402E+02  0.11413583042E+02  0.87685461282E+00  0.31567605990E+02  0.51100000000E-03 0. -1.
        -11    1    3    3    0    0 -0.81532281168E+01  0.21503003767E+01 -0.76579336323E+01  0.11390472695E+02  0.51100000000E-03 0.  1.
        -12    1    3    3    0    0 -0.28343066992E+01  0.12185866357E+02  0.10516366160E+02  0.16343885418E+02  0.00000000000E+00 0.  1.
</event>
<event>
 7    1  0.5755468E-013  0.5930194E+02  0.7816164E-02  0.1266605E+00
        -11   -1    0    0    0    0  0.00000000000E+00  0.00000000000E+00  0.45593999997E+02  0.45594000000E+02  0.51100000000E-03 0. -1.
         11   -1    0    0    0    0 -0.00000000000E+00 -0.00000000000E+00 -0.45593999997E+02  0.45594000000E+02  0.51100000000E-03 0.  1.
    9900012    2    1    2    0    0  0.15368307336E+01 -0.21106331066E+02  0.23851239319E+02  0.59301942282E+02  0.49999996816E+02 0.  0.
        -12    1    1    2    0    0 -0.15368307336E+01  0.21106331066E+02 -0.23851239319E+02  0.31886057718E+02  0.00000000000E+00 0.  1.
         11    1    3    3    0    0 -0.91089061255E+00 -0.24993798355E+02  0.74496151283E+01  0.26096291762E+02  0.51100000000E-03 0. -1.
        -11    1    3    3    0    0  0.79646073266E+01  0.70430136401E+01 -0.43613284201E+01  0.11491744726E+02  0.51100000000E-03 0.  1.
        -12    1    3    3    0    0 -0.55168859804E+01 -0.31555463515E+01  0.20762952611E+02  0.21713905794E+02  0.00000000000E+00 0.  1.
</event>
<event>
 7    1  0.5755468E-013  0.5930194E+02  0.7816164E-02  0.1266605E+00
        -11   -1    0    0    0    0  0.00000000000E+00  0.00000000000E+00  0.45593999997E+02  0.45594000000E+02  0.51100000000E-03 0. -1.
         11   -1    0    0    0    0 -0.00000000000E+00 -0.00000000000E+00 -0.45593999997E+02  0.45594000000E+02  0.51100000000E-03 0.  1.
    9900012    2    1    2    0    0  0.11241060874E+02 -0.57214912054E+01  0.29285213502E+02  0.59301942842E+02  0.49999997838E+02 0.  0.
        -12    1    1    2    0    0 -0.11241060874E+02  0.57214912054E+01 -0.29285213502E+02  0.31886057158E+02  0.00000000000E+00 0.  1.
         11    1    3    3    0    0  0.21684990786E+02  0.15499902386E+02  0.10471503477E+02  0.28638054834E+02  0.51100000000E-03 0.  1.
        -11    1    3    3    0    0 -0.73476412111E+01 -0.17599374375E+02  0.12702938876E+02  0.22914852522E+02  0.51100000000E-03 0. -1.
        -12    1    3    3    0    0 -0.30962887001E+01 -0.36220192169E+01  0.61107711488E+01  0.77490354854E+01  0.00000000000E+00 0.  1.
</event>
<event>
 7    1  0.5755468E-013  0.5930196E+02  0.7816164E-02  0.1266605E+00
        -11   -1    0    0    0    0  0.00000000000E+00  0.00000000000E+00  0.45593999997E+02  0.45594000000E+02  0.51100000000E-03 0. -1.
         11   -1    0    0    0    0 -0.00000000000E+00 -0.00000000000E+00 -0.45593999997E+02  0.45594000000E+02  0.51100000000E-03 0.  1.
    9900012    2    1    2    0    0 -0.32194371221E+01  0.10105620832E+02  0.30070439642E+02  0.59301957787E+02  0.50000025093E+02 0.  0.
        -12    1    1    2    0    0  0.32194371221E+01 -0.10105620832E+02 -0.30070439642E+02  0.31886042213E+02  0.00000000000E+00 0.  1.
         11    1    3    3    0    0 -0.14323607648E+02  0.17239831272E+02  0.10127529848E+02  0.24595617077E+02  0.51100000000E-03 0. -1.
        -11    1    3    3    0    0  0.18306439014E+02 -0.43538254909E+00  0.10697883706E+02  0.21207545435E+02  0.51100000000E-03 0.  1.
         12    1    3    3    0    0 -0.72022684886E+01 -0.66988278911E+01  0.92450260878E+01  0.13498795274E+02  0.00000000000E+00 0. -1.
</event>
<event>
 7    1  0.5755468E-013  0.5930203E+02  0.7816164E-02  0.1266604E+00
        -11   -1    0    0    0    0  0.00000000000E+00  0.00000000000E+00  0.45593999997E+02  0.45594000000E+02  0.51100000000E-03 0. -1.
         11   -1    0    0    0    0 -0.00000000000E+00 -0.00000000000E+00 -0.45593999997E+02  0.45594000000E+02  0.51100000000E-03 0.  1.
    9900012    2    1    2    0    0 -0.19301741618E+02 -0.15286314278E+02  0.20260462379E+02  0.59302031778E+02  0.50000160035E+02 0.  0.
        -12    1    1    2    0    0  0.19301741618E+02  0.15286314278E+02 -0.20260462379E+02  0.31885968222E+02  0.00000000000E+00 0.  1.
         11    1    3    3    0    0 -0.35130519198E+02 -0.14982256136E+02  0.19386933271E+02  0.42830766512E+02  0.51100000000E-03 0. -1.
        -11    1    3    3    0    0  0.13513001458E+02 -0.10786407241E+01  0.21345325737E+01  0.13723006369E+02  0.51100000000E-03 0.  1.
         12    1    3    3    0    0  0.23157761222E+01  0.77458258289E+00 -0.12610034657E+01  0.27482588973E+01  0.00000000000E+00 0. -1.
</event>
<event>
 7    1  0.5755468E-013  0.5930195E+02  0.7816164E-02  0.1266605E+00
        -11   -1    0    0    0    0  0.00000000000E+00  0.00000000000E+00  0.45593999997E+02  0.45594000000E+02  0.51100000000E-03 0. -1.
         11   -1    0    0    0    0 -0.00000000000E+00 -0.00000000000E+00 -0.45593999997E+02  0.45594000000E+02  0.51100000000E-03 0.  1.
    9900012    2    1    2    0    0 -0.15416132974E+02  0.17124734415E+02  0.22041014217E+02  0.59301953015E+02  0.50000016390E+02 0.  0.
        -12    1    1    2    0    0  0.15416132974E+02 -0.17124734415E+02 -0.22041014217E+02  0.31886046985E+02  0.00000000000E+00 0.  1.
         11    1    3    3    0    0 -0.30975266885E+02  0.85831009707E+01  0.14734910154E+02  0.35358936047E+02  0.51100000000E-03 0. -1.
        -11    1    3    3    0    0  0.12630458367E+02  0.10205542782E+02  0.38163777095E+00  0.16242759300E+02  0.51100000000E-03 0.  1.
         12    1    3    3    0    0  0.29286755439E+01 -0.16639093373E+01  0.69244662914E+01  0.77002576674E+01  0.00000000000E+00 0. -1.
</event>
<event>
 7    1  0.5755468E-013  0.5930195E+02  0.7816164E-02  0.1266605E+00
        -11   -1    0    0    0    0  0.00000000000E+00  0.00000000000E+00  0.45593999997E+02  0.45594000000E+02  0.51100000000E-03 0.  1.
         11   -1    0    0    0    0 -0.00000000000E+00 -0.00000000000E+00 -0.45593999997E+02  0.45594000000E+02  0.51100000000E-03 0. -1.
    9900012    2    1    2    0    0 -0.10931531201E+02  0.21762020760E+02 -0.20582426041E+02  0.59301950015E+02  0.50000010919E+02 0.  0.
        -12    1    1    2    0    0  0.10931531201E+02 -0.21762020760E+02  0.20582426041E+02  0.31886049985E+02  0.00000000000E+00 0.  1.
         11    1    3    3    0    0 -0.74201863320E+01  0.73394013928E+01  0.25346960292E+01  0.10740142561E+02  0.51100000000E-03 0. -1.
        -11    1    3    3    0    0  0.11030264389E+02  0.11577019535E+02 -0.28596596667E+02  0.32763691108E+02  0.51100000000E-03 0.  1.
        -12    1    3    3    0    0 -0.14541609258E+02  0.28455998319E+01  0.54794745974E+01  0.15798116346E+02  0.00000000000E+00 0.  1.
</event>
<event>
 7    1  0.5755468E-013  0.5930190E+02  0.7816164E-02  0.1266605E+00
        -11   -1    0    0    0    0  0.00000000000E+00  0.00000000000E+00  0.45593999997E+02  0.45594000000E+02  0.51100000000E-03 0. -1.
         11   -1    0    0    0    0 -0.00000000000E+00 -0.00000000000E+00 -0.45593999997E+02  0.45594000000E+02  0.51100000000E-03 0.  1.
    9900012    2    1    2    0    0 -0.15251219244E+02  0.26420454542E+02  0.92781127969E+01  0.59301898267E+02  0.49999916543E+02 0.  0.
        -12    1    1    2    0    0  0.15251219244E+02 -0.26420454542E+02 -0.92781127969E+01  0.31886101733E+02  0.00000000000E+00 0.  1.
         11    1    3    3    0    0 -0.25823643418E+02  0.30884536256E+01 -0.52021839362E+01  0.26522854732E+02  0.51100000000E-03 0. -1.
        -11    1    3    3    0    0  0.11320595173E+02  0.95704519080E+01  0.11287556101E+02  0.18632185802E+02  0.51100000000E-03 0.  1.
         12    1    3    3    0    0 -0.74817099905E+00  0.13761549009E+02  0.31927406322E+01  0.14146857733E+02  0.00000000000E+00 0. -1.
</event>
<event>
 7    1  0.5755468E-013  0.5930168E+02  0.7816164E-02  0.1266606E+00
        -11   -1    0    0    0    0  0.00000000000E+00  0.00000000000E+00  0.45593999997E+02  0.45594000000E+02  0.51100000000E-03 0. -1.
         11   -1    0    0    0    0 -0.00000000000E+00 -0.00000000000E+00 -0.45593999997E+02  0.45594000000E+02  0.51100000000E-03 0.  1.
    9900012    2    1    2    0    0 -0.12778990397E+02  0.14736147760E+01  0.29176414324E+02  0.59301681792E+02  0.49999521743E+02 0.  0.
        -12    1    1    2    0    0  0.12778990397E+02 -0.14736147760E+01 -0.29176414324E+02  0.31886318208E+02  0.00000000000E+00 0.  1.
         11    1    3    3    0    0  0.45841166162E+00 -0.16597275523E+02  0.21997018849E+02  0.27559908102E+02  0.51100000000E-03 0. -1.
        -11    1    3    3    0    0 -0.21873111344E+01  0.76704886308E+00 -0.66133874754E+01  0.70078233509E+01  0.51100000000E-03 0.  1.
         12    1    3    3    0    0 -0.11050090924E+02  0.17303841436E+02  0.13792782950E+02  0.24733950339E+02  0.00000000000E+00 0. -1.
</event>
<event>
 7    1  0.5755468E-013  0.5930194E+02  0.7816164E-02  0.1266605E+00
        -11   -1    0    0    0    0  0.00000000000E+00  0.00000000000E+00  0.45593999997E+02  0.45594000000E+02  0.51100000000E-03 0.  1.
         11   -1    0    0    0    0 -0.00000000000E+00 -0.00000000000E+00 -0.45593999997E+02  0.45594000000E+02  0.51100000000E-03 0. -1.
    9900012    2    1    2    0    0  0.20928314150E+02 -0.22662790547E+02 -0.80699557997E+01  0.59301943562E+02  0.49999999151E+02 0.  0.
        -12    1    1    2    0    0 -0.20928314150E+02  0.22662790547E+02  0.80699557997E+01  0.31886056438E+02  0.00000000000E+00 0.  1.
         11    1    3    3    0    0 -0.51511407102E+01 -0.90778003145E+01 -0.16964615270E+02  0.19918305166E+02  0.51100000000E-03 0. -1.
        -11    1    3    3    0    0  0.54618145462E+01 -0.13139981820E+02  0.11891613064E+02  0.18544567989E+02  0.51100000000E-03 0.  1.
         12    1    3    3    0    0  0.20617640314E+02 -0.44500841272E+00 -0.29969535939E+01  0.20839070408E+02  0.00000000000E+00 0. -1.
</event>
<event>
 7    1  0.5755468E-013  0.5930226E+02  0.7816164E-02  0.1266604E+00
        -11   -1    0    0    0    0  0.00000000000E+00  0.00000000000E+00  0.45593999997E+02  0.45594000000E+02  0.51100000000E-03 0.  1.
         11   -1    0    0    0    0 -0.00000000000E+00 -0.00000000000E+00 -0.45593999997E+02  0.45594000000E+02  0.51100000000E-03 0. -1.
    9900012    2    1    2    0    0  0.84381677250E+01 -0.16907540804E+02 -0.25683321275E+02  0.59302257068E+02  0.50000570907E+02 0.  0.
        -12    1    1    2    0    0 -0.84381677250E+01  0.16907540804E+02  0.25683321275E+02  0.31885742932E+02  0.00000000000E+00 0.  1.
         11    1    3    3    0    0  0.10400278678E+02 -0.10272007157E+02 -0.39030268246E+02  0.41677833043E+02  0.51100000000E-03 0. -1.
        -11    1    3    3    0    0  0.44357959122E+00  0.21418241790E+01  0.13661472938E+01  0.25788626092E+01  0.51100000000E-03 0.  1.
         12    1    3    3    0    0 -0.24056905437E+01 -0.87773578265E+01  0.11980799677E+02  0.15045561415E+02  0.00000000000E+00 0. -1.
</event>
<event>
 7    1  0.5755468E-013  0.5930194E+02  0.7816164E-02  0.1266605E+00
        -11   -1    0    0    0    0  0.00000000000E+00  0.00000000000E+00  0.45593999997E+02  0.45594000000E+02  0.51100000000E-03 0.  1.
         11   -1    0    0    0    0 -0.00000000000E+00 -0.00000000000E+00 -0.45593999997E+02  0.45594000000E+02  0.51100000000E-03 0. -1.
    9900012    2    1    2    0    0 -0.27214559699E+02  0.15440233932E+02 -0.61390305655E+01  0.59301940667E+02  0.49999993871E+02 0.  0.
        -12    1    1    2    0    0  0.27214559699E+02 -0.15440233932E+02  0.61390305655E+01  0.31886059333E+02  0.00000000000E+00 0.  1.
         11    1    3    3    0    0 -0.84093606272E+01  0.55271612553E+01 -0.19148535493E+02  0.21631765289E+02  0.51100000000E-03 0. -1.
        -11    1    3    3    0    0 -0.25057825724E+02  0.13137394136E+02  0.98525948071E+01  0.29959295375E+02  0.51100000000E-03 0.  1.
         12    1    3    3    0    0  0.62526266519E+01 -0.32243214590E+01  0.31569101208E+01  0.77108800036E+01  0.00000000000E+00 0. -1.
</event>
<event>
 7    1  0.5755468E-013  0.5930194E+02  0.7816164E-02  0.1266605E+00
        -11   -1    0    0    0    0  0.00000000000E+00  0.00000000000E+00  0.45593999997E+02  0.45594000000E+02  0.51100000000E-03 0. -1.
         11   -1    0    0    0    0 -0.00000000000E+00 -0.00000000000E+00 -0.45593999997E+02  0.45594000000E+02  0.51100000000E-03 0.  1.
    9900012    2    1    2    0    0 -0.25076894071E+02  0.19416597904E+02 -0.32963985415E+01  0.59301935116E+02  0.49999983748E+02 0.  0.
        -12    1    1    2    0    0  0.25076894071E+02 -0.19416597904E+02  0.32963985415E+01  0.31886064884E+02  0.00000000000E+00 0.  1.
         11    1    3    3    0    0 -0.91733828260E+01  0.13929523702E+02 -0.33528906970E+01  0.17012479517E+02  0.51100000000E-03 0. -1.
        -11    1    3    3    0    0  0.12934937719E+02  0.33465586497E+01  0.46215127742E+00  0.13368831387E+02  0.51100000000E-03 0.  1.
        -12    1    3    3    0    0 -0.28838448964E+02  0.21405155522E+01 -0.40565912191E+00  0.28920624212E+02  0.00000000000E+00 0.  1.
</event>
<event>
 7    1  0.5755468E-013  0.5930200E+02  0.7816164E-02  0.1266605E+00
        -11   -1    0    0    0    0  0.00000000000E+00  0.00000000000E+00  0.45593999997E+02  0.45594000000E+02  0.51100000000E-03 0.  1.
         11   -1    0    0    0    0 -0.00000000000E+00 -0.00000000000E+00 -0.45593999997E+02  0.45594000000E+02  0.51100000000E-03 0. -1.
    9900012    2    1    2    0    0  0.96362391708E+01 -0.15109479410E+02 -0.26373543072E+02  0.59301996056E+02  0.50000094887E+02 0.  0.
        -12    1    1    2    0    0 -0.96362391708E+01  0.15109479410E+02  0.26373543072E+02  0.31886003944E+02  0.00000000000E+00 0.  1.
         11    1    3    3    0    0 -0.45765863757E+01  0.75401968271E+01 -0.14031599685E-01  0.88204256242E+01  0.51100000000E-03 0. -1.
        -11    1    3    3    0    0  0.17219758959E+02 -0.27545109842E+02 -0.11350507622E+02  0.34410568120E+02  0.51100000000E-03 0.  1.
        -12    1    3    3    0    0 -0.30069334123E+01  0.48954336055E+01 -0.15009003850E+02  0.16071002311E+02  0.00000000000E+00 0.  1.
</event>
<event>
 7    1  0.5755468E-013  0.5930195E+02  0.7816164E-02  0.1266605E+00
        -11   -1    0    0    0    0  0.00000000000E+00  0.00000000000E+00  0.45593999997E+02  0.45594000000E+02  0.51100000000E-03 0.  1.
         11   -1    0    0    0    0 -0.00000000000E+00 -0.00000000000E+00 -0.45593999997E+02  0.45594000000E+02  0.51100000000E-03 0. -1.
    9900012    2    1    2    0    0  0.21206912848E+02 -0.44971582965E+01 -0.23382957342E+02  0.59301948514E+02  0.50000008182E+02 0.  0.
        -12    1    1    2    0    0 -0.21206912848E+02  0.44971582965E+01  0.23382957342E+02  0.31886051486E+02  0.00000000000E+00 0.  1.
         11    1    3    3    0    0 -0.10783763907E+02 -0.14177606578E+02 -0.13949259953E+02  0.22624675595E+02  0.51100000000E-03 0. -1.
        -11    1    3    3    0    0  0.17524328573E+02  0.70672878557E+01 -0.11047870135E+02  0.21888446367E+02  0.51100000000E-03 0.  1.
         12    1    3    3    0    0  0.14466348182E+02  0.26131604263E+01  0.16141727460E+01  0.14788826552E+02  0.00000000000E+00 0. -1.
</event>
<event>
 7    1  0.5755468E-013  0.5930193E+02  0.7816164E-02  0.1266605E+00
        -11   -1    0    0    0    0  0.00000000000E+00  0.00000000000E+00  0.45593999997E+02  0.45594000000E+02  0.51100000000E-03 0.  1.
         11   -1    0    0    0    0 -0.00000000000E+00 -0.00000000000E+00 -0.45593999997E+02  0.45594000000E+02  0.51100000000E-03 0. -1.
    9900012    2    1    2    0    0  0.22627217202E+02 -0.20060587142E+02 -0.10114503295E+02  0.59301932640E+02  0.49999979231E+02 0.  0.
        -12    1    1    2    0    0 -0.22627217202E+02  0.20060587142E+02  0.10114503295E+02  0.31886067360E+02  0.00000000000E+00 0.  1.
         11    1    3    3    0    0  0.11557332306E+02 -0.50871914188E+01 -0.23955055393E+02  0.27079441015E+02  0.51100000000E-03 0. -1.
        -11    1    3    3    0    0  0.29817125764E+01 -0.18764213635E+02  0.49813857153E+01  0.19641805597E+02  0.51100000000E-03 0.  1.
         12    1    3    3    0    0  0.80881723199E+01  0.37908179118E+01  0.88591663826E+01  0.12580686027E+02  0.00000000000E+00 0. -1.
</event>
<event>
 7    1  0.5755468E-013  0.5930193E+02  0.7816164E-02  0.1266605E+00
        -11   -1    0    0    0    0  0.00000000000E+00  0.00000000000E+00  0.45593999997E+02  0.45594000000E+02  0.51100000000E-03 0. -1.
         11   -1    0    0    0    0 -0.00000000000E+00 -0.00000000000E+00 -0.45593999997E+02  0.45594000000E+02  0.51100000000E-03 0.  1.
    9900012    2    1    2    0    0  0.14927747119E+02  0.13003484577E+02  0.24995862843E+02  0.59301930872E+02  0.49999976007E+02 0.  0.
        -12    1    1    2    0    0 -0.14927747119E+02 -0.13003484577E+02 -0.24995862843E+02  0.31886069128E+02  0.00000000000E+00 0.  1.
         11    1    3    3    0    0  0.51973347408E+01 -0.83940951996E+01  0.32320694386E+02  0.33794976083E+02  0.51100000000E-03 0. -1.
        -11    1    3    3    0    0 -0.19008420410E+00  0.64420097245E+01 -0.12892679586E+01  0.65725058711E+01  0.51100000000E-03 0.  1.
         12    1    3    3    0    0  0.99204965826E+01  0.14955570052E+02 -0.60355635845E+01  0.18934448917E+02  0.00000000000E+00 0. -1.
</event>
<event>
 7    1  0.5755468E-013  0.5930193E+02  0.7816164E-02  0.1266605E+00
        -11   -1    0    0    0    0  0.00000000000E+00  0.00000000000E+00  0.45593999997E+02  0.45594000000E+02  0.51100000000E-03 0.  1.
         11   -1    0    0    0    0 -0.00000000000E+00 -0.00000000000E+00 -0.45593999997E+02  0.45594000000E+02  0.51100000000E-03 0. -1.
    9900012    2    1    2    0    0  0.12970950257E+02 -0.22582370936E+02 -0.18398699694E+02  0.59301934421E+02  0.49999982480E+02 0.  0.
        -12    1    1    2    0    0 -0.12970950257E+02  0.22582370936E+02  0.18398699694E+02  0.31886065579E+02  0.00000000000E+00 0.  1.
         11    1    3    3    0    0  0.86219366931E+01  0.31334958956E+01 -0.44238393342E+01  0.10184642536E+02  0.51100000000E-03 0. -1.
        -11    1    3    3    0    0 -0.16744950613E+02 -0.65218995241E+01 -0.92427255056E+01  0.20207833122E+02  0.51100000000E-03 0.  1.
        -12    1    3    3    0    0  0.21093964177E+02 -0.19193967307E+02 -0.47321348543E+01  0.28909458763E+02  0.00000000000E+00 0.  1.
</event>
<event>
 7    1  0.5755468E-013  0.5930195E+02  0.7816164E-02  0.1266605E+00
        -11   -1    0    0    0    0  0.00000000000E+00  0.00000000000E+00  0.45593999997E+02  0.45594000000E+02  0.51100000000E-03 0.  1.
         11   -1    0    0    0    0 -0.00000000000E+00 -0.00000000000E+00 -0.45593999997E+02  0.45594000000E+02  0.51100000000E-03 0. -1.
    9900012    2    1    2    0    0 -0.21648773252E+02  0.11640312561E+02  0.20311428421E+02  0.59301946868E+02  0.50000005181E+02 0.  0.
        -12    1    1    2    0    0  0.21648773252E+02 -0.11640312561E+02 -0.20311428421E+02  0.31886053132E+02  0.00000000000E+00 0.  1.
         11    1    3    3    0    0  0.54033161801E+01  0.13829186836E+02  0.20562113307E+02  0.25362230544E+02  0.51100000000E-03 0. -1.
        -11    1    3    3    0    0 -0.41984661979E+01 -0.89762329413E+01 -0.17049183096E+01  0.10055178911E+02  0.51100000000E-03 0.  1.
         12    1    3    3    0    0 -0.22853623234E+02  0.67873586665E+01  0.14542334239E+01  0.23884537413E+02  0.00000000000E+00 0. -1.
</event>
<event>
 7    1  0.5755468E-013  0.5930203E+02  0.7816164E-02  0.1266604E+00
        -11   -1    0    0    0    0  0.00000000000E+00  0.00000000000E+00  0.45593999997E+02  0.45594000000E+02  0.51100000000E-03 0.  1.
         11   -1    0    0    0    0 -0.00000000000E+00 -0.00000000000E+00 -0.45593999997E+02  0.45594000000E+02  0.51100000000E-03 0. -1.
    9900012    2    1    2    0    0 -0.43858003206E+00  0.31477922789E+02 -0.50658820353E+01  0.59302029161E+02  0.50000155263E+02 0.  0.
        -12    1    1    2    0    0  0.43858003206E+00 -0.31477922789E+02  0.50658820353E+01  0.31885970839E+02  0.00000000000E+00 0.  1.
         11    1    3    3    0    0 -0.56917553756E+01  0.15922879519E+02 -0.12642636376E+02  0.21113276066E+02  0.51100000000E-03 0. -1.
        -11    1    3    3    0    0  0.18683711315E+02  0.46466359112E+01 -0.11625713542E+00  0.19253202585E+02  0.51100000000E-03 0.  1.
         12    1    3    3    0    0 -0.13430535971E+02  0.10908407359E+02  0.76930114763E+01  0.18935550511E+02  0.00000000000E+00 0. -1.
</event>
<event>
 7    1  0.5755468E-013  0.5930193E+02  0.7816164E-02  0.1266605E+00
        -11   -1    0    0    0    0  0.00000000000E+00  0.00000000000E+00  0.45593999997E+02  0.45594000000E+02  0.51100000000E-03 0.  1.
         11   -1    0    0    0    0 -0.00000000000E+00 -0.00000000000E+00 -0.45593999997E+02  0.45594000000E+02  0.51100000000E-03 0. -1.
    9900012    2    1    2    0    0 -0.13177926075E+02  0.40721033483E+01 -0.28748595558E+02  0.59301929250E+02  0.49999973049E+02 0.  0.
        -12    1    1    2    0    0  0.13177926075E+02 -0.40721033483E+01  0.28748595558E+02  0.31886070750E+02  0.00000000000E+00 0.  1.
         11    1    3    3    0    0 -0.22555257441E+02 -0.18630102696E+01 -0.41058601762E+01  0.23001489812E+02  0.51100000000E-03 0. -1.
        -11    1    3    3    0    0  0.18796336840E+01 -0.65198061850E+01 -0.19874509363E+02  0.21000881367E+02  0.51100000000E-03 0.  1.
         12    1    3    3    0    0  0.74976976828E+01  0.12454919803E+02 -0.47682260184E+01  0.15299558072E+02  0.00000000000E+00 0. -1.
</event>
<event>
 7    1  0.5755468E-013  0.5930194E+02  0.7816164E-02  0.1266605E+00
        -11   -1    0    0    0    0  0.00000000000E+00  0.00000000000E+00  0.45593999997E+02  0.45594000000E+02  0.51100000000E-03 0.  1.
         11   -1    0    0    0    0 -0.00000000000E+00 -0.00000000000E+00 -0.45593999997E+02  0.45594000000E+02  0.51100000000E-03 0. -1.
    9900012    2    1    2    0    0 -0.10214111754E+01  0.21774264281E+02 -0.23271422548E+02  0.59301937634E+02  0.49999988340E+02 0.  0.
        -12    1    1    2    0    0  0.10214111754E+01 -0.21774264281E+02  0.23271422548E+02  0.31886062366E+02  0.00000000000E+00 0.  1.
         11    1    3    3    0    0 -0.61848654127E+01  0.28650052008E+02 -0.16357455898E+02  0.33565524038E+02  0.51100000000E-03 0. -1.
        -11    1    3    3    0    0  0.47240581317E-01 -0.10363009004E+02  0.55964119171E+01  0.11777691366E+02  0.51100000000E-03 0.  1.
         12    1    3    3    0    0  0.51162136560E+01  0.34872212774E+01 -0.12510378567E+02  0.13958722230E+02  0.00000000000E+00 0. -1.
</event>
<event>
 7    1  0.5755468E-013  0.5930194E+02  0.7816164E-02  0.1266605E+00
        -11   -1    0    0    0    0  0.00000000000E+00  0.00000000000E+00  0.45593999997E+02  0.45594000000E+02  0.51100000000E-03 0.  1.
         11   -1    0    0    0    0 -0.00000000000E+00 -0.00000000000E+00 -0.45593999997E+02  0.45594000000E+02  0.51100000000E-03 0. -1.
    9900012    2    1    2    0    0  0.60748321248E+01 -0.98068430296E+01 -0.29726136703E+02  0.59301937859E+02  0.49999988750E+02 0.  0.
        -12    1    1    2    0    0 -0.60748321248E+01  0.98068430296E+01  0.29726136703E+02  0.31886062141E+02  0.00000000000E+00 0.  1.
         11    1    3    3    0    0  0.20120438279E+02 -0.34418091412E+01 -0.17019696940E+02  0.26577211496E+02  0.51100000000E-03 0. -1.
        -11    1    3    3    0    0 -0.49310789182E+01 -0.13237925499E+02  0.18269750442E+01  0.14244158412E+02  0.51100000000E-03 0.  1.
         12    1    3    3    0    0 -0.91145272365E+01  0.68728916101E+01 -0.14533414807E+02  0.18480567951E+02  0.00000000000E+00 0. -1.
</event>
<event>
 7    1  0.5755468E-013  0.5930192E+02  0.7816164E-02  0.1266605E+00
        -11   -1    0    0    0    0  0.00000000000E+00  0.00000000000E+00  0.45593999997E+02  0.45594000000E+02  0.51100000000E-03 0.  1.
         11   -1    0    0    0    0 -0.00000000000E+00 -0.00000000000E+00 -0.45593999997E+02  0.45594000000E+02  0.51100000000E-03 0. -1.
    9900012    2    1    2    0    0 -0.20173925357E+02  0.24340374207E+02 -0.41570282791E+01  0.59301922083E+02  0.49999959977E+02 0.  0.
        -12    1    1    2    0    0  0.20173925357E+02 -0.24340374207E+02  0.41570282791E+01  0.31886077917E+02  0.00000000000E+00 0.  1.
         11    1    3    3    0    0 -0.14373214075E+02  0.70326323970E+01 -0.23876312768E+02  0.28742399221E+02  0.51100000000E-03 0. -1.
        -11    1    3    3    0    0 -0.78754223274E+01  0.73822100470E+01  0.16868036508E+02  0.20026231745E+02  0.51100000000E-03 0.  1.
         12    1    3    3    0    0  0.20747110458E+01  0.99255317631E+01  0.28512479813E+01  0.10533291117E+02  0.00000000000E+00 0. -1.
</event>
<event>
 7    1  0.5755468E-013  0.5930195E+02  0.7816164E-02  0.1266605E+00
        -11   -1    0    0    0    0  0.00000000000E+00  0.00000000000E+00  0.45593999997E+02  0.45594000000E+02  0.51100000000E-03 0.  1.
         11   -1    0    0    0    0 -0.00000000000E+00 -0.00000000000E+00 -0.45593999997E+02  0.45594000000E+02  0.51100000000E-03 0. -1.
    9900012    2    1    2    0    0 -0.51553905818E+00  0.20098876067E+02 -0.24748532519E+02  0.59301945658E+02  0.50000002973E+02 0.  0.
        -12    1    1    2    0    0  0.51553905818E+00 -0.20098876067E+02  0.24748532519E+02  0.31886054342E+02  0.00000000000E+00 0.  1.
         11    1    3    3    0    0 -0.95165225124E+01  0.30817612657E+01 -0.12918393802E+02  0.16338492951E+02  0.51100000000E-03 0. -1.
        -11    1    3    3    0    0  0.15356589100E+02 -0.55101036571E+01 -0.10737189173E+02  0.19531341549E+02  0.51100000000E-03 0.  1.
        -12    1    3    3    0    0 -0.63556056462E+01  0.22527218458E+02 -0.10929495440E+01  0.23432111157E+02  0.00000000000E+00 0.  1.
</event>
<event>
 7    1  0.5755468E-013  0.5930194E+02  0.7816164E-02  0.1266605E+00
        -11   -1    0    0    0    0  0.00000000000E+00  0.00000000000E+00  0.45593999997E+02  0.45594000000E+02  0.51100000000E-03 0. -1.
         11   -1    0    0    0    0 -0.00000000000E+00 -0.00000000000E+00 -0.45593999997E+02  0.45594000000E+02  0.51100000000E-03 0.  1.
    9900012    2    1    2    0    0 -0.17100353303E+02  0.22973686300E+02  0.14018159397E+02  0.59301935047E+02  0.49999983622E+02 0.  0.
        -12    1    1    2    0    0  0.17100353303E+02 -0.22973686300E+02 -0.14018159397E+02  0.31886064953E+02  0.00000000000E+00 0.  1.
         11    1    3    3    0    0  0.72789885023E+01  0.12180222189E+01  0.22286786751E+01  0.77093618829E+01  0.51100000000E-03 0. -1.
        -11    1    3    3    0    0 -0.13449313265E+02  0.27666684028E+02  0.20006060032E+02  0.36695665557E+02  0.51100000000E-03 0.  1.
        -12    1    3    3    0    0 -0.10930028540E+02 -0.59110199469E+01 -0.82165793105E+01  0.14896907607E+02  0.00000000000E+00 0.  1.
</event>
<event>
 7    1  0.5755468E-013  0.5930194E+02  0.7816164E-02  0.1266605E+00
        -11   -1    0    0    0    0  0.00000000000E+00  0.00000000000E+00  0.45593999997E+02  0.45594000000E+02  0.51100000000E-03 0.  1.
         11   -1    0    0    0    0 -0.00000000000E+00 -0.00000000000E+00 -0.45593999997E+02  0.45594000000E+02  0.51100000000E-03 0. -1.
    9900012    2    1    2    0    0 -0.30423491781E+02  0.28618791907E+00  0.95420305727E+01  0.59301935597E+02  0.49999984624E+02 0.  0.
        -12    1    1    2    0    0  0.30423491781E+02 -0.28618791907E+00 -0.95420305727E+01  0.31886064403E+02  0.00000000000E+00 0.  1.
         11    1    3    3    0    0 -0.21635737666E+02  0.11460054644E+02  0.13958679608E+01  0.24523181776E+02  0.51100000000E-03 0. -1.
        -11    1    3    3    0    0 -0.13226513007E+02 -0.99187498421E+01 -0.77268919956E+01  0.18249030246E+02  0.51100000000E-03 0.  1.
        -12    1    3    3    0    0  0.44387588919E+01 -0.12551168824E+01  0.15873054608E+02  0.16529723575E+02  0.00000000000E+00 0.  1.
</event>
<event>
 7    1  0.5755468E-013  0.5930194E+02  0.7816164E-02  0.1266605E+00
        -11   -1    0    0    0    0  0.00000000000E+00  0.00000000000E+00  0.45593999997E+02  0.45594000000E+02  0.51100000000E-03 0.  1.
         11   -1    0    0    0    0 -0.00000000000E+00 -0.00000000000E+00 -0.45593999997E+02  0.45594000000E+02  0.51100000000E-03 0. -1.
    9900012    2    1    2    0    0 -0.10796441085E+02 -0.24524546348E+02 -0.17283068789E+02  0.59301937521E+02  0.49999988133E+02 0.  0.
        -12    1    1    2    0    0  0.10796441085E+02  0.24524546348E+02  0.17283068789E+02  0.31886062479E+02  0.00000000000E+00 0.  1.
         11    1    3    3    0    0 -0.94317025549E+01 -0.13964523776E+02  0.50436560031E+01  0.17589866501E+02  0.51100000000E-03 0. -1.
        -11    1    3    3    0    0  0.12756787116E+02 -0.11417772098E+02 -0.21578010624E+02  0.27544721454E+02  0.51100000000E-03 0.  1.
         12    1    3    3    0    0 -0.14121525647E+02  0.85774952572E+00 -0.74871416753E+00  0.14167349567E+02  0.00000000000E+00 0. -1.
</event>
<event>
 7    1  0.5755468E-013  0.5930196E+02  0.7816164E-02  0.1266605E+00
        -11   -1    0    0    0    0  0.00000000000E+00  0.00000000000E+00  0.45593999997E+02  0.45594000000E+02  0.51100000000E-03 0. -1.
         11   -1    0    0    0    0 -0.00000000000E+00 -0.00000000000E+00 -0.45593999997E+02  0.45594000000E+02  0.51100000000E-03 0.  1.
    9900012    2    1    2    0    0 -0.20813719573E+02 -0.10234975285E+02  0.21880447577E+02  0.59301958733E+02  0.50000026819E+02 0.  0.
        -12    1    1    2    0    0  0.20813719573E+02  0.10234975285E+02 -0.21880447577E+02  0.31886041267E+02  0.00000000000E+00 0.  1.
         11    1    3    3    0    0 -0.74073626564E+01  0.79351635898E+01  0.83251666071E+01  0.13680067325E+02  0.51100000000E-03 0. -1.
        -11    1    3    3    0    0  0.49240372358E+01 -0.16237156608E+02 -0.66938295678E+01  0.18240031577E+02  0.51100000000E-03 0.  1.
        -12    1    3    3    0    0 -0.18330394152E+02 -0.19329822668E+01  0.20249110537E+02  0.27381859830E+02  0.00000000000E+00 0.  1.
</event>
<event>
 7    1  0.5755468E-013  0.5930195E+02  0.7816164E-02  0.1266605E+00
        -11   -1    0    0    0    0  0.00000000000E+00  0.00000000000E+00  0.45593999997E+02  0.45594000000E+02  0.51100000000E-03 0.  1.
         11   -1    0    0    0    0 -0.00000000000E+00 -0.00000000000E+00 -0.45593999997E+02  0.45594000000E+02  0.51100000000E-03 0. -1.
    9900012    2    1    2    0    0 -0.11249965387E+01 -0.23059570179E+00 -0.31865360440E+02  0.59301953090E+02  0.50000016528E+02 0.  0.
        -12    1    1    2    0    0  0.11249965387E+01  0.23059570179E+00  0.31865360440E+02  0.31886046910E+02  0.00000000000E+00 0.  1.
         11    1    3    3    0    0  0.14742791768E+02 -0.45894005258E+01  0.23646079212E+01  0.15620623457E+02  0.51100000000E-03 0. -1.
        -11    1    3    3    0    0 -0.15017806791E+02 -0.52676576269E+01 -0.13734902983E+02  0.21022138281E+02  0.51100000000E-03 0.  1.
         12    1    3    3    0    0 -0.84998151496E+00  0.96264624509E+01 -0.20495065378E+02  0.22659191352E+02  0.00000000000E+00 0. -1.
</event>
<event>
 7    1  0.5755468E-013  0.5930194E+02  0.7816164E-02  0.1266605E+00
        -11   -1    0    0    0    0  0.00000000000E+00  0.00000000000E+00  0.45593999997E+02  0.45594000000E+02  0.51100000000E-03 0.  1.
         11   -1    0    0    0    0 -0.00000000000E+00 -0.00000000000E+00 -0.45593999997E+02  0.45594000000E+02  0.51100000000E-03 0. -1.
    9900012    2    1    2    0    0 -0.12511979912E+02  0.21254341494E+01 -0.29251558188E+02  0.59301940850E+02  0.49999994205E+02 0.  0.
        -12    1    1    2    0    0  0.12511979912E+02 -0.21254341494E+01  0.29251558188E+02  0.31886059150E+02  0.00000000000E+00 0.  1.
         11    1    3    3    0    0 -0.93197228440E+01  0.15658719553E+02 -0.33463226278E+02  0.38103021470E+02  0.51100000000E-03 0. -1.
        -11    1    3    3    0    0 -0.31193893729E+01 -0.16447028370E+02  0.59957666689E+01  0.17781578965E+02  0.51100000000E-03 0.  1.
         12    1    3    3    0    0 -0.72867695267E-01  0.29137429665E+01 -0.17840985796E+01  0.34173404158E+01  0.00000000000E+00 0. -1.
</event>
<event>
 7    1  0.5755468E-013  0.5930198E+02  0.7816164E-02  0.1266605E+00
        -11   -1    0    0    0    0  0.00000000000E+00  0.00000000000E+00  0.45593999997E+02  0.45594000000E+02  0.51100000000E-03 0. -1.
         11   -1    0    0    0    0 -0.00000000000E+00 -0.00000000000E+00 -0.45593999997E+02  0.45594000000E+02  0.51100000000E-03 0.  1.
    9900012    2    1    2    0    0 -0.44125270788E+01  0.20716802435E+02  0.23834054916E+02  0.59301976854E+02  0.50000059867E+02 0.  0.
        -12    1    1    2    0    0  0.44125270788E+01 -0.20716802435E+02 -0.23834054916E+02  0.31886023146E+02  0.00000000000E+00 0.  1.
         11    1    3    3    0    0  0.13727333728E+02  0.10679513134E+02  0.26745965576E+02  0.31903579218E+02  0.51100000000E-03 0. -1.
        -11    1    3    3    0    0 -0.37449684598E+01  0.12110947705E+02 -0.19176123426E+01  0.12820962540E+02  0.51100000000E-03 0.  1.
         12    1    3    3    0    0 -0.14394892347E+02 -0.20736584050E+01 -0.99429831700E+00  0.14577435097E+02  0.00000000000E+00 0. -1.
</event>
<event>
 7    1  0.5755468E-013  0.5930197E+02  0.7816164E-02  0.1266605E+00
        -11   -1    0    0    0    0  0.00000000000E+00  0.00000000000E+00  0.45593999997E+02  0.45594000000E+02  0.51100000000E-03 0. -1.
         11   -1    0    0    0    0 -0.00000000000E+00 -0.00000000000E+00 -0.45593999997E+02  0.45594000000E+02  0.51100000000E-03 0.  1.
    9900012    2    1    2    0    0 -0.49683457059E+01 -0.31203206921E+02 -0.42888591270E+01  0.59301970240E+02  0.50000047805E+02 0.  0.
        -12    1    1    2    0    0  0.49683457059E+01  0.31203206921E+02  0.42888591270E+01  0.31886029760E+02  0.00000000000E+00 0.  1.
         11    1    3    3    0    0 -0.86686147389E+01 -0.26239742781E+02 -0.20012107970E+02  0.34119692970E+02  0.51100000000E-03 0. -1.
        -11    1    3    3    0    0 -0.52852544146E+01 -0.53033398874E+01  0.14212813832E+02  0.16064352009E+02  0.51100000000E-03 0.  1.
         12    1    3    3    0    0  0.89855234475E+01  0.33987574654E+00  0.15104350110E+01  0.91179252614E+01  0.00000000000E+00 0. -1.
</event>
<event>
 7    1  0.5755468E-013  0.5930194E+02  0.7816164E-02  0.1266605E+00
        -11   -1    0    0    0    0  0.00000000000E+00  0.00000000000E+00  0.45593999997E+02  0.45594000000E+02  0.51100000000E-03 0.  1.
         11   -1    0    0    0    0 -0.00000000000E+00 -0.00000000000E+00 -0.45593999997E+02  0.45594000000E+02  0.51100000000E-03 0. -1.
    9900012    2    1    2    0    0  0.81546851224E+01 -0.28500382281E+02  0.11745212582E+02  0.59301941946E+02  0.49999996204E+02 0.  0.
        -12    1    1    2    0    0 -0.81546851224E+01  0.28500382281E+02 -0.11745212582E+02  0.31886058054E+02  0.00000000000E+00 0.  1.
         11    1    3    3    0    0  0.11598986352E+02 -0.24821420814E+02 -0.55110209553E+01  0.27946569876E+02  0.51100000000E-03 0. -1.
        -11    1    3    3    0    0 -0.10160321863E+01  0.10442325087E+02  0.24964565647E+01  0.10784561663E+02  0.51100000000E-03 0.  1.
         12    1    3    3    0    0 -0.24282690438E+01 -0.14121286554E+02  0.14759776973E+02  0.20570810406E+02  0.00000000000E+00 0. -1.
</event>
<event>
 7    1  0.5755468E-013  0.5930194E+02  0.7816164E-02  0.1266605E+00
        -11   -1    0    0    0    0  0.00000000000E+00  0.00000000000E+00  0.45593999997E+02  0.45594000000E+02  0.51100000000E-03 0.  1.
         11   -1    0    0    0    0 -0.00000000000E+00 -0.00000000000E+00 -0.45593999997E+02  0.45594000000E+02  0.51100000000E-03 0. -1.
    9900012    2    1    2    0    0 -0.37774615824E+01  0.21981795042E+02 -0.22787109360E+02  0.59301939060E+02  0.49999990940E+02 0.  0.
        -12    1    1    2    0    0  0.37774615824E+01 -0.21981795042E+02  0.22787109360E+02  0.31886060940E+02  0.00000000000E+00 0.  1.
         11    1    3    3    0    0 -0.19289401040E+01  0.20104614938E+02 -0.22222345297E+02  0.30029135560E+02  0.51100000000E-03 0. -1.
        -11    1    3    3    0    0  0.19123255379E-01 -0.25601874494E+01  0.13845165051E+02  0.14079897763E+02  0.51100000000E-03 0.  1.
        -12    1    3    3    0    0 -0.18676447338E+01  0.44373675537E+01 -0.14409929114E+02  0.15192905737E+02  0.00000000000E+00 0.  1.
</event>
<event>
 7    1  0.5755468E-013  0.5930195E+02  0.7816164E-02  0.1266605E+00
        -11   -1    0    0    0    0  0.00000000000E+00  0.00000000000E+00  0.45593999997E+02  0.45594000000E+02  0.51100000000E-03 0.  1.
         11   -1    0    0    0    0 -0.00000000000E+00 -0.00000000000E+00 -0.45593999997E+02  0.45594000000E+02  0.51100000000E-03 0. -1.
    9900012    2    1    2    0    0  0.12819186019E+02 -0.28712707459E+02 -0.52885887671E+01  0.59301948646E+02  0.50000008422E+02 0.  0.
        -12    1    1    2    0    0 -0.12819186019E+02  0.28712707459E+02  0.52885887671E+01  0.31886051354E+02  0.00000000000E+00 0.  1.
         11    1    3    3    0    0  0.18617083465E+02  0.87230439810E+01  0.12823768384E+01  0.20599315126E+02  0.51100000000E-03 0. -1.
        -11    1    3    3    0    0 -0.11137121099E+01 -0.21073841895E+02 -0.30415448567E+01  0.21321307705E+02  0.51100000000E-03 0.  1.
         12    1    3    3    0    0 -0.46841853369E+01 -0.16361909546E+02 -0.35294207488E+01  0.17381325815E+02  0.00000000000E+00 0. -1.
</event>
<event>
 7    1  0.5755468E-013  0.5930194E+02  0.7816164E-02  0.1266605E+00
        -11   -1    0    0    0    0  0.00000000000E+00  0.00000000000E+00  0.45593999997E+02  0.45594000000E+02  0.51100000000E-03 0.  1.
         11   -1    0    0    0    0 -0.00000000000E+00 -0.00000000000E+00 -0.45593999997E+02  0.45594000000E+02  0.51100000000E-03 0. -1.
    9900012    2    1    2    0    0 -0.26467825612E+02 -0.79919508408E+01 -0.15884071626E+02  0.59301940314E+02  0.49999993227E+02 0.  0.
        -12    1    1    2    0    0  0.26467825612E+02  0.79919508408E+01  0.15884071626E+02  0.31886059686E+02  0.00000000000E+00 0.  1.
         11    1    3    3    0    0 -0.19580354006E+02  0.14181997943E+02 -0.10823860013E+02  0.26489153903E+02  0.51100000000E-03 0. -1.
        -11    1    3    3    0    0 -0.12183775742E+02 -0.11539939662E+02  0.47116357810E+01  0.17430264218E+02  0.51100000000E-03 0.  1.
         12    1    3    3    0    0  0.52963041359E+01 -0.10634009123E+02 -0.97718473937E+01  0.15382522193E+02  0.00000000000E+00 0. -1.
</event>
<event>
 7    1  0.5844286E-013  0.5930198E+02  0.7816164E-02  0.1266605E+00
        -11   -1    0    0    0    0  0.00000000000E+00  0.00000000000E+00  0.45593999997E+02  0.45594000000E+02  0.51100000000E-03 0.  1.
         11   -1    0    0    0    0 -0.00000000000E+00 -0.00000000000E+00 -0.45593999997E+02  0.45594000000E+02  0.51100000000E-03 0. -1.
    9900012    2    1    2    0    0  0.30666204464E+02 -0.49838063006E+01  0.71738110323E+01  0.59301984473E+02  0.50000073762E+02 0.  0.
        -12    1    1    2    0    0 -0.30666204464E+02  0.49838063006E+01 -0.71738110323E+01  0.31886015527E+02  0.00000000000E+00 0.  1.
         11    1    3    3    0    0  0.29054570717E+02 -0.17393674318E+01  0.11227529209E+01  0.29128234636E+02  0.51100000000E-03 0. -1.
        -11    1    3    3    0    0 -0.26011131062E+01  0.12749027692E+02  0.30566374646E+01  0.13365871813E+02  0.51100000000E-03 0.  1.
         12    1    3    3    0    0  0.42127468530E+01 -0.15993466560E+02  0.29944206468E+01  0.16807878024E+02  0.00000000000E+00 0. -1.
</event>
<event>
 7    1  0.5755468E-013  0.5930195E+02  0.7816164E-02  0.1266605E+00
        -11   -1    0    0    0    0  0.00000000000E+00  0.00000000000E+00  0.45593999997E+02  0.45594000000E+02  0.51100000000E-03 0.  1.
         11   -1    0    0    0    0 -0.00000000000E+00 -0.00000000000E+00 -0.45593999997E+02  0.45594000000E+02  0.51100000000E-03 0. -1.
    9900012    2    1    2    0    0  0.28351980605E+02 -0.85000838033E+01  0.11858930203E+02  0.59301945769E+02  0.50000003176E+02 0.  0.
        -12    1    1    2    0    0 -0.28351980605E+02  0.85000838033E+01 -0.11858930203E+02  0.31886054231E+02  0.00000000000E+00 0.  1.
         11    1    3    3    0    0  0.16887715356E+02 -0.18134116452E+02 -0.26497366214E+01  0.24921119835E+02  0.51100000000E-03 0. -1.
        -11    1    3    3    0    0  0.19527314339E+02  0.11396510803E+02  0.84283478965E+01  0.24129515377E+02  0.51100000000E-03 0.  1.
         12    1    3    3    0    0 -0.80630490901E+01 -0.17624781544E+01  0.60803189277E+01  0.10251310557E+02  0.00000000000E+00 0. -1.
</event>
<event>
 7    1  0.5755468E-013  0.5930190E+02  0.7816164E-02  0.1266605E+00
        -11   -1    0    0    0    0  0.00000000000E+00  0.00000000000E+00  0.45593999997E+02  0.45594000000E+02  0.51100000000E-03 0.  1.
         11   -1    0    0    0    0 -0.00000000000E+00 -0.00000000000E+00 -0.45593999997E+02  0.45594000000E+02  0.51100000000E-03 0. -1.
    9900012    2    1    2    0    0  0.18917042015E+02 -0.12055209922E+01 -0.25640112898E+02  0.59301903517E+02  0.49999926118E+02 0.  0.
        -12    1    1    2    0    0 -0.18917042015E+02  0.12055209922E+01  0.25640112898E+02  0.31886096483E+02  0.00000000000E+00 0.  1.
         11    1    3    3    0    0  0.24424396355E+02  0.19144282030E+01 -0.26199351148E+02  0.35869515936E+02  0.51100000000E-03 0. -1.
        -11    1    3    3    0    0 -0.80820603208E+01  0.62299970477E+01  0.64627391995E+01  0.12078889041E+02  0.51100000000E-03 0.  1.
         12    1    3    3    0    0  0.25747059808E+01 -0.93499462429E+01 -0.59035009502E+01  0.11353498540E+02  0.00000000000E+00 0. -1.
</event>
<event>
 7    1  0.5755468E-013  0.5930195E+02  0.7816164E-02  0.1266605E+00
        -11   -1    0    0    0    0  0.00000000000E+00  0.00000000000E+00  0.45593999997E+02  0.45594000000E+02  0.51100000000E-03 0. -1.
         11   -1    0    0    0    0 -0.00000000000E+00 -0.00000000000E+00 -0.45593999997E+02  0.45594000000E+02  0.51100000000E-03 0.  1.
    9900012    2    1    2    0    0 -0.51135475736E+01 -0.21122096369E+02  0.23332998641E+02  0.59301950552E+02  0.50000011899E+02 0.  0.
        -12    1    1    2    0    0  0.51135475736E+01  0.21122096369E+02 -0.23332998641E+02  0.31886049448E+02  0.00000000000E+00 0.  1.
         11    1    3    3    0    0 -0.21866751513E+02  0.58028741766E+00 -0.18386613393E+01  0.21951588348E+02  0.51100000000E-03 0.  1.
        -11    1    3    3    0    0  0.10932431517E+02 -0.15015528344E+02  0.15138755894E+02  0.23961762886E+02  0.51100000000E-03 0. -1.
        -12    1    3    3    0    0  0.58207724221E+01 -0.66868554424E+01  0.10032904087E+02  0.13388599319E+02  0.00000000000E+00 0.  1.
</event>
<event>
 7    1  0.5755468E-013  0.5930192E+02  0.7816164E-02  0.1266605E+00
        -11   -1    0    0    0    0  0.00000000000E+00  0.00000000000E+00  0.45593999997E+02  0.45594000000E+02  0.51100000000E-03 0.  1.
         11   -1    0    0    0    0 -0.00000000000E+00 -0.00000000000E+00 -0.45593999997E+02  0.45594000000E+02  0.51100000000E-03 0. -1.
    9900012    2    1    2    0    0 -0.31723740589E+01  0.14618758552E+02 -0.28159370187E+02  0.59301918584E+02  0.49999953596E+02 0.  0.
        -12    1    1    2    0    0  0.31723740589E+01 -0.14618758552E+02  0.28159370187E+02  0.31886081416E+02  0.00000000000E+00 0.  1.
         11    1    3    3    0    0  0.64704622269E+01  0.26030259053E+02 -0.73528537301E+01  0.27811970913E+02  0.51100000000E-03 0.  1.
        -11    1    3    3    0    0 -0.21233222840E+01 -0.33454155756E+01 -0.20048676485E+02  0.20436480420E+02  0.51100000000E-03 0. -1.
        -12    1    3    3    0    0 -0.75195140018E+01 -0.80660849253E+01 -0.75783997105E+00  0.11053467251E+02  0.00000000000E+00 0.  1.
</event>
<event>
 7    1  0.5755468E-013  0.5930195E+02  0.7816164E-02  0.1266605E+00
        -11   -1    0    0    0    0  0.00000000000E+00  0.00000000000E+00  0.45593999997E+02  0.45594000000E+02  0.51100000000E-03 0.  1.
         11   -1    0    0    0    0 -0.00000000000E+00 -0.00000000000E+00 -0.45593999997E+02  0.45594000000E+02  0.51100000000E-03 0. -1.
    9900012    2    1    2    0    0  0.38442031873E+01 -0.14346990562E+02 -0.28215355919E+02  0.59301947469E+02  0.50000006277E+02 0.  0.
        -12    1    1    2    0    0 -0.38442031873E+01  0.14346990562E+02  0.28215355919E+02  0.31886052531E+02  0.00000000000E+00 0.  1.
         11    1    3    3    0    0 -0.91443134553E+01  0.14978001994E+02 -0.10033528053E+02  0.20214615944E+02  0.51100000000E-03 0. -1.
        -11    1    3    3    0    0  0.10792232245E+02 -0.18050340817E+02 -0.50265068970E+01  0.21622970477E+02  0.51100000000E-03 0.  1.
         12    1    3    3    0    0  0.21962843980E+01 -0.11274651740E+02 -0.13155320970E+02  0.17464361048E+02  0.00000000000E+00 0. -1.
</event>
<event>
 7    1  0.5755468E-013  0.5930198E+02  0.7816164E-02  0.1266605E+00
        -11   -1    0    0    0    0  0.00000000000E+00  0.00000000000E+00  0.45593999997E+02  0.45594000000E+02  0.51100000000E-03 0.  1.
         11   -1    0    0    0    0 -0.00000000000E+00 -0.00000000000E+00 -0.45593999997E+02  0.45594000000E+02  0.51100000000E-03 0. -1.
    9900012    2    1    2    0    0  0.29557173803E+02 -0.29479452922E+01 -0.11593160330E+02  0.59301980005E+02  0.50000065614E+02 0.  0.
        -12    1    1    2    0    0 -0.29557173803E+02  0.29479452922E+01  0.11593160330E+02  0.31886019995E+02  0.00000000000E+00 0.  1.
         11    1    3    3    0    0 -0.21292940062E+01 -0.92287639988E+01  0.23762046037E+00  0.94741987342E+01  0.51100000000E-03 0. -1.
        -11    1    3    3    0    0  0.36738968025E+01  0.16424588309E+02 -0.10838908154E+02  0.20018655026E+02  0.51100000000E-03 0.  1.
        -12    1    3    3    0    0  0.28012571007E+02 -0.10143769602E+02 -0.99187263695E+00  0.29809126245E+02  0.00000000000E+00 0.  1.
</event>
<event>
 7    1  0.5755468E-013  0.5930193E+02  0.7816164E-02  0.1266605E+00
        -11   -1    0    0    0    0  0.00000000000E+00  0.00000000000E+00  0.45593999997E+02  0.45594000000E+02  0.51100000000E-03 0. -1.
         11   -1    0    0    0    0 -0.00000000000E+00 -0.00000000000E+00 -0.45593999997E+02  0.45594000000E+02  0.51100000000E-03 0.  1.
    9900012    2    1    2    0    0 -0.10241991415E+01 -0.31277765423E+02  0.61133925444E+01  0.59301934671E+02  0.49999982936E+02 0.  0.
        -12    1    1    2    0    0  0.10241991415E+01  0.31277765423E+02 -0.61133925444E+01  0.31886065329E+02  0.00000000000E+00 0.  1.
         11    1    3    3    0    0 -0.18741089780E+02 -0.81721929446E+01  0.35402009267E+01  0.20749607383E+02  0.51100000000E-03 0. -1.
        -11    1    3    3    0    0  0.23344800211E+02 -0.23094090200E+02  0.22790431345E+01  0.32916724274E+02  0.51100000000E-03 0.  1.
        -12    1    3    3    0    0 -0.56279095723E+01 -0.11482278370E-01  0.29414848323E+00  0.56356030136E+01  0.00000000000E+00 0.  1.
</event>
<event>
 7    1  0.5755468E-013  0.5930195E+02  0.7816164E-02  0.1266605E+00
        -11   -1    0    0    0    0  0.00000000000E+00  0.00000000000E+00  0.45593999997E+02  0.45594000000E+02  0.51100000000E-03 0.  1.
         11   -1    0    0    0    0 -0.00000000000E+00 -0.00000000000E+00 -0.45593999997E+02  0.45594000000E+02  0.51100000000E-03 0. -1.
    9900012    2    1    2    0    0 -0.14777716068E+02 -0.21594678467E+02 -0.18221121072E+02  0.59301948451E+02  0.50000008067E+02 0.  0.
        -12    1    1    2    0    0  0.14777716068E+02  0.21594678467E+02  0.18221121072E+02  0.31886051549E+02  0.00000000000E+00 0.  1.
         11    1    3    3    0    0 -0.16577813710E+02 -0.13116636987E+01 -0.13235152326E+02  0.21253555618E+02  0.51100000000E-03 0. -1.
        -11    1    3    3    0    0  0.13328215731E+02 -0.16078805314E+02 -0.11825441242E+02  0.24000216160E+02  0.51100000000E-03 0.  1.
        -12    1    3    3    0    0 -0.11528118089E+02 -0.42042094542E+01  0.68394724959E+01  0.14048176673E+02  0.00000000000E+00 0.  1.
</event>
<event>
 7    1  0.5755468E-013  0.5930194E+02  0.7816164E-02  0.1266605E+00
        -11   -1    0    0    0    0  0.00000000000E+00  0.00000000000E+00  0.45593999997E+02  0.45594000000E+02  0.51100000000E-03 0.  1.
         11   -1    0    0    0    0 -0.00000000000E+00 -0.00000000000E+00 -0.45593999997E+02  0.45594000000E+02  0.51100000000E-03 0. -1.
    9900012    2    1    2    0    0 -0.84075936022E+01 -0.29634781282E+02  0.82348458277E+01  0.59301943838E+02  0.49999999653E+02 0.  0.
        -12    1    1    2    0    0  0.84075936022E+01  0.29634781282E+02 -0.82348458277E+01  0.31886056162E+02  0.00000000000E+00 0.  1.
         11    1    3    3    0    0  0.65385959624E+01 -0.12299044239E+01 -0.25540801545E+00  0.66581630775E+01  0.51100000000E-03 0. -1.
        -11    1    3    3    0    0 -0.16358700694E+02 -0.18342897535E+02 -0.13771357420E+02  0.28173023690E+02  0.51100000000E-03 0.  1.
        -12    1    3    3    0    0  0.14125111295E+01 -0.10061979323E+02  0.22261611263E+02  0.24470757070E+02  0.00000000000E+00 0.  1.
</event>
<event>
 7    1  0.5755468E-013  0.5930195E+02  0.7816164E-02  0.1266605E+00
        -11   -1    0    0    0    0  0.00000000000E+00  0.00000000000E+00  0.45593999997E+02  0.45594000000E+02  0.51100000000E-03 0. -1.
         11   -1    0    0    0    0 -0.00000000000E+00 -0.00000000000E+00 -0.45593999997E+02  0.45594000000E+02  0.51100000000E-03 0.  1.
    9900012    2    1    2    0    0  0.10685102795E+02 -0.28731324680E+02  0.87783800531E+01  0.59301946685E+02  0.50000004847E+02 0.  0.
        -12    1    1    2    0    0 -0.10685102795E+02  0.28731324680E+02 -0.87783800531E+01  0.31886053315E+02  0.00000000000E+00 0.  1.
         11    1    3    3    0    0  0.17133930867E+02 -0.81121997161E+01  0.18420728026E+02  0.26432983041E+02  0.51100000000E-03 0. -1.
        -11    1    3    3    0    0 -0.79250259187E+01 -0.72915129287E+01 -0.14969290171E+02  0.18440494708E+02  0.51100000000E-03 0.  1.
        -12    1    3    3    0    0  0.14761978472E+01 -0.13327612035E+02  0.53269421986E+01  0.14428468936E+02  0.00000000000E+00 0.  1.
</event>
<event>
 7    1  0.5755468E-013  0.5930194E+02  0.7816164E-02  0.1266605E+00
        -11   -1    0    0    0    0  0.00000000000E+00  0.00000000000E+00  0.45593999997E+02  0.45594000000E+02  0.51100000000E-03 0.  1.
         11   -1    0    0    0    0 -0.00000000000E+00 -0.00000000000E+00 -0.45593999997E+02  0.45594000000E+02  0.51100000000E-03 0. -1.
    9900012    2    1    2    0    0  0.30569558358E+02  0.69208582510E+01  0.58587222003E+01  0.59301940304E+02  0.49999993209E+02 0.  0.
        -12    1    1    2    0    0 -0.30569558358E+02 -0.69208582510E+01 -0.58587222003E+01  0.31886059696E+02  0.00000000000E+00 0.  1.
         11    1    3    3    0    0  0.81133689275E+01  0.20741602150E+02  0.33492227097E+01  0.22522391262E+02  0.51100000000E-03 0.  1.
        -11    1    3    3    0    0  0.26947861786E+02 -0.12897772918E+02  0.66440579153E+01  0.30605282337E+02  0.51100000000E-03 0. -1.
         12    1    3    3    0    0 -0.44916723557E+01 -0.92297098148E+00 -0.41345584247E+01  0.61742667056E+01  0.00000000000E+00 0. -1.
</event>
<event>
 7    1  0.5755468E-013  0.5930194E+02  0.7816164E-02  0.1266605E+00
        -11   -1    0    0    0    0  0.00000000000E+00  0.00000000000E+00  0.45593999997E+02  0.45594000000E+02  0.51100000000E-03 0. -1.
         11   -1    0    0    0    0 -0.00000000000E+00 -0.00000000000E+00 -0.45593999997E+02  0.45594000000E+02  0.51100000000E-03 0.  1.
    9900012    2    1    2    0    0  0.13637779466E+02 -0.19764130215E+02 -0.20978817606E+02  0.59301942545E+02  0.49999997295E+02 0.  0.
        -12    1    1    2    0    0 -0.13637779466E+02  0.19764130215E+02  0.20978817606E+02  0.31886057455E+02  0.00000000000E+00 0.  1.
         11    1    3    3    0    0 -0.14093990080E+02  0.59386442849E+01 -0.19586937166E+01  0.15418966686E+02  0.51100000000E-03 0. -1.
        -11    1    3    3    0    0  0.16941247435E+02 -0.10783274816E+02 -0.14923934067E+02  0.25020165641E+02  0.51100000000E-03 0.  1.
         12    1    3    3    0    0  0.10790522111E+02 -0.14919499684E+02 -0.40961898221E+01  0.18862810218E+02  0.00000000000E+00 0. -1.
</event>
<event>
 7    1  0.5755468E-013  0.5930188E+02  0.7816164E-02  0.1266605E+00
        -11   -1    0    0    0    0  0.00000000000E+00  0.00000000000E+00  0.45593999997E+02  0.45594000000E+02  0.51100000000E-03 0. -1.
         11   -1    0    0    0    0 -0.00000000000E+00 -0.00000000000E+00 -0.45593999997E+02  0.45594000000E+02  0.51100000000E-03 0.  1.
    9900012    2    1    2    0    0 -0.69980532948E+01  0.69320944454E+01  0.30326517357E+02  0.59301884866E+02  0.49999892103E+02 0.  0.
        -12    1    1    2    0    0  0.69980532948E+01 -0.69320944454E+01 -0.30326517357E+02  0.31886115134E+02  0.00000000000E+00 0.  1.
         11    1    3    3    0    0 -0.10489703178E+02  0.18277024080E+02  0.26694282714E+02  0.34009825225E+02  0.51100000000E-03 0. -1.
        -11    1    3    3    0    0  0.17251069283E+01 -0.15588481037E+02  0.91129448214E+01  0.18138977329E+02  0.51100000000E-03 0.  1.
        -12    1    3    3    0    0  0.17665429545E+01  0.42435514026E+01 -0.54807101778E+01  0.71530823125E+01  0.00000000000E+00 0.  1.
</event>
<event>
 7    1  0.5755468E-013  0.5930191E+02  0.7816164E-02  0.1266605E+00
        -11   -1    0    0    0    0  0.00000000000E+00  0.00000000000E+00  0.45593999997E+02  0.45594000000E+02  0.51100000000E-03 0.  1.
         11   -1    0    0    0    0 -0.00000000000E+00 -0.00000000000E+00 -0.45593999997E+02  0.45594000000E+02  0.51100000000E-03 0. -1.
    9900012    2    1    2    0    0  0.25941998172E+02 -0.42459673378E+01 -0.18047363802E+02  0.59301908236E+02  0.49999934725E+02 0.  0.
        -12    1    1    2    0    0 -0.25941998172E+02  0.42459673378E+01  0.18047363802E+02  0.31886091764E+02  0.00000000000E+00 0.  1.
         11    1    3    3    0    0 -0.11532142937E+01  0.28497747212E+01  0.13485062280E+02  0.13831052893E+02  0.51100000000E-03 0. -1.
        -11    1    3    3    0    0  0.32174745684E+01  0.50350045668E+01 -0.54930807358E+01  0.81164862975E+01  0.51100000000E-03 0.  1.
         12    1    3    3    0    0  0.23877737897E+02 -0.12130746626E+02 -0.26039345346E+02  0.37354369046E+02  0.00000000000E+00 0. -1.
</event>
<event>
 7    1  0.5755468E-013  0.5930198E+02  0.7816164E-02  0.1266605E+00
        -11   -1    0    0    0    0  0.00000000000E+00  0.00000000000E+00  0.45593999997E+02  0.45594000000E+02  0.51100000000E-03 0.  1.
         11   -1    0    0    0    0 -0.00000000000E+00 -0.00000000000E+00 -0.45593999997E+02  0.45594000000E+02  0.51100000000E-03 0. -1.
    9900012    2    1    2    0    0 -0.16220867604E+02 -0.99218860793E+01 -0.25596055400E+02  0.59301977651E+02  0.50000061321E+02 0.  0.
        -12    1    1    2    0    0  0.16220867604E+02  0.99218860793E+01  0.25596055400E+02  0.31886022349E+02  0.00000000000E+00 0.  1.
         11    1    3    3    0    0  0.43335465249E+01 -0.13812659981E+02 -0.19682524966E+02  0.24432989799E+02  0.51100000000E-03 0. -1.
        -11    1    3    3    0    0 -0.13768911446E+02 -0.15779247470E+01  0.97494431375E+01  0.16944745813E+02  0.51100000000E-03 0.  1.
        -12    1    3    3    0    0 -0.67855026831E+01  0.54686986484E+01 -0.15662973571E+02  0.17924242039E+02  0.00000000000E+00 0.  1.
</event>
<event>
 7    1  0.5755468E-013  0.5930193E+02  0.7816164E-02  0.1266605E+00
        -11   -1    0    0    0    0  0.00000000000E+00  0.00000000000E+00  0.45593999997E+02  0.45594000000E+02  0.51100000000E-03 0.  1.
         11   -1    0    0    0    0 -0.00000000000E+00 -0.00000000000E+00 -0.45593999997E+02  0.45594000000E+02  0.51100000000E-03 0. -1.
    9900012    2    1    2    0    0  0.37581321641E+00 -0.15047838123E+02 -0.28109478052E+02  0.59301930564E+02  0.49999975445E+02 0.  0.
        -12    1    1    2    0    0 -0.37581321641E+00  0.15047838123E+02  0.28109478052E+02  0.31886069436E+02  0.00000000000E+00 0.  1.
         11    1    3    3    0    0  0.12179769127E+02  0.10425341055E+02 -0.23401920938E+02  0.28366959935E+02  0.51100000000E-03 0. -1.
        -11    1    3    3    0    0 -0.11681325587E+02 -0.21490699010E+02 -0.80326440022E+01  0.25745424474E+02  0.51100000000E-03 0.  1.
         12    1    3    3    0    0 -0.12263032366E+00 -0.39824801674E+01  0.33250868880E+01  0.51895461548E+01  0.00000000000E+00 0. -1.
</event>
<event>
 7    1  0.5755468E-013  0.5930196E+02  0.7816164E-02  0.1266605E+00
        -11   -1    0    0    0    0  0.00000000000E+00  0.00000000000E+00  0.45593999997E+02  0.45594000000E+02  0.51100000000E-03 0.  1.
         11   -1    0    0    0    0 -0.00000000000E+00 -0.00000000000E+00 -0.45593999997E+02  0.45594000000E+02  0.51100000000E-03 0. -1.
    9900012    2    1    2    0    0 -0.13080642069E+02  0.28170126451E+02  0.72153034342E+01  0.59301955641E+02  0.50000021180E+02 0.  0.
        -12    1    1    2    0    0  0.13080642069E+02 -0.28170126451E+02 -0.72153034342E+01  0.31886044359E+02  0.00000000000E+00 0.  1.
         11    1    3    3    0    0 -0.10938734267E+02  0.34136167863E+02 -0.11348855499E+02  0.37599606183E+02  0.51100000000E-03 0. -1.
        -11    1    3    3    0    0  0.33855480370E+01 -0.34725449606E+01  0.57237260034E+01  0.75021026144E+01  0.51100000000E-03 0.  1.
         12    1    3    3    0    0 -0.55274558395E+01 -0.24934964510E+01  0.12840432929E+02  0.14200246844E+02  0.00000000000E+00 0. -1.
</event>
<event>
 7    1  0.5755468E-013  0.5930197E+02  0.7816164E-02  0.1266605E+00
        -11   -1    0    0    0    0  0.00000000000E+00  0.00000000000E+00  0.45593999997E+02  0.45594000000E+02  0.51100000000E-03 0.  1.
         11   -1    0    0    0    0 -0.00000000000E+00 -0.00000000000E+00 -0.45593999997E+02  0.45594000000E+02  0.51100000000E-03 0. -1.
    9900012    2    1    2    0    0  0.12609666788E+02  0.25349646991E+01 -0.29176861406E+02  0.59301968826E+02  0.50000045226E+02 0.  0.
        -12    1    1    2    0    0 -0.12609666788E+02 -0.25349646991E+01  0.29176861406E+02  0.31886031174E+02  0.00000000000E+00 0.  1.
         11    1    3    3    0    0 -0.72160920256E+01 -0.56595007353E+01 -0.13758355553E+02  0.16534638807E+02  0.51100000000E-03 0. -1.
        -11    1    3    3    0    0  0.22059874510E+02  0.46760558071E+01 -0.24181124154E+02  0.33064033736E+02  0.51100000000E-03 0.  1.
        -12    1    3    3    0    0 -0.22341156959E+01  0.35184096272E+01  0.87626183014E+01  0.97032962823E+01  0.00000000000E+00 0.  1.
</event>
<event>
 7    1  0.5755468E-013  0.5930196E+02  0.7816164E-02  0.1266605E+00
        -11   -1    0    0    0    0  0.00000000000E+00  0.00000000000E+00  0.45593999997E+02  0.45594000000E+02  0.51100000000E-03 0. -1.
         11   -1    0    0    0    0 -0.00000000000E+00 -0.00000000000E+00 -0.45593999997E+02  0.45594000000E+02  0.51100000000E-03 0.  1.
    9900012    2    1    2    0    0  0.27213946370E+01  0.83208993890E+01  0.30660663699E+02  0.59301958322E+02  0.50000026069E+02 0.  0.
        -12    1    1    2    0    0 -0.27213946370E+01 -0.83208993890E+01 -0.30660663699E+02  0.31886041678E+02  0.00000000000E+00 0.  1.
         11    1    3    3    0    0 -0.15994339572E+02 -0.56458503707E+01 -0.24778609308E+00  0.16963370036E+02  0.51100000000E-03 0.  1.
        -11    1    3    3    0    0  0.14106983523E+02  0.15264627370E+02  0.31258154215E+02  0.37537821434E+02  0.51100000000E-03 0. -1.
        -12    1    3    3    0    0  0.46087506865E+01 -0.12978776098E+01 -0.34970442236E+00  0.48007668516E+01  0.00000000000E+00 0.  1.
</event>
<event>
 7    1  0.5755468E-013  0.5930193E+02  0.7816164E-02  0.1266605E+00
        -11   -1    0    0    0    0  0.00000000000E+00  0.00000000000E+00  0.45593999997E+02  0.45594000000E+02  0.51100000000E-03 0.  1.
         11   -1    0    0    0    0 -0.00000000000E+00 -0.00000000000E+00 -0.45593999997E+02  0.45594000000E+02  0.51100000000E-03 0. -1.
    9900012    2    1    2    0    0  0.18842342739E+02 -0.10741663652E+02 -0.23373151586E+02  0.59301930425E+02  0.49999975191E+02 0.  0.
        -12    1    1    2    0    0 -0.18842342739E+02  0.10741663652E+02  0.23373151586E+02  0.31886069575E+02  0.00000000000E+00 0.  1.
         11    1    3    3    0    0  0.19844580326E+02  0.98547938012E+01 -0.81064868281E+01  0.23593207881E+02  0.51100000000E-03 0.  1.
        -11    1    3    3    0    0 -0.19566293403E+01 -0.25935189315E+02 -0.15505540529E+02  0.30280096277E+02  0.51100000000E-03 0. -1.
         12    1    3    3    0    0  0.95439175375E+00  0.53387318618E+01  0.23887577111E+00  0.54286262669E+01  0.00000000000E+00 0. -1.
</event>
<event>
 7    1  0.5755468E-013  0.5930191E+02  0.7816164E-02  0.1266605E+00
        -11   -1    0    0    0    0  0.00000000000E+00  0.00000000000E+00  0.45593999997E+02  0.45594000000E+02  0.51100000000E-03 0.  1.
         11   -1    0    0    0    0 -0.00000000000E+00 -0.00000000000E+00 -0.45593999997E+02  0.45594000000E+02  0.51100000000E-03 0. -1.
    9900012    2    1    2    0    0 -0.70456962266E+01 -0.10152730862E+02 -0.29393927783E+02  0.59301909462E+02  0.49999936961E+02 0.  0.
        -12    1    1    2    0    0  0.70456962266E+01  0.10152730862E+02  0.29393927783E+02  0.31886090538E+02  0.00000000000E+00 0.  1.
         11    1    3    3    0    0  0.14683186944E+02  0.66567604446E+01  0.21616106370E+01  0.16265945999E+02  0.51100000000E-03 0. -1.
        -11    1    3    3    0    0 -0.65686835949E+00  0.12120613613E+01 -0.67829599191E+00  0.15364421561E+01  0.51100000000E-03 0.  1.
         12    1    3    3    0    0 -0.21072014811E+02 -0.18021552668E+02 -0.30877242428E+02  0.41499521307E+02  0.00000000000E+00 0. -1.
</event>
<event>
 7    1  0.5755468E-013  0.5930190E+02  0.7816164E-02  0.1266605E+00
        -11   -1    0    0    0    0  0.00000000000E+00  0.00000000000E+00  0.45593999997E+02  0.45594000000E+02  0.51100000000E-03 0.  1.
         11   -1    0    0    0    0 -0.00000000000E+00 -0.00000000000E+00 -0.45593999997E+02  0.45594000000E+02  0.51100000000E-03 0. -1.
    9900012    2    1    2    0    0 -0.18250135236E+02 -0.19560745601E+02 -0.17350307601E+02  0.59301899917E+02  0.49999919553E+02 0.  0.
        -12    1    1    2    0    0  0.18250135236E+02  0.19560745601E+02  0.17350307601E+02  0.31886100083E+02  0.00000000000E+00 0.  1.
         11    1    3    3    0    0 -0.29955619577E+02 -0.18160610023E+02 -0.64139980043E+01  0.35613007052E+02  0.51100000000E-03 0. -1.
        -11    1    3    3    0    0 -0.10808117194E+01  0.60441601825E+01 -0.22961945954E+01  0.65553440921E+01  0.51100000000E-03 0.  1.
         12    1    3    3    0    0  0.12786296060E+02 -0.74442957607E+01 -0.86401150018E+01  0.17133548773E+02  0.00000000000E+00 0. -1.
</event>
<event>
 7    1  0.5755468E-013  0.5930196E+02  0.7816164E-02  0.1266605E+00
        -11   -1    0    0    0    0  0.00000000000E+00  0.00000000000E+00  0.45593999997E+02  0.45594000000E+02  0.51100000000E-03 0. -1.
         11   -1    0    0    0    0 -0.00000000000E+00 -0.00000000000E+00 -0.45593999997E+02  0.45594000000E+02  0.51100000000E-03 0.  1.
    9900012    2    1    2    0    0 -0.20631436425E+01 -0.22054297435E+02  0.22936241610E+02  0.59301956403E+02  0.50000022570E+02 0.  0.
        -12    1    1    2    0    0  0.20631436425E+01  0.22054297435E+02 -0.22936241610E+02  0.31886043597E+02  0.00000000000E+00 0.  1.
         11    1    3    3    0    0 -0.16028257144E+02 -0.99125572799E-01  0.22805083130E+02  0.27874480619E+02  0.51100000000E-03 0. -1.
        -11    1    3    3    0    0  0.11325566682E+02 -0.18039884489E+02  0.75792975458E+01  0.22608663043E+02  0.51100000000E-03 0.  1.
        -12    1    3    3    0    0  0.26395468189E+01 -0.39152873734E+01 -0.74481390658E+01  0.88188127414E+01  0.00000000000E+00 0.  1.
</event>
<event>
 7    1  0.5755468E-013  0.5930193E+02  0.7816164E-02  0.1266605E+00
        -11   -1    0    0    0    0  0.00000000000E+00  0.00000000000E+00  0.45593999997E+02  0.45594000000E+02  0.51100000000E-03 0. -1.
         11   -1    0    0    0    0 -0.00000000000E+00 -0.00000000000E+00 -0.45593999997E+02  0.45594000000E+02  0.51100000000E-03 0.  1.
    9900012    2    1    2    0    0 -0.21599541345E+02  0.12976586285E+02  0.19539430894E+02  0.59301931920E+02  0.49999977918E+02 0.  0.
        -12    1    1    2    0    0  0.21599541345E+02 -0.12976586285E+02 -0.19539430894E+02  0.31886068080E+02  0.00000000000E+00 0.  1.
         11    1    3    3    0    0 -0.14661875193E+02  0.13501007275E+02  0.17629266257E+02  0.26608998678E+02  0.51100000000E-03 0. -1.
        -11    1    3    3    0    0 -0.12056901931E+02 -0.11330897321E+02 -0.68110838900E+01  0.17892707517E+02  0.51100000000E-03 0.  1.
        -12    1    3    3    0    0  0.51192357788E+01  0.10806476330E+02  0.87212485275E+01  0.14800225725E+02  0.00000000000E+00 0.  1.
</event>
<event>
 7    1  0.5755468E-013  0.5930195E+02  0.7816164E-02  0.1266605E+00
        -11   -1    0    0    0    0  0.00000000000E+00  0.00000000000E+00  0.45593999997E+02  0.45594000000E+02  0.51100000000E-03 0. -1.
         11   -1    0    0    0    0 -0.00000000000E+00 -0.00000000000E+00 -0.45593999997E+02  0.45594000000E+02  0.51100000000E-03 0.  1.
    9900012    2    1    2    0    0 -0.12249513750E+02 -0.10618947713E+02  0.27457375046E+02  0.59301951608E+02  0.50000013825E+02 0.  0.
        -12    1    1    2    0    0  0.12249513750E+02  0.10618947713E+02 -0.27457375046E+02  0.31886048392E+02  0.00000000000E+00 0.  1.
         11    1    3    3    0    0 -0.28268126567E+02 -0.13480497539E+02  0.18491863831E+02  0.36369765213E+02  0.51100000000E-03 0. -1.
        -11    1    3    3    0    0  0.13583882501E+02  0.76478574707E+01  0.78245444632E+01  0.17442335968E+02  0.51100000000E-03 0.  1.
         12    1    3    3    0    0  0.24347303153E+01 -0.47863076446E+01  0.11409667519E+01  0.54898504266E+01  0.00000000000E+00 0. -1.
</event>
<event>
 7    1  0.5755468E-013  0.5930194E+02  0.7816164E-02  0.1266605E+00
        -11   -1    0    0    0    0  0.00000000000E+00  0.00000000000E+00  0.45593999997E+02  0.45594000000E+02  0.51100000000E-03 0. -1.
         11   -1    0    0    0    0 -0.00000000000E+00 -0.00000000000E+00 -0.45593999997E+02  0.45594000000E+02  0.51100000000E-03 0.  1.
    9900012    2    1    2    0    0  0.27925563634E+02  0.15327655762E+02  0.13952250040E+01  0.59301940534E+02  0.49999993629E+02 0.  0.
        -12    1    1    2    0    0 -0.27925563634E+02 -0.15327655762E+02 -0.13952250040E+01  0.31886059466E+02  0.00000000000E+00 0.  1.
         11    1    3    3    0    0  0.14774146039E+02  0.14966245189E+02  0.10663416851E+02  0.23579065831E+02  0.51100000000E-03 0. -1.
        -11    1    3    3    0    0  0.10195972925E+02  0.11515535886E+02 -0.16138134885E+02  0.22293605102E+02  0.51100000000E-03 0.  1.
         12    1    3    3    0    0  0.29554446703E+01 -0.11154125313E+02  0.68699430380E+01  0.13429269602E+02  0.00000000000E+00 0. -1.
</event>
<event>
 7    1  0.5755468E-013  0.5930194E+02  0.7816164E-02  0.1266605E+00
        -11   -1    0    0    0    0  0.00000000000E+00  0.00000000000E+00  0.45593999997E+02  0.45594000000E+02  0.51100000000E-03 0.  1.
         11   -1    0    0    0    0 -0.00000000000E+00 -0.00000000000E+00 -0.45593999997E+02  0.45594000000E+02  0.51100000000E-03 0. -1.
    9900012    2    1    2    0    0 -0.13813726673E+01 -0.30022535480E+02 -0.10651757151E+02  0.59301941016E+02  0.49999994508E+02 0.  0.
        -12    1    1    2    0    0  0.13813726673E+01  0.30022535480E+02  0.10651757151E+02  0.31886058984E+02  0.00000000000E+00 0.  1.
         11    1    3    3    0    0  0.24366055054E+01  0.29598546490E+00 -0.18309949403E+02  0.18473735442E+02  0.51100000000E-03 0. -1.
        -11    1    3    3    0    0  0.42431755385E+01 -0.14027104160E+02  0.15231624761E+02  0.21136853666E+02  0.51100000000E-03 0.  1.
         12    1    3    3    0    0 -0.80611537113E+01 -0.16291416785E+02 -0.75734325092E+01  0.19691351908E+02  0.00000000000E+00 0. -1.
</event>
<event>
 7    1  0.5755468E-013  0.5930194E+02  0.7816164E-02  0.1266605E+00
        -11   -1    0    0    0    0  0.00000000000E+00  0.00000000000E+00  0.45593999997E+02  0.45594000000E+02  0.51100000000E-03 0.  1.
         11   -1    0    0    0    0 -0.00000000000E+00 -0.00000000000E+00 -0.45593999997E+02  0.45594000000E+02  0.51100000000E-03 0. -1.
    9900012    2    1    2    0    0 -0.78116925651E+01 -0.21430364378E+02 -0.22280885242E+02  0.59301938699E+02  0.49999990281E+02 0.  0.
        -12    1    1    2    0    0  0.78116925651E+01  0.21430364378E+02  0.22280885242E+02  0.31886061301E+02  0.00000000000E+00 0.  1.
         11    1    3    3    0    0 -0.12748999727E+02 -0.14532361198E+02 -0.91791419407E+00  0.19353787298E+02  0.51100000000E-03 0. -1.
        -11    1    3    3    0    0  0.83965569363E+01  0.10707106366E+02 -0.23535397571E+01  0.13808817646E+02  0.51100000000E-03 0.  1.
        -12    1    3    3    0    0 -0.34592497742E+01 -0.17605109547E+02 -0.19009431291E+02  0.26139333755E+02  0.00000000000E+00 0.  1.
</event>
<event>
 7    1  0.5755468E-013  0.5930195E+02  0.7816164E-02  0.1266605E+00
        -11   -1    0    0    0    0  0.00000000000E+00  0.00000000000E+00  0.45593999997E+02  0.45594000000E+02  0.51100000000E-03 0.  1.
         11   -1    0    0    0    0 -0.00000000000E+00 -0.00000000000E+00 -0.45593999997E+02  0.45594000000E+02  0.51100000000E-03 0. -1.
    9900012    2    1    2    0    0 -0.13666713509E+02 -0.27095116758E+02 -0.97875401078E+01  0.59301947380E+02  0.50000006115E+02 0.  0.
        -12    1    1    2    0    0  0.13666713509E+02  0.27095116758E+02  0.97875401078E+01  0.31886052620E+02  0.00000000000E+00 0.  1.
         11    1    3    3    0    0 -0.19848335696E+02 -0.11367195229E+02 -0.16421713171E+02  0.28157454093E+02  0.51100000000E-03 0. -1.
        -11    1    3    3    0    0 -0.19884361651E+01 -0.32650847915E+01  0.14006265227E+02  0.14518612983E+02  0.51100000000E-03 0.  1.
         12    1    3    3    0    0  0.81700583515E+01 -0.12462836738E+02 -0.73720921635E+01  0.16625880304E+02  0.00000000000E+00 0. -1.
</event>
<event>
 7    1  0.5755468E-013  0.5930193E+02  0.7816164E-02  0.1266605E+00
        -11   -1    0    0    0    0  0.00000000000E+00  0.00000000000E+00  0.45593999997E+02  0.45594000000E+02  0.51100000000E-03 0. -1.
         11   -1    0    0    0    0 -0.00000000000E+00 -0.00000000000E+00 -0.45593999997E+02  0.45594000000E+02  0.51100000000E-03 0.  1.
    9900012    2    1    2    0    0 -0.14404920461E+01 -0.71541151405E+01  0.31039730579E+02  0.59301933212E+02  0.49999980274E+02 0.  0.
        -12    1    1    2    0    0  0.14404920461E+01  0.71541151405E+01 -0.31039730579E+02  0.31886066788E+02  0.00000000000E+00 0.  1.
         11    1    3    3    0    0  0.53786236994E+01  0.55166035062E+01  0.34577699910E+02  0.35425694608E+02  0.51100000000E-03 0. -1.
        -11    1    3    3    0    0 -0.47448101197E+01  0.28362867289E+01 -0.58643981158E+01  0.80590887203E+01  0.51100000000E-03 0.  1.
         12    1    3    3    0    0 -0.20743056258E+01 -0.15507005376E+02  0.23264287855E+01  0.15817149884E+02  0.00000000000E+00 0. -1.
</event>
<event>
 7    1  0.5755468E-013  0.5930218E+02  0.7816164E-02  0.1266604E+00
        -11   -1    0    0    0    0  0.00000000000E+00  0.00000000000E+00  0.45593999997E+02  0.45594000000E+02  0.51100000000E-03 0.  1.
         11   -1    0    0    0    0 -0.00000000000E+00 -0.00000000000E+00 -0.45593999997E+02  0.45594000000E+02  0.51100000000E-03 0. -1.
    9900012    2    1    2    0    0  0.23848343590E+02 -0.17827758086E+02 -0.11407593234E+02  0.59302178171E+02  0.50000427019E+02 0.  0.
        -12    1    1    2    0    0 -0.23848343590E+02  0.17827758086E+02  0.11407593234E+02  0.31885821829E+02  0.00000000000E+00 0.  1.
         11    1    3    3    0    0  0.70150574877E+01  0.16071038505E+02 -0.36047919910E+01  0.17902062332E+02  0.51100000000E-03 0. -1.
        -11    1    3    3    0    0  0.71177279508E+01 -0.28482608180E+02 -0.73651316123E+01  0.30268237210E+02  0.51100000000E-03 0.  1.
        -12    1    3    3    0    0  0.97155581511E+01 -0.54161884113E+01 -0.43766963026E+00  0.11131878628E+02  0.00000000000E+00 0.  1.
</event>
<event>
 7    1  0.5755468E-013  0.5930193E+02  0.7816164E-02  0.1266605E+00
        -11   -1    0    0    0    0  0.00000000000E+00  0.00000000000E+00  0.45593999997E+02  0.45594000000E+02  0.51100000000E-03 0. -1.
         11   -1    0    0    0    0 -0.00000000000E+00 -0.00000000000E+00 -0.45593999997E+02  0.45594000000E+02  0.51100000000E-03 0.  1.
    9900012    2    1    2    0    0 -0.17994699859E+02  0.18290085006E+00  0.26322593560E+02  0.59301927689E+02  0.49999970202E+02 0.  0.
        -12    1    1    2    0    0  0.17994699859E+02 -0.18290085006E+00 -0.26322593560E+02  0.31886072311E+02  0.00000000000E+00 0.  1.
         11    1    3    3    0    0 -0.19387019480E+02 -0.49403576062E+01  0.65549516592E+01  0.21053053202E+02  0.51100000000E-03 0. -1.
        -11    1    3    3    0    0  0.14401750313E+02 -0.56138108800E+01  0.12512018742E+02  0.19886575822E+02  0.51100000000E-03 0.  1.
         12    1    3    3    0    0 -0.13009430691E+02  0.10737069336E+02  0.72556231585E+01  0.18362298665E+02  0.00000000000E+00 0. -1.
</event>
<event>
 7    1  0.5755468E-013  0.5930194E+02  0.7816164E-02  0.1266605E+00
        -11   -1    0    0    0    0  0.00000000000E+00  0.00000000000E+00  0.45593999997E+02  0.45594000000E+02  0.51100000000E-03 0.  1.
         11   -1    0    0    0    0 -0.00000000000E+00 -0.00000000000E+00 -0.45593999997E+02  0.45594000000E+02  0.51100000000E-03 0. -1.
    9900012    2    1    2    0    0  0.19829993275E+02 -0.24969778970E+02  0.45259905103E-01  0.59301944371E+02  0.50000000626E+02 0.  0.
        -12    1    1    2    0    0 -0.19829993275E+02  0.24969778970E+02 -0.45259905103E-01  0.31886055629E+02  0.00000000000E+00 0.  1.
         11    1    3    3    0    0  0.91419459730E+01 -0.17652567611E+02 -0.15779406806E+01  0.19941870937E+02  0.51100000000E-03 0. -1.
        -11    1    3    3    0    0  0.43398703520E+01  0.14430103503E+02  0.61186226196E+01  0.16263453041E+02  0.51100000000E-03 0.  1.
        -12    1    3    3    0    0  0.63481769500E+01 -0.21747314862E+02 -0.44954220339E+01  0.23096620393E+02  0.00000000000E+00 0.  1.
</event>
<event>
 7    1  0.5755468E-013  0.5930194E+02  0.7816164E-02  0.1266605E+00
        -11   -1    0    0    0    0  0.00000000000E+00  0.00000000000E+00  0.45593999997E+02  0.45594000000E+02  0.51100000000E-03 0. -1.
         11   -1    0    0    0    0 -0.00000000000E+00 -0.00000000000E+00 -0.45593999997E+02  0.45594000000E+02  0.51100000000E-03 0.  1.
    9900012    2    1    2    0    0 -0.83343192797E+01 -0.30470513661E+02  0.43367952483E+01  0.59301939195E+02  0.49999991186E+02 0.  0.
        -12    1    1    2    0    0  0.83343192797E+01  0.30470513661E+02 -0.43367952483E+01  0.31886060805E+02  0.00000000000E+00 0.  1.
         11    1    3    3    0    0 -0.27798859555E-01 -0.21878444021E+02 -0.20263684891E+02  0.29820865366E+02  0.51100000000E-03 0. -1.
        -11    1    3    3    0    0 -0.78185923022E+01 -0.25896227235E+00  0.10479005083E+02  0.13076964282E+02  0.51100000000E-03 0.  1.
         12    1    3    3    0    0 -0.48792811797E+00 -0.83331073681E+01  0.14121475057E+02  0.16404109547E+02  0.00000000000E+00 0. -1.
</event>
<event>
 7    1  0.5755468E-013  0.5930195E+02  0.7816164E-02  0.1266605E+00
        -11   -1    0    0    0    0  0.00000000000E+00  0.00000000000E+00  0.45593999997E+02  0.45594000000E+02  0.51100000000E-03 0. -1.
         11   -1    0    0    0    0 -0.00000000000E+00 -0.00000000000E+00 -0.45593999997E+02  0.45594000000E+02  0.51100000000E-03 0.  1.
    9900012    2    1    2    0    0  0.29636562700E+02 -0.71386391364E+01  0.93506106065E+01  0.59301953897E+02  0.50000017999E+02 0.  0.
        -12    1    1    2    0    0 -0.29636562700E+02  0.71386391364E+01 -0.93506106065E+01  0.31886046103E+02  0.00000000000E+00 0.  1.
         11    1    3    3    0    0  0.33691972455E+02  0.36238454508E+01 -0.12732442054E+01  0.33910211070E+02  0.51100000000E-03 0. -1.
        -11    1    3    3    0    0  0.47713385200E+00 -0.16068376171E+02  0.70868241030E+01  0.17568251069E+02  0.51100000000E-03 0.  1.
        -12    1    3    3    0    0 -0.45325436071E+01  0.53058915837E+01  0.35370307088E+01  0.78234917578E+01  0.00000000000E+00 0.  1.
</event>
<event>
 7    1  0.5755468E-013  0.5930203E+02  0.7816164E-02  0.1266604E+00
        -11   -1    0    0    0    0  0.00000000000E+00  0.00000000000E+00  0.45593999997E+02  0.45594000000E+02  0.51100000000E-03 0.  1.
         11   -1    0    0    0    0 -0.00000000000E+00 -0.00000000000E+00 -0.45593999997E+02  0.45594000000E+02  0.51100000000E-03 0. -1.
    9900012    2    1    2    0    0  0.82365747586E+01  0.30543035257E+02  0.39996129206E+01  0.59302030201E+02  0.50000157160E+02 0.  0.
        -12    1    1    2    0    0 -0.82365747586E+01 -0.30543035257E+02 -0.39996129206E+01  0.31885969799E+02  0.00000000000E+00 0.  1.
         11    1    3    3    0    0 -0.84060908468E-01  0.35399595250E+02 -0.10413129885E+02  0.36899480814E+02  0.51100000000E-03 0. -1.
        -11    1    3    3    0    0 -0.36883876299E+01 -0.16268371231E+01  0.10862566109E+01  0.41750156909E+01  0.51100000000E-03 0.  1.
         12    1    3    3    0    0  0.12009023297E+02 -0.32297228691E+01  0.13326486195E+02  0.18227533696E+02  0.00000000000E+00 0. -1.
</event>
<event>
 7    1  0.5755468E-013  0.5930195E+02  0.7816164E-02  0.1266605E+00
        -11   -1    0    0    0    0  0.00000000000E+00  0.00000000000E+00  0.45593999997E+02  0.45594000000E+02  0.51100000000E-03 0.  1.
         11   -1    0    0    0    0 -0.00000000000E+00 -0.00000000000E+00 -0.45593999997E+02  0.45594000000E+02  0.51100000000E-03 0. -1.
    9900012    2    1    2    0    0  0.31381830798E+02 -0.54032309066E+01  0.16450372742E+01  0.59301947310E+02  0.50000005987E+02 0.  0.
        -12    1    1    2    0    0 -0.31381830798E+02  0.54032309066E+01 -0.16450372742E+01  0.31886052690E+02  0.00000000000E+00 0.  1.
         11    1    3    3    0    0  0.20704870904E+02 -0.83418013245E+01 -0.11496248958E+02  0.25108585561E+02  0.51100000000E-03 0. -1.
        -11    1    3    3    0    0 -0.26052211266E+01  0.10161941973E+02 -0.40986655013E+01  0.11262828283E+02  0.51100000000E-03 0.  1.
         12    1    3    3    0    0  0.13282181021E+02 -0.72233715551E+01  0.17239951734E+02  0.22930533467E+02  0.00000000000E+00 0. -1.
</event>
<event>
 7    1  0.5755468E-013  0.5930194E+02  0.7816164E-02  0.1266605E+00
        -11   -1    0    0    0    0  0.00000000000E+00  0.00000000000E+00  0.45593999997E+02  0.45594000000E+02  0.51100000000E-03 0.  1.
         11   -1    0    0    0    0 -0.00000000000E+00 -0.00000000000E+00 -0.45593999997E+02  0.45594000000E+02  0.51100000000E-03 0. -1.
    9900012    2    1    2    0    0 -0.20434377103E+02  0.20733775743E+02 -0.13010280696E+02  0.59301943048E+02  0.49999998214E+02 0.  0.
        -12    1    1    2    0    0  0.20434377103E+02 -0.20733775743E+02  0.13010280696E+02  0.31886056952E+02  0.00000000000E+00 0.  1.
         11    1    3    3    0    0 -0.24740236542E+02  0.27189875100E+02 -0.22009603877E+02  0.42846134892E+02  0.51100000000E-03 0. -1.
        -11    1    3    3    0    0 -0.28973094873E+01 -0.40514279403E+01  0.42017476550E+00  0.49985015470E+01  0.51100000000E-03 0.  1.
         12    1    3    3    0    0  0.72031689262E+01 -0.24046714167E+01  0.85791484159E+01  0.11457306609E+02  0.00000000000E+00 0. -1.
</event>
<event>
 7    1  0.5755468E-013  0.5930195E+02  0.7816164E-02  0.1266605E+00
        -11   -1    0    0    0    0  0.00000000000E+00  0.00000000000E+00  0.45593999997E+02  0.45594000000E+02  0.51100000000E-03 0. -1.
         11   -1    0    0    0    0 -0.00000000000E+00 -0.00000000000E+00 -0.45593999997E+02  0.45594000000E+02  0.51100000000E-03 0.  1.
    9900012    2    1    2    0    0  0.14003627497E+02 -0.28568556218E+02  0.21108967636E+01  0.59301954893E+02  0.50000019816E+02 0.  0.
        -12    1    1    2    0    0 -0.14003627497E+02  0.28568556218E+02 -0.21108967636E+01  0.31886045107E+02  0.00000000000E+00 0.  1.
         11    1    3    3    0    0  0.73854090179E+01  0.10358294639E+02  0.38194774985E+01  0.13282580427E+02  0.51100000000E-03 0. -1.
        -11    1    3    3    0    0 -0.21400443805E+01 -0.24588153954E+02 -0.10771275449E+02  0.26929119553E+02  0.51100000000E-03 0.  1.
         12    1    3    3    0    0  0.87582628591E+01 -0.14338696902E+02  0.90626947138E+01  0.19090254913E+02  0.00000000000E+00 0. -1.
</event>
<event>
 7    1  0.5755468E-013  0.5930194E+02  0.7816164E-02  0.1266605E+00
        -11   -1    0    0    0    0  0.00000000000E+00  0.00000000000E+00  0.45593999997E+02  0.45594000000E+02  0.51100000000E-03 0.  1.
         11   -1    0    0    0    0 -0.00000000000E+00 -0.00000000000E+00 -0.45593999997E+02  0.45594000000E+02  0.51100000000E-03 0. -1.
    9900012    2    1    2    0    0 -0.88416679995E+01  0.28987857870E+02  0.99120894594E+01  0.59301944829E+02  0.50000001461E+02 0.  0.
        -12    1    1    2    0    0  0.88416679995E+01 -0.28987857870E+02 -0.99120894594E+01  0.31886055171E+02  0.00000000000E+00 0.  1.
         11    1    3    3    0    0 -0.14003828553E+02  0.56895364177E+01  0.22689311443E+01  0.15284831945E+02  0.51100000000E-03 0. -1.
        -11    1    3    3    0    0  0.30277242177E+00  0.21948727157E+02  0.20606320504E+02  0.30107453229E+02  0.51100000000E-03 0.  1.
        -12    1    3    3    0    0  0.48593881318E+01  0.13495942951E+01 -0.12963162189E+02  0.13909659655E+02  0.00000000000E+00 0.  1.
</event>
<event>
 7    1  0.5755468E-013  0.5930197E+02  0.7816164E-02  0.1266605E+00
        -11   -1    0    0    0    0  0.00000000000E+00  0.00000000000E+00  0.45593999997E+02  0.45594000000E+02  0.51100000000E-03 0. -1.
         11   -1    0    0    0    0 -0.00000000000E+00 -0.00000000000E+00 -0.45593999997E+02  0.45594000000E+02  0.51100000000E-03 0.  1.
    9900012    2    1    2    0    0 -0.17368915126E+02 -0.22214156923E+02  0.14885263114E+02  0.59301967973E+02  0.50000043671E+02 0.  0.
        -12    1    1    2    0    0  0.17368915126E+02  0.22214156923E+02 -0.14885263114E+02  0.31886032027E+02  0.00000000000E+00 0.  1.
         11    1    3    3    0    0 -0.16165596093E+01 -0.12059916339E+02  0.40791417161E+01  0.12833325543E+02  0.51100000000E-03 0. -1.
        -11    1    3    3    0    0  0.50923639541E+01  0.13008829707E+02  0.44878264395E+01  0.14673186682E+02  0.51100000000E-03 0.  1.
        -12    1    3    3    0    0 -0.20844719471E+02 -0.23163070291E+02  0.63182949581E+01  0.31795455749E+02  0.00000000000E+00 0.  1.
</event>
<event>
 7    1  0.5755468E-013  0.5930194E+02  0.7816164E-02  0.1266605E+00
        -11   -1    0    0    0    0  0.00000000000E+00  0.00000000000E+00  0.45593999997E+02  0.45594000000E+02  0.51100000000E-03 0.  1.
         11   -1    0    0    0    0 -0.00000000000E+00 -0.00000000000E+00 -0.45593999997E+02  0.45594000000E+02  0.51100000000E-03 0. -1.
    9900012    2    1    2    0    0 -0.13521366311E+02 -0.41946077508E+01 -0.28570943374E+02  0.59301938996E+02  0.49999990823E+02 0.  0.
        -12    1    1    2    0    0  0.13521366311E+02  0.41946077508E+01  0.28570943374E+02  0.31886061004E+02  0.00000000000E+00 0.  1.
         11    1    3    3    0    0 -0.23660227864E+02  0.87509676294E+01 -0.28437540170E+02  0.38014201402E+02  0.51100000000E-03 0. -1.
        -11    1    3    3    0    0 -0.43051023148E-01  0.10751245798E+01  0.34322140159E+01  0.35969208449E+01  0.51100000000E-03 0.  1.
         12    1    3    3    0    0  0.10181912576E+02 -0.14020699960E+02 -0.35656172201E+01  0.17690816749E+02  0.00000000000E+00 0. -1.
</event>
<event>
 7    1  0.5755468E-013  0.5930189E+02  0.7816164E-02  0.1266605E+00
        -11   -1    0    0    0    0  0.00000000000E+00  0.00000000000E+00  0.45593999997E+02  0.45594000000E+02  0.51100000000E-03 0.  1.
         11   -1    0    0    0    0 -0.00000000000E+00 -0.00000000000E+00 -0.45593999997E+02  0.45594000000E+02  0.51100000000E-03 0. -1.
    9900012    2    1    2    0    0 -0.38185640688E+01  0.72900816023E+01 -0.30805801253E+02  0.59301888412E+02  0.49999898571E+02 0.  0.
        -12    1    1    2    0    0  0.38185640688E+01 -0.72900816023E+01  0.30805801253E+02  0.31886111588E+02  0.00000000000E+00 0.  1.
         11    1    3    3    0    0  0.90561795392E+01 -0.83769449828E+01  0.42420254942E+01  0.13045396722E+02  0.51100000000E-03 0.  1.
        -11    1    3    3    0    0  0.18452718389E+01  0.10262635791E+02 -0.26320443318E+02  0.28310642138E+02  0.51100000000E-03 0. -1.
        -12    1    3    3    0    0 -0.14720015447E+02  0.54043907943E+01 -0.87273834294E+01  0.17945849552E+02  0.00000000000E+00 0.  1.
</event>
<event>
 7    1  0.5755468E-013  0.5930193E+02  0.7816164E-02  0.1266605E+00
        -11   -1    0    0    0    0  0.00000000000E+00  0.00000000000E+00  0.45593999997E+02  0.45594000000E+02  0.51100000000E-03 0. -1.
         11   -1    0    0    0    0 -0.00000000000E+00 -0.00000000000E+00 -0.45593999997E+02  0.45594000000E+02  0.51100000000E-03 0.  1.
    9900012    2    1    2    0    0  0.16071182008E+02 -0.26794861747E+02 -0.63618960220E+01  0.59301933636E+02  0.49999981048E+02 0.  0.
        -12    1    1    2    0    0 -0.16071182008E+02  0.26794861747E+02  0.63618960220E+01  0.31886066364E+02  0.00000000000E+00 0.  1.
         11    1    3    3    0    0  0.70304080049E+01 -0.13565589296E+02  0.71952853289E+01  0.16888575454E+02  0.51100000000E-03 0. -1.
        -11    1    3    3    0    0  0.17189060491E+02 -0.12006513359E+02 -0.22155935153E+02  0.30504190308E+02  0.51100000000E-03 0.  1.
        -12    1    3    3    0    0 -0.81482864877E+01 -0.12227590927E+01  0.85987538022E+01  0.11909167873E+02  0.00000000000E+00 0.  1.
</event>
<event>
 7    1  0.5755468E-013  0.5930199E+02  0.7816164E-02  0.1266605E+00
        -11   -1    0    0    0    0  0.00000000000E+00  0.00000000000E+00  0.45593999997E+02  0.45594000000E+02  0.51100000000E-03 0. -1.
         11   -1    0    0    0    0 -0.00000000000E+00 -0.00000000000E+00 -0.45593999997E+02  0.45594000000E+02  0.51100000000E-03 0.  1.
    9900012    2    1    2    0    0  0.24534625339E+02 -0.30429232027E+01 -0.20137283144E+02  0.59301993751E+02  0.50000090683E+02 0.  0.
        -12    1    1    2    0    0 -0.24534625339E+02  0.30429232027E+01  0.20137283144E+02  0.31886006249E+02  0.00000000000E+00 0.  1.
         11    1    3    3    0    0  0.64776672052E+01  0.17349041145E+02  0.27121112148E+01  0.18716435253E+02  0.51100000000E-03 0. -1.
        -11    1    3    3    0    0  0.18527294178E+02 -0.10881103918E+02 -0.22419955929E+02  0.31053397176E+02  0.51100000000E-03 0.  1.
         12    1    3    3    0    0 -0.47033604412E+00 -0.95108604296E+01 -0.42943842920E+00  0.95321613220E+01  0.00000000000E+00 0. -1.
</event>
<event>
 7    1  0.5755468E-013  0.5930189E+02  0.7816164E-02  0.1266605E+00
        -11   -1    0    0    0    0  0.00000000000E+00  0.00000000000E+00  0.45593999997E+02  0.45594000000E+02  0.51100000000E-03 0.  1.
         11   -1    0    0    0    0 -0.00000000000E+00 -0.00000000000E+00 -0.45593999997E+02  0.45594000000E+02  0.51100000000E-03 0. -1.
    9900012    2    1    2    0    0 -0.27030656288E+02 -0.20773602341E+01 -0.16785470137E+02  0.59301893110E+02  0.49999907138E+02 0.  0.
        -12    1    1    2    0    0  0.27030656288E+02  0.20773602341E+01  0.16785470137E+02  0.31886106890E+02  0.00000000000E+00 0.  1.
         11    1    3    3    0    0 -0.27018989448E+02 -0.61283431703E-02  0.43554294080E+01  0.27367783870E+02  0.51100000000E-03 0. -1.
        -11    1    3    3    0    0  0.11097755374E+02 -0.21915930894E+01 -0.50688501408E+01  0.12395825774E+02  0.51100000000E-03 0.  1.
        -12    1    3    3    0    0 -0.11109422214E+02  0.12036119848E+00 -0.16072049404E+02  0.19538283466E+02  0.00000000000E+00 0.  1.
</event>
<event>
 7    1  0.5755468E-013  0.5930195E+02  0.7816164E-02  0.1266605E+00
        -11   -1    0    0    0    0  0.00000000000E+00  0.00000000000E+00  0.45593999997E+02  0.45594000000E+02  0.51100000000E-03 0.  1.
         11   -1    0    0    0    0 -0.00000000000E+00 -0.00000000000E+00 -0.45593999997E+02  0.45594000000E+02  0.51100000000E-03 0. -1.
    9900012    2    1    2    0    0 -0.27575914476E+01 -0.22875072668E+02 -0.22041937839E+02  0.59301948443E+02  0.50000008053E+02 0.  0.
        -12    1    1    2    0    0  0.27575914476E+01  0.22875072668E+02  0.22041937839E+02  0.31886051557E+02  0.00000000000E+00 0.  1.
         11    1    3    3    0    0 -0.10079438882E+01 -0.64615253303E+01  0.77428944606E-02  0.65396728274E+01  0.51100000000E-03 0. -1.
        -11    1    3    3    0    0  0.15261863491E+02 -0.16182723751E+02 -0.27057647409E+02  0.35027436514E+02  0.51100000000E-03 0.  1.
        -12    1    3    3    0    0 -0.17011511050E+02 -0.23082358692E+00  0.50079666752E+01  0.17734839101E+02  0.00000000000E+00 0.  1.
</event>
<event>
 7    1  0.5755468E-013  0.5930185E+02  0.7816164E-02  0.1266605E+00
        -11   -1    0    0    0    0  0.00000000000E+00  0.00000000000E+00  0.45593999997E+02  0.45594000000E+02  0.51100000000E-03 0.  1.
         11   -1    0    0    0    0 -0.00000000000E+00 -0.00000000000E+00 -0.45593999997E+02  0.45594000000E+02  0.51100000000E-03 0. -1.
    9900012    2    1    2    0    0  0.68141846064E+01 -0.19345693464E+02 -0.24413875435E+02  0.59301854400E+02  0.49999836540E+02 0.  0.
        -12    1    1    2    0    0 -0.68141846064E+01  0.19345693464E+02  0.24413875435E+02  0.31886145600E+02  0.00000000000E+00 0.  1.
         11    1    3    3    0    0  0.22238946255E+02 -0.13506490065E+02 -0.20208703542E+02  0.32945222772E+02  0.51100000000E-03 0. -1.
        -11    1    3    3    0    0 -0.47379488133E+01  0.73462616465E+01 -0.33536081554E+01  0.93628204648E+01  0.51100000000E-03 0.  1.
         12    1    3    3    0    0 -0.10686812835E+02 -0.13185465046E+02 -0.85156373830E+00  0.16993811163E+02  0.00000000000E+00 0. -1.
</event>
<event>
 7    1  0.5755468E-013  0.5930196E+02  0.7816164E-02  0.1266605E+00
        -11   -1    0    0    0    0  0.00000000000E+00  0.00000000000E+00  0.45593999997E+02  0.45594000000E+02  0.51100000000E-03 0.  1.
         11   -1    0    0    0    0 -0.00000000000E+00 -0.00000000000E+00 -0.45593999997E+02  0.45594000000E+02  0.51100000000E-03 0. -1.
    9900012    2    1    2    0    0  0.20875115506E+02  0.15568064877E+02 -0.18400671022E+02  0.59301956259E+02  0.50000022307E+02 0.  0.
        -12    1    1    2    0    0 -0.20875115506E+02 -0.15568064877E+02  0.18400671022E+02  0.31886043741E+02  0.00000000000E+00 0.  1.
         11    1    3    3    0    0  0.26195702236E+02  0.17316056048E+02 -0.20775111685E+02  0.37651904049E+02  0.51100000000E-03 0. -1.
        -11    1    3    3    0    0 -0.10572588388E+02 -0.25773874696E+01 -0.54651289890E+01  0.12177445813E+02  0.51100000000E-03 0.  1.
         12    1    3    3    0    0  0.52520016579E+01  0.82939629825E+00  0.78395696521E+01  0.94726063977E+01  0.00000000000E+00 0. -1.
</event>
<event>
 7    1  0.5755468E-013  0.5930197E+02  0.7816164E-02  0.1266605E+00
        -11   -1    0    0    0    0  0.00000000000E+00  0.00000000000E+00  0.45593999997E+02  0.45594000000E+02  0.51100000000E-03 0.  1.
         11   -1    0    0    0    0 -0.00000000000E+00 -0.00000000000E+00 -0.45593999997E+02  0.45594000000E+02  0.51100000000E-03 0. -1.
    9900012    2    1    2    0    0 -0.25238711824E+02  0.17148766359E+02  0.92545074119E+01  0.59301973756E+02  0.50000054218E+02 0.  0.
        -12    1    1    2    0    0  0.25238711824E+02 -0.17148766359E+02 -0.92545074119E+01  0.31886026244E+02  0.00000000000E+00 0.  1.
         11    1    3    3    0    0 -0.14356394145E+02  0.31242852213E+01 -0.14199778176E+02  0.20432839046E+02  0.51100000000E-03 0. -1.
        -11    1    3    3    0    0 -0.22249240694E+01 -0.55270135589E+01  0.14520569162E+02  0.15695384514E+02  0.51100000000E-03 0.  1.
         12    1    3    3    0    0 -0.86573936100E+01  0.19551494696E+02  0.89337164256E+01  0.23173750196E+02  0.00000000000E+00 0. -1.
</event>
<event>
 7    1  0.5755468E-013  0.5930195E+02  0.7816164E-02  0.1266605E+00
        -11   -1    0    0    0    0  0.00000000000E+00  0.00000000000E+00  0.45593999997E+02  0.45594000000E+02  0.51100000000E-03 0. -1.
         11   -1    0    0    0    0 -0.00000000000E+00 -0.00000000000E+00 -0.45593999997E+02  0.45594000000E+02  0.51100000000E-03 0.  1.
    9900012    2    1    2    0    0 -0.30758400535E+02  0.55446148530E+01 -0.63165015412E+01  0.59301950558E+02  0.50000011909E+02 0.  0.
        -12    1    1    2    0    0  0.30758400535E+02 -0.55446148530E+01  0.63165015412E+01  0.31886049442E+02  0.00000000000E+00 0.  1.
         11    1    3    3    0    0 -0.15508016694E+02  0.22850360542E+02 -0.53166619597E+01  0.28123023545E+02  0.51100000000E-03 0. -1.
        -11    1    3    3    0    0 -0.15840967609E+02 -0.20793964204E+02 -0.41182435386E+01  0.26462901054E+02  0.51100000000E-03 0.  1.
         12    1    3    3    0    0  0.59058376831E+00  0.34882185153E+01  0.31184039572E+01  0.47160259582E+01  0.00000000000E+00 0. -1.
</event>
<event>
 7    1  0.5755468E-013  0.5930224E+02  0.7816164E-02  0.1266604E+00
        -11   -1    0    0    0    0  0.00000000000E+00  0.00000000000E+00  0.45593999997E+02  0.45594000000E+02  0.51100000000E-03 0.  1.
         11   -1    0    0    0    0 -0.00000000000E+00 -0.00000000000E+00 -0.45593999997E+02  0.45594000000E+02  0.51100000000E-03 0. -1.
    9900012    2    1    2    0    0  0.20158608941E+02  0.30599787368E+01 -0.24514668699E+02  0.59302235688E+02  0.50000531916E+02 0.  0.
        -12    1    1    2    0    0 -0.20158608941E+02 -0.30599787368E+01  0.24514668699E+02  0.31885764312E+02  0.00000000000E+00 0.  1.
         11    1    3    3    0    0 -0.11700235141E+02  0.14952486504E+01 -0.20902470127E+02  0.24000927661E+02  0.51100000000E-03 0. -1.
        -11    1    3    3    0    0  0.25699292647E+02  0.65714793152E+01 -0.56168961040E+01  0.27114341317E+02  0.51100000000E-03 0.  1.
         12    1    3    3    0    0  0.61595514358E+01 -0.50067492288E+01  0.20046975319E+01  0.81869667109E+01  0.00000000000E+00 0. -1.
</event>
<event>
 7    1  0.5755468E-013  0.5930194E+02  0.7816164E-02  0.1266605E+00
        -11   -1    0    0    0    0  0.00000000000E+00  0.00000000000E+00  0.45593999997E+02  0.45594000000E+02  0.51100000000E-03 0. -1.
         11   -1    0    0    0    0 -0.00000000000E+00 -0.00000000000E+00 -0.45593999997E+02  0.45594000000E+02  0.51100000000E-03 0.  1.
    9900012    2    1    2    0    0  0.18510542964E+01  0.11841228178E+02  0.29547923351E+02  0.59301939392E+02  0.49999991545E+02 0.  0.
        -12    1    1    2    0    0 -0.18510542964E+01 -0.11841228178E+02 -0.29547923351E+02  0.31886060608E+02  0.00000000000E+00 0.  1.
         11    1    3    3    0    0 -0.12703064727E+02 -0.62131279199E+01  0.54718453908E+01  0.15162846179E+02  0.51100000000E-03 0. -1.
        -11    1    3    3    0    0  0.19118498744E+02  0.15660323182E+01  0.16977340615E+02  0.25616392136E+02  0.51100000000E-03 0.  1.
        -12    1    3    3    0    0 -0.45643797213E+01  0.16488323779E+02  0.70987373455E+01  0.18522701077E+02  0.00000000000E+00 0.  1.
</event>
<event>
 7    1  0.5755468E-013  0.5930196E+02  0.7816164E-02  0.1266605E+00
        -11   -1    0    0    0    0  0.00000000000E+00  0.00000000000E+00  0.45593999997E+02  0.45594000000E+02  0.51100000000E-03 0. -1.
         11   -1    0    0    0    0 -0.00000000000E+00 -0.00000000000E+00 -0.45593999997E+02  0.45594000000E+02  0.51100000000E-03 0.  1.
    9900012    2    1    2    0    0 -0.20497602687E+02 -0.22902534911E+02  0.84877468569E+01  0.59301958101E+02  0.50000025667E+02 0.  0.
        -12    1    1    2    0    0  0.20497602687E+02  0.22902534911E+02 -0.84877468569E+01  0.31886041899E+02  0.00000000000E+00 0.  1.
         11    1    3    3    0    0 -0.55695397200E+01 -0.25097426347E+02 -0.33153697412E+01  0.25920884605E+02  0.51100000000E-03 0. -1.
        -11    1    3    3    0    0 -0.92323686702E+00  0.42962050409E+01  0.17554504026E+02  0.18096142018E+02  0.51100000000E-03 0.  1.
        -12    1    3    3    0    0 -0.14004826100E+02 -0.21013136051E+01 -0.57513874277E+01  0.15284931478E+02  0.00000000000E+00 0.  1.
</event>
<event>
 7    1  0.5755468E-013  0.5930198E+02  0.7816164E-02  0.1266605E+00
        -11   -1    0    0    0    0  0.00000000000E+00  0.00000000000E+00  0.45593999997E+02  0.45594000000E+02  0.51100000000E-03 0. -1.
         11   -1    0    0    0    0 -0.00000000000E+00 -0.00000000000E+00 -0.45593999997E+02  0.45594000000E+02  0.51100000000E-03 0.  1.
    9900012    2    1    2    0    0 -0.11138372912E+02  0.10261041478E+02  0.28060039857E+02  0.59301981745E+02  0.50000068788E+02 0.  0.
        -12    1    1    2    0    0  0.11138372912E+02 -0.10261041478E+02 -0.28060039857E+02  0.31886018255E+02  0.00000000000E+00 0.  1.
         11    1    3    3    0    0 -0.18153673873E+02 -0.70522095304E+01  0.15963482155E+02  0.25181785027E+02  0.51100000000E-03 0. -1.
        -11    1    3    3    0    0 -0.31316950011E+01  0.20854536762E+02  0.90605687738E+01  0.22952409981E+02  0.51100000000E-03 0.  1.
        -12    1    3    3    0    0  0.10146995962E+02 -0.35412857537E+01  0.30359889280E+01  0.11167786738E+02  0.00000000000E+00 0.  1.
</event>
<event>
 7    1  0.5755468E-013  0.5930195E+02  0.7816164E-02  0.1266605E+00
        -11   -1    0    0    0    0  0.00000000000E+00  0.00000000000E+00  0.45593999997E+02  0.45594000000E+02  0.51100000000E-03 0.  1.
         11   -1    0    0    0    0 -0.00000000000E+00 -0.00000000000E+00 -0.45593999997E+02  0.45594000000E+02  0.51100000000E-03 0. -1.
    9900012    2    1    2    0    0 -0.18982512650E+01  0.31783429087E+02  0.17118215658E+01  0.59301952025E+02  0.50000014585E+02 0.  0.
        -12    1    1    2    0    0  0.18982512650E+01 -0.31783429087E+02 -0.17118215658E+01  0.31886047975E+02  0.00000000000E+00 0.  1.
         11    1    3    3    0    0 -0.33961522620E+01  0.21390117343E+02  0.11045135700E+02  0.24311848819E+02  0.51100000000E-03 0. -1.
        -11    1    3    3    0    0 -0.14888020120E+02  0.64195006677E+01 -0.79923531856E+01  0.18075974154E+02  0.51100000000E-03 0.  1.
        -12    1    3    3    0    0  0.16385921117E+02  0.39738110765E+01 -0.13409609486E+01  0.16914129052E+02  0.00000000000E+00 0.  1.
</event>
<event>
 7    1  0.5755468E-013  0.5930194E+02  0.7816164E-02  0.1266605E+00
        -11   -1    0    0    0    0  0.00000000000E+00  0.00000000000E+00  0.45593999997E+02  0.45594000000E+02  0.51100000000E-03 0. -1.
         11   -1    0    0    0    0 -0.00000000000E+00 -0.00000000000E+00 -0.45593999997E+02  0.45594000000E+02  0.51100000000E-03 0.  1.
    9900012    2    1    2    0    0 -0.21558236483E+02  0.37813461368E+01  0.23187598414E+02  0.59301939423E+02  0.49999991603E+02 0.  0.
        -12    1    1    2    0    0  0.21558236483E+02 -0.37813461368E+01 -0.23187598414E+02  0.31886060577E+02  0.00000000000E+00 0.  1.
         11    1    3    3    0    0  0.10967026500E+02  0.79705571510E+01  0.93653616383E+00  0.13589795870E+02  0.51100000000E-03 0.  1.
        -11    1    3    3    0    0 -0.22987203794E+02 -0.10057327348E+02  0.23583381497E+02  0.34434535785E+02  0.51100000000E-03 0. -1.
         12    1    3    3    0    0 -0.95380591890E+01  0.58681163334E+01 -0.13323192469E+01  0.11277607768E+02  0.00000000000E+00 0. -1.
</event>
<event>
 7    1  0.5755468E-013  0.5930194E+02  0.7816164E-02  0.1266605E+00
        -11   -1    0    0    0    0  0.00000000000E+00  0.00000000000E+00  0.45593999997E+02  0.45594000000E+02  0.51100000000E-03 0.  1.
         11   -1    0    0    0    0 -0.00000000000E+00 -0.00000000000E+00 -0.45593999997E+02  0.45594000000E+02  0.51100000000E-03 0. -1.
    9900012    2    1    2    0    0  0.14274290176E+02 -0.27763521350E+02  0.64924785167E+01  0.59301941054E+02  0.49999994577E+02 0.  0.
        -12    1    1    2    0    0 -0.14274290176E+02  0.27763521350E+02 -0.64924785167E+01  0.31886058946E+02  0.00000000000E+00 0.  1.
         11    1    3    3    0    0  0.83605643923E+01  0.14184117361E+01  0.14922569632E+01  0.86103286764E+01  0.51100000000E-03 0.  1.
        -11    1    3    3    0    0  0.73379447842E+01 -0.27885718265E+02 -0.13677792164E+02  0.31914584683E+02  0.51100000000E-03 0. -1.
        -12    1    3    3    0    0 -0.14242190002E+01 -0.12962148219E+01  0.18678013717E+02  0.18777027694E+02  0.00000000000E+00 0.  1.
</event>
<event>
 7    1  0.5755468E-013  0.5930195E+02  0.7816164E-02  0.1266605E+00
        -11   -1    0    0    0    0  0.00000000000E+00  0.00000000000E+00  0.45593999997E+02  0.45594000000E+02  0.51100000000E-03 0.  1.
         11   -1    0    0    0    0 -0.00000000000E+00 -0.00000000000E+00 -0.45593999997E+02  0.45594000000E+02  0.51100000000E-03 0. -1.
    9900012    2    1    2    0    0 -0.29949036017E+02  0.91665235058E+01  0.59791347935E+01  0.59301953453E+02  0.50000017189E+02 0.  0.
        -12    1    1    2    0    0  0.29949036017E+02 -0.91665235058E+01 -0.59791347935E+01  0.31886046547E+02  0.00000000000E+00 0.  1.
         11    1    3    3    0    0 -0.38317336677E+02  0.58357387048E+01  0.71988944658E+01  0.39422052433E+02  0.51100000000E-03 0. -1.
        -11    1    3    3    0    0  0.77709525595E+01 -0.25143737041E+01  0.63156057509E+01  0.10324565612E+02  0.51100000000E-03 0.  1.
         12    1    3    3    0    0  0.59734809977E+00  0.58451585052E+01 -0.75353654232E+01  0.95553354082E+01  0.00000000000E+00 0. -1.
</event>
<event>
 7    1  0.5755468E-013  0.5930192E+02  0.7816164E-02  0.1266605E+00
        -11   -1    0    0    0    0  0.00000000000E+00  0.00000000000E+00  0.45593999997E+02  0.45594000000E+02  0.51100000000E-03 0. -1.
         11   -1    0    0    0    0 -0.00000000000E+00 -0.00000000000E+00 -0.45593999997E+02  0.45594000000E+02  0.51100000000E-03 0.  1.
    9900012    2    1    2    0    0  0.24087214275E+02  0.14402485052E+02  0.15135940374E+02  0.59301919052E+02  0.49999954451E+02 0.  0.
        -12    1    1    2    0    0 -0.24087214275E+02 -0.14402485052E+02 -0.15135940374E+02  0.31886080948E+02  0.00000000000E+00 0.  1.
         11    1    3    3    0    0  0.34926524211E+02  0.36673930756E+01  0.40460451606E+00  0.35120870867E+02  0.51100000000E-03 0. -1.
        -11    1    3    3    0    0 -0.99465023463E+01  0.37764689074E+01  0.40133208790E+01  0.11371076074E+02  0.51100000000E-03 0.  1.
         12    1    3    3    0    0 -0.89280758936E+00  0.69586230689E+01  0.10718014979E+02  0.12809972111E+02  0.00000000000E+00 0. -1.
</event>
<event>
 7    1  0.5755468E-013  0.5930194E+02  0.7816164E-02  0.1266605E+00
        -11   -1    0    0    0    0  0.00000000000E+00  0.00000000000E+00  0.45593999997E+02  0.45594000000E+02  0.51100000000E-03 0. -1.
         11   -1    0    0    0    0 -0.00000000000E+00 -0.00000000000E+00 -0.45593999997E+02  0.45594000000E+02  0.51100000000E-03 0.  1.
    9900012    2    1    2    0    0  0.77379534432E+01 -0.15224142044E+02  0.26927126697E+02  0.59301943853E+02  0.49999999682E+02 0.  0.
        -12    1    1    2    0    0 -0.77379534432E+01  0.15224142044E+02 -0.26927126697E+02  0.31886056147E+02  0.00000000000E+00 0.  1.
         11    1    3    3    0    0 -0.52267584182E+01 -0.13679120305E+02  0.94355732844E+01  0.17420315134E+02  0.51100000000E-03 0. -1.
        -11    1    3    3    0    0  0.67717510572E+01  0.16541110757E+02  0.13381482652E+02  0.22327763786E+02  0.51100000000E-03 0.  1.
        -12    1    3    3    0    0  0.61929608043E+01 -0.18086132496E+02  0.41100707604E+01  0.19553864933E+02  0.00000000000E+00 0.  1.
</event>
<event>
 7    1  0.5755468E-013  0.5930195E+02  0.7816164E-02  0.1266605E+00
        -11   -1    0    0    0    0  0.00000000000E+00  0.00000000000E+00  0.45593999997E+02  0.45594000000E+02  0.51100000000E-03 0.  1.
         11   -1    0    0    0    0 -0.00000000000E+00 -0.00000000000E+00 -0.45593999997E+02  0.45594000000E+02  0.51100000000E-03 0. -1.
    9900012    2    1    2    0    0  0.16324427019E+02  0.17973141850E+02 -0.20668810302E+02  0.59301945607E+02  0.50000002880E+02 0.  0.
        -12    1    1    2    0    0 -0.16324427019E+02 -0.17973141850E+02  0.20668810302E+02  0.31886054393E+02  0.00000000000E+00 0.  1.
         11    1    3    3    0    0  0.95403153492E+01  0.14223617826E+02 -0.25984895501E+02  0.31121434984E+02  0.51100000000E-03 0. -1.
        -11    1    3    3    0    0  0.24865921790E+01 -0.23114127630E+01  0.15335530244E+02  0.15706822013E+02  0.51100000000E-03 0.  1.
        -12    1    3    3    0    0  0.42975194912E+01  0.60609367867E+01 -0.10019445045E+02  0.12473688609E+02  0.00000000000E+00 0.  1.
</event>
<event>
 7    1  0.5755468E-013  0.5930193E+02  0.7816164E-02  0.1266605E+00
        -11   -1    0    0    0    0  0.00000000000E+00  0.00000000000E+00  0.45593999997E+02  0.45594000000E+02  0.51100000000E-03 0. -1.
         11   -1    0    0    0    0 -0.00000000000E+00 -0.00000000000E+00 -0.45593999997E+02  0.45594000000E+02  0.51100000000E-03 0.  1.
    9900012    2    1    2    0    0  0.25406637507E+02 -0.30618914103E+01 -0.19022325592E+02  0.59301932833E+02  0.49999979584E+02 0.  0.
        -12    1    1    2    0    0 -0.25406637507E+02  0.30618914103E+01  0.19022325592E+02  0.31886067167E+02  0.00000000000E+00 0.  1.
         11    1    3    3    0    0 -0.10176908980E+02  0.67522932841E+01  0.26268683654E+01  0.12492532916E+02  0.51100000000E-03 0. -1.
        -11    1    3    3    0    0  0.29185324180E+02 -0.10203790820E+02 -0.24829676404E+02  0.39653667235E+02  0.51100000000E-03 0.  1.
         12    1    3    3    0    0  0.63982223072E+01  0.38960612598E+00  0.31804824465E+01  0.71557326822E+01  0.00000000000E+00 0. -1.
</event>
<event>
 7    1  0.5755468E-013  0.5930199E+02  0.7816164E-02  0.1266605E+00
        -11   -1    0    0    0    0  0.00000000000E+00  0.00000000000E+00  0.45593999997E+02  0.45594000000E+02  0.51100000000E-03 0.  1.
         11   -1    0    0    0    0 -0.00000000000E+00 -0.00000000000E+00 -0.45593999997E+02  0.45594000000E+02  0.51100000000E-03 0. -1.
    9900012    2    1    2    0    0  0.10790741534E+02 -0.25327438151E+02 -0.16087219375E+02  0.59301986556E+02  0.50000077561E+02 0.  0.
        -12    1    1    2    0    0 -0.10790741534E+02  0.25327438151E+02  0.16087219375E+02  0.31886013444E+02  0.00000000000E+00 0.  1.
         11    1    3    3    0    0 -0.57293614269E+01  0.97796381524E+01 -0.13203984169E+02  0.17401497147E+02  0.51100000000E-03 0. -1.
        -11    1    3    3    0    0 -0.15172478857E+01 -0.12547971479E+02  0.13384886321E+01  0.12710042543E+02  0.51100000000E-03 0.  1.
         12    1    3    3    0    0  0.18037350846E+02 -0.22559104825E+02 -0.42217238374E+01  0.29190446866E+02  0.00000000000E+00 0. -1.
</event>
<event>
 7    1  0.5755468E-013  0.5930194E+02  0.7816164E-02  0.1266605E+00
        -11   -1    0    0    0    0  0.00000000000E+00  0.00000000000E+00  0.45593999997E+02  0.45594000000E+02  0.51100000000E-03 0.  1.
         11   -1    0    0    0    0 -0.00000000000E+00 -0.00000000000E+00 -0.45593999997E+02  0.45594000000E+02  0.51100000000E-03 0. -1.
    9900012    2    1    2    0    0 -0.50244524118E+01  0.93143546253E+01 -0.30078538171E+02  0.59301940622E+02  0.49999993790E+02 0.  0.
        -12    1    1    2    0    0  0.50244524118E+01 -0.93143546253E+01  0.30078538171E+02  0.31886059378E+02  0.00000000000E+00 0.  1.
         11    1    3    3    0    0 -0.10871636927E+02 -0.14343413456E+02 -0.25457193551E+02  0.31176829582E+02  0.51100000000E-03 0. -1.
        -11    1    3    3    0    0  0.66700751523E+01  0.20845189231E+02 -0.83128270554E+01  0.23411854060E+02  0.51100000000E-03 0.  1.
         12    1    3    3    0    0 -0.82289063684E+00  0.28125788500E+01  0.36914824355E+01  0.47132569800E+01  0.00000000000E+00 0. -1.
</event>
<event>
 7    1  0.5755468E-013  0.5930194E+02  0.7816164E-02  0.1266605E+00
        -11   -1    0    0    0    0  0.00000000000E+00  0.00000000000E+00  0.45593999997E+02  0.45594000000E+02  0.51100000000E-03 0. -1.
         11   -1    0    0    0    0 -0.00000000000E+00 -0.00000000000E+00 -0.45593999997E+02  0.45594000000E+02  0.51100000000E-03 0.  1.
    9900012    2    1    2    0    0 -0.19473559669E+02  0.14576123501E+02  0.20616447328E+02  0.59301940304E+02  0.49999993209E+02 0.  0.
        -12    1    1    2    0    0  0.19473559669E+02 -0.14576123501E+02 -0.20616447328E+02  0.31886059696E+02  0.00000000000E+00 0.  1.
         11    1    3    3    0    0 -0.21521532139E+02 -0.12450331103E+02  0.14870046998E+01  0.24907795435E+02  0.51100000000E-03 0. -1.
        -11    1    3    3    0    0  0.45906793872E+01  0.13927657289E+02  0.13428007467E+02  0.19883796407E+02  0.51100000000E-03 0.  1.
         12    1    3    3    0    0 -0.25427069173E+01  0.13098797315E+02  0.57014351617E+01  0.14510348461E+02  0.00000000000E+00 0. -1.
</event>
<event>
 7    1  0.5755468E-013  0.5930193E+02  0.7816164E-02  0.1266605E+00
        -11   -1    0    0    0    0  0.00000000000E+00  0.00000000000E+00  0.45593999997E+02  0.45594000000E+02  0.51100000000E-03 0.  1.
         11   -1    0    0    0    0 -0.00000000000E+00 -0.00000000000E+00 -0.45593999997E+02  0.45594000000E+02  0.51100000000E-03 0. -1.
    9900012    2    1    2    0    0  0.90523486000E+01 -0.30165557225E+02  0.49815569543E+01  0.59301925178E+02  0.49999965622E+02 0.  0.
        -12    1    1    2    0    0 -0.90523486000E+01  0.30165557225E+02 -0.49815569543E+01  0.31886074822E+02  0.00000000000E+00 0.  1.
         11    1    3    3    0    0  0.16685664871E+01 -0.11856705092E+02  0.25589755325E+02  0.28252453834E+02  0.51100000000E-03 0. -1.
        -11    1    3    3    0    0  0.60735082648E-01  0.16095753009E+01 -0.32707872493E+01  0.36458841028E+01  0.51100000000E-03 0.  1.
         12    1    3    3    0    0  0.73230470303E+01 -0.19918427434E+02 -0.17337411122E+02  0.27403587241E+02  0.00000000000E+00 0. -1.
</event>
<event>
 7    1  0.5755468E-013  0.5930196E+02  0.7816164E-02  0.1266605E+00
        -11   -1    0    0    0    0  0.00000000000E+00  0.00000000000E+00  0.45593999997E+02  0.45594000000E+02  0.51100000000E-03 0.  1.
         11   -1    0    0    0    0 -0.00000000000E+00 -0.00000000000E+00 -0.45593999997E+02  0.45594000000E+02  0.51100000000E-03 0. -1.
    9900012    2    1    2    0    0  0.50679028512E+01  0.10680344604E+02 -0.29613617076E+02  0.59301957341E+02  0.50000024280E+02 0.  0.
        -12    1    1    2    0    0 -0.50679028512E+01 -0.10680344604E+02  0.29613617076E+02  0.31886042659E+02  0.00000000000E+00 0.  1.
         11    1    3    3    0    0 -0.10472031866E+02 -0.10115324561E+02 -0.16467189974E+02  0.21980709458E+02  0.51100000000E-03 0. -1.
        -11    1    3    3    0    0  0.17754269370E+02  0.20412955323E+02 -0.33381865930E+01  0.27258875910E+02  0.51100000000E-03 0.  1.
        -12    1    3    3    0    0 -0.22143346531E+01  0.38271384150E+00 -0.98082405091E+01  0.10062371973E+02  0.00000000000E+00 0.  1.
</event>
<event>
 7    1  0.5755468E-013  0.5930198E+02  0.7816164E-02  0.1266605E+00
        -11   -1    0    0    0    0  0.00000000000E+00  0.00000000000E+00  0.45593999997E+02  0.45594000000E+02  0.51100000000E-03 0.  1.
         11   -1    0    0    0    0 -0.00000000000E+00 -0.00000000000E+00 -0.45593999997E+02  0.45594000000E+02  0.51100000000E-03 0. -1.
    9900012    2    1    2    0    0 -0.12989113440E+02  0.10090984869E+02 -0.27316165797E+02  0.59301984924E+02  0.50000074585E+02 0.  0.
        -12    1    1    2    0    0  0.12989113440E+02 -0.10090984869E+02  0.27316165797E+02  0.31886015076E+02  0.00000000000E+00 0.  1.
         11    1    3    3    0    0 -0.16064771896E+02 -0.98577266412E+01 -0.10926797268E+02  0.21786384955E+02  0.51100000000E-03 0. -1.
        -11    1    3    3    0    0 -0.53275026380E+01  0.15462845795E+02  0.23222449040E+01  0.16518919641E+02  0.51100000000E-03 0.  1.
         12    1    3    3    0    0  0.84031610934E+01  0.44858657147E+01 -0.18711613433E+02  0.20996680329E+02  0.00000000000E+00 0. -1.
</event>
<event>
 7    1  0.5755468E-013  0.5930181E+02  0.7816164E-02  0.1266605E+00
        -11   -1    0    0    0    0  0.00000000000E+00  0.00000000000E+00  0.45593999997E+02  0.45594000000E+02  0.51100000000E-03 0.  1.
         11   -1    0    0    0    0 -0.00000000000E+00 -0.00000000000E+00 -0.45593999997E+02  0.45594000000E+02  0.51100000000E-03 0. -1.
    9900012    2    1    2    0    0  0.93897341279E+01 -0.28952353713E+02 -0.95038402400E+01  0.59301813777E+02  0.49999762453E+02 0.  0.
        -12    1    1    2    0    0 -0.93897341279E+01  0.28952353713E+02  0.95038402400E+01  0.31886186223E+02  0.00000000000E+00 0.  1.
         11    1    3    3    0    0  0.10277009384E+02 -0.25098950625E+02 -0.26731993510E+02  0.38081146537E+02  0.51100000000E-03 0. -1.
        -11    1    3    3    0    0 -0.15060038387E+01 -0.31789087495E+01  0.18948364635E+02  0.19272104997E+02  0.51100000000E-03 0.  1.
        -12    1    3    3    0    0  0.61872858276E+00 -0.67449433944E+00 -0.17202113653E+01  0.19485622428E+01  0.00000000000E+00 0.  1.
</event>
<event>
 7    1  0.5755468E-013  0.5930195E+02  0.7816164E-02  0.1266605E+00
        -11   -1    0    0    0    0  0.00000000000E+00  0.00000000000E+00  0.45593999997E+02  0.45594000000E+02  0.51100000000E-03 0. -1.
         11   -1    0    0    0    0 -0.00000000000E+00 -0.00000000000E+00 -0.45593999997E+02  0.45594000000E+02  0.51100000000E-03 0.  1.
    9900012    2    1    2    0    0 -0.25946492229E+02 -0.41789515978E+01  0.18056472567E+02  0.59301948237E+02  0.50000007676E+02 0.  0.
        -12    1    1    2    0    0  0.25946492229E+02  0.41789515978E+01 -0.18056472567E+02  0.31886051763E+02  0.00000000000E+00 0.  1.
         11    1    3    3    0    0  0.29697637075E+01 -0.13788889721E+02 -0.32625121926E+01  0.14477463945E+02  0.51100000000E-03 0.  1.
        -11    1    3    3    0    0 -0.51622000840E+01  0.13985787329E+02  0.11154374530E+02  0.18619093112E+02  0.51100000000E-03 0. -1.
        -12    1    3    3    0    0 -0.23754055853E+02 -0.43758492052E+01  0.10164610230E+02  0.26205391179E+02  0.00000000000E+00 0.  1.
</event>
<event>
 7    1  0.6412788E-013  0.5930196E+02  0.7816164E-02  0.1266605E+00
        -11   -1    0    0    0    0  0.00000000000E+00  0.00000000000E+00  0.45593999997E+02  0.45594000000E+02  0.51100000000E-03 0. -1.
         11   -1    0    0    0    0 -0.00000000000E+00 -0.00000000000E+00 -0.45593999997E+02  0.45594000000E+02  0.51100000000E-03 0.  1.
    9900012    2    1    2    0    0  0.23621286958E+02 -0.21876080036E+01 -0.21306542330E+02  0.59301959600E+02  0.50000028400E+02 0.  0.
        -12    1    1    2    0    0 -0.23621286958E+02  0.21876080036E+01  0.21306542330E+02  0.31886040400E+02  0.00000000000E+00 0.  1.
         11    1    3    3    0    0  0.15079314261E+02 -0.20005569220E+02 -0.22652665419E+02  0.33775016939E+02  0.51100000000E-03 0. -1.
        -11    1    3    3    0    0 -0.20178878958E+01  0.24976457928E+01  0.55858527445E+01  0.64429695957E+01  0.51100000000E-03 0.  1.
         12    1    3    3    0    0  0.10559860593E+02  0.15320315423E+02 -0.42397296552E+01  0.19083973065E+02  0.00000000000E+00 0. -1.
</event>
<event>
 7    1  0.5755468E-013  0.5930193E+02  0.7816164E-02  0.1266605E+00
        -11   -1    0    0    0    0  0.00000000000E+00  0.00000000000E+00  0.45593999997E+02  0.45594000000E+02  0.51100000000E-03 0.  1.
         11   -1    0    0    0    0 -0.00000000000E+00 -0.00000000000E+00 -0.45593999997E+02  0.45594000000E+02  0.51100000000E-03 0. -1.
    9900012    2    1    2    0    0  0.24351322417E+02  0.11939146253E+02 -0.16768752343E+02  0.59301934519E+02  0.49999982658E+02 0.  0.
        -12    1    1    2    0    0 -0.24351322417E+02 -0.11939146253E+02  0.16768752343E+02  0.31886065481E+02  0.00000000000E+00 0.  1.
         11    1    3    3    0    0  0.13829075017E+01 -0.13873528934E+02 -0.59857541515E+01  0.15172886715E+02  0.51100000000E-03 0.  1.
        -11    1    3    3    0    0 -0.11175222198E+01  0.17143010524E+02 -0.37934076567E+01  0.17593226187E+02  0.51100000000E-03 0. -1.
        -12    1    3    3    0    0  0.24085937135E+02  0.86696646631E+01 -0.69895905348E+01  0.26535821617E+02  0.00000000000E+00 0.  1.
</event>
<event>
 7    1  0.5755468E-013  0.5930192E+02  0.7816164E-02  0.1266605E+00
        -11   -1    0    0    0    0  0.00000000000E+00  0.00000000000E+00  0.45593999997E+02  0.45594000000E+02  0.51100000000E-03 0. -1.
         11   -1    0    0    0    0 -0.00000000000E+00 -0.00000000000E+00 -0.45593999997E+02  0.45594000000E+02  0.51100000000E-03 0.  1.
    9900012    2    1    2    0    0  0.14760257420E+02  0.23039859146E+02  0.16371375421E+02  0.59301917742E+02  0.49999952061E+02 0.  0.
        -12    1    1    2    0    0 -0.14760257420E+02 -0.23039859146E+02 -0.16371375421E+02  0.31886082258E+02  0.00000000000E+00 0.  1.
         11    1    3    3    0    0  0.79754731064E+01  0.12782103740E+02  0.40380442861E+01  0.15597953366E+02  0.51100000000E-03 0. -1.
        -11    1    3    3    0    0 -0.11598223635E+02 -0.91738722560E+00 -0.79862079677E+01  0.14111694043E+02  0.51100000000E-03 0.  1.
        -12    1    3    3    0    0  0.18383007949E+02  0.11175142632E+02  0.20319539103E+02  0.29592270333E+02  0.00000000000E+00 0.  1.
</event>
<event>
 7    1  0.5755468E-013  0.5930192E+02  0.7816164E-02  0.1266605E+00
        -11   -1    0    0    0    0  0.00000000000E+00  0.00000000000E+00  0.45593999997E+02  0.45594000000E+02  0.51100000000E-03 0. -1.
         11   -1    0    0    0    0 -0.00000000000E+00 -0.00000000000E+00 -0.45593999997E+02  0.45594000000E+02  0.51100000000E-03 0.  1.
    9900012    2    1    2    0    0 -0.11634819748E+02 -0.20127692678E+02  0.21822666815E+02  0.59301924199E+02  0.49999963836E+02 0.  0.
        -12    1    1    2    0    0  0.11634819748E+02  0.20127692678E+02 -0.21822666815E+02  0.31886075801E+02  0.00000000000E+00 0.  1.
         11    1    3    3    0    0  0.11466870983E+02 -0.11584904280E+01 -0.52064773135E+01  0.12646684802E+02  0.51100000000E-03 0.  1.
        -11    1    3    3    0    0 -0.18766214864E+02 -0.11215680637E+02  0.43398698567E+01  0.22288938582E+02  0.51100000000E-03 0. -1.
        -12    1    3    3    0    0 -0.43354758663E+01 -0.77535216135E+01  0.22689274272E+02  0.24366300814E+02  0.00000000000E+00 0.  1.
</event>
<event>
 7    1  0.5755468E-013  0.5930197E+02  0.7816164E-02  0.1266605E+00
        -11   -1    0    0    0    0  0.00000000000E+00  0.00000000000E+00  0.45593999997E+02  0.45594000000E+02  0.51100000000E-03 0.  1.
         11   -1    0    0    0    0 -0.00000000000E+00 -0.00000000000E+00 -0.45593999997E+02  0.45594000000E+02  0.51100000000E-03 0. -1.
    9900012    2    1    2    0    0  0.25978897024E+02  0.17541250431E+02 -0.58412363052E+01  0.59301974867E+02  0.50000056243E+02 0.  0.
        -12    1    1    2    0    0 -0.25978897024E+02 -0.17541250431E+02  0.58412363052E+01  0.31886025133E+02  0.00000000000E+00 0.  1.
         11    1    3    3    0    0  0.32626918981E+02  0.17173534477E+02 -0.17811577937E+02  0.40947508318E+02  0.51100000000E-03 0. -1.
        -11    1    3    3    0    0 -0.43478087035E+01  0.44582491311E+01  0.85077813744E+00  0.62851610590E+01  0.51100000000E-03 0.  1.
         12    1    3    3    0    0 -0.23002132536E+01 -0.40905331778E+01  0.11119563494E+02  0.12069305489E+02  0.00000000000E+00 0. -1.
</event>
<event>
 7    1  0.5755468E-013  0.5930193E+02  0.7816164E-02  0.1266605E+00
        -11   -1    0    0    0    0  0.00000000000E+00  0.00000000000E+00  0.45593999997E+02  0.45594000000E+02  0.51100000000E-03 0. -1.
         11   -1    0    0    0    0 -0.00000000000E+00 -0.00000000000E+00 -0.45593999997E+02  0.45594000000E+02  0.51100000000E-03 0.  1.
    9900012    2    1    2    0    0  0.75724802113E+01  0.14735915378E+02  0.27243936991E+02  0.59301925275E+02  0.49999965800E+02 0.  0.
        -12    1    1    2    0    0 -0.75724802113E+01 -0.14735915378E+02 -0.27243936991E+02  0.31886074725E+02  0.00000000000E+00 0.  1.
         11    1    3    3    0    0 -0.82893793363E+01 -0.48775657006E+01  0.21064751740E+02  0.23156602149E+02  0.51100000000E-03 0. -1.
        -11    1    3    3    0    0  0.20228136847E+02  0.73419573079E+01 -0.46303731397E+00  0.21524317904E+02  0.51100000000E-03 0.  1.
         12    1    3    3    0    0 -0.43662772997E+01  0.12271523770E+02  0.66422225648E+01  0.14621005222E+02  0.00000000000E+00 0. -1.
</event>
<event>
 7    1  0.5755468E-013  0.5930195E+02  0.7816164E-02  0.1266605E+00
        -11   -1    0    0    0    0  0.00000000000E+00  0.00000000000E+00  0.45593999997E+02  0.45594000000E+02  0.51100000000E-03 0. -1.
         11   -1    0    0    0    0 -0.00000000000E+00 -0.00000000000E+00 -0.45593999997E+02  0.45594000000E+02  0.51100000000E-03 0.  1.
    9900012    2    1    2    0    0  0.15888225202E+02  0.18470792366E+02  0.20569747461E+02  0.59301946915E+02  0.50000005266E+02 0.  0.
        -12    1    1    2    0    0 -0.15888225202E+02 -0.18470792366E+02 -0.20569747461E+02  0.31886053085E+02  0.00000000000E+00 0.  1.
         11    1    3    3    0    0 -0.74497541152E+01  0.16280433918E+02  0.15261882101E+02  0.23526079368E+02  0.51100000000E-03 0. -1.
        -11    1    3    3    0    0  0.27857423314E+02  0.53630400431E+01  0.82163379144E+01  0.29534834369E+02  0.51100000000E-03 0.  1.
         12    1    3    3    0    0 -0.45194439962E+01 -0.31726815946E+01 -0.29084725539E+01  0.62410331783E+01  0.00000000000E+00 0. -1.
</event>
<event>
 7    1  0.5755468E-013  0.5930205E+02  0.7816164E-02  0.1266604E+00
        -11   -1    0    0    0    0  0.00000000000E+00  0.00000000000E+00  0.45593999997E+02  0.45594000000E+02  0.51100000000E-03 0.  1.
         11   -1    0    0    0    0 -0.00000000000E+00 -0.00000000000E+00 -0.45593999997E+02  0.45594000000E+02  0.51100000000E-03 0. -1.
    9900012    2    1    2    0    0 -0.27690442996E+01 -0.95347653687E+01 -0.30300733378E+02  0.59302050113E+02  0.50000193474E+02 0.  0.
        -12    1    1    2    0    0  0.27690442996E+01  0.95347653687E+01  0.30300733378E+02  0.31885949887E+02  0.00000000000E+00 0.  1.
         11    1    3    3    0    0 -0.16393785143E+01 -0.96007823120E+01  0.47403445029E+01  0.10832056554E+02  0.51100000000E-03 0. -1.
        -11    1    3    3    0    0  0.40394663339E+01 -0.11933907675E+02 -0.32899897319E+02  0.35229798247E+02  0.51100000000E-03 0.  1.
        -12    1    3    3    0    0 -0.51691321192E+01  0.11999924619E+02 -0.21411805618E+01  0.13240195313E+02  0.00000000000E+00 0.  1.
</event>
<event>
 7    1  0.5755468E-013  0.5930194E+02  0.7816164E-02  0.1266605E+00
        -11   -1    0    0    0    0  0.00000000000E+00  0.00000000000E+00  0.45593999997E+02  0.45594000000E+02  0.51100000000E-03 0. -1.
         11   -1    0    0    0    0 -0.00000000000E+00 -0.00000000000E+00 -0.45593999997E+02  0.45594000000E+02  0.51100000000E-03 0.  1.
    9900012    2    1    2    0    0 -0.27411932116E+01 -0.30483540662E+02  0.89420469589E+01  0.59301943559E+02  0.49999999145E+02 0.  0.
        -12    1    1    2    0    0  0.27411932116E+01  0.30483540662E+02 -0.89420469589E+01  0.31886056441E+02  0.00000000000E+00 0.  1.
         11    1    3    3    0    0  0.10257123377E+02 -0.12442792823E+02  0.12860902855E+02  0.20626063506E+02  0.51100000000E-03 0. -1.
        -11    1    3    3    0    0 -0.12789214219E+02 -0.89615370277E+01 -0.16785816499E+02  0.22926769987E+02  0.51100000000E-03 0.  1.
        -12    1    3    3    0    0 -0.20910236965E+00 -0.90792108114E+01  0.12866960602E+02  0.15749110067E+02  0.00000000000E+00 0.  1.
</event>
<event>
 7    1  0.5755468E-013  0.5930174E+02  0.7816164E-02  0.1266605E+00
        -11   -1    0    0    0    0  0.00000000000E+00  0.00000000000E+00  0.45593999997E+02  0.45594000000E+02  0.51100000000E-03 0.  1.
         11   -1    0    0    0    0 -0.00000000000E+00 -0.00000000000E+00 -0.45593999997E+02  0.45594000000E+02  0.51100000000E-03 0. -1.
    9900012    2    1    2    0    0 -0.45734167836E+01 -0.26868738158E+02 -0.16549568387E+02  0.59301742066E+02  0.49999631668E+02 0.  0.
        -12    1    1    2    0    0  0.45734167836E+01  0.26868738158E+02  0.16549568387E+02  0.31886257934E+02  0.00000000000E+00 0.  1.
         11    1    3    3    0    0  0.10278576318E+02 -0.71839044593E+01 -0.21281834666E+02  0.24701702399E+02  0.51100000000E-03 0.  1.
        -11    1    3    3    0    0 -0.10070196754E+02 -0.94611344204E+01  0.14240427242E+02  0.19842169626E+02  0.51100000000E-03 0. -1.
         12    1    3    3    0    0 -0.47817963478E+01 -0.10223699278E+02 -0.95081609626E+01  0.14757870040E+02  0.00000000000E+00 0. -1.
</event>
<event>
 7    1  0.5755468E-013  0.5930187E+02  0.7816164E-02  0.1266605E+00
        -11   -1    0    0    0    0  0.00000000000E+00  0.00000000000E+00  0.45593999997E+02  0.45594000000E+02  0.51100000000E-03 0.  1.
         11   -1    0    0    0    0 -0.00000000000E+00 -0.00000000000E+00 -0.45593999997E+02  0.45594000000E+02  0.51100000000E-03 0. -1.
    9900012    2    1    2    0    0  0.11389940091E+01 -0.33494461318E+01 -0.31689261001E+02  0.59301868853E+02  0.49999862899E+02 0.  0.
        -12    1    1    2    0    0 -0.11389940091E+01  0.33494461318E+01  0.31689261001E+02  0.31886131147E+02  0.00000000000E+00 0.  1.
         11    1    3    3    0    0  0.11297253830E+02 -0.34090874593E+00 -0.10992464165E+01  0.11355725684E+02  0.51100000000E-03 0. -1.
        -11    1    3    3    0    0 -0.16524206882E+02 -0.12829515225E+02 -0.78003889564E+01  0.22326933111E+02  0.51100000000E-03 0.  1.
        -12    1    3    3    0    0  0.63659470610E+01  0.98209778396E+01 -0.22789625628E+02  0.25619210058E+02  0.00000000000E+00 0.  1.
</event>
<event>
 7    1  0.5755468E-013  0.5930193E+02  0.7816164E-02  0.1266605E+00
        -11   -1    0    0    0    0  0.00000000000E+00  0.00000000000E+00  0.45593999997E+02  0.45594000000E+02  0.51100000000E-03 0. -1.
         11   -1    0    0    0    0 -0.00000000000E+00 -0.00000000000E+00 -0.45593999997E+02  0.45594000000E+02  0.51100000000E-03 0.  1.
    9900012    2    1    2    0    0 -0.21033741919E+02  0.10827803158E+02  0.21379006458E+02  0.59301928785E+02  0.49999972202E+02 0.  0.
        -12    1    1    2    0    0  0.21033741919E+02 -0.10827803158E+02 -0.21379006458E+02  0.31886071215E+02  0.00000000000E+00 0.  1.
         11    1    3    3    0    0  0.58014539148E+00 -0.74419822011E+01  0.16200715117E+02  0.17837680295E+02  0.51100000000E-03 0. -1.
        -11    1    3    3    0    0 -0.22295143630E+00  0.17929325841E+02 -0.36880957952E+01  0.18306077770E+02  0.51100000000E-03 0.  1.
        -12    1    3    3    0    0 -0.21390935875E+02  0.34045951853E+00  0.88663871367E+01  0.23158170721E+02  0.00000000000E+00 0.  1.
</event>
<event>
 7    1  0.5755468E-013  0.5930193E+02  0.7816164E-02  0.1266605E+00
        -11   -1    0    0    0    0  0.00000000000E+00  0.00000000000E+00  0.45593999997E+02  0.45594000000E+02  0.51100000000E-03 0.  1.
         11   -1    0    0    0    0 -0.00000000000E+00 -0.00000000000E+00 -0.45593999997E+02  0.45594000000E+02  0.51100000000E-03 0. -1.
    9900012    2    1    2    0    0  0.13608645292E+02  0.76877229790E+01 -0.27792534949E+02  0.59301932350E+02  0.49999978703E+02 0.  0.
        -12    1    1    2    0    0 -0.13608645292E+02 -0.76877229790E+01  0.27792534949E+02  0.31886067650E+02  0.00000000000E+00 0.  1.
         11    1    3    3    0    0 -0.58645935265E-01  0.11060680130E+02 -0.25501309639E+02  0.27796742216E+02  0.51100000000E-03 0. -1.
        -11    1    3    3    0    0  0.13202985479E+02 -0.16577593202E+01  0.11507626425E+02  0.17592397725E+02  0.51100000000E-03 0.  1.
        -12    1    3    3    0    0  0.46430574767E+00 -0.17151978309E+01 -0.13798851734E+02  0.13912792409E+02  0.00000000000E+00 0.  1.
</event>
<event>
 7    1  0.5755468E-013  0.5930196E+02  0.7816164E-02  0.1266605E+00
        -11   -1    0    0    0    0  0.00000000000E+00  0.00000000000E+00  0.45593999997E+02  0.45594000000E+02  0.51100000000E-03 0.  1.
         11   -1    0    0    0    0 -0.00000000000E+00 -0.00000000000E+00 -0.45593999997E+02  0.45594000000E+02  0.51100000000E-03 0. -1.
    9900012    2    1    2    0    0 -0.14639597197E+02  0.23874690912E+02 -0.15244691589E+02  0.59301963967E+02  0.50000036365E+02 0.  0.
        -12    1    1    2    0    0  0.14639597197E+02 -0.23874690912E+02  0.15244691589E+02  0.31886036033E+02  0.00000000000E+00 0.  1.
         11    1    3    3    0    0 -0.93071920052E+01  0.49244393841E+01 -0.20309596807E+01  0.10723745789E+02  0.51100000000E-03 0.  1.
        -11    1    3    3    0    0  0.10320658520E+02 -0.95468389670E+01 -0.59340265538E+01  0.15260104782E+02  0.51100000000E-03 0. -1.
        -12    1    3    3    0    0 -0.15653063712E+02  0.28497090495E+02 -0.72797053542E+01  0.33318113396E+02  0.00000000000E+00 0.  1.
</event>
<event>
 7    1  0.5755468E-013  0.5930190E+02  0.7816164E-02  0.1266605E+00
        -11   -1    0    0    0    0  0.00000000000E+00  0.00000000000E+00  0.45593999997E+02  0.45594000000E+02  0.51100000000E-03 0.  1.
         11   -1    0    0    0    0 -0.00000000000E+00 -0.00000000000E+00 -0.45593999997E+02  0.45594000000E+02  0.51100000000E-03 0. -1.
    9900012    2    1    2    0    0 -0.39420969505E+01 -0.13553625373E+02  0.28591647188E+02  0.59301903061E+02  0.49999925286E+02 0.  0.
        -12    1    1    2    0    0  0.39420969505E+01  0.13553625373E+02 -0.28591647188E+02  0.31886096939E+02  0.00000000000E+00 0.  1.
         11    1    3    3    0    0 -0.14016260393E+00 -0.31386650538E+02  0.10423840334E+02  0.33072615940E+02  0.51100000000E-03 0. -1.
        -11    1    3    3    0    0 -0.39830333429E+01  0.93404841178E+01  0.76715831754E+01  0.12726444391E+02  0.51100000000E-03 0.  1.
         12    1    3    3    0    0  0.18109899636E+00  0.84925410469E+01  0.10496223678E+02  0.13502842730E+02  0.00000000000E+00 0. -1.
</event>
<event>
 7    1  0.5755468E-013  0.5930195E+02  0.7816164E-02  0.1266605E+00
        -11   -1    0    0    0    0  0.00000000000E+00  0.00000000000E+00  0.45593999997E+02  0.45594000000E+02  0.51100000000E-03 0. -1.
         11   -1    0    0    0    0 -0.00000000000E+00 -0.00000000000E+00 -0.45593999997E+02  0.45594000000E+02  0.51100000000E-03 0.  1.
    9900012    2    1    2    0    0  0.19072261285E+02 -0.47591121416E+00  0.25548822662E+02  0.59301953186E+02  0.50000016703E+02 0.  0.
        -12    1    1    2    0    0 -0.19072261285E+02  0.47591121416E+00 -0.25548822662E+02  0.31886046814E+02  0.00000000000E+00 0.  1.
         11    1    3    3    0    0  0.93456348621E+00  0.10675944428E+02  0.11911102693E+02  0.16022595482E+02  0.51100000000E-03 0. -1.
        -11    1    3    3    0    0  0.25106430326E+02 -0.90596107040E+01  0.20206335429E+02  0.33476938055E+02  0.51100000000E-03 0.  1.
        -12    1    3    3    0    0 -0.69687325271E+01 -0.20922449384E+01 -0.65686154602E+01  0.98024196493E+01  0.00000000000E+00 0.  1.
</event>
<event>
 7    1  0.5755468E-013  0.5930189E+02  0.7816164E-02  0.1266605E+00
        -11   -1    0    0    0    0  0.00000000000E+00  0.00000000000E+00  0.45593999997E+02  0.45594000000E+02  0.51100000000E-03 0. -1.
         11   -1    0    0    0    0 -0.00000000000E+00 -0.00000000000E+00 -0.45593999997E+02  0.45594000000E+02  0.51100000000E-03 0.  1.
    9900012    2    1    2    0    0  0.23596012949E+02 -0.21326640643E+02 -0.22641258588E+01  0.59301894968E+02  0.49999910527E+02 0.  0.
        -12    1    1    2    0    0 -0.23596012949E+02  0.21326640643E+02  0.22641258588E+01  0.31886105032E+02  0.00000000000E+00 0.  1.
         11    1    3    3    0    0  0.26120026042E+02 -0.65342263165E+01 -0.71034348953E+01  0.27846196537E+02  0.51100000000E-03 0. -1.
        -11    1    3    3    0    0 -0.81274677787E+01 -0.88174716523E+01  0.14482637985E+02  0.18802934401E+02  0.51100000000E-03 0.  1.
         12    1    3    3    0    0  0.56034546856E+01 -0.59749426745E+01 -0.96433289487E+01  0.12652764030E+02  0.00000000000E+00 0. -1.
</event>
<event>
 7    1  0.5755468E-013  0.5930193E+02  0.7816164E-02  0.1266605E+00
        -11   -1    0    0    0    0  0.00000000000E+00  0.00000000000E+00  0.45593999997E+02  0.45594000000E+02  0.51100000000E-03 0. -1.
         11   -1    0    0    0    0 -0.00000000000E+00 -0.00000000000E+00 -0.45593999997E+02  0.45594000000E+02  0.51100000000E-03 0.  1.
    9900012    2    1    2    0    0  0.93526333035E+01 -0.11149566664E+02  0.28371412347E+02  0.59301927413E+02  0.49999969698E+02 0.  0.
        -12    1    1    2    0    0 -0.93526333035E+01  0.11149566664E+02 -0.28371412347E+02  0.31886072587E+02  0.00000000000E+00 0.  1.
         11    1    3    3    0    0 -0.39702671578E+01 -0.21234010949E+02  0.17495411835E+02  0.27798123638E+02  0.51100000000E-03 0. -1.
        -11    1    3    3    0    0  0.46640574972E+01  0.56141320048E+01 -0.76487311511E+01  0.10572369601E+02  0.51100000000E-03 0.  1.
        -12    1    3    3    0    0  0.86588429641E+01  0.44703122801E+01  0.18524731663E+02  0.20931434173E+02  0.00000000000E+00 0.  1.
</event>
<event>
 7    1  0.5755468E-013  0.5930180E+02  0.7816164E-02  0.1266605E+00
        -11   -1    0    0    0    0  0.00000000000E+00  0.00000000000E+00  0.45593999997E+02  0.45594000000E+02  0.51100000000E-03 0.  1.
         11   -1    0    0    0    0 -0.00000000000E+00 -0.00000000000E+00 -0.45593999997E+02  0.45594000000E+02  0.51100000000E-03 0. -1.
    9900012    2    1    2    0    0  0.28533428083E+02 -0.83283050982E+01 -0.11541769077E+02  0.59301802086E+02  0.49999741132E+02 0.  0.
        -12    1    1    2    0    0 -0.28533428083E+02  0.83283050982E+01  0.11541769077E+02  0.31886197914E+02  0.00000000000E+00 0.  1.
         11    1    3    3    0    0  0.54058492070E+01  0.49268315868E+01 -0.71585197201E+01  0.10234318735E+02  0.51100000000E-03 0. -1.
        -11    1    3    3    0    0  0.22966437571E+02 -0.24683891535E+01  0.14533705907E+02  0.27290635891E+02  0.51100000000E-03 0.  1.
        -12    1    3    3    0    0  0.16114130516E+00 -0.10786747532E+02 -0.18916955264E+02  0.21776847460E+02  0.00000000000E+00 0.  1.
</event>
<event>
 7    1  0.5755468E-013  0.5930192E+02  0.7816164E-02  0.1266605E+00
        -11   -1    0    0    0    0  0.00000000000E+00  0.00000000000E+00  0.45593999997E+02  0.45594000000E+02  0.51100000000E-03 0.  1.
         11   -1    0    0    0    0 -0.00000000000E+00 -0.00000000000E+00 -0.45593999997E+02  0.45594000000E+02  0.51100000000E-03 0. -1.
    9900012    2    1    2    0    0 -0.30676086352E+02  0.68412836266E+01 -0.53755529132E+01  0.59301921460E+02  0.49999958842E+02 0.  0.
        -12    1    1    2    0    0  0.30676086352E+02 -0.68412836266E+01  0.53755529132E+01  0.31886078540E+02  0.00000000000E+00 0.  1.
         11    1    3    3    0    0 -0.96010472930E+00  0.12726629376E+02 -0.56426632706E+01  0.13954517025E+02  0.51100000000E-03 0. -1.
        -11    1    3    3    0    0 -0.32606639145E+02 -0.88383134466E+01 -0.92035473130E+01  0.35014482494E+02  0.51100000000E-03 0.  1.
        -12    1    3    3    0    0  0.28906575223E+01  0.29529676974E+01  0.94706576704E+01  0.10332921941E+02  0.00000000000E+00 0.  1.
</event>
<event>
 7    1  0.5755468E-013  0.5930194E+02  0.7816164E-02  0.1266605E+00
        -11   -1    0    0    0    0  0.00000000000E+00  0.00000000000E+00  0.45593999997E+02  0.45594000000E+02  0.51100000000E-03 0. -1.
         11   -1    0    0    0    0 -0.00000000000E+00 -0.00000000000E+00 -0.45593999997E+02  0.45594000000E+02  0.51100000000E-03 0.  1.
    9900012    2    1    2    0    0 -0.26907004466E+02 -0.15464619514E+02  0.73197902390E+01  0.59301942307E+02  0.49999996862E+02 0.  0.
        -12    1    1    2    0    0  0.26907004466E+02  0.15464619514E+02 -0.73197902390E+01  0.31886057693E+02  0.00000000000E+00 0.  1.
         11    1    3    3    0    0 -0.15548533445E+02  0.96389397916E+01 -0.47043254170E+01  0.18889063780E+02  0.51100000000E-03 0.  1.
        -11    1    3    3    0    0  0.38522101797E+01 -0.21521570114E+02  0.22451793612E+01  0.21978588082E+02  0.51100000000E-03 0. -1.
         12    1    3    3    0    0 -0.15210681201E+02 -0.35819891917E+01  0.97789362948E+01  0.18434290445E+02  0.00000000000E+00 0. -1.
</event>
<event>
 7    1  0.5755468E-013  0.5930196E+02  0.7816164E-02  0.1266605E+00
        -11   -1    0    0    0    0  0.00000000000E+00  0.00000000000E+00  0.45593999997E+02  0.45594000000E+02  0.51100000000E-03 0.  1.
         11   -1    0    0    0    0 -0.00000000000E+00 -0.00000000000E+00 -0.45593999997E+02  0.45594000000E+02  0.51100000000E-03 0. -1.
    9900012    2    1    2    0    0  0.26278558798E+02 -0.66189281374E+01 -0.16803171244E+02  0.59301961895E+02  0.50000032586E+02 0.  0.
        -12    1    1    2    0    0 -0.26278558798E+02  0.66189281374E+01  0.16803171244E+02  0.31886038105E+02  0.00000000000E+00 0.  1.
         11    1    3    3    0    0  0.66834191206E+01  0.10510331896E+02  0.94717317788E+01  0.15647647454E+02  0.51100000000E-03 0. -1.
        -11    1    3    3    0    0  0.29979127527E+01 -0.17190012405E+02 -0.18141041099E+02  0.25171042484E+02  0.51100000000E-03 0.  1.
         12    1    3    3    0    0  0.16597226924E+02  0.60752371912E-01 -0.81338619243E+01  0.18483271957E+02  0.00000000000E+00 0. -1.
</event>
<event>
 7    1  0.5755468E-013  0.5930197E+02  0.7816164E-02  0.1266605E+00
        -11   -1    0    0    0    0  0.00000000000E+00  0.00000000000E+00  0.45593999997E+02  0.45594000000E+02  0.51100000000E-03 0.  1.
         11   -1    0    0    0    0 -0.00000000000E+00 -0.00000000000E+00 -0.45593999997E+02  0.45594000000E+02  0.51100000000E-03 0. -1.
    9900012    2    1    2    0    0  0.29383793531E+02 -0.12116699614E+02 -0.25489369031E+01  0.59301971538E+02  0.50000050171E+02 0.  0.
        -12    1    1    2    0    0 -0.29383793531E+02  0.12116699614E+02  0.25489369031E+01  0.31886028462E+02  0.00000000000E+00 0.  1.
         11    1    3    3    0    0  0.27033199350E+02  0.72485593884E+01 -0.81719821317E+01  0.29156762038E+02  0.51100000000E-03 0. -1.
        -11    1    3    3    0    0  0.11362573264E+02 -0.16366934243E+02  0.21828354134E+01  0.20043686747E+02  0.51100000000E-03 0.  1.
         12    1    3    3    0    0 -0.90119790834E+01 -0.29983247588E+01  0.34402098152E+01  0.10101522753E+02  0.00000000000E+00 0. -1.
</event>
<event>
 7    1  0.5755468E-013  0.5930196E+02  0.7816164E-02  0.1266605E+00
        -11   -1    0    0    0    0  0.00000000000E+00  0.00000000000E+00  0.45593999997E+02  0.45594000000E+02  0.51100000000E-03 0. -1.
         11   -1    0    0    0    0 -0.00000000000E+00 -0.00000000000E+00 -0.45593999997E+02  0.45594000000E+02  0.51100000000E-03 0.  1.
    9900012    2    1    2    0    0 -0.31395580061E+02 -0.46640121693E+01  0.30470276578E+01  0.59301955491E+02  0.50000020906E+02 0.  0.
        -12    1    1    2    0    0  0.31395580061E+02  0.46640121693E+01 -0.30470276578E+01  0.31886044509E+02  0.00000000000E+00 0.  1.
         11    1    3    3    0    0 -0.73003533996E+01  0.74727103712E+01  0.30608199005E+01  0.10886008395E+02  0.51100000000E-03 0. -1.
        -11    1    3    3    0    0 -0.36132803517E+01 -0.20939182978E+02  0.10576116209E+02  0.23735193553E+02  0.51100000000E-03 0.  1.
        -12    1    3    3    0    0 -0.20481946310E+02  0.88024604379E+01 -0.10589908451E+02  0.24680753542E+02  0.00000000000E+00 0.  1.
</event>
<event>
 7    1  0.5755468E-013  0.5930193E+02  0.7816164E-02  0.1266605E+00
        -11   -1    0    0    0    0  0.00000000000E+00  0.00000000000E+00  0.45593999997E+02  0.45594000000E+02  0.51100000000E-03 0. -1.
         11   -1    0    0    0    0 -0.00000000000E+00 -0.00000000000E+00 -0.45593999997E+02  0.45594000000E+02  0.51100000000E-03 0.  1.
    9900012    2    1    2    0    0 -0.30062193186E+02  0.93768554897E+01 -0.50060598498E+01  0.59301929166E+02  0.49999972896E+02 0.  0.
        -12    1    1    2    0    0  0.30062193186E+02 -0.93768554897E+01  0.50060598498E+01  0.31886070834E+02  0.00000000000E+00 0.  1.
         11    1    3    3    0    0 -0.52569397934E+01 -0.17581371803E+01  0.81305748695E+01  0.98403612894E+01  0.51100000000E-03 0. -1.
        -11    1    3    3    0    0 -0.26570352376E+02  0.13215246888E+02 -0.24059455839E+02  0.38203190851E+02  0.51100000000E-03 0.  1.
        -12    1    3    3    0    0  0.17650989834E+01 -0.20802542180E+01  0.10922821120E+02  0.11258377025E+02  0.00000000000E+00 0.  1.
</event>
<event>
 7    1  0.5755468E-013  0.5930194E+02  0.7816164E-02  0.1266605E+00
        -11   -1    0    0    0    0  0.00000000000E+00  0.00000000000E+00  0.45593999997E+02  0.45594000000E+02  0.51100000000E-03 0. -1.
         11   -1    0    0    0    0 -0.00000000000E+00 -0.00000000000E+00 -0.45593999997E+02  0.45594000000E+02  0.51100000000E-03 0.  1.
    9900012    2    1    2    0    0  0.28238058381E+02  0.14499734849E+02  0.30150141870E+01  0.59301944076E+02  0.50000000088E+02 0.  0.
        -12    1    1    2    0    0 -0.28238058381E+02 -0.14499734849E+02 -0.30150141870E+01  0.31886055924E+02  0.00000000000E+00 0.  1.
         11    1    3    3    0    0 -0.46117701361E+01  0.65309423361E+01 -0.11825601565E+02  0.14274679829E+02  0.51100000000E-03 0. -1.
        -11    1    3    3    0    0  0.67048127673E+01  0.48203215607E+00  0.16463590837E+02  0.17783045092E+02  0.51100000000E-03 0.  1.
        -12    1    3    3    0    0  0.26145015750E+02  0.74867603565E+01 -0.16229750853E+01  0.27244219155E+02  0.00000000000E+00 0.  1.
</event>
<event>
 7    1  0.5755468E-013  0.5930196E+02  0.7816164E-02  0.1266605E+00
        -11   -1    0    0    0    0  0.00000000000E+00  0.00000000000E+00  0.45593999997E+02  0.45594000000E+02  0.51100000000E-03 0.  1.
         11   -1    0    0    0    0 -0.00000000000E+00 -0.00000000000E+00 -0.45593999997E+02  0.45594000000E+02  0.51100000000E-03 0. -1.
    9900012    2    1    2    0    0  0.19550867944E+02 -0.15566061061E+02 -0.19803557473E+02  0.59301959435E+02  0.50000028099E+02 0.  0.
        -12    1    1    2    0    0 -0.19550867944E+02  0.15566061061E+02  0.19803557473E+02  0.31886040565E+02  0.00000000000E+00 0.  1.
         11    1    3    3    0    0  0.77211894940E+01 -0.20899095674E+02  0.46669493184E+01  0.22763334189E+02  0.51100000000E-03 0.  1.
        -11    1    3    3    0    0  0.23180730990E+01  0.58675348523E+01 -0.26119273855E+02  0.26870390676E+02  0.51100000000E-03 0. -1.
         12    1    3    3    0    0  0.95116053512E+01 -0.53450023862E+00  0.16487670634E+01  0.96682345696E+01  0.00000000000E+00 0. -1.
</event>
<event>
 7    1  0.5755468E-013  0.5930194E+02  0.7816164E-02  0.1266605E+00
        -11   -1    0    0    0    0  0.00000000000E+00  0.00000000000E+00  0.45593999997E+02  0.45594000000E+02  0.51100000000E-03 0.  1.
         11   -1    0    0    0    0 -0.00000000000E+00 -0.00000000000E+00 -0.45593999997E+02  0.45594000000E+02  0.51100000000E-03 0. -1.
    9900012    2    1    2    0    0  0.31318330115E+02  0.59229374859E+01  0.89535565470E+00  0.59301942680E+02  0.49999997542E+02 0.  0.
        -12    1    1    2    0    0 -0.31318330115E+02 -0.59229374859E+01 -0.89535565470E+00  0.31886057320E+02  0.00000000000E+00 0.  1.
         11    1    3    3    0    0  0.35415927459E+02  0.17230745261E+02 -0.10424328353E+02  0.40741295045E+02  0.51100000000E-03 0. -1.
        -11    1    3    3    0    0 -0.38970126752E+01 -0.10255569273E+02  0.48368897317E+01  0.11989950435E+02  0.51100000000E-03 0.  1.
         12    1    3    3    0    0 -0.20058466911E+00 -0.10522385024E+01  0.64827942758E+01  0.65706972003E+01  0.00000000000E+00 0. -1.
</event>
<event>
 7    1  0.5755468E-013  0.5930189E+02  0.7816164E-02  0.1266605E+00
        -11   -1    0    0    0    0  0.00000000000E+00  0.00000000000E+00  0.45593999997E+02  0.45594000000E+02  0.51100000000E-03 0.  1.
         11   -1    0    0    0    0 -0.00000000000E+00 -0.00000000000E+00 -0.45593999997E+02  0.45594000000E+02  0.51100000000E-03 0. -1.
    9900012    2    1    2    0    0  0.79881858373E+01  0.27701445062E+02 -0.13621412671E+02  0.59301889314E+02  0.49999900216E+02 0.  0.
        -12    1    1    2    0    0 -0.79881858373E+01 -0.27701445062E+02  0.13621412671E+02  0.31886110686E+02  0.00000000000E+00 0.  1.
         11    1    3    3    0    0  0.13808463065E+02  0.67185825782E+01  0.10648443942E+02  0.18686957022E+02  0.51100000000E-03 0. -1.
        -11    1    3    3    0    0 -0.73733138596E+01 -0.33891526297E+01 -0.68142961897E+01  0.10596544042E+02  0.51100000000E-03 0.  1.
         12    1    3    3    0    0  0.15530366314E+01  0.24372015114E+02 -0.17455560423E+02  0.30018388250E+02  0.00000000000E+00 0. -1.
</event>
<event>
 7    1  0.5755468E-013  0.5930194E+02  0.7816164E-02  0.1266605E+00
        -11   -1    0    0    0    0  0.00000000000E+00  0.00000000000E+00  0.45593999997E+02  0.45594000000E+02  0.51100000000E-03 0.  1.
         11   -1    0    0    0    0 -0.00000000000E+00 -0.00000000000E+00 -0.45593999997E+02  0.45594000000E+02  0.51100000000E-03 0. -1.
    9900012    2    1    2    0    0  0.26001360819E+02 -0.17818771281E+02  0.48105739489E+01  0.59301937274E+02  0.49999987684E+02 0.  0.
        -12    1    1    2    0    0 -0.26001360819E+02  0.17818771281E+02 -0.48105739489E+01  0.31886062726E+02  0.00000000000E+00 0.  1.
         11    1    3    3    0    0  0.10513366139E+02 -0.27859225449E+02  0.77427114031E+01  0.30767139782E+02  0.51100000000E-03 0. -1.
        -11    1    3    3    0    0  0.43176283822E+01  0.13518105379E+02 -0.74086540851E+01  0.16008411648E+02  0.51100000000E-03 0.  1.
        -12    1    3    3    0    0  0.11170366298E+02 -0.34776512111E+01  0.44765166310E+01  0.12526385844E+02  0.00000000000E+00 0.  1.
</event>
<event>
 7    1  0.5755468E-013  0.5930191E+02  0.7816164E-02  0.1266605E+00
        -11   -1    0    0    0    0  0.00000000000E+00  0.00000000000E+00  0.45593999997E+02  0.45594000000E+02  0.51100000000E-03 0. -1.
         11   -1    0    0    0    0 -0.00000000000E+00 -0.00000000000E+00 -0.45593999997E+02  0.45594000000E+02  0.51100000000E-03 0.  1.
    9900012    2    1    2    0    0  0.51225945013E+01  0.24342158020E+02  0.19948454866E+02  0.59301913958E+02  0.49999945161E+02 0.  0.
        -12    1    1    2    0    0 -0.51225945013E+01 -0.24342158020E+02 -0.19948454866E+02  0.31886086042E+02  0.00000000000E+00 0.  1.
         11    1    3    3    0    0 -0.97207891279E+01  0.33398172727E+02  0.18940539891E+02  0.39606511263E+02  0.51100000000E-03 0. -1.
        -11    1    3    3    0    0  0.94642626975E+00 -0.51445140565E+01  0.15008321754E+00  0.52329984517E+01  0.51100000000E-03 0.  1.
         12    1    3    3    0    0  0.13896957359E+02 -0.39115006507E+01  0.85783175751E+00  0.14462404244E+02  0.00000000000E+00 0. -1.
</event>
<event>
 7    1  0.5755468E-013  0.5930193E+02  0.7816164E-02  0.1266605E+00
        -11   -1    0    0    0    0  0.00000000000E+00  0.00000000000E+00  0.45593999997E+02  0.45594000000E+02  0.51100000000E-03 0.  1.
         11   -1    0    0    0    0 -0.00000000000E+00 -0.00000000000E+00 -0.45593999997E+02  0.45594000000E+02  0.51100000000E-03 0. -1.
    9900012    2    1    2    0    0  0.17189210532E+02 -0.58895204053E+01 -0.26202401230E+02  0.59301933458E+02  0.49999980723E+02 0.  0.
        -12    1    1    2    0    0 -0.17189210532E+02  0.58895204053E+01  0.26202401230E+02  0.31886066542E+02  0.00000000000E+00 0.  1.
         11    1    3    3    0    0  0.20941149829E+02  0.10006807701E+02 -0.25580092210E+02  0.34539963437E+02  0.51100000000E-03 0. -1.
        -11    1    3    3    0    0  0.26536606388E+00 -0.19231081112E+02  0.10995672007E+01  0.19264318004E+02  0.51100000000E-03 0.  1.
        -12    1    3    3    0    0 -0.40173053611E+01  0.33347530057E+01 -0.17218762206E+01  0.54976520163E+01  0.00000000000E+00 0.  1.
</event>
<event>
 7    1  0.5755468E-013  0.5930194E+02  0.7816164E-02  0.1266605E+00
        -11   -1    0    0    0    0  0.00000000000E+00  0.00000000000E+00  0.45593999997E+02  0.45594000000E+02  0.51100000000E-03 0.  1.
         11   -1    0    0    0    0 -0.00000000000E+00 -0.00000000000E+00 -0.45593999997E+02  0.45594000000E+02  0.51100000000E-03 0. -1.
    9900012    2    1    2    0    0  0.14054692034E+02  0.20784600539E+02 -0.19677066571E+02  0.59301938209E+02  0.49999989387E+02 0.  0.
        -12    1    1    2    0    0 -0.14054692034E+02 -0.20784600539E+02  0.19677066571E+02  0.31886061791E+02  0.00000000000E+00 0.  1.
         11    1    3    3    0    0  0.90240998685E+00  0.95103994475E+01 -0.55832126711E+00  0.95694181816E+01  0.51100000000E-03 0. -1.
        -11    1    3    3    0    0  0.16250966315E+02 -0.12824858668E+02 -0.13740394033E+02  0.24846918008E+02  0.51100000000E-03 0.  1.
        -12    1    3    3    0    0 -0.30986842676E+01  0.24099059759E+02 -0.53783512701E+01  0.24885602019E+02  0.00000000000E+00 0.  1.
</event>
<event>
 7    1  0.5755468E-013  0.5930191E+02  0.7816164E-02  0.1266605E+00
        -11   -1    0    0    0    0  0.00000000000E+00  0.00000000000E+00  0.45593999997E+02  0.45594000000E+02  0.51100000000E-03 0.  1.
         11   -1    0    0    0    0 -0.00000000000E+00 -0.00000000000E+00 -0.45593999997E+02  0.45594000000E+02  0.51100000000E-03 0. -1.
    9900012    2    1    2    0    0  0.10102742565E+01 -0.22288082972E+02 -0.22780333258E+02  0.59301907734E+02  0.49999933809E+02 0.  0.
        -12    1    1    2    0    0 -0.10102742565E+01  0.22288082972E+02  0.22780333258E+02  0.31886092266E+02  0.00000000000E+00 0.  1.
         11    1    3    3    0    0 -0.12323178780E+02  0.40078512364E+01 -0.18296028513E+01  0.13087056721E+02  0.51100000000E-03 0. -1.
        -11    1    3    3    0    0  0.54078311656E+01 -0.30796664884E+02 -0.19844577723E+02  0.37033585718E+02  0.51100000000E-03 0.  1.
        -12    1    3    3    0    0  0.79256218708E+01  0.45007306753E+01 -0.11061526842E+01  0.91812652946E+01  0.00000000000E+00 0.  1.
</event>
<event>
 7    1  0.5755468E-013  0.5930195E+02  0.7816164E-02  0.1266605E+00
        -11   -1    0    0    0    0  0.00000000000E+00  0.00000000000E+00  0.45593999997E+02  0.45594000000E+02  0.51100000000E-03 0. -1.
         11   -1    0    0    0    0 -0.00000000000E+00 -0.00000000000E+00 -0.45593999997E+02  0.45594000000E+02  0.51100000000E-03 0.  1.
    9900012    2    1    2    0    0 -0.14807467992E+02  0.27756569958E+02  0.51992187910E+01  0.59301950383E+02  0.50000011590E+02 0.  0.
        -12    1    1    2    0    0  0.14807467992E+02 -0.27756569958E+02 -0.51992187910E+01  0.31886049617E+02  0.00000000000E+00 0.  1.
         11    1    3    3    0    0 -0.10423757408E+02  0.44913760685E+01 -0.46565890503E+01  0.12268292438E+02  0.51100000000E-03 0. -1.
        -11    1    3    3    0    0  0.72421300935E+01  0.23086382299E+02  0.20162982428E+02  0.31495640279E+02  0.51100000000E-03 0.  1.
        -12    1    3    3    0    0 -0.11625840678E+02  0.17881159037E+00 -0.10307174586E+02  0.15538017666E+02  0.00000000000E+00 0.  1.
</event>
<event>
 7    1  0.5755468E-013  0.5930195E+02  0.7816164E-02  0.1266605E+00
        -11   -1    0    0    0    0  0.00000000000E+00  0.00000000000E+00  0.45593999997E+02  0.45594000000E+02  0.51100000000E-03 0.  1.
         11   -1    0    0    0    0 -0.00000000000E+00 -0.00000000000E+00 -0.45593999997E+02  0.45594000000E+02  0.51100000000E-03 0. -1.
    9900012    2    1    2    0    0  0.67070631453E+01 -0.15794933875E+02 -0.26874816842E+02  0.59301946428E+02  0.50000004377E+02 0.  0.
        -12    1    1    2    0    0 -0.67070631453E+01  0.15794933875E+02  0.26874816842E+02  0.31886053572E+02  0.00000000000E+00 0.  1.
         11    1    3    3    0    0  0.18288338765E+01 -0.26683551966E+02 -0.20496222958E+02  0.33696464721E+02  0.51100000000E-03 0. -1.
        -11    1    3    3    0    0  0.19397228662E+01 -0.12549763427E+01  0.69575283815E+01  0.73310771281E+01  0.51100000000E-03 0.  1.
         12    1    3    3    0    0  0.29385064027E+01  0.12143594434E+02 -0.13336122265E+02  0.18274404579E+02  0.00000000000E+00 0. -1.
</event>
<event>
 7    1  0.7559525E-013  0.5930198E+02  0.7816164E-02  0.1266605E+00
        -11   -1    0    0    0    0  0.00000000000E+00  0.00000000000E+00  0.45593999997E+02  0.45594000000E+02  0.51100000000E-03 0. -1.
         11   -1    0    0    0    0 -0.00000000000E+00 -0.00000000000E+00 -0.45593999997E+02  0.45594000000E+02  0.51100000000E-03 0.  1.
    9900012    2    1    2    0    0  0.18879763152E+01 -0.25359017760E+02  0.19237301658E+02  0.59301984077E+02  0.50000073040E+02 0.  0.
        -12    1    1    2    0    0 -0.18879763152E+01  0.25359017760E+02 -0.19237301658E+02  0.31886015923E+02  0.00000000000E+00 0.  1.
         11    1    3    3    0    0 -0.12776398877E+02 -0.21293471043E+02  0.21895690605E+02  0.33106941034E+02  0.51100000000E-03 0. -1.
        -11    1    3    3    0    0  0.59842038051E+00 -0.72354296552E+01 -0.80142166944E+01  0.10813751372E+02  0.51100000000E-03 0.  1.
         12    1    3    3    0    0  0.14065954812E+02  0.31698829376E+01  0.53558277476E+01  0.15381291671E+02  0.00000000000E+00 0. -1.
</event>
<event>
 7    1  0.5755468E-013  0.5930195E+02  0.7816164E-02  0.1266605E+00
        -11   -1    0    0    0    0  0.00000000000E+00  0.00000000000E+00  0.45593999997E+02  0.45594000000E+02  0.51100000000E-03 0. -1.
         11   -1    0    0    0    0 -0.00000000000E+00 -0.00000000000E+00 -0.45593999997E+02  0.45594000000E+02  0.51100000000E-03 0.  1.
    9900012    2    1    2    0    0 -0.26308442255E+02  0.61678872971E+01  0.16927596587E+02  0.59301945152E+02  0.50000002050E+02 0.  0.
        -12    1    1    2    0    0  0.26308442255E+02 -0.61678872971E+01 -0.16927596587E+02  0.31886054848E+02  0.00000000000E+00 0.  1.
         11    1    3    3    0    0 -0.28643565666E+02 -0.21694157913E+01  0.18665260456E+02  0.34257147678E+02  0.51100000000E-03 0. -1.
        -11    1    3    3    0    0 -0.18131781379E+01  0.82564132655E+01 -0.11595363194E+02  0.14349509498E+02  0.51100000000E-03 0.  1.
        -12    1    3    3    0    0  0.41483015488E+01  0.80889822895E-01  0.98576993251E+01  0.10695287976E+02  0.00000000000E+00 0.  1.
</event>
<event>
 7    1  0.5755468E-013  0.5930193E+02  0.7816164E-02  0.1266605E+00
        -11   -1    0    0    0    0  0.00000000000E+00  0.00000000000E+00  0.45593999997E+02  0.45594000000E+02  0.51100000000E-03 0. -1.
         11   -1    0    0    0    0 -0.00000000000E+00 -0.00000000000E+00 -0.45593999997E+02  0.45594000000E+02  0.51100000000E-03 0.  1.
    9900012    2    1    2    0    0 -0.19955417553E+02  0.24317753358E+02 -0.52105266202E+01  0.59301930851E+02  0.49999975969E+02 0.  0.
        -12    1    1    2    0    0  0.19955417553E+02 -0.24317753358E+02  0.52105266202E+01  0.31886069149E+02  0.00000000000E+00 0.  1.
         11    1    3    3    0    0  0.50640116734E+01 -0.56157072628E+01 -0.11482551259E+02  0.13748795073E+02  0.51100000000E-03 0. -1.
        -11    1    3    3    0    0 -0.15370703635E+02  0.80952291050E+01 -0.64125521179E+01  0.18517885663E+02  0.51100000000E-03 0.  1.
         12    1    3    3    0    0 -0.96487255910E+01  0.21838231516E+02  0.12684576757E+02  0.27035250115E+02  0.00000000000E+00 0. -1.
</event>
<event>
 7    1  0.5755468E-013  0.5930191E+02  0.7816164E-02  0.1266605E+00
        -11   -1    0    0    0    0  0.00000000000E+00  0.00000000000E+00  0.45593999997E+02  0.45594000000E+02  0.51100000000E-03 0.  1.
         11   -1    0    0    0    0 -0.00000000000E+00 -0.00000000000E+00 -0.45593999997E+02  0.45594000000E+02  0.51100000000E-03 0. -1.
    9900012    2    1    2    0    0  0.23788719020E+02 -0.83480002757E+01 -0.19522566831E+02  0.59301907783E+02  0.49999933898E+02 0.  0.
        -12    1    1    2    0    0 -0.23788719020E+02  0.83480002757E+01  0.19522566831E+02  0.31886092217E+02  0.00000000000E+00 0.  1.
         11    1    3    3    0    0  0.97403598527E+00 -0.68106461407E+01 -0.23385413129E+02  0.24376447535E+02  0.51100000000E-03 0. -1.
        -11    1    3    3    0    0  0.19088170674E+02  0.89900462910E+01 -0.37229220173E+01  0.21425203397E+02  0.51100000000E-03 0.  1.
         12    1    3    3    0    0  0.37265123609E+01 -0.10527400426E+02  0.75857683153E+01  0.13500256851E+02  0.00000000000E+00 0. -1.
</event>
<event>
 7    1  0.5755468E-013  0.5930199E+02  0.7816164E-02  0.1266605E+00
        -11   -1    0    0    0    0  0.00000000000E+00  0.00000000000E+00  0.45593999997E+02  0.45594000000E+02  0.51100000000E-03 0.  1.
         11   -1    0    0    0    0 -0.00000000000E+00 -0.00000000000E+00 -0.45593999997E+02  0.45594000000E+02  0.51100000000E-03 0. -1.
    9900012    2    1    2    0    0 -0.11205078973E+01 -0.49377199885E+01 -0.31481442147E+02  0.59301987137E+02  0.50000078621E+02 0.  0.
        -12    1    1    2    0    0  0.11205078973E+01  0.49377199885E+01  0.31481442147E+02  0.31886012863E+02  0.00000000000E+00 0.  1.
         11    1    3    3    0    0  0.55116011243E+01  0.33419149455E+01 -0.83812307968E+01  0.10573134464E+02  0.51100000000E-03 0. -1.
        -11    1    3    3    0    0  0.16153194529E+01 -0.23182228450E+02 -0.48004522787E+01  0.23729081634E+02  0.51100000000E-03 0.  1.
        -12    1    3    3    0    0 -0.82474284745E+01  0.14902593516E+02 -0.18299759072E+02  0.24999771040E+02  0.00000000000E+00 0.  1.
</event>
<event>
 7    1  0.5755468E-013  0.5930193E+02  0.7816164E-02  0.1266605E+00
        -11   -1    0    0    0    0  0.00000000000E+00  0.00000000000E+00  0.45593999997E+02  0.45594000000E+02  0.51100000000E-03 0. -1.
         11   -1    0    0    0    0 -0.00000000000E+00 -0.00000000000E+00 -0.45593999997E+02  0.45594000000E+02  0.51100000000E-03 0.  1.
    9900012    2    1    2    0    0  0.18246367612E+02  0.24172092072E+02 -0.99750388944E+01  0.59301931457E+02  0.49999977074E+02 0.  0.
        -12    1    1    2    0    0 -0.18246367612E+02 -0.24172092072E+02  0.99750388944E+01  0.31886068543E+02  0.00000000000E+00 0.  1.
         11    1    3    3    0    0 -0.90979182484E+01  0.15284277865E+02 -0.14465794564E+02  0.22926850611E+02  0.51100000000E-03 0. -1.
        -11    1    3    3    0    0  0.22860313722E+02 -0.25868673243E+01 -0.67524034793E+00  0.23016119912E+02  0.51100000000E-03 0.  1.
         12    1    3    3    0    0  0.44839721385E+01  0.11474681532E+02  0.51659960176E+01  0.13358960934E+02  0.00000000000E+00 0. -1.
</event>
<event>
 7    1  0.5755468E-013  0.5930195E+02  0.7816164E-02  0.1266605E+00
        -11   -1    0    0    0    0  0.00000000000E+00  0.00000000000E+00  0.45593999997E+02  0.45594000000E+02  0.51100000000E-03 0. -1.
         11   -1    0    0    0    0 -0.00000000000E+00 -0.00000000000E+00 -0.45593999997E+02  0.45594000000E+02  0.51100000000E-03 0.  1.
    9900012    2    1    2    0    0 -0.31266502856E+02  0.55818772737E+01  0.28228896420E+01  0.59301948807E+02  0.50000008716E+02 0.  0.
        -12    1    1    2    0    0  0.31266502856E+02 -0.55818772737E+01 -0.28228896420E+01  0.31886051193E+02  0.00000000000E+00 0.  1.
         11    1    3    3    0    0 -0.14758525486E+01  0.42973473301E+01  0.13541058107E+02  0.14283052536E+02  0.51100000000E-03 0. -1.
        -11    1    3    3    0    0 -0.27151168397E+02  0.10215432112E+02 -0.17151229354E+02  0.33700232450E+02  0.51100000000E-03 0.  1.
        -12    1    3    3    0    0 -0.26394819111E+01 -0.89309021682E+01  0.64330608889E+01  0.11318663821E+02  0.00000000000E+00 0.  1.
</event>
<event>
 7    1  0.5755468E-013  0.5930193E+02  0.7816164E-02  0.1266605E+00
        -11   -1    0    0    0    0  0.00000000000E+00  0.00000000000E+00  0.45593999997E+02  0.45594000000E+02  0.51100000000E-03 0.  1.
         11   -1    0    0    0    0 -0.00000000000E+00 -0.00000000000E+00 -0.45593999997E+02  0.45594000000E+02  0.51100000000E-03 0. -1.
    9900012    2    1    2    0    0  0.49711655219E+01 -0.14284660918E+02 -0.28070581103E+02  0.59301928626E+02  0.49999971911E+02 0.  0.
        -12    1    1    2    0    0 -0.49711655219E+01  0.14284660918E+02  0.28070581103E+02  0.31886071374E+02  0.00000000000E+00 0.  1.
         11    1    3    3    0    0  0.13214013843E+02 -0.49256871470E+01 -0.19322848150E+02  0.23921643267E+02  0.51100000000E-03 0. -1.
        -11    1    3    3    0    0 -0.18005670268E+02 -0.14166758939E+02 -0.30996864370E+01  0.23119456674E+02  0.51100000000E-03 0.  1.
        -12    1    3    3    0    0  0.97628219469E+01  0.48077851676E+01 -0.56480465159E+01  0.12260828685E+02  0.00000000000E+00 0.  1.
</event>
<event>
 7    1  0.5755468E-013  0.5930194E+02  0.7816164E-02  0.1266605E+00
        -11   -1    0    0    0    0  0.00000000000E+00  0.00000000000E+00  0.45593999997E+02  0.45594000000E+02  0.51100000000E-03 0. -1.
         11   -1    0    0    0    0 -0.00000000000E+00 -0.00000000000E+00 -0.45593999997E+02  0.45594000000E+02  0.51100000000E-03 0.  1.
    9900012    2    1    2    0    0 -0.81035479418E+01 -0.30766764933E+02  0.21118215524E+01  0.59301935584E+02  0.49999984601E+02 0.  0.
        -12    1    1    2    0    0  0.81035479418E+01  0.30766764933E+02 -0.21118215524E+01  0.31886064416E+02  0.00000000000E+00 0.  1.
         11    1    3    3    0    0  0.99613386000E+01 -0.20922994410E+02  0.14422208759E+02  0.27294689365E+02  0.51100000000E-03 0. -1.
        -11    1    3    3    0    0 -0.15476772419E+02  0.23338216738E+01 -0.18770674516E+01  0.15763901503E+02  0.51100000000E-03 0.  1.
         12    1    3    3    0    0 -0.25881141222E+01 -0.12177592196E+02 -0.10433319756E+02  0.16243344715E+02  0.00000000000E+00 0. -1.
</event>
<event>
 7    1  0.5755468E-013  0.5930190E+02  0.7816164E-02  0.1266605E+00
        -11   -1    0    0    0    0  0.00000000000E+00  0.00000000000E+00  0.45593999997E+02  0.45594000000E+02  0.51100000000E-03 0.  1.
         11   -1    0    0    0    0 -0.00000000000E+00 -0.00000000000E+00 -0.45593999997E+02  0.45594000000E+02  0.51100000000E-03 0. -1.
    9900012    2    1    2    0    0 -0.13958691626E+02  0.28468132331E+02  0.33828132489E+01  0.59301904977E+02  0.49999928782E+02 0.  0.
        -12    1    1    2    0    0  0.13958691626E+02 -0.28468132331E+02 -0.33828132489E+01  0.31886095023E+02  0.00000000000E+00 0.  1.
         11    1    3    3    0    0 -0.21027343545E+02  0.10718879075E+02 -0.10648738992E+02  0.25892840469E+02  0.51100000000E-03 0.  1.
        -11    1    3    3    0    0  0.12832206598E+02  0.42089324043E+01  0.65276297757E+00  0.13520604199E+02  0.51100000000E-03 0. -1.
         12    1    3    3    0    0 -0.57635546793E+01  0.13540320851E+02  0.13378789264E+02  0.19888460309E+02  0.00000000000E+00 0. -1.
</event>
<event>
 7    1  0.5755468E-013  0.5930193E+02  0.7816164E-02  0.1266605E+00
        -11   -1    0    0    0    0  0.00000000000E+00  0.00000000000E+00  0.45593999997E+02  0.45594000000E+02  0.51100000000E-03 0.  1.
         11   -1    0    0    0    0 -0.00000000000E+00 -0.00000000000E+00 -0.45593999997E+02  0.45594000000E+02  0.51100000000E-03 0. -1.
    9900012    2    1    2    0    0 -0.21283655913E+02  0.96159350654E+01 -0.21708549761E+02  0.59301931743E+02  0.49999977595E+02 0.  0.
        -12    1    1    2    0    0  0.21283655913E+02 -0.96159350654E+01  0.21708549761E+02  0.31886068257E+02  0.00000000000E+00 0.  1.
         11    1    3    3    0    0 -0.12247409666E+01  0.31898529327E+01 -0.16435372473E+02  0.16786799003E+02  0.51100000000E-03 0. -1.
        -11    1    3    3    0    0 -0.14322961281E+02  0.60841871762E+01  0.14896877629E+02  0.21542551307E+02  0.51100000000E-03 0.  1.
        -12    1    3    3    0    0 -0.57359536646E+01  0.34189495653E+00 -0.20170054917E+02  0.20972581432E+02  0.00000000000E+00 0.  1.
</event>
<event>
 7    1  0.5755468E-013  0.5930192E+02  0.7816164E-02  0.1266605E+00
        -11   -1    0    0    0    0  0.00000000000E+00  0.00000000000E+00  0.45593999997E+02  0.45594000000E+02  0.51100000000E-03 0.  1.
         11   -1    0    0    0    0 -0.00000000000E+00 -0.00000000000E+00 -0.45593999997E+02  0.45594000000E+02  0.51100000000E-03 0. -1.
    9900012    2    1    2    0    0 -0.21109045001E+02 -0.22546889054E+02  0.79226312405E+01  0.59301920394E+02  0.49999956898E+02 0.  0.
        -12    1    1    2    0    0  0.21109045001E+02  0.22546889054E+02 -0.79226312405E+01  0.31886079606E+02  0.00000000000E+00 0.  1.
         11    1    3    3    0    0 -0.81105480224E+01 -0.19358995046E+02  0.82722211726E-01  0.20989485978E+02  0.51100000000E-03 0. -1.
        -11    1    3    3    0    0  0.96429331715E+01  0.23512822499E+01 -0.56099813446E+01  0.11401165700E+02  0.51100000000E-03 0.  1.
        -12    1    3    3    0    0 -0.22641430150E+02 -0.55391762579E+01  0.13449890373E+02  0.26911268716E+02  0.00000000000E+00 0.  1.
</event>
<event>
 7    1  0.5755468E-013  0.5930195E+02  0.7816164E-02  0.1266605E+00
        -11   -1    0    0    0    0  0.00000000000E+00  0.00000000000E+00  0.45593999997E+02  0.45594000000E+02  0.51100000000E-03 0. -1.
         11   -1    0    0    0    0 -0.00000000000E+00 -0.00000000000E+00 -0.45593999997E+02  0.45594000000E+02  0.51100000000E-03 0.  1.
    9900012    2    1    2    0    0 -0.22466493337E+02 -0.73566827031E+00  0.22614945134E+02  0.59301948597E+02  0.50000008334E+02 0.  0.
        -12    1    1    2    0    0  0.22466493337E+02  0.73566827031E+00 -0.22614945134E+02  0.31886051403E+02  0.00000000000E+00 0.  1.
         11    1    3    3    0    0 -0.19947412244E+02 -0.10600700509E+01  0.43217514489E+01  0.20437723444E+02  0.51100000000E-03 0. -1.
        -11    1    3    3    0    0  0.37882741073E+01  0.50802227650E+01  0.26633342741E+02  0.27376899566E+02  0.51100000000E-03 0.  1.
        -12    1    3    3    0    0 -0.63073552007E+01 -0.47558209845E+01 -0.83401490561E+01  0.11487325587E+02  0.00000000000E+00 0.  1.
</event>
<event>
 7    1  0.5755468E-013  0.5930196E+02  0.7816164E-02  0.1266605E+00
        -11   -1    0    0    0    0  0.00000000000E+00  0.00000000000E+00  0.45593999997E+02  0.45594000000E+02  0.51100000000E-03 0.  1.
         11   -1    0    0    0    0 -0.00000000000E+00 -0.00000000000E+00 -0.45593999997E+02  0.45594000000E+02  0.51100000000E-03 0. -1.
    9900012    2    1    2    0    0 -0.46038232706E+00  0.21613646793E+02 -0.23438384036E+02  0.59301960331E+02  0.50000029733E+02 0.  0.
        -12    1    1    2    0    0  0.46038232706E+00 -0.21613646793E+02  0.23438384036E+02  0.31886039669E+02  0.00000000000E+00 0.  1.
         11    1    3    3    0    0  0.60839823958E-01  0.11530353934E+02 -0.28833955613E+02  0.31053981385E+02  0.51100000000E-03 0. -1.
        -11    1    3    3    0    0 -0.11858221856E+02  0.81686745075E+01  0.79810199679E+01  0.16463333465E+02  0.51100000000E-03 0.  1.
         12    1    3    3    0    0  0.11336999705E+02  0.19146183513E+01 -0.25854483906E+01  0.11784645481E+02  0.00000000000E+00 0. -1.
</event>
<event>
 7    1  0.5755468E-013  0.5930172E+02  0.7816164E-02  0.1266606E+00
        -11   -1    0    0    0    0  0.00000000000E+00  0.00000000000E+00  0.45593999997E+02  0.45594000000E+02  0.51100000000E-03 0.  1.
         11   -1    0    0    0    0 -0.00000000000E+00 -0.00000000000E+00 -0.45593999997E+02  0.45594000000E+02  0.51100000000E-03 0. -1.
    9900012    2    1    2    0    0 -0.21226049599E+02 -0.19864453441E+02 -0.13099362596E+02  0.59301717801E+02  0.49999587414E+02 0.  0.
        -12    1    1    2    0    0  0.21226049599E+02  0.19864453441E+02  0.13099362596E+02  0.31886282199E+02  0.00000000000E+00 0.  1.
         11    1    3    3    0    0 -0.23268691187E+01 -0.20619057822E+02 -0.22289904006E+02  0.30453237697E+02  0.51100000000E-03 0. -1.
        -11    1    3    3    0    0 -0.13775228351E+02  0.79817615041E+01 -0.22239117515E+00  0.15922150952E+02  0.51100000000E-03 0.  1.
         12    1    3    3    0    0 -0.51239521290E+01 -0.72271571234E+01  0.94129325849E+01  0.12926329152E+02  0.00000000000E+00 0. -1.
</event>
<event>
 7    1  0.5755468E-013  0.5930194E+02  0.7816164E-02  0.1266605E+00
        -11   -1    0    0    0    0  0.00000000000E+00  0.00000000000E+00  0.45593999997E+02  0.45594000000E+02  0.51100000000E-03 0. -1.
         11   -1    0    0    0    0 -0.00000000000E+00 -0.00000000000E+00 -0.45593999997E+02  0.45594000000E+02  0.51100000000E-03 0.  1.
    9900012    2    1    2    0    0  0.28479206537E+02  0.87481294218E+01 -0.11363348868E+02  0.59301942375E+02  0.49999996986E+02 0.  0.
        -12    1    1    2    0    0 -0.28479206537E+02 -0.87481294218E+01  0.11363348868E+02  0.31886057625E+02  0.00000000000E+00 0.  1.
         11    1    3    3    0    0  0.91107125695E+01 -0.18261227385E+02  0.22169692072E+01  0.20527846011E+02  0.51100000000E-03 0. -1.
        -11    1    3    3    0    0 -0.13202536344E+01  0.43076623973E+01 -0.53132140387E+01  0.69662951898E+01  0.51100000000E-03 0.  1.
         12    1    3    3    0    0  0.20688747602E+02  0.22701694410E+02 -0.82671040363E+01  0.31807801174E+02  0.00000000000E+00 0. -1.
</event>
<event>
 7    1  0.5755468E-013  0.5930200E+02  0.7816164E-02  0.1266605E+00
        -11   -1    0    0    0    0  0.00000000000E+00  0.00000000000E+00  0.45593999997E+02  0.45594000000E+02  0.51100000000E-03 0.  1.
         11   -1    0    0    0    0 -0.00000000000E+00 -0.00000000000E+00 -0.45593999997E+02  0.45594000000E+02  0.51100000000E-03 0. -1.
    9900012    2    1    2    0    0 -0.10787563835E+02 -0.29882262162E+02 -0.27195154349E+01  0.59302001669E+02  0.50000105123E+02 0.  0.
        -12    1    1    2    0    0  0.10787563835E+02  0.29882262162E+02  0.27195154349E+01  0.31885998331E+02  0.00000000000E+00 0.  1.
         11    1    3    3    0    0 -0.22925310016E+01  0.22886661746E+01 -0.59556117476E+01  0.67796019648E+01  0.51100000000E-03 0. -1.
        -11    1    3    3    0    0  0.18863115606E+01 -0.39159788946E+02 -0.12577521492E+01  0.39225364017E+02  0.51100000000E-03 0.  1.
        -12    1    3    3    0    0 -0.10381344394E+02  0.69888606093E+01  0.44938484619E+01  0.13297035686E+02  0.00000000000E+00 0.  1.
</event>
<event>
 7    1  0.5755468E-013  0.5930195E+02  0.7816164E-02  0.1266605E+00
        -11   -1    0    0    0    0  0.00000000000E+00  0.00000000000E+00  0.45593999997E+02  0.45594000000E+02  0.51100000000E-03 0.  1.
         11   -1    0    0    0    0 -0.00000000000E+00 -0.00000000000E+00 -0.45593999997E+02  0.45594000000E+02  0.51100000000E-03 0. -1.
    9900012    2    1    2    0    0  0.11983156172E+01  0.31795329294E+02  0.20836351999E+01  0.59301945668E+02  0.50000002991E+02 0.  0.
        -12    1    1    2    0    0 -0.11983156172E+01 -0.31795329294E+02 -0.20836351999E+01  0.31886054332E+02  0.00000000000E+00 0.  1.
         11    1    3    3    0    0  0.18165089054E+02  0.57314496915E+01 -0.11760334849E+02  0.22385831499E+02  0.51100000000E-03 0. -1.
        -11    1    3    3    0    0 -0.16273120559E+02  0.27877523948E+02  0.13005927341E+02  0.34801220387E+02  0.51100000000E-03 0.  1.
        -12    1    3    3    0    0 -0.69365287780E+00 -0.18136443454E+01  0.83804270808E+00  0.21148937815E+01  0.00000000000E+00 0.  1.
</event>
<event>
 7    1  0.5755468E-013  0.5930192E+02  0.7816164E-02  0.1266605E+00
        -11   -1    0    0    0    0  0.00000000000E+00  0.00000000000E+00  0.45593999997E+02  0.45594000000E+02  0.51100000000E-03 0.  1.
         11   -1    0    0    0    0 -0.00000000000E+00 -0.00000000000E+00 -0.45593999997E+02  0.45594000000E+02  0.51100000000E-03 0. -1.
    9900012    2    1    2    0    0  0.27608321590E+02 -0.68205412478E+01  0.14421604710E+02  0.59301923315E+02  0.49999962225E+02 0.  0.
        -12    1    1    2    0    0 -0.27608321590E+02  0.68205412478E+01 -0.14421604710E+02  0.31886076685E+02  0.00000000000E+00 0.  1.
         11    1    3    3    0    0 -0.88204282278E+00  0.15168911946E+02  0.37841244778E+00  0.15199246212E+02  0.51100000000E-03 0. -1.
        -11    1    3    3    0    0 -0.28478223361E+01 -0.51451577047E+01  0.76497515510E-01  0.58812066785E+01  0.51100000000E-03 0.  1.
         12    1    3    3    0    0  0.31338186749E+02 -0.16844295489E+02  0.13966694747E+02  0.38221470424E+02  0.00000000000E+00 0. -1.
</event>
<event>
 7    1  0.5780798E-013  0.5930188E+02  0.7816164E-02  0.1266605E+00
        -11   -1    0    0    0    0  0.00000000000E+00  0.00000000000E+00  0.45593999997E+02  0.45594000000E+02  0.51100000000E-03 0. -1.
         11   -1    0    0    0    0 -0.00000000000E+00 -0.00000000000E+00 -0.45593999997E+02  0.45594000000E+02  0.51100000000E-03 0.  1.
    9900012    2    1    2    0    0 -0.12989378302E+02  0.56032054518E+01  0.28576299644E+02  0.59301878233E+02  0.49999880005E+02 0.  0.
        -12    1    1    2    0    0  0.12989378302E+02 -0.56032054518E+01 -0.28576299644E+02  0.31886121767E+02  0.00000000000E+00 0.  1.
         11    1    3    3    0    0 -0.26844834058E+02  0.57917089106E+01  0.22817965669E+02  0.35705021569E+02  0.51100000000E-03 0. -1.
        -11    1    3    3    0    0  0.48519727323E+01  0.98902460542E+00 -0.66064155412E+01  0.82561816616E+01  0.51100000000E-03 0.  1.
        -12    1    3    3    0    0  0.90034830240E+01 -0.11775280642E+01  0.12364749517E+02  0.15340675002E+02  0.00000000000E+00 0.  1.
</event>
<event>
 7    1  0.5755468E-013  0.5930196E+02  0.7816164E-02  0.1266605E+00
        -11   -1    0    0    0    0  0.00000000000E+00  0.00000000000E+00  0.45593999997E+02  0.45594000000E+02  0.51100000000E-03 0. -1.
         11   -1    0    0    0    0 -0.00000000000E+00 -0.00000000000E+00 -0.45593999997E+02  0.45594000000E+02  0.51100000000E-03 0.  1.
    9900012    2    1    2    0    0  0.51749251796E+01  0.10534900883E+01  0.31445663463E+02  0.59301961635E+02  0.50000032111E+02 0.  0.
        -12    1    1    2    0    0 -0.51749251796E+01 -0.10534900883E+01 -0.31445663463E+02  0.31886038365E+02  0.00000000000E+00 0.  1.
         11    1    3    3    0    0 -0.27254310132E+01 -0.42509969783E+01  0.87773010227E+01  0.10126201806E+02  0.51100000000E-03 0. -1.
        -11    1    3    3    0    0  0.19821791404E+01  0.15627245938E+02 -0.69793596977E+01  0.17229373518E+02  0.51100000000E-03 0.  1.
        -12    1    3    3    0    0  0.59181770524E+01 -0.10322758872E+02  0.29647722138E+02  0.31946386311E+02  0.00000000000E+00 0.  1.
</event>
<event>
 7    1  0.5755468E-013  0.5930190E+02  0.7816164E-02  0.1266605E+00
        -11   -1    0    0    0    0  0.00000000000E+00  0.00000000000E+00  0.45593999997E+02  0.45594000000E+02  0.51100000000E-03 0.  1.
         11   -1    0    0    0    0 -0.00000000000E+00 -0.00000000000E+00 -0.45593999997E+02  0.45594000000E+02  0.51100000000E-03 0. -1.
    9900012    2    1    2    0    0  0.10916009067E+02  0.57996703493E+01 -0.29392646061E+02  0.59301904714E+02  0.49999928301E+02 0.  0.
        -12    1    1    2    0    0 -0.10916009067E+02 -0.57996703493E+01  0.29392646061E+02  0.31886095286E+02  0.00000000000E+00 0.  1.
         11    1    3    3    0    0  0.17742103912E+02 -0.28488162256E+01 -0.26016540862E+01  0.18156723530E+02  0.51100000000E-03 0. -1.
        -11    1    3    3    0    0 -0.17865595750E+02  0.93502618059E+01 -0.17112991553E+02  0.26447332332E+02  0.51100000000E-03 0.  1.
        -12    1    3    3    0    0  0.11039500904E+02 -0.70177523091E+00 -0.96780004220E+01  0.14697848852E+02  0.00000000000E+00 0.  1.
</event>
<event>
 7    1  0.5755468E-013  0.5930202E+02  0.7816164E-02  0.1266604E+00
        -11   -1    0    0    0    0  0.00000000000E+00  0.00000000000E+00  0.45593999997E+02  0.45594000000E+02  0.51100000000E-03 0. -1.
         11   -1    0    0    0    0 -0.00000000000E+00 -0.00000000000E+00 -0.45593999997E+02  0.45594000000E+02  0.51100000000E-03 0.  1.
    9900012    2    1    2    0    0  0.30785757011E+02 -0.47239537575E+01  0.68291227278E+01  0.59302023599E+02  0.50000145118E+02 0.  0.
        -12    1    1    2    0    0 -0.30785757011E+02  0.47239537575E+01 -0.68291227278E+01  0.31885976401E+02  0.00000000000E+00 0.  1.
         11    1    3    3    0    0  0.13308993880E+02 -0.15847032108E+02  0.12448480255E+01  0.20731796632E+02  0.51100000000E-03 0. -1.
        -11    1    3    3    0    0  0.11275437804E+02  0.18486101449E+02  0.13998842961E+02  0.25784473021E+02  0.51100000000E-03 0.  1.
        -12    1    3    3    0    0  0.62013253265E+01 -0.73630230989E+01 -0.84145682589E+01  0.12785753945E+02  0.00000000000E+00 0.  1.
</event>
<event>
 7    1  0.5755468E-013  0.5930194E+02  0.7816164E-02  0.1266605E+00
        -11   -1    0    0    0    0  0.00000000000E+00  0.00000000000E+00  0.45593999997E+02  0.45594000000E+02  0.51100000000E-03 0.  1.
         11   -1    0    0    0    0 -0.00000000000E+00 -0.00000000000E+00 -0.45593999997E+02  0.45594000000E+02  0.51100000000E-03 0. -1.
    9900012    2    1    2    0    0  0.47313861426E+01  0.13378249819E+02 -0.28554455861E+02  0.59301944543E+02  0.50000000940E+02 0.  0.
        -12    1    1    2    0    0 -0.47313861426E+01 -0.13378249819E+02  0.28554455861E+02  0.31886055457E+02  0.00000000000E+00 0.  1.
         11    1    3    3    0    0  0.23974479885E+01  0.19535169049E+02  0.42518283592E+01  0.20135755046E+02  0.51100000000E-03 0. -1.
        -11    1    3    3    0    0  0.62916155777E+01 -0.84439722657E+01 -0.63047494608E+01  0.12273343482E+02  0.51100000000E-03 0.  1.
         12    1    3    3    0    0 -0.39576774236E+01  0.22870530359E+01 -0.26501534760E+02  0.26892846015E+02  0.00000000000E+00 0. -1.
</event>
<event>
 7    1  0.5755468E-013  0.5930185E+02  0.7816164E-02  0.1266605E+00
        -11   -1    0    0    0    0  0.00000000000E+00  0.00000000000E+00  0.45593999997E+02  0.45594000000E+02  0.51100000000E-03 0. -1.
         11   -1    0    0    0    0 -0.00000000000E+00 -0.00000000000E+00 -0.45593999997E+02  0.45594000000E+02  0.51100000000E-03 0.  1.
    9900012    2    1    2    0    0 -0.16521079427E+02 -0.26219125423E+02  0.75058490424E+01  0.59301852957E+02  0.49999833909E+02 0.  0.
        -12    1    1    2    0    0  0.16521079427E+02  0.26219125423E+02 -0.75058490424E+01  0.31886147043E+02  0.00000000000E+00 0.  1.
         11    1    3    3    0    0  0.13301062479E+00 -0.14230202971E+02  0.16321483915E+02  0.21654265304E+02  0.51100000000E-03 0. -1.
        -11    1    3    3    0    0 -0.22748155715E+02 -0.68326169028E+01 -0.14517653384E+02  0.27837483763E+02  0.51100000000E-03 0.  1.
         12    1    3    3    0    0  0.60940656636E+01 -0.51563055497E+01  0.57020185120E+01  0.98101038906E+01  0.00000000000E+00 0. -1.
</event>
<event>
 7    1  0.5755468E-013  0.5930195E+02  0.7816164E-02  0.1266605E+00
        -11   -1    0    0    0    0  0.00000000000E+00  0.00000000000E+00  0.45593999997E+02  0.45594000000E+02  0.51100000000E-03 0.  1.
         11   -1    0    0    0    0 -0.00000000000E+00 -0.00000000000E+00 -0.45593999997E+02  0.45594000000E+02  0.51100000000E-03 0. -1.
    9900012    2    1    2    0    0 -0.10413163211E+02  0.19834504003E+02 -0.22690931979E+02  0.59301954288E+02  0.50000018712E+02 0.  0.
        -12    1    1    2    0    0  0.10413163211E+02 -0.19834504003E+02  0.22690931979E+02  0.31886045712E+02  0.00000000000E+00 0.  1.
         11    1    3    3    0    0 -0.64301090717E+01 -0.13401854282E-01 -0.25999702523E+02  0.26783035934E+02  0.51100000000E-03 0. -1.
        -11    1    3    3    0    0 -0.13149300896E+02  0.18566169428E+02  0.18874836519E+00  0.22751755701E+02  0.51100000000E-03 0.  1.
         12    1    3    3    0    0  0.91662467563E+01  0.12817364290E+01  0.31200221795E+01  0.97671626521E+01  0.00000000000E+00 0. -1.
</event>
<event>
 7    1  0.5755468E-013  0.5930197E+02  0.7816164E-02  0.1266605E+00
        -11   -1    0    0    0    0  0.00000000000E+00  0.00000000000E+00  0.45593999997E+02  0.45594000000E+02  0.51100000000E-03 0.  1.
         11   -1    0    0    0    0 -0.00000000000E+00 -0.00000000000E+00 -0.45593999997E+02  0.45594000000E+02  0.51100000000E-03 0. -1.
    9900012    2    1    2    0    0  0.14903253070E+02  0.19222879695E+02  0.20617786956E+02  0.59301965521E+02  0.50000039198E+02 0.  0.
        -12    1    1    2    0    0 -0.14903253070E+02 -0.19222879695E+02 -0.20617786956E+02  0.31886034479E+02  0.00000000000E+00 0.  1.
         11    1    3    3    0    0  0.22248582508E+01 -0.32098577784E+01 -0.12762770899E+02  0.13346966040E+02  0.51100000000E-03 0. -1.
        -11    1    3    3    0    0 -0.26349643718E+01  0.12613235993E+02  0.17977975167E+02  0.22118868660E+02  0.51100000000E-03 0.  1.
        -12    1    3    3    0    0  0.15313359191E+02  0.98195014807E+01  0.15402582688E+02  0.23836130821E+02  0.00000000000E+00 0.  1.
</event>
<event>
 7    1  0.5755468E-013  0.5930196E+02  0.7816164E-02  0.1266605E+00
        -11   -1    0    0    0    0  0.00000000000E+00  0.00000000000E+00  0.45593999997E+02  0.45594000000E+02  0.51100000000E-03 0. -1.
         11   -1    0    0    0    0 -0.00000000000E+00 -0.00000000000E+00 -0.45593999997E+02  0.45594000000E+02  0.51100000000E-03 0.  1.
    9900012    2    1    2    0    0 -0.28128561012E+02  0.14509899023E+02  0.38686651270E+01  0.59301957848E+02  0.50000025204E+02 0.  0.
        -12    1    1    2    0    0  0.28128561012E+02 -0.14509899023E+02 -0.38686651270E+01  0.31886042152E+02  0.00000000000E+00 0.  1.
         11    1    3    3    0    0  0.90609582084E+01 -0.11012815389E+01  0.13639509445E+02  0.16411886023E+02  0.51100000000E-03 0. -1.
        -11    1    3    3    0    0 -0.16380334513E+02  0.15873471100E+01 -0.59896411235E+01  0.17513161640E+02  0.51100000000E-03 0.  1.
         12    1    3    3    0    0 -0.20809184708E+02  0.14023833452E+02 -0.37812031940E+01  0.25376910184E+02  0.00000000000E+00 0. -1.
</event>
<event>
 7    1  0.5755468E-013  0.5930191E+02  0.7816164E-02  0.1266605E+00
        -11   -1    0    0    0    0  0.00000000000E+00  0.00000000000E+00  0.45593999997E+02  0.45594000000E+02  0.51100000000E-03 0. -1.
         11   -1    0    0    0    0 -0.00000000000E+00 -0.00000000000E+00 -0.45593999997E+02  0.45594000000E+02  0.51100000000E-03 0.  1.
    9900012    2    1    2    0    0  0.17876627104E+02 -0.10607629315E+02  0.24179064288E+02  0.59301909834E+02  0.49999937638E+02 0.  0.
        -12    1    1    2    0    0 -0.17876627104E+02  0.10607629315E+02 -0.24179064288E+02  0.31886090166E+02  0.00000000000E+00 0.  1.
         11    1    3    3    0    0  0.25429880072E+02 -0.13673417613E+02  0.19886609898E+02  0.35058784965E+02  0.51100000000E-03 0. -1.
        -11    1    3    3    0    0 -0.84459295520E+00  0.39974756775E+01 -0.86886222362E+01  0.96013179136E+01  0.51100000000E-03 0.  1.
        -12    1    3    3    0    0 -0.67086600135E+01 -0.93168737901E+00  0.12981076626E+02  0.14641806955E+02  0.00000000000E+00 0.  1.
</event>
<event>
 7    1  0.5755468E-013  0.5930195E+02  0.7816164E-02  0.1266605E+00
        -11   -1    0    0    0    0  0.00000000000E+00  0.00000000000E+00  0.45593999997E+02  0.45594000000E+02  0.51100000000E-03 0.  1.
         11   -1    0    0    0    0 -0.00000000000E+00 -0.00000000000E+00 -0.45593999997E+02  0.45594000000E+02  0.51100000000E-03 0. -1.
    9900012    2    1    2    0    0  0.27205898159E+02  0.10224457294E+02 -0.13115636659E+02  0.59301947460E+02  0.50000006259E+02 0.  0.
        -12    1    1    2    0    0 -0.27205898159E+02 -0.10224457294E+02  0.13115636659E+02  0.31886052540E+02  0.00000000000E+00 0.  1.
         11    1    3    3    0    0  0.23706494582E+01 -0.48701511437E+01  0.12606388413E+02  0.13720764560E+02  0.51100000000E-03 0. -1.
        -11    1    3    3    0    0  0.26560015499E+02  0.13770199815E+02 -0.12906845505E+02  0.32582809691E+02  0.51100000000E-03 0.  1.
        -12    1    3    3    0    0 -0.17247667979E+01  0.13244086235E+01 -0.12815179568E+02  0.12998373209E+02  0.00000000000E+00 0.  1.
</event>
<event>
 7    1  0.5755468E-013  0.5930189E+02  0.7816164E-02  0.1266605E+00
        -11   -1    0    0    0    0  0.00000000000E+00  0.00000000000E+00  0.45593999997E+02  0.45594000000E+02  0.51100000000E-03 0.  1.
         11   -1    0    0    0    0 -0.00000000000E+00 -0.00000000000E+00 -0.45593999997E+02  0.45594000000E+02  0.51100000000E-03 0. -1.
    9900012    2    1    2    0    0 -0.52867450488E-01 -0.12201574966E+02 -0.29459169366E+02  0.59301891954E+02  0.49999905029E+02 0.  0.
        -12    1    1    2    0    0  0.52867450488E-01  0.12201574966E+02  0.29459169366E+02  0.31886108046E+02  0.00000000000E+00 0.  1.
         11    1    3    3    0    0  0.73758020782E+01 -0.17508639484E+02 -0.26347575380E+02  0.32483066997E+02  0.51100000000E-03 0. -1.
        -11    1    3    3    0    0 -0.48046325835E+01 -0.69942395825E+01  0.67443084488E+01  0.10839260967E+02  0.51100000000E-03 0.  1.
        -12    1    3    3    0    0 -0.26240369452E+01  0.12301304101E+02 -0.98559024347E+01  0.15979563989E+02  0.00000000000E+00 0.  1.
</event>
<event>
 7    1  0.5755468E-013  0.5930208E+02  0.7816164E-02  0.1266604E+00
        -11   -1    0    0    0    0  0.00000000000E+00  0.00000000000E+00  0.45593999997E+02  0.45594000000E+02  0.51100000000E-03 0.  1.
         11   -1    0    0    0    0 -0.00000000000E+00 -0.00000000000E+00 -0.45593999997E+02  0.45594000000E+02  0.51100000000E-03 0. -1.
    9900012    2    1    2    0    0 -0.58069015156E+01  0.11362169887E+02 -0.29221447051E+02  0.59302078695E+02  0.50000245599E+02 0.  0.
        -12    1    1    2    0    0  0.58069015156E+01 -0.11362169887E+02  0.29221447051E+02  0.31885921305E+02  0.00000000000E+00 0.  1.
         11    1    3    3    0    0 -0.47541162632E+01  0.26432418278E+02 -0.12245152837E+02  0.29516404350E+02  0.51100000000E-03 0. -1.
        -11    1    3    3    0    0 -0.65648874220E+01 -0.17209228107E+02 -0.11419116697E+02  0.21671444467E+02  0.51100000000E-03 0.  1.
        -12    1    3    3    0    0  0.55121021696E+01  0.21389797163E+01 -0.55571775164E+01  0.81142298774E+01  0.00000000000E+00 0.  1.
</event>
<event>
 7    1  0.5755468E-013  0.5930202E+02  0.7816164E-02  0.1266604E+00
        -11   -1    0    0    0    0  0.00000000000E+00  0.00000000000E+00  0.45593999997E+02  0.45594000000E+02  0.51100000000E-03 0. -1.
         11   -1    0    0    0    0 -0.00000000000E+00 -0.00000000000E+00 -0.45593999997E+02  0.45594000000E+02  0.51100000000E-03 0.  1.
    9900012    2    1    2    0    0 -0.29326631314E+02 -0.12308869421E+02 -0.22706604296E+01  0.59302023938E+02  0.50000145737E+02 0.  0.
        -12    1    1    2    0    0  0.29326631314E+02  0.12308869421E+02  0.22706604296E+01  0.31885976062E+02  0.00000000000E+00 0.  1.
         11    1    3    3    0    0 -0.26942292486E+02 -0.19334648533E+02  0.16414180306E+02  0.37001906352E+02  0.51100000000E-03 0. -1.
        -11    1    3    3    0    0  0.28160984403E+01  0.37663543056E+00 -0.16424881574E+01  0.32817727346E+01  0.51100000000E-03 0.  1.
         12    1    3    3    0    0 -0.52004372677E+01  0.66491436820E+01 -0.17042352578E+02  0.19018344851E+02  0.00000000000E+00 0. -1.
</event>
<event>
 7    1  0.5755468E-013  0.5930194E+02  0.7816164E-02  0.1266605E+00
        -11   -1    0    0    0    0  0.00000000000E+00  0.00000000000E+00  0.45593999997E+02  0.45594000000E+02  0.51100000000E-03 0. -1.
         11   -1    0    0    0    0 -0.00000000000E+00 -0.00000000000E+00 -0.45593999997E+02  0.45594000000E+02  0.51100000000E-03 0.  1.
    9900012    2    1    2    0    0 -0.16441135863E+02 -0.24930072043E+02  0.11175936439E+02  0.59301937279E+02  0.49999987692E+02 0.  0.
        -12    1    1    2    0    0  0.16441135863E+02  0.24930072043E+02 -0.11175936439E+02  0.31886062721E+02  0.00000000000E+00 0.  1.
         11    1    3    3    0    0 -0.12768075125E+02 -0.97817432602E+01  0.22787688425E+01  0.16244969415E+02  0.51100000000E-03 0. -1.
        -11    1    3    3    0    0  0.62086560035E+01  0.87208667394E+01  0.13063296539E+02  0.16889364783E+02  0.51100000000E-03 0.  1.
        -12    1    3    3    0    0 -0.98817167423E+01 -0.23869195522E+02 -0.41661289425E+01  0.26167603081E+02  0.00000000000E+00 0.  1.
</event>
<event>
 7    1  0.5755468E-013  0.5930194E+02  0.7816164E-02  0.1266605E+00
        -11   -1    0    0    0    0  0.00000000000E+00  0.00000000000E+00  0.45593999997E+02  0.45594000000E+02  0.51100000000E-03 0.  1.
         11   -1    0    0    0    0 -0.00000000000E+00 -0.00000000000E+00 -0.45593999997E+02  0.45594000000E+02  0.51100000000E-03 0. -1.
    9900012    2    1    2    0    0 -0.17978503889E+02 -0.17952832253E+02  0.19266299037E+02  0.59301936170E+02  0.49999985669E+02 0.  0.
        -12    1    1    2    0    0  0.17978503889E+02  0.17952832253E+02 -0.19266299037E+02  0.31886063830E+02  0.00000000000E+00 0.  1.
         11    1    3    3    0    0  0.85884192091E+01 -0.55233770067E+00 -0.42018188827E+01  0.95771239750E+01  0.51100000000E-03 0. -1.
        -11    1    3    3    0    0 -0.16970567494E+02  0.91338791841E+00  0.23558432369E+02  0.29048823978E+02  0.51100000000E-03 0.  1.
        -12    1    3    3    0    0 -0.95963556041E+01 -0.18313882471E+02 -0.90314449844E-01  0.20675988217E+02  0.00000000000E+00 0.  1.
</event>
<event>
 7    1  0.5755468E-013  0.5930193E+02  0.7816164E-02  0.1266605E+00
        -11   -1    0    0    0    0  0.00000000000E+00  0.00000000000E+00  0.45593999997E+02  0.45594000000E+02  0.51100000000E-03 0. -1.
         11   -1    0    0    0    0 -0.00000000000E+00 -0.00000000000E+00 -0.45593999997E+02  0.45594000000E+02  0.51100000000E-03 0.  1.
    9900012    2    1    2    0    0 -0.11750093034E+02 -0.28164817122E+02  0.92411872881E+01  0.59301934825E+02  0.49999983217E+02 0.  0.
        -12    1    1    2    0    0  0.11750093034E+02  0.28164817122E+02 -0.92411872881E+01  0.31886065175E+02  0.00000000000E+00 0.  1.
         11    1    3    3    0    0  0.49584250674E+01 -0.24396000750E+02 -0.45621769581E+01  0.25309371597E+02  0.51100000000E-03 0. -1.
        -11    1    3    3    0    0 -0.20458699804E+02 -0.50924675010E+01  0.18351306418E+02  0.27951065640E+02  0.51100000000E-03 0.  1.
        -12    1    3    3    0    0  0.37501817027E+01  0.13236511291E+01 -0.45479421717E+01  0.60414975886E+01  0.00000000000E+00 0.  1.
</event>
<event>
 7    1  0.5755468E-013  0.5930194E+02  0.7816164E-02  0.1266605E+00
        -11   -1    0    0    0    0  0.00000000000E+00  0.00000000000E+00  0.45593999997E+02  0.45594000000E+02  0.51100000000E-03 0.  1.
         11   -1    0    0    0    0 -0.00000000000E+00 -0.00000000000E+00 -0.45593999997E+02  0.45594000000E+02  0.51100000000E-03 0. -1.
    9900012    2    1    2    0    0 -0.19116377398E+02 -0.21185738711E+02  0.14228470958E+02  0.59301940424E+02  0.49999993427E+02 0.  0.
        -12    1    1    2    0    0  0.19116377398E+02  0.21185738711E+02 -0.14228470958E+02  0.31886059576E+02  0.00000000000E+00 0.  1.
         11    1    3    3    0    0 -0.19053935892E+02 -0.32564191307E+02  0.60432650621E+01  0.38209947413E+02  0.51100000000E-03 0. -1.
        -11    1    3    3    0    0  0.55000437244E+01  0.30813927278E+01  0.90896981425E+01  0.11062010427E+02  0.51100000000E-03 0.  1.
         12    1    3    3    0    0 -0.55624852294E+01  0.82970598684E+01 -0.90449224696E+00  0.10029982583E+02  0.00000000000E+00 0. -1.
</event>
<event>
 7    1  0.5755468E-013  0.5930194E+02  0.7816164E-02  0.1266605E+00
        -11   -1    0    0    0    0  0.00000000000E+00  0.00000000000E+00  0.45593999997E+02  0.45594000000E+02  0.51100000000E-03 0. -1.
         11   -1    0    0    0    0 -0.00000000000E+00 -0.00000000000E+00 -0.45593999997E+02  0.45594000000E+02  0.51100000000E-03 0.  1.
    9900012    2    1    2    0    0  0.12444922361E+02 -0.18499446305E+02 -0.22795070660E+02  0.59301939526E+02  0.49999991790E+02 0.  0.
        -12    1    1    2    0    0 -0.12444922361E+02  0.18499446305E+02  0.22795070660E+02  0.31886060474E+02  0.00000000000E+00 0.  1.
         11    1    3    3    0    0 -0.95852681204E+01 -0.19311792311E+01  0.85874941741E+01  0.13013526602E+02  0.51100000000E-03 0. -1.
        -11    1    3    3    0    0  0.48592851413E+01  0.97064354112E+00 -0.17288801353E+02  0.17984922948E+02  0.51100000000E-03 0.  1.
         12    1    3    3    0    0  0.17170905340E+02 -0.17538910615E+02 -0.14093763481E+02  0.28303489976E+02  0.00000000000E+00 0. -1.
</event>
<event>
 7    1  0.5755468E-013  0.5930194E+02  0.7816164E-02  0.1266605E+00
        -11   -1    0    0    0    0  0.00000000000E+00  0.00000000000E+00  0.45593999997E+02  0.45594000000E+02  0.51100000000E-03 0.  1.
         11   -1    0    0    0    0 -0.00000000000E+00 -0.00000000000E+00 -0.45593999997E+02  0.45594000000E+02  0.51100000000E-03 0. -1.
    9900012    2    1    2    0    0  0.24674843369E+02 -0.15640837898E+02 -0.12776429283E+02  0.59301939556E+02  0.49999991845E+02 0.  0.
        -12    1    1    2    0    0 -0.24674843369E+02  0.15640837898E+02  0.12776429283E+02  0.31886060444E+02  0.00000000000E+00 0.  1.
         11    1    3    3    0    0  0.98553644471E+01 -0.13943511974E+02  0.46360416327E+01  0.17693010395E+02  0.51100000000E-03 0.  1.
        -11    1    3    3    0    0  0.87743045371E+01 -0.10159125610E+02 -0.25243551362E+02  0.28590787658E+02  0.51100000000E-03 0. -1.
        -12    1    3    3    0    0  0.60451743845E+01  0.84617996859E+01  0.78310804458E+01  0.13018141504E+02  0.00000000000E+00 0.  1.
</event>
<event>
 7    1  0.5755468E-013  0.5930194E+02  0.7816164E-02  0.1266605E+00
        -11   -1    0    0    0    0  0.00000000000E+00  0.00000000000E+00  0.45593999997E+02  0.45594000000E+02  0.51100000000E-03 0.  1.
         11   -1    0    0    0    0 -0.00000000000E+00 -0.00000000000E+00 -0.45593999997E+02  0.45594000000E+02  0.51100000000E-03 0. -1.
    9900012    2    1    2    0    0 -0.28607401620E+02  0.63361299991E+01 -0.12577387182E+02  0.59301942872E+02  0.49999997893E+02 0.  0.
        -12    1    1    2    0    0  0.28607401620E+02 -0.63361299991E+01  0.12577387182E+02  0.31886057128E+02  0.00000000000E+00 0.  1.
         11    1    3    3    0    0  0.16297748574E+01 -0.26074162954E+01 -0.20723558995E+02  0.20950433970E+02  0.51100000000E-03 0. -1.
        -11    1    3    3    0    0 -0.25422873967E+02  0.11884682966E+01 -0.94563278868E+00  0.25468199765E+02  0.51100000000E-03 0.  1.
         12    1    3    3    0    0 -0.48143025104E+01  0.77550779979E+01  0.90918046018E+01  0.12883309138E+02  0.00000000000E+00 0. -1.
</event>
<event>
 7    1  0.5755468E-013  0.5930198E+02  0.7816164E-02  0.1266605E+00
        -11   -1    0    0    0    0  0.00000000000E+00  0.00000000000E+00  0.45593999997E+02  0.45594000000E+02  0.51100000000E-03 0.  1.
         11   -1    0    0    0    0 -0.00000000000E+00 -0.00000000000E+00 -0.45593999997E+02  0.45594000000E+02  0.51100000000E-03 0. -1.
    9900012    2    1    2    0    0 -0.72963919922E+01  0.37748292309E+01 -0.30809603453E+02  0.59301978976E+02  0.50000063736E+02 0.  0.
        -12    1    1    2    0    0  0.72963919922E+01 -0.37748292309E+01  0.30809603453E+02  0.31886021024E+02  0.00000000000E+00 0.  1.
         11    1    3    3    0    0  0.47478821393E+01  0.16977004690E+02 -0.19309064297E+02  0.26145765190E+02  0.51100000000E-03 0. -1.
        -11    1    3    3    0    0 -0.32170848613E+01 -0.98315435590E+01  0.69254935159E+01  0.12448748711E+02  0.51100000000E-03 0.  1.
        -12    1    3    3    0    0 -0.88271892702E+01 -0.33706319003E+01 -0.18426032672E+02  0.20707465075E+02  0.00000000000E+00 0.  1.
</event>
<event>
 7    1  0.5755468E-013  0.5930198E+02  0.7816164E-02  0.1266605E+00
        -11   -1    0    0    0    0  0.00000000000E+00  0.00000000000E+00  0.45593999997E+02  0.45594000000E+02  0.51100000000E-03 0.  1.
         11   -1    0    0    0    0 -0.00000000000E+00 -0.00000000000E+00 -0.45593999997E+02  0.45594000000E+02  0.51100000000E-03 0. -1.
    9900012    2    1    2    0    0 -0.79466278581E+01  0.20659223052E+02 -0.22951377329E+02  0.59301982489E+02  0.50000070144E+02 0.  0.
        -12    1    1    2    0    0  0.79466278581E+01 -0.20659223052E+02  0.22951377329E+02  0.31886017511E+02  0.00000000000E+00 0.  1.
         11    1    3    3    0    0 -0.10150968927E+02 -0.11989272804E+01 -0.99595633015E+01  0.14271387396E+02  0.51100000000E-03 0. -1.
        -11    1    3    3    0    0  0.18948718668E+02  0.56594587145E+01 -0.49703202612E+01  0.20390867953E+02  0.51100000000E-03 0.  1.
        -12    1    3    3    0    0 -0.16744377599E+02  0.16198691618E+02 -0.80214937663E+01  0.24639727140E+02  0.00000000000E+00 0.  1.
</event>
<event>
 7    1  0.5755468E-013  0.5930204E+02  0.7816164E-02  0.1266604E+00
        -11   -1    0    0    0    0  0.00000000000E+00  0.00000000000E+00  0.45593999997E+02  0.45594000000E+02  0.51100000000E-03 0. -1.
         11   -1    0    0    0    0 -0.00000000000E+00 -0.00000000000E+00 -0.45593999997E+02  0.45594000000E+02  0.51100000000E-03 0.  1.
    9900012    2    1    2    0    0 -0.23385038893E+02  0.17303125887E+02 -0.13055892689E+02  0.59302038458E+02  0.50000172219E+02 0.  0.
        -12    1    1    2    0    0  0.23385038893E+02 -0.17303125887E+02  0.13055892689E+02  0.31885961542E+02  0.00000000000E+00 0.  1.
         11    1    3    3    0    0 -0.13806768744E+02  0.17606988578E+01 -0.41315997068E+01  0.14518851194E+02  0.51100000000E-03 0. -1.
        -11    1    3    3    0    0 -0.10074453278E+02 -0.50919555753E-01  0.13881236683E+02  0.17151849281E+02  0.51100000000E-03 0.  1.
        -12    1    3    3    0    0  0.49618312826E+00  0.15593346585E+02 -0.22805529665E+02  0.27631337983E+02  0.00000000000E+00 0.  1.
</event>
<event>
 7    1  0.5755468E-013  0.5930203E+02  0.7816164E-02  0.1266604E+00
        -11   -1    0    0    0    0  0.00000000000E+00  0.00000000000E+00  0.45593999997E+02  0.45594000000E+02  0.51100000000E-03 0. -1.
         11   -1    0    0    0    0 -0.00000000000E+00 -0.00000000000E+00 -0.45593999997E+02  0.45594000000E+02  0.51100000000E-03 0.  1.
    9900012    2    1    2    0    0  0.17723846492E+02 -0.26253672606E+02  0.36503598278E+01  0.59302028372E+02  0.50000153823E+02 0.  0.
        -12    1    1    2    0    0 -0.17723846492E+02  0.26253672606E+02 -0.36503598278E+01  0.31885971628E+02  0.00000000000E+00 0.  1.
         11    1    3    3    0    0  0.21882024911E+02 -0.21560759439E+02  0.18256045503E+02  0.35734752825E+02  0.51100000000E-03 0. -1.
        -11    1    3    3    0    0 -0.11171354076E+01 -0.10726624460E+02 -0.12457656492E+02  0.16477307709E+02  0.51100000000E-03 0.  1.
         12    1    3    3    0    0 -0.30410430113E+01  0.60337112928E+01 -0.21480291839E+01  0.70899678375E+01  0.00000000000E+00 0. -1.
</event>
<event>
 7    1  0.5755468E-013  0.5930196E+02  0.7816164E-02  0.1266605E+00
        -11   -1    0    0    0    0  0.00000000000E+00  0.00000000000E+00  0.45593999997E+02  0.45594000000E+02  0.51100000000E-03 0.  1.
         11   -1    0    0    0    0 -0.00000000000E+00 -0.00000000000E+00 -0.45593999997E+02  0.45594000000E+02  0.51100000000E-03 0. -1.
    9900012    2    1    2    0    0  0.93693480476E+01 -0.16365175791E+02 -0.25712172037E+02  0.59301961482E+02  0.50000031832E+02 0.  0.
        -12    1    1    2    0    0 -0.93693480476E+01  0.16365175791E+02  0.25712172037E+02  0.31886038518E+02  0.00000000000E+00 0.  1.
         11    1    3    3    0    0 -0.74641662529E+01 -0.81454733614E+01  0.41574070115E+01  0.11804513859E+02  0.51100000000E-03 0. -1.
        -11    1    3    3    0    0 -0.48466304443E+01  0.72443181232E+01 -0.14017204866E+02  0.16506120206E+02  0.51100000000E-03 0.  1.
         12    1    3    3    0    0  0.21680144745E+02 -0.15464020553E+02 -0.15852374183E+02  0.30991327417E+02  0.00000000000E+00 0. -1.
</event>
<event>
 7    1  0.5755468E-013  0.5930195E+02  0.7816164E-02  0.1266605E+00
        -11   -1    0    0    0    0  0.00000000000E+00  0.00000000000E+00  0.45593999997E+02  0.45594000000E+02  0.51100000000E-03 0. -1.
         11   -1    0    0    0    0 -0.00000000000E+00 -0.00000000000E+00 -0.45593999997E+02  0.45594000000E+02  0.51100000000E-03 0.  1.
    9900012    2    1    2    0    0  0.77693171741E+01 -0.99419121581E+01  0.29283376533E+02  0.59301952144E+02  0.50000014802E+02 0.  0.
        -12    1    1    2    0    0 -0.77693171741E+01  0.99419121581E+01 -0.29283376533E+02  0.31886047856E+02  0.00000000000E+00 0.  1.
         11    1    3    3    0    0  0.12668923930E+02 -0.86806473744E+01  0.18451699657E+02  0.24006676006E+02  0.51100000000E-03 0. -1.
        -11    1    3    3    0    0 -0.53944570698E+01  0.12530855838E+02 -0.47820161269E+01  0.14456493130E+02  0.51100000000E-03 0.  1.
        -12    1    3    3    0    0  0.49485031428E+00 -0.13792120622E+02  0.15613693002E+02  0.20838783008E+02  0.00000000000E+00 0.  1.
</event>
<event>
 7    1  0.5755468E-013  0.5930197E+02  0.7816164E-02  0.1266605E+00
        -11   -1    0    0    0    0  0.00000000000E+00  0.00000000000E+00  0.45593999997E+02  0.45594000000E+02  0.51100000000E-03 0.  1.
         11   -1    0    0    0    0 -0.00000000000E+00 -0.00000000000E+00 -0.45593999997E+02  0.45594000000E+02  0.51100000000E-03 0. -1.
    9900012    2    1    2    0    0  0.13299156182E+00  0.24656421091E+02 -0.20217870357E+02  0.59301967485E+02  0.50000042781E+02 0.  0.
        -12    1    1    2    0    0 -0.13299156182E+00 -0.24656421091E+02  0.20217870357E+02  0.31886032515E+02  0.00000000000E+00 0.  1.
         11    1    3    3    0    0  0.18830677821E+02  0.21155820426E+02 -0.18644156885E+02  0.33908225423E+02  0.51100000000E-03 0. -1.
        -11    1    3    3    0    0 -0.21775982743E+01 -0.18121648093E+01  0.58648952989E+01  0.65132843227E+01  0.51100000000E-03 0.  1.
         12    1    3    3    0    0 -0.16520087985E+02  0.53127654745E+01 -0.74386087708E+01  0.18880457740E+02  0.00000000000E+00 0. -1.
</event>
<event>
 7    1  0.5755468E-013  0.5930200E+02  0.7816164E-02  0.1266605E+00
        -11   -1    0    0    0    0  0.00000000000E+00  0.00000000000E+00  0.45593999997E+02  0.45594000000E+02  0.51100000000E-03 0.  1.
         11   -1    0    0    0    0 -0.00000000000E+00 -0.00000000000E+00 -0.45593999997E+02  0.45594000000E+02  0.51100000000E-03 0. -1.
    9900012    2    1    2    0    0 -0.21475885170E+02  0.30904762669E+00 -0.23567096439E+02  0.59301996976E+02  0.50000096565E+02 0.  0.
        -12    1    1    2    0    0  0.21475885170E+02 -0.30904762669E+00  0.23567096439E+02  0.31886003024E+02  0.00000000000E+00 0.  1.
         11    1    3    3    0    0 -0.19266630420E+02  0.91487067736E+01 -0.70035216716E+01  0.22448857420E+02  0.51100000000E-03 0. -1.
        -11    1    3    3    0    0 -0.15086743280E+01 -0.20168707074E+02 -0.15443947543E+02  0.25447364485E+02  0.51100000000E-03 0.  1.
        -12    1    3    3    0    0 -0.70058042163E+00  0.11329047927E+02 -0.11196272245E+01  0.11405775071E+02  0.00000000000E+00 0.  1.
</event>
<event>
 7    1  0.5755468E-013  0.5930194E+02  0.7816164E-02  0.1266605E+00
        -11   -1    0    0    0    0  0.00000000000E+00  0.00000000000E+00  0.45593999997E+02  0.45594000000E+02  0.51100000000E-03 0.  1.
         11   -1    0    0    0    0 -0.00000000000E+00 -0.00000000000E+00 -0.45593999997E+02  0.45594000000E+02  0.51100000000E-03 0. -1.
    9900012    2    1    2    0    0  0.27278168914E+02  0.16212317801E+02 -0.31277602668E+01  0.59301942983E+02  0.49999998094E+02 0.  0.
        -12    1    1    2    0    0 -0.27278168914E+02 -0.16212317801E+02  0.31277602668E+01  0.31886057017E+02  0.00000000000E+00 0.  1.
         11    1    3    3    0    0  0.36879287111E+02 -0.10877492137E+01 -0.31775998733E+01  0.37031907288E+02  0.51100000000E-03 0. -1.
        -11    1    3    3    0    0 -0.11421151312E+01 -0.10281220091E+01 -0.13362676553E+01  0.20364364331E+01  0.51100000000E-03 0.  1.
         12    1    3    3    0    0 -0.84590030650E+01  0.18328189024E+02  0.13861072617E+01  0.20233599262E+02  0.00000000000E+00 0. -1.
</event>
<event>
 7    1  0.5755468E-013  0.5930195E+02  0.7816164E-02  0.1266605E+00
        -11   -1    0    0    0    0  0.00000000000E+00  0.00000000000E+00  0.45593999997E+02  0.45594000000E+02  0.51100000000E-03 0.  1.
         11   -1    0    0    0    0 -0.00000000000E+00 -0.00000000000E+00 -0.45593999997E+02  0.45594000000E+02  0.51100000000E-03 0. -1.
    9900012    2    1    2    0    0  0.15902159381E+02  0.14806002534E+00 -0.27637291187E+02  0.59301945698E+02  0.50000003047E+02 0.  0.
        -12    1    1    2    0    0 -0.15902159381E+02 -0.14806002534E+00  0.27637291187E+02  0.31886054302E+02  0.00000000000E+00 0.  1.
         11    1    3    3    0    0 -0.95366099308E+01  0.11485847062E+02  0.88351599690E+00  0.14955006268E+02  0.51100000000E-03 0. -1.
        -11    1    3    3    0    0  0.22131200729E+02 -0.11086475738E+02 -0.12021636839E+02  0.27517626034E+02  0.51100000000E-03 0.  1.
        -12    1    3    3    0    0  0.33075685827E+01 -0.25131129929E+00 -0.16499170346E+02  0.16829313396E+02  0.00000000000E+00 0.  1.
</event>
<event>
 7    1  0.5755468E-013  0.5930192E+02  0.7816164E-02  0.1266605E+00
        -11   -1    0    0    0    0  0.00000000000E+00  0.00000000000E+00  0.45593999997E+02  0.45594000000E+02  0.51100000000E-03 0.  1.
         11   -1    0    0    0    0 -0.00000000000E+00 -0.00000000000E+00 -0.45593999997E+02  0.45594000000E+02  0.51100000000E-03 0. -1.
    9900012    2    1    2    0    0 -0.23934463525E+02  0.21056183832E+02 -0.70757676370E+00  0.59301920174E+02  0.49999956497E+02 0.  0.
        -12    1    1    2    0    0  0.23934463525E+02 -0.21056183832E+02  0.70757676370E+00  0.31886079826E+02  0.00000000000E+00 0.  1.
         11    1    3    3    0    0 -0.67661966414E+01  0.23327566029E+02 -0.19948976175E+02  0.31431169315E+02  0.51100000000E-03 0. -1.
        -11    1    3    3    0    0 -0.87675779243E+01  0.16505425663E+01  0.34628716042E+01  0.95700675770E+01  0.51100000000E-03 0.  1.
         12    1    3    3    0    0 -0.84006889593E+01 -0.39219247633E+01  0.15778527807E+02  0.18300683282E+02  0.00000000000E+00 0. -1.
</event>
<event>
 7    1  0.5755468E-013  0.5930195E+02  0.7816164E-02  0.1266605E+00
        -11   -1    0    0    0    0  0.00000000000E+00  0.00000000000E+00  0.45593999997E+02  0.45594000000E+02  0.51100000000E-03 0. -1.
         11   -1    0    0    0    0 -0.00000000000E+00 -0.00000000000E+00 -0.45593999997E+02  0.45594000000E+02  0.51100000000E-03 0.  1.
    9900012    2    1    2    0    0  0.61370588285E+01  0.15292589814E+02  0.27298230399E+02  0.59301950116E+02  0.50000011104E+02 0.  0.
        -12    1    1    2    0    0 -0.61370588285E+01 -0.15292589814E+02 -0.27298230399E+02  0.31886049884E+02  0.00000000000E+00 0.  1.
         11    1    3    3    0    0  0.13676231377E+02  0.11512799160E+02  0.10011191734E+02  0.20489212024E+02  0.51100000000E-03 0. -1.
        -11    1    3    3    0    0 -0.92973501865E+00 -0.13641839633E+02  0.14572086211E+02  0.19982739867E+02  0.51100000000E-03 0.  1.
        -12    1    3    3    0    0 -0.66094375298E+01  0.17421630288E+02  0.27149524544E+01  0.18829998226E+02  0.00000000000E+00 0.  1.
</event>
<event>
 7    1  0.5755468E-013  0.5930194E+02  0.7816164E-02  0.1266605E+00
        -11   -1    0    0    0    0  0.00000000000E+00  0.00000000000E+00  0.45593999997E+02  0.45594000000E+02  0.51100000000E-03 0.  1.
         11   -1    0    0    0    0 -0.00000000000E+00 -0.00000000000E+00 -0.45593999997E+02  0.45594000000E+02  0.51100000000E-03 0. -1.
    9900012    2    1    2    0    0 -0.33213006411E+01  0.29824770745E+02 -0.10778344983E+02  0.59301941785E+02  0.49999995909E+02 0.  0.
        -12    1    1    2    0    0  0.33213006411E+01 -0.29824770745E+02  0.10778344983E+02  0.31886058215E+02  0.00000000000E+00 0.  1.
         11    1    3    3    0    0 -0.54430456682E+01 -0.32899773095E+01 -0.18210135199E+02  0.19288849657E+02  0.51100000000E-03 0.  1.
        -11    1    3    3    0    0 -0.43699390051E+00  0.35576849750E+02  0.78571829990E+01  0.36436774374E+02  0.51100000000E-03 0. -1.
         12    1    3    3    0    0  0.25587389277E+01 -0.24621016956E+01 -0.42539278292E+00  0.35763177542E+01  0.00000000000E+00 0. -1.
</event>
<event>
 7    1  0.5755468E-013  0.5930185E+02  0.7816164E-02  0.1266605E+00
        -11   -1    0    0    0    0  0.00000000000E+00  0.00000000000E+00  0.45593999997E+02  0.45594000000E+02  0.51100000000E-03 0.  1.
         11   -1    0    0    0    0 -0.00000000000E+00 -0.00000000000E+00 -0.45593999997E+02  0.45594000000E+02  0.51100000000E-03 0. -1.
    9900012    2    1    2    0    0 -0.18964286282E+02 -0.15366057840E+02 -0.20517476280E+02  0.59301847510E+02  0.49999823974E+02 0.  0.
        -12    1    1    2    0    0  0.18964286282E+02  0.15366057840E+02  0.20517476280E+02  0.31886152490E+02  0.00000000000E+00 0.  1.
         11    1    3    3    0    0 -0.28259635784E+02 -0.26165903335E+02 -0.12601310512E+02  0.40522272133E+02  0.51100000000E-03 0.  1.
        -11    1    3    3    0    0  0.24098185770E+01  0.97250779507E+01 -0.53096861907E+01  0.11339185792E+02  0.51100000000E-03 0. -1.
        -12    1    3    3    0    0  0.68855309245E+01  0.10747675435E+01 -0.26064795772E+01  0.74403895846E+01  0.00000000000E+00 0.  1.
</event>
<event>
 7    1  0.5755468E-013  0.5930194E+02  0.7816164E-02  0.1266605E+00
        -11   -1    0    0    0    0  0.00000000000E+00  0.00000000000E+00  0.45593999997E+02  0.45594000000E+02  0.51100000000E-03 0. -1.
         11   -1    0    0    0    0 -0.00000000000E+00 -0.00000000000E+00 -0.45593999997E+02  0.45594000000E+02  0.51100000000E-03 0.  1.
    9900012    2    1    2    0    0  0.21735683086E+02 -0.83308793643E+01  0.21791680396E+02  0.59301940277E+02  0.49999993159E+02 0.  0.
        -12    1    1    2    0    0 -0.21735683086E+02  0.83308793643E+01 -0.21791680396E+02  0.31886059723E+02  0.00000000000E+00 0.  1.
         11    1    3    3    0    0  0.15984118756E+02 -0.41982195815E+01  0.14372389237E+01  0.16588633338E+02  0.51100000000E-03 0. -1.
        -11    1    3    3    0    0 -0.32469500585E+01 -0.59334836630E+00  0.29332962807E+02  0.29518086900E+02  0.51100000000E-03 0.  1.
        -12    1    3    3    0    0  0.89985143886E+01 -0.35393114166E+01 -0.89785213342E+01  0.13195220038E+02  0.00000000000E+00 0.  1.
</event>
<event>
 7    1  0.5755468E-013  0.5930187E+02  0.7816164E-02  0.1266605E+00
        -11   -1    0    0    0    0  0.00000000000E+00  0.00000000000E+00  0.45593999997E+02  0.45594000000E+02  0.51100000000E-03 0. -1.
         11   -1    0    0    0    0 -0.00000000000E+00 -0.00000000000E+00 -0.45593999997E+02  0.45594000000E+02  0.51100000000E-03 0.  1.
    9900012    2    1    2    0    0 -0.71485199854E+01  0.15477881792E+02  0.26945489210E+02  0.59301865842E+02  0.49999857408E+02 0.  0.
        -12    1    1    2    0    0  0.71485199854E+01 -0.15477881792E+02 -0.26945489210E+02  0.31886134158E+02  0.00000000000E+00 0.  1.
         11    1    3    3    0    0 -0.45741020256E+01  0.55573164066E+01  0.11268187381E+02  0.13370797362E+02  0.51100000000E-03 0.  1.
        -11    1    3    3    0    0  0.14572739184E+02 -0.77001335170E+01 -0.51699943592E+00  0.16490120441E+02  0.51100000000E-03 0. -1.
        -12    1    3    3    0    0 -0.17147157143E+02  0.17620698903E+02  0.16194301265E+02  0.29440948038E+02  0.00000000000E+00 0.  1.
</event>
<event>
 7    1  0.5755468E-013  0.5930194E+02  0.7816164E-02  0.1266605E+00
        -11   -1    0    0    0    0  0.00000000000E+00  0.00000000000E+00  0.45593999997E+02  0.45594000000E+02  0.51100000000E-03 0. -1.
         11   -1    0    0    0    0 -0.00000000000E+00 -0.00000000000E+00 -0.45593999997E+02  0.45594000000E+02  0.51100000000E-03 0.  1.
    9900012    2    1    2    0    0 -0.29321803384E+02  0.12478119171E+02 -0.11177695046E+01  0.59301936894E+02  0.49999986990E+02 0.  0.
        -12    1    1    2    0    0  0.29321803384E+02 -0.12478119171E+02  0.11177695046E+01  0.31886063106E+02  0.00000000000E+00 0.  1.
         11    1    3    3    0    0 -0.31317758298E+02 -0.94111579744E+01  0.51933269664E+01  0.33111063475E+02  0.51100000000E-03 0. -1.
        -11    1    3    3    0    0  0.65464676799E+00 -0.53156715763E+00 -0.34463138335E+01  0.35479860955E+01  0.51100000000E-03 0.  1.
         12    1    3    3    0    0  0.13413081459E+01  0.22420844303E+02 -0.28647826375E+01  0.22642887324E+02  0.00000000000E+00 0. -1.
</event>
<event>
 7    1  0.5755468E-013  0.5930193E+02  0.7816164E-02  0.1266605E+00
        -11   -1    0    0    0    0  0.00000000000E+00  0.00000000000E+00  0.45593999997E+02  0.45594000000E+02  0.51100000000E-03 0.  1.
         11   -1    0    0    0    0 -0.00000000000E+00 -0.00000000000E+00 -0.45593999997E+02  0.45594000000E+02  0.51100000000E-03 0. -1.
    9900012    2    1    2    0    0  0.75267052137E+00 -0.27765361742E+02  0.15660135825E+02  0.59301926557E+02  0.49999968137E+02 0.  0.
        -12    1    1    2    0    0 -0.75267052137E+00  0.27765361742E+02 -0.15660135825E+02  0.31886073443E+02  0.00000000000E+00 0.  1.
         11    1    3    3    0    0  0.17962261126E+02 -0.22259365400E+02  0.13442018525E+02  0.31603956003E+02  0.51100000000E-03 0. -1.
        -11    1    3    3    0    0 -0.19767800672E+01  0.28993328444E+01  0.85038074083E+01  0.91993766677E+01  0.51100000000E-03 0.  1.
         12    1    3    3    0    0 -0.15232810537E+02 -0.84053291870E+01 -0.62856901084E+01  0.18498593886E+02  0.00000000000E+00 0. -1.
</event>
<event>
 7    1  0.5755468E-013  0.5930194E+02  0.7816164E-02  0.1266605E+00
        -11   -1    0    0    0    0  0.00000000000E+00  0.00000000000E+00  0.45593999997E+02  0.45594000000E+02  0.51100000000E-03 0. -1.
         11   -1    0    0    0    0 -0.00000000000E+00 -0.00000000000E+00 -0.45593999997E+02  0.45594000000E+02  0.51100000000E-03 0.  1.
    9900012    2    1    2    0    0  0.28679436831E+02  0.12194310042E+02  0.67460885644E+01  0.59301937131E+02  0.49999987422E+02 0.  0.
        -12    1    1    2    0    0 -0.28679436831E+02 -0.12194310042E+02 -0.67460885644E+01  0.31886062869E+02  0.00000000000E+00 0.  1.
         11    1    3    3    0    0  0.25193636743E+02  0.67781615647E+01  0.13720808332E+02  0.29477506477E+02  0.51100000000E-03 0. -1.
        -11    1    3    3    0    0  0.18651912086E+01  0.12634149595E+02 -0.14465550627E+02  0.19296446031E+02  0.51100000000E-03 0.  1.
        -12    1    3    3    0    0  0.16206088797E+01 -0.72180011178E+01  0.74908308591E+01  0.10527984624E+02  0.00000000000E+00 0.  1.
</event>
<event>
 7    1  0.5755468E-013  0.5930194E+02  0.7816164E-02  0.1266605E+00
        -11   -1    0    0    0    0  0.00000000000E+00  0.00000000000E+00  0.45593999997E+02  0.45594000000E+02  0.51100000000E-03 0. -1.
         11   -1    0    0    0    0 -0.00000000000E+00 -0.00000000000E+00 -0.45593999997E+02  0.45594000000E+02  0.51100000000E-03 0.  1.
    9900012    2    1    2    0    0 -0.18048456416E+02 -0.92534397278E+01  0.24603812684E+02  0.59301944672E+02  0.50000001175E+02 0.  0.
        -12    1    1    2    0    0  0.18048456416E+02  0.92534397278E+01 -0.24603812684E+02  0.31886055328E+02  0.00000000000E+00 0.  1.
         11    1    3    3    0    0  0.30853905737E+01  0.13447677979E+02  0.15825375358E+02  0.20995289555E+02  0.51100000000E-03 0. -1.
        -11    1    3    3    0    0 -0.25034341215E+02 -0.16737106732E+02  0.78493150126E+01  0.31120101675E+02  0.51100000000E-03 0.  1.
        -12    1    3    3    0    0  0.39004942249E+01 -0.59640109748E+01  0.92912231335E+00  0.71865534423E+01  0.00000000000E+00 0.  1.
</event>
<event>
 7    1  0.5755468E-013  0.5930190E+02  0.7816164E-02  0.1266605E+00
        -11   -1    0    0    0    0  0.00000000000E+00  0.00000000000E+00  0.45593999997E+02  0.45594000000E+02  0.51100000000E-03 0.  1.
         11   -1    0    0    0    0 -0.00000000000E+00 -0.00000000000E+00 -0.45593999997E+02  0.45594000000E+02  0.51100000000E-03 0. -1.
    9900012    2    1    2    0    0  0.18402024225E+02  0.22143241506E+02 -0.13702761747E+02  0.59301900842E+02  0.49999921240E+02 0.  0.
        -12    1    1    2    0    0 -0.18402024225E+02 -0.22143241506E+02  0.13702761747E+02  0.31886099158E+02  0.00000000000E+00 0.  1.
         11    1    3    3    0    0 -0.57550727891E+01  0.21519493181E+02 -0.99522205190E+01  0.24397871692E+02  0.51100000000E-03 0. -1.
        -11    1    3    3    0    0  0.14017912548E+02 -0.95036273240E+01  0.55475789068E+01  0.17821235549E+02  0.51100000000E-03 0.  1.
         12    1    3    3    0    0  0.10139184466E+02  0.10127375649E+02 -0.92981201351E+01  0.17082793601E+02  0.00000000000E+00 0. -1.
</event>
<event>
 7    1  0.5755468E-013  0.5930180E+02  0.7816164E-02  0.1266605E+00
        -11   -1    0    0    0    0  0.00000000000E+00  0.00000000000E+00  0.45593999997E+02  0.45594000000E+02  0.51100000000E-03 0.  1.
         11   -1    0    0    0    0 -0.00000000000E+00 -0.00000000000E+00 -0.45593999997E+02  0.45594000000E+02  0.51100000000E-03 0. -1.
    9900012    2    1    2    0    0  0.14028343489E+02  0.22836472545E+02 -0.17275146488E+02  0.59301802586E+02  0.49999742043E+02 0.  0.
        -12    1    1    2    0    0 -0.14028343489E+02 -0.22836472545E+02  0.17275146488E+02  0.31886197414E+02  0.00000000000E+00 0.  1.
         11    1    3    3    0    0  0.22002858027E+02  0.67816488858E+01 -0.25873598808E+02  0.34634659498E+02  0.51100000000E-03 0. -1.
        -11    1    3    3    0    0 -0.10491905669E+00 -0.20439648148E+01  0.38624208647E+01  0.43711663627E+01  0.51100000000E-03 0.  1.
         12    1    3    3    0    0 -0.78695954821E+01  0.18098788474E+02  0.47360314554E+01  0.20295976725E+02  0.00000000000E+00 0. -1.
</event>
<event>
 7    1  0.5755468E-013  0.5930194E+02  0.7816164E-02  0.1266605E+00
        -11   -1    0    0    0    0  0.00000000000E+00  0.00000000000E+00  0.45593999997E+02  0.45594000000E+02  0.51100000000E-03 0.  1.
         11   -1    0    0    0    0 -0.00000000000E+00 -0.00000000000E+00 -0.45593999997E+02  0.45594000000E+02  0.51100000000E-03 0. -1.
    9900012    2    1    2    0    0 -0.28917383797E+02  0.10929523695E+02 -0.78135282533E+01  0.59301940387E+02  0.49999993360E+02 0.  0.
        -12    1    1    2    0    0  0.28917383797E+02 -0.10929523695E+02  0.78135282533E+01  0.31886059613E+02  0.00000000000E+00 0.  1.
         11    1    3    3    0    0 -0.23965822157E+01  0.68912423967E+01 -0.13073989808E+01  0.74122952210E+01  0.51100000000E-03 0. -1.
        -11    1    3    3    0    0 -0.14059325545E+02 -0.18700742794E+02  0.43180550624E+01  0.23791343292E+02  0.51100000000E-03 0.  1.
        -12    1    3    3    0    0 -0.12461476037E+02  0.22739024093E+02 -0.10824184335E+02  0.28098301874E+02  0.00000000000E+00 0.  1.
</event>
<event>
 7    1  0.5755468E-013  0.5930195E+02  0.7816164E-02  0.1266605E+00
        -11   -1    0    0    0    0  0.00000000000E+00  0.00000000000E+00  0.45593999997E+02  0.45594000000E+02  0.51100000000E-03 0.  1.
         11   -1    0    0    0    0 -0.00000000000E+00 -0.00000000000E+00 -0.45593999997E+02  0.45594000000E+02  0.51100000000E-03 0. -1.
    9900012    2    1    2    0    0  0.10464025313E+02 -0.28785730606E+02 -0.88660198345E+01  0.59301946309E+02  0.50000004160E+02 0.  0.
        -12    1    1    2    0    0 -0.10464025313E+02  0.28785730606E+02  0.88660198345E+01  0.31886053691E+02  0.00000000000E+00 0.  1.
         11    1    3    3    0    0  0.44287851291E+01 -0.26713991834E+02  0.67545255541E+01  0.27908334117E+02  0.51100000000E-03 0. -1.
        -11    1    3    3    0    0  0.77812891817E+00 -0.96703461780E+01 -0.19178220201E+02  0.21492445421E+02  0.51100000000E-03 0.  1.
        -12    1    3    3    0    0  0.52571112658E+01  0.75986074059E+01  0.35576748125E+01  0.99011667718E+01  0.00000000000E+00 0.  1.
</event>
<event>
 7    1  0.5755468E-013  0.5930194E+02  0.7816164E-02  0.1266605E+00
        -11   -1    0    0    0    0  0.00000000000E+00  0.00000000000E+00  0.45593999997E+02  0.45594000000E+02  0.51100000000E-03 0.  1.
         11   -1    0    0    0    0 -0.00000000000E+00 -0.00000000000E+00 -0.45593999997E+02  0.45594000000E+02  0.51100000000E-03 0. -1.
    9900012    2    1    2    0    0 -0.27113307936E+02  0.79943055304E+01 -0.14753998148E+02  0.59301939573E+02  0.49999991876E+02 0.  0.
        -12    1    1    2    0    0  0.27113307936E+02 -0.79943055304E+01  0.14753998148E+02  0.31886060427E+02  0.00000000000E+00 0.  1.
         11    1    3    3    0    0 -0.44820680485E+01 -0.15109336368E+02 -0.16261571648E+02  0.22645522564E+02  0.51100000000E-03 0. -1.
        -11    1    3    3    0    0 -0.69116804804E+00  0.11492033455E+02 -0.16599089578E+01  0.11631846122E+02  0.51100000000E-03 0.  1.
         12    1    3    3    0    0 -0.21940071840E+02  0.11611608443E+02  0.31674824576E+01  0.25024570887E+02  0.00000000000E+00 0. -1.
</event>
<event>
 7    1  0.5755468E-013  0.5930194E+02  0.7816164E-02  0.1266605E+00
        -11   -1    0    0    0    0  0.00000000000E+00  0.00000000000E+00  0.45593999997E+02  0.45594000000E+02  0.51100000000E-03 0.  1.
         11   -1    0    0    0    0 -0.00000000000E+00 -0.00000000000E+00 -0.45593999997E+02  0.45594000000E+02  0.51100000000E-03 0. -1.
    9900012    2    1    2    0    0  0.42008773379E+01 -0.17945957886E+02  0.26019531483E+02  0.59301940452E+02  0.49999993479E+02 0.  0.
        -12    1    1    2    0    0 -0.42008773379E+01  0.17945957886E+02 -0.26019531483E+02  0.31886059548E+02  0.00000000000E+00 0.  1.
         11    1    3    3    0    0 -0.50754096267E+00  0.10019052579E+02 -0.37275774925E+01  0.10702048712E+02  0.51100000000E-03 0. -1.
        -11    1    3    3    0    0  0.70303747501E+00 -0.17395786773E+02  0.32586712146E+02  0.36945926270E+02  0.51100000000E-03 0.  1.
         12    1    3    3    0    0  0.40053808256E+01 -0.10569223692E+02 -0.28396031704E+01  0.11653965470E+02  0.00000000000E+00 0. -1.
</event>
<event>
 7    1  0.5755468E-013  0.5930191E+02  0.7816164E-02  0.1266605E+00
        -11   -1    0    0    0    0  0.00000000000E+00  0.00000000000E+00  0.45593999997E+02  0.45594000000E+02  0.51100000000E-03 0.  1.
         11   -1    0    0    0    0 -0.00000000000E+00 -0.00000000000E+00 -0.45593999997E+02  0.45594000000E+02  0.51100000000E-03 0. -1.
    9900012    2    1    2    0    0 -0.15876141340E+02 -0.30220368010E+01 -0.27487059395E+02  0.59301905782E+02  0.49999930249E+02 0.  0.
        -12    1    1    2    0    0  0.15876141340E+02  0.30220368010E+01  0.27487059395E+02  0.31886094218E+02  0.00000000000E+00 0.  1.
         11    1    3    3    0    0 -0.15832659681E+02 -0.22986381492E+02 -0.79783001307E+01  0.29029297613E+02  0.51100000000E-03 0. -1.
        -11    1    3    3    0    0 -0.37362650099E+01  0.21993839366E+01 -0.12060954208E+01  0.45001813685E+01  0.51100000000E-03 0.  1.
         12    1    3    3    0    0  0.36927833502E+01  0.17764960754E+02 -0.18302663843E+02  0.25772426801E+02  0.00000000000E+00 0. -1.
</event>
<event>
 7    1  0.5755468E-013  0.5930198E+02  0.7816164E-02  0.1266605E+00
        -11   -1    0    0    0    0  0.00000000000E+00  0.00000000000E+00  0.45593999997E+02  0.45594000000E+02  0.51100000000E-03 0.  1.
         11   -1    0    0    0    0 -0.00000000000E+00 -0.00000000000E+00 -0.45593999997E+02  0.45594000000E+02  0.51100000000E-03 0. -1.
    9900012    2    1    2    0    0 -0.23851155734E+02  0.10974103361E+02 -0.18094468895E+02  0.59301978313E+02  0.50000062529E+02 0.  0.
        -12    1    1    2    0    0  0.23851155734E+02 -0.10974103361E+02  0.18094468895E+02  0.31886021687E+02  0.00000000000E+00 0.  1.
         11    1    3    3    0    0  0.66324196457E+01  0.17958222056E+02 -0.15734250123E+01  0.19208393902E+02  0.51100000000E-03 0.  1.
        -11    1    3    3    0    0 -0.17282454174E+02 -0.13381831054E+02 -0.10181912923E+02  0.24112817663E+02  0.51100000000E-03 0. -1.
        -12    1    3    3    0    0 -0.13201121205E+02  0.63977123591E+01 -0.63391309598E+01  0.15980766747E+02  0.00000000000E+00 0.  1.
</event>
<event>
 7    1  0.5755468E-013  0.5930194E+02  0.7816164E-02  0.1266605E+00
        -11   -1    0    0    0    0  0.00000000000E+00  0.00000000000E+00  0.45593999997E+02  0.45594000000E+02  0.51100000000E-03 0. -1.
         11   -1    0    0    0    0 -0.00000000000E+00 -0.00000000000E+00 -0.45593999997E+02  0.45594000000E+02  0.51100000000E-03 0.  1.
    9900012    2    1    2    0    0  0.61253521321E+01  0.29167342248E+02 -0.11334326963E+02  0.59301940973E+02  0.49999994429E+02 0.  0.
        -12    1    1    2    0    0 -0.61253521321E+01 -0.29167342248E+02  0.11334326963E+02  0.31886059027E+02  0.00000000000E+00 0.  1.
         11    1    3    3    0    0 -0.15211036376E+02  0.19651940059E+02  0.18592048159E+00  0.24851739223E+02  0.51100000000E-03 0. -1.
        -11    1    3    3    0    0  0.18155801907E+02  0.16652429448E+02 -0.92221444650E+01  0.26305598229E+02  0.51100000000E-03 0.  1.
        -12    1    3    3    0    0  0.31805866005E+01 -0.71370272586E+01 -0.22981029799E+01  0.81446035213E+01  0.00000000000E+00 0.  1.
</event>
<event>
 7    1  0.5755468E-013  0.5930196E+02  0.7816164E-02  0.1266605E+00
        -11   -1    0    0    0    0  0.00000000000E+00  0.00000000000E+00  0.45593999997E+02  0.45594000000E+02  0.51100000000E-03 0.  1.
         11   -1    0    0    0    0 -0.00000000000E+00 -0.00000000000E+00 -0.45593999997E+02  0.45594000000E+02  0.51100000000E-03 0. -1.
    9900012    2    1    2    0    0 -0.12672135400E+02 -0.18461214111E+02 -0.22700669720E+02  0.59301955282E+02  0.50000020524E+02 0.  0.
        -12    1    1    2    0    0  0.12672135400E+02  0.18461214111E+02  0.22700669720E+02  0.31886044718E+02  0.00000000000E+00 0.  1.
         11    1    3    3    0    0 -0.25387528346E+02 -0.19159072012E+02 -0.13419681923E+02  0.34520783581E+02  0.51100000000E-03 0. -1.
        -11    1    3    3    0    0  0.14103394889E+02  0.32806100812E+01 -0.13397508127E+02  0.19727173497E+02  0.51100000000E-03 0.  1.
        -12    1    3    3    0    0 -0.13880019429E+01 -0.25827521801E+01  0.41165203296E+01  0.50539982035E+01  0.00000000000E+00 0.  1.
</event>
<event>
 7    1  0.5755468E-013  0.5930195E+02  0.7816164E-02  0.1266605E+00
        -11   -1    0    0    0    0  0.00000000000E+00  0.00000000000E+00  0.45593999997E+02  0.45594000000E+02  0.51100000000E-03 0.  1.
         11   -1    0    0    0    0 -0.00000000000E+00 -0.00000000000E+00 -0.45593999997E+02  0.45594000000E+02  0.51100000000E-03 0. -1.
    9900012    2    1    2    0    0 -0.19140692826E+02  0.97793545399E+01 -0.23552455143E+02  0.59301952262E+02  0.50000015017E+02 0.  0.
        -12    1    1    2    0    0  0.19140692826E+02 -0.97793545399E+01  0.23552455143E+02  0.31886047738E+02  0.00000000000E+00 0.  1.
         11    1    3    3    0    0 -0.13874678573E+02  0.65197558554E+01 -0.36214905306E+01  0.15752114647E+02  0.51100000000E-03 0. -1.
        -11    1    3    3    0    0  0.64319462337E+01  0.18418192377E+02 -0.11318989957E+02  0.22554806066E+02  0.51100000000E-03 0.  1.
        -12    1    3    3    0    0 -0.11697960487E+02 -0.15158593692E+02 -0.86119746552E+01  0.20995031549E+02  0.00000000000E+00 0.  1.
</event>
<event>
 7    1  0.5755468E-013  0.5930193E+02  0.7816164E-02  0.1266605E+00
        -11   -1    0    0    0    0  0.00000000000E+00  0.00000000000E+00  0.45593999997E+02  0.45594000000E+02  0.51100000000E-03 0.  1.
         11   -1    0    0    0    0 -0.00000000000E+00 -0.00000000000E+00 -0.45593999997E+02  0.45594000000E+02  0.51100000000E-03 0. -1.
    9900012    2    1    2    0    0  0.47148534391E+01  0.31458685813E+02 -0.22005692144E+01  0.59301933123E+02  0.49999980112E+02 0.  0.
        -12    1    1    2    0    0 -0.47148534391E+01 -0.31458685813E+02  0.22005692144E+01  0.31886066877E+02  0.00000000000E+00 0.  1.
         11    1    3    3    0    0 -0.21677656412E+01  0.33104336160E+02  0.94041198241E+01  0.34482368689E+02  0.51100000000E-03 0. -1.
        -11    1    3    3    0    0  0.57899381395E+00 -0.10799578824E+02 -0.60979985862E+01  0.12415785260E+02  0.51100000000E-03 0.  1.
         12    1    3    3    0    0  0.63036252663E+01  0.91539284767E+01 -0.55066904524E+01  0.12403779174E+02  0.00000000000E+00 0. -1.
</event>
<event>
 7    1  0.5755468E-013  0.5930193E+02  0.7816164E-02  0.1266605E+00
        -11   -1    0    0    0    0  0.00000000000E+00  0.00000000000E+00  0.45593999997E+02  0.45594000000E+02  0.51100000000E-03 0.  1.
         11   -1    0    0    0    0 -0.00000000000E+00 -0.00000000000E+00 -0.45593999997E+02  0.45594000000E+02  0.51100000000E-03 0. -1.
    9900012    2    1    2    0    0 -0.35705803277E+01 -0.16423097903E+01 -0.31642931965E+02  0.59301931432E+02  0.49999977029E+02 0.  0.
        -12    1    1    2    0    0  0.35705803277E+01  0.16423097903E+01  0.31642931965E+02  0.31886068568E+02  0.00000000000E+00 0.  1.
         11    1    3    3    0    0 -0.12044029721E+02  0.20132149444E+02 -0.17967315130E+02  0.29549729379E+02  0.51100000000E-03 0. -1.
        -11    1    3    3    0    0  0.25018786233E+01 -0.19916581672E+02 -0.93216519271E+01  0.22131941104E+02  0.51100000000E-03 0.  1.
         12    1    3    3    0    0  0.59715707703E+01 -0.18578775627E+01 -0.43539649086E+01  0.76202609488E+01  0.00000000000E+00 0. -1.
</event>
<event>
 7    1  0.5755468E-013  0.5930196E+02  0.7816164E-02  0.1266605E+00
        -11   -1    0    0    0    0  0.00000000000E+00  0.00000000000E+00  0.45593999997E+02  0.45594000000E+02  0.51100000000E-03 0. -1.
         11   -1    0    0    0    0 -0.00000000000E+00 -0.00000000000E+00 -0.45593999997E+02  0.45594000000E+02  0.51100000000E-03 0.  1.
    9900012    2    1    2    0    0  0.30829491872E+02  0.53137742784E+01 -0.61665233779E+01  0.59301956396E+02  0.50000022556E+02 0.  0.
        -12    1    1    2    0    0 -0.30829491872E+02 -0.53137742784E+01  0.61665233779E+01  0.31886043604E+02  0.00000000000E+00 0.  1.
         11    1    3    3    0    0  0.14807356877E+02 -0.14975834729E+02 -0.62285024889E+01  0.21961960000E+02  0.51100000000E-03 0. -1.
        -11    1    3    3    0    0  0.88891480904E+01  0.18647817323E+02 -0.11509428408E+02  0.23647938330E+02  0.51100000000E-03 0.  1.
        -12    1    3    3    0    0  0.71329869047E+01  0.16417916838E+01  0.11571407519E+02  0.13692058066E+02  0.00000000000E+00 0.  1.
</event>
<event>
 7    1  0.5755468E-013  0.5930192E+02  0.7816164E-02  0.1266605E+00
        -11   -1    0    0    0    0  0.00000000000E+00  0.00000000000E+00  0.45593999997E+02  0.45594000000E+02  0.51100000000E-03 0. -1.
         11   -1    0    0    0    0 -0.00000000000E+00 -0.00000000000E+00 -0.45593999997E+02  0.45594000000E+02  0.51100000000E-03 0.  1.
    9900012    2    1    2    0    0 -0.25864375743E+02 -0.42500356940E+01  0.18157468623E+02  0.59301915217E+02  0.49999947456E+02 0.  0.
        -12    1    1    2    0    0  0.25864375743E+02  0.42500356940E+01 -0.18157468623E+02  0.31886084783E+02  0.00000000000E+00 0.  1.
         11    1    3    3    0    0 -0.64145094663E+00  0.12009405877E+01  0.76564927405E+01  0.77766058765E+01  0.51100000000E-03 0. -1.
        -11    1    3    3    0    0 -0.83933814480E+01 -0.10984113671E+02 -0.15048825846E+02  0.20434450442E+02  0.51100000000E-03 0.  1.
        -12    1    3    3    0    0 -0.16829543349E+02  0.55331373895E+01  0.25549801728E+02  0.31090858898E+02  0.00000000000E+00 0.  1.
</event>
<event>
 7    1  0.5755468E-013  0.5930192E+02  0.7816164E-02  0.1266605E+00
        -11   -1    0    0    0    0  0.00000000000E+00  0.00000000000E+00  0.45593999997E+02  0.45594000000E+02  0.51100000000E-03 0.  1.
         11   -1    0    0    0    0 -0.00000000000E+00 -0.00000000000E+00 -0.45593999997E+02  0.45594000000E+02  0.51100000000E-03 0. -1.
    9900012    2    1    2    0    0 -0.24798205076E+02  0.86377663664E+01 -0.18087573672E+02  0.59301916764E+02  0.49999950277E+02 0.  0.
        -12    1    1    2    0    0  0.24798205076E+02 -0.86377663664E+01  0.18087573672E+02  0.31886083236E+02  0.00000000000E+00 0.  1.
         11    1    3    3    0    0  0.23497135565E+00  0.70125267617E+01 -0.30221827933E+02  0.31025628552E+02  0.51100000000E-03 0. -1.
        -11    1    3    3    0    0 -0.16165667872E+02  0.29642052918E+01  0.92305301413E+01  0.18849881106E+02  0.51100000000E-03 0.  1.
         12    1    3    3    0    0 -0.88675085600E+01 -0.13389656871E+01  0.29037241199E+01  0.94264071065E+01  0.00000000000E+00 0. -1.
</event>
<event>
 7    1  0.5755468E-013  0.5930195E+02  0.7816164E-02  0.1266605E+00
        -11   -1    0    0    0    0  0.00000000000E+00  0.00000000000E+00  0.45593999997E+02  0.45594000000E+02  0.51100000000E-03 0.  1.
         11   -1    0    0    0    0 -0.00000000000E+00 -0.00000000000E+00 -0.45593999997E+02  0.45594000000E+02  0.51100000000E-03 0. -1.
    9900012    2    1    2    0    0 -0.25474677887E+02  0.17773710740E+02  0.72011183347E+01  0.59301951136E+02  0.50000012963E+02 0.  0.
        -12    1    1    2    0    0  0.25474677887E+02 -0.17773710740E+02 -0.72011183347E+01  0.31886048864E+02  0.00000000000E+00 0.  1.
         11    1    3    3    0    0 -0.49871498223E+01  0.25163955224E+02 -0.19892260830E+01  0.25730396937E+02  0.51100000000E-03 0. -1.
        -11    1    3    3    0    0 -0.17567473278E+02 -0.15644250729E+02  0.70719890056E+01  0.24563626096E+02  0.51100000000E-03 0.  1.
        -12    1    3    3    0    0 -0.29200547863E+01  0.82540062453E+01  0.21183554120E+01  0.90079281027E+01  0.00000000000E+00 0.  1.
</event>
<event>
 7    1  0.5755468E-013  0.5930194E+02  0.7816164E-02  0.1266605E+00
        -11   -1    0    0    0    0  0.00000000000E+00  0.00000000000E+00  0.45593999997E+02  0.45594000000E+02  0.51100000000E-03 0.  1.
         11   -1    0    0    0    0 -0.00000000000E+00 -0.00000000000E+00 -0.45593999997E+02  0.45594000000E+02  0.51100000000E-03 0. -1.
    9900012    2    1    2    0    0 -0.22632376860E+02 -0.12415636722E+02 -0.18717596971E+02  0.59301937936E+02  0.49999988891E+02 0.  0.
        -12    1    1    2    0    0  0.22632376860E+02  0.12415636722E+02  0.18717596971E+02  0.31886062064E+02  0.00000000000E+00 0.  1.
         11    1    3    3    0    0 -0.51666176592E+01  0.22325070067E+01 -0.31620400821E+01  0.64557356911E+01  0.51100000000E-03 0. -1.
        -11    1    3    3    0    0 -0.15353928527E+02 -0.18477820402E+02 -0.29608079266E+02  0.38128877850E+02  0.51100000000E-03 0.  1.
        -12    1    3    3    0    0 -0.21118306737E+01  0.38296766728E+01  0.14052522377E+02  0.14717324396E+02  0.00000000000E+00 0.  1.
</event>
<event>
 7    1  0.5755468E-013  0.5930196E+02  0.7816164E-02  0.1266605E+00
        -11   -1    0    0    0    0  0.00000000000E+00  0.00000000000E+00  0.45593999997E+02  0.45594000000E+02  0.51100000000E-03 0. -1.
         11   -1    0    0    0    0 -0.00000000000E+00 -0.00000000000E+00 -0.45593999997E+02  0.45594000000E+02  0.51100000000E-03 0.  1.
    9900012    2    1    2    0    0  0.88551499986E+00  0.32487683219E+01  0.31707742786E+02  0.59301959402E+02  0.50000028039E+02 0.  0.
        -12    1    1    2    0    0 -0.88551499986E+00 -0.32487683219E+01 -0.31707742786E+02  0.31886040598E+02  0.00000000000E+00 0.  1.
         11    1    3    3    0    0 -0.56634008131E+01 -0.19571588662E+02  0.13889165391E+02  0.24658266505E+02  0.51100000000E-03 0. -1.
        -11    1    3    3    0    0 -0.28646730768E+01  0.19292587964E+02  0.10064495875E+02  0.21947764799E+02  0.51100000000E-03 0.  1.
         12    1    3    3    0    0  0.94135888897E+01  0.35277690193E+01  0.77540815195E+01  0.12695928097E+02  0.00000000000E+00 0. -1.
</event>
<event>
 7    1  0.5755468E-013  0.5930194E+02  0.7816164E-02  0.1266605E+00
        -11   -1    0    0    0    0  0.00000000000E+00  0.00000000000E+00  0.45593999997E+02  0.45594000000E+02  0.51100000000E-03 0.  1.
         11   -1    0    0    0    0 -0.00000000000E+00 -0.00000000000E+00 -0.45593999997E+02  0.45594000000E+02  0.51100000000E-03 0. -1.
    9900012    2    1    2    0    0  0.19674501402E+01 -0.30082505585E+02  0.10387132296E+02  0.59301944746E+02  0.50000001310E+02 0.  0.
        -12    1    1    2    0    0 -0.19674501402E+01  0.30082505585E+02 -0.10387132296E+02  0.31886055254E+02  0.00000000000E+00 0.  1.
         11    1    3    3    0    0 -0.40959490835E+00  0.19372423646E+01 -0.27700260321E+01  0.34049552784E+01  0.51100000000E-03 0. -1.
        -11    1    3    3    0    0 -0.41244768345E+00 -0.42334189721E+02  0.15268606621E+02  0.45005378354E+02  0.51100000000E-03 0.  1.
        -12    1    3    3    0    0  0.27894927320E+01  0.10314441771E+02 -0.21114482923E+01  0.10891611114E+02  0.00000000000E+00 0.  1.
</event>
<event>
 7    1  0.5755468E-013  0.5930202E+02  0.7816164E-02  0.1266605E+00
        -11   -1    0    0    0    0  0.00000000000E+00  0.00000000000E+00  0.45593999997E+02  0.45594000000E+02  0.51100000000E-03 0.  1.
         11   -1    0    0    0    0 -0.00000000000E+00 -0.00000000000E+00 -0.45593999997E+02  0.45594000000E+02  0.51100000000E-03 0. -1.
    9900012    2    1    2    0    0  0.31148005982E+02 -0.93497471988E+00 -0.67559922119E+01  0.59302017419E+02  0.50000133847E+02 0.  0.
        -12    1    1    2    0    0 -0.31148005982E+02  0.93497471988E+00  0.67559922119E+01  0.31885982581E+02  0.00000000000E+00 0.  1.
         11    1    3    3    0    0 -0.13350101524E+02 -0.21576906075E+01 -0.20544350733E+00  0.13524904686E+02  0.51100000000E-03 0. -1.
        -11    1    3    3    0    0  0.30508089517E+02 -0.29944643798E+01 -0.53276342901E+01  0.31114209459E+02  0.51100000000E-03 0.  1.
        -12    1    3    3    0    0  0.13990017990E+02  0.42171802674E+01 -0.12229144145E+01  0.14662903274E+02  0.00000000000E+00 0.  1.
</event>
<event>
 7    1  0.5755468E-013  0.5930195E+02  0.7816164E-02  0.1266605E+00
        -11   -1    0    0    0    0  0.00000000000E+00  0.00000000000E+00  0.45593999997E+02  0.45594000000E+02  0.51100000000E-03 0.  1.
         11   -1    0    0    0    0 -0.00000000000E+00 -0.00000000000E+00 -0.45593999997E+02  0.45594000000E+02  0.51100000000E-03 0. -1.
    9900012    2    1    2    0    0  0.27765042188E+02 -0.13459814911E+02  0.80409146964E+01  0.59301945144E+02  0.50000002035E+02 0.  0.
        -12    1    1    2    0    0 -0.27765042188E+02  0.13459814911E+02 -0.80409146964E+01  0.31886054856E+02  0.00000000000E+00 0.  1.
         11    1    3    3    0    0  0.18764356059E+02 -0.82336823205E+01 -0.60287233180E+01  0.21359777339E+02  0.51100000000E-03 0. -1.
        -11    1    3    3    0    0 -0.61509832617E+01  0.82554575717E+01 -0.37379541536E+01  0.10952601349E+02  0.51100000000E-03 0.  1.
        -12    1    3    3    0    0  0.15151669391E+02 -0.13481590162E+02  0.17807592168E+02  0.26989566456E+02  0.00000000000E+00 0.  1.
</event>
<event>
 7    1  0.5755468E-013  0.5930195E+02  0.7816164E-02  0.1266605E+00
        -11   -1    0    0    0    0  0.00000000000E+00  0.00000000000E+00  0.45593999997E+02  0.45594000000E+02  0.51100000000E-03 0.  1.
         11   -1    0    0    0    0 -0.00000000000E+00 -0.00000000000E+00 -0.45593999997E+02  0.45594000000E+02  0.51100000000E-03 0. -1.
    9900012    2    1    2    0    0  0.73040515566E+01  0.21429914483E+02 -0.22452835181E+02  0.59301949577E+02  0.50000010121E+02 0.  0.
        -12    1    1    2    0    0 -0.73040515566E+01 -0.21429914483E+02  0.22452835181E+02  0.31886050423E+02  0.00000000000E+00 0.  1.
         11    1    3    3    0    0 -0.67649764192E+00  0.32199849062E+01 -0.16188959873E+02  0.16519938676E+02  0.51100000000E-03 0. -1.
        -11    1    3    3    0    0  0.14114252184E+02 -0.60947941244E+01  0.36911091977E+01  0.15810848096E+02  0.51100000000E-03 0.  1.
        -12    1    3    3    0    0 -0.61337029859E+01  0.24304723701E+02 -0.99549845063E+01  0.26971162805E+02  0.00000000000E+00 0.  1.
</event>
<event>
 7    1  0.5755468E-013  0.5930195E+02  0.7816164E-02  0.1266605E+00
        -11   -1    0    0    0    0  0.00000000000E+00  0.00000000000E+00  0.45593999997E+02  0.45594000000E+02  0.51100000000E-03 0.  1.
         11   -1    0    0    0    0 -0.00000000000E+00 -0.00000000000E+00 -0.45593999997E+02  0.45594000000E+02  0.51100000000E-03 0. -1.
    9900012    2    1    2    0    0 -0.16113124505E+02 -0.24204467113E+02 -0.13085530166E+02  0.59301951181E+02  0.50000013047E+02 0.  0.
        -12    1    1    2    0    0  0.16113124505E+02  0.24204467113E+02  0.13085530166E+02  0.31886048819E+02  0.00000000000E+00 0.  1.
         11    1    3    3    0    0  0.43356221339E+01 -0.11761645909E+02 -0.23366423177E+02  0.26516479142E+02  0.51100000000E-03 0. -1.
        -11    1    3    3    0    0 -0.46262876115E+01 -0.14007436745E+02  0.78210172618E+01  0.16696680284E+02  0.51100000000E-03 0.  1.
         12    1    3    3    0    0 -0.15822459027E+02  0.15646155409E+01  0.24598757483E+01  0.16088791756E+02  0.00000000000E+00 0. -1.
</event>
<event>
 7    1  0.5755468E-013  0.5930208E+02  0.7816164E-02  0.1266604E+00
        -11   -1    0    0    0    0  0.00000000000E+00  0.00000000000E+00  0.45593999997E+02  0.45594000000E+02  0.51100000000E-03 0. -1.
         11   -1    0    0    0    0 -0.00000000000E+00 -0.00000000000E+00 -0.45593999997E+02  0.45594000000E+02  0.51100000000E-03 0.  1.
    9900012    2    1    2    0    0  0.23596715426E+02 -0.18830967307E+02  0.10261662488E+02  0.59302077940E+02  0.50000244223E+02 0.  0.
        -12    1    1    2    0    0 -0.23596715426E+02  0.18830967307E+02 -0.10261662488E+02  0.31885922060E+02  0.00000000000E+00 0.  1.
         11    1    3    3    0    0  0.60872929753E+01 -0.10778517221E+02  0.97094201282E+00  0.12416694323E+02  0.51100000000E-03 0. -1.
        -11    1    3    3    0    0 -0.71782377968E+01  0.12112136789E+02  0.28629292571E+01  0.14367578768E+02  0.51100000000E-03 0.  1.
        -12    1    3    3    0    0  0.24687660247E+02 -0.20164586874E+02  0.64277912179E+01  0.32517804849E+02  0.00000000000E+00 0.  1.
</event>
<event>
 7    1  0.5755468E-013  0.5930195E+02  0.7816164E-02  0.1266605E+00
        -11   -1    0    0    0    0  0.00000000000E+00  0.00000000000E+00  0.45593999997E+02  0.45594000000E+02  0.51100000000E-03 0.  1.
         11   -1    0    0    0    0 -0.00000000000E+00 -0.00000000000E+00 -0.45593999997E+02  0.45594000000E+02  0.51100000000E-03 0. -1.
    9900012    2    1    2    0    0  0.31045267881E+02 -0.32534510609E+01  0.65058646850E+01  0.59301954825E+02  0.50000019691E+02 0.  0.
        -12    1    1    2    0    0 -0.31045267881E+02  0.32534510609E+01 -0.65058646850E+01  0.31886045175E+02  0.00000000000E+00 0.  1.
         11    1    3    3    0    0 -0.12332516703E+02 -0.64008097043E+01  0.40236641240E+01  0.14465517838E+02  0.51100000000E-03 0. -1.
        -11    1    3    3    0    0  0.37266754127E+01  0.34338338774E+01 -0.37604670071E+00  0.50814108387E+01  0.51100000000E-03 0.  1.
         12    1    3    3    0    0  0.39651109171E+02 -0.28647523396E+00  0.28582472617E+01  0.39755026147E+02  0.00000000000E+00 0. -1.
</event>
<event>
 7    1  0.5755468E-013  0.5930193E+02  0.7816164E-02  0.1266605E+00
        -11   -1    0    0    0    0  0.00000000000E+00  0.00000000000E+00  0.45593999997E+02  0.45594000000E+02  0.51100000000E-03 0.  1.
         11   -1    0    0    0    0 -0.00000000000E+00 -0.00000000000E+00 -0.45593999997E+02  0.45594000000E+02  0.51100000000E-03 0. -1.
    9900012    2    1    2    0    0 -0.13519419062E+02 -0.77497931536E+01 -0.27818835053E+02  0.59301928285E+02  0.49999971289E+02 0.  0.
        -12    1    1    2    0    0  0.13519419062E+02  0.77497931536E+01  0.27818835053E+02  0.31886071715E+02  0.00000000000E+00 0.  1.
         11    1    3    3    0    0 -0.94695327505E+01 -0.90326765727E+01 -0.31297881337E+02  0.33923718443E+02  0.51100000000E-03 0. -1.
        -11    1    3    3    0    0 -0.11971368352E+02  0.39916711615E+01  0.88664396999E+01  0.15422738152E+02  0.51100000000E-03 0.  1.
        -12    1    3    3    0    0  0.79214820402E+01 -0.27087877424E+01 -0.53873934163E+01  0.99554716900E+01  0.00000000000E+00 0.  1.
</event>
<event>
 7    1  0.5755468E-013  0.5930199E+02  0.7816164E-02  0.1266605E+00
        -11   -1    0    0    0    0  0.00000000000E+00  0.00000000000E+00  0.45593999997E+02  0.45594000000E+02  0.51100000000E-03 0.  1.
         11   -1    0    0    0    0 -0.00000000000E+00 -0.00000000000E+00 -0.45593999997E+02  0.45594000000E+02  0.51100000000E-03 0. -1.
    9900012    2    1    2    0    0 -0.26635329067E+02  0.86238557689E+01 -0.15261264464E+02  0.59301986830E+02  0.50000078062E+02 0.  0.
        -12    1    1    2    0    0  0.26635329067E+02 -0.86238557689E+01  0.15261264464E+02  0.31886013170E+02  0.00000000000E+00 0.  1.
         11    1    3    3    0    0 -0.31959693022E+02  0.15579880577E+02 -0.23237487553E+02  0.42475116066E+02  0.51100000000E-03 0. -1.
        -11    1    3    3    0    0  0.48746675274E+01  0.19786649225E+01  0.72394940068E+00  0.53105179949E+01  0.51100000000E-03 0.  1.
         12    1    3    3    0    0  0.44969642779E+00 -0.89346897302E+01  0.72522736881E+01  0.11516352769E+02  0.00000000000E+00 0. -1.
</event>
<event>
 7    1  0.5755468E-013  0.5930194E+02  0.7816164E-02  0.1266605E+00
        -11   -1    0    0    0    0  0.00000000000E+00  0.00000000000E+00  0.45593999997E+02  0.45594000000E+02  0.51100000000E-03 0. -1.
         11   -1    0    0    0    0 -0.00000000000E+00 -0.00000000000E+00 -0.45593999997E+02  0.45594000000E+02  0.51100000000E-03 0.  1.
    9900012    2    1    2    0    0  0.18442447820E+02  0.20361119862E+02  0.16187080434E+02  0.59301942599E+02  0.49999997394E+02 0.  0.
        -12    1    1    2    0    0 -0.18442447820E+02 -0.20361119862E+02 -0.16187080434E+02  0.31886057401E+02  0.00000000000E+00 0.  1.
         11    1    3    3    0    0  0.21842255970E+02  0.28265288480E+01  0.24589920452E+02  0.33011173854E+02  0.51100000000E-03 0. -1.
        -11    1    3    3    0    0  0.40072105884E+01  0.15550219428E+02 -0.17765626326E+01  0.16156213542E+02  0.51100000000E-03 0.  1.
         12    1    3    3    0    0 -0.74070187377E+01  0.19843715855E+01 -0.66262773847E+01  0.10134555202E+02  0.00000000000E+00 0. -1.
</event>
<event>
 7    1  0.5755468E-013  0.5930196E+02  0.7816164E-02  0.1266605E+00
        -11   -1    0    0    0    0  0.00000000000E+00  0.00000000000E+00  0.45593999997E+02  0.45594000000E+02  0.51100000000E-03 0.  1.
         11   -1    0    0    0    0 -0.00000000000E+00 -0.00000000000E+00 -0.45593999997E+02  0.45594000000E+02  0.51100000000E-03 0. -1.
    9900012    2    1    2    0    0 -0.23490627383E+02 -0.39287238922E+01 -0.21200832236E+02  0.59301957069E+02  0.50000023785E+02 0.  0.
        -12    1    1    2    0    0  0.23490627383E+02  0.39287238922E+01  0.21200832236E+02  0.31886042931E+02  0.00000000000E+00 0.  1.
         11    1    3    3    0    0 -0.11903688616E+02  0.21821512800E+02 -0.14772350214E+02  0.28915368832E+02  0.51100000000E-03 0. -1.
        -11    1    3    3    0    0 -0.70923712451E+01 -0.12770019173E+02  0.12308706536E+01  0.14659132388E+02  0.51100000000E-03 0.  1.
        -12    1    3    3    0    0 -0.44945675217E+01 -0.12980217520E+02 -0.76593526763E+01  0.15727455849E+02  0.00000000000E+00 0.  1.
</event>
<event>
 7    1  0.5755468E-013  0.5930193E+02  0.7816164E-02  0.1266605E+00
        -11   -1    0    0    0    0  0.00000000000E+00  0.00000000000E+00  0.45593999997E+02  0.45594000000E+02  0.51100000000E-03 0. -1.
         11   -1    0    0    0    0 -0.00000000000E+00 -0.00000000000E+00 -0.45593999997E+02  0.45594000000E+02  0.51100000000E-03 0.  1.
    9900012    2    1    2    0    0 -0.12551485839E+02  0.17217822470E+02  0.23721894183E+02  0.59301929828E+02  0.49999974103E+02 0.  0.
        -12    1    1    2    0    0  0.12551485839E+02 -0.17217822470E+02 -0.23721894183E+02  0.31886070172E+02  0.00000000000E+00 0.  1.
         11    1    3    3    0    0 -0.45758769101E+01 -0.14689721363E+02  0.59914046355E-01  0.15386037605E+02  0.51100000000E-03 0. -1.
        -11    1    3    3    0    0 -0.61384058015E+01  0.20609394724E+02  0.50876017673E+01  0.22097757096E+02  0.51100000000E-03 0.  1.
         12    1    3    3    0    0 -0.18372031276E+01  0.11298149110E+02  0.18574378369E+02  0.21818135127E+02  0.00000000000E+00 0. -1.
</event>
<event>
 7    1  0.5755468E-013  0.5930229E+02  0.7816164E-02  0.1266604E+00
        -11   -1    0    0    0    0  0.00000000000E+00  0.00000000000E+00  0.45593999997E+02  0.45594000000E+02  0.51100000000E-03 0. -1.
         11   -1    0    0    0    0 -0.00000000000E+00 -0.00000000000E+00 -0.45593999997E+02  0.45594000000E+02  0.51100000000E-03 0.  1.
    9900012    2    1    2    0    0 -0.28265405550E+02  0.11205069468E+02  0.96026926980E+01  0.59302290980E+02  0.50000632753E+02 0.  0.
        -12    1    1    2    0    0  0.28265405550E+02 -0.11205069468E+02 -0.96026926980E+01  0.31885709020E+02  0.00000000000E+00 0.  1.
         11    1    3    3    0    0  0.11545925271E+02  0.62494653581E+01  0.83204203778E+01  0.15543281608E+02  0.51100000000E-03 0. -1.
        -11    1    3    3    0    0 -0.40924632175E+02  0.63817878807E+01  0.26304578088E+01  0.41502675140E+02  0.51100000000E-03 0.  1.
        -12    1    3    3    0    0  0.11133013546E+01 -0.14261837703E+01 -0.13481854886E+01  0.22563342316E+01  0.00000000000E+00 0.  1.
</event>
<event>
 7    1  0.5755468E-013  0.5930198E+02  0.7816164E-02  0.1266605E+00
        -11   -1    0    0    0    0  0.00000000000E+00  0.00000000000E+00  0.45593999997E+02  0.45594000000E+02  0.51100000000E-03 0.  1.
         11   -1    0    0    0    0 -0.00000000000E+00 -0.00000000000E+00 -0.45593999997E+02  0.45594000000E+02  0.51100000000E-03 0. -1.
    9900012    2    1    2    0    0  0.95959395064E+01 -0.28241046064E+02 -0.11272959120E+02  0.59301978844E+02  0.50000063497E+02 0.  0.
        -12    1    1    2    0    0 -0.95959395064E+01  0.28241046064E+02  0.11272959120E+02  0.31886021156E+02  0.00000000000E+00 0.  1.
         11    1    3    3    0    0 -0.63311672600E+01 -0.28371234025E+02 -0.15306074275E+02  0.32852496236E+02  0.51100000000E-03 0. -1.
        -11    1    3    3    0    0 -0.14629796077E+01 -0.72102705063E+00  0.83529359795E+01  0.85106832322E+01  0.51100000000E-03 0.  1.
         12    1    3    3    0    0  0.17390086374E+02  0.85121501138E+00 -0.43198208244E+01  0.17938799376E+02  0.00000000000E+00 0. -1.
</event>
<event>
 7    1  0.5755468E-013  0.5930194E+02  0.7816164E-02  0.1266605E+00
        -11   -1    0    0    0    0  0.00000000000E+00  0.00000000000E+00  0.45593999997E+02  0.45594000000E+02  0.51100000000E-03 0. -1.
         11   -1    0    0    0    0 -0.00000000000E+00 -0.00000000000E+00 -0.45593999997E+02  0.45594000000E+02  0.51100000000E-03 0.  1.
    9900012    2    1    2    0    0 -0.22198407664E+01  0.25972728167E+02  0.18363294583E+02  0.59301938948E+02  0.49999990736E+02 0.  0.
        -12    1    1    2    0    0  0.22198407664E+01 -0.25972728167E+02 -0.18363294583E+02  0.31886061052E+02  0.00000000000E+00 0.  1.
         11    1    3    3    0    0  0.11024101931E+02 -0.65447158932E+01  0.11998626688E+02  0.17559361383E+02  0.51100000000E-03 0. -1.
        -11    1    3    3    0    0  0.30079200379E+00  0.14310996629E+02 -0.64298425978E+01  0.15691971719E+02  0.51100000000E-03 0.  1.
         12    1    3    3    0    0 -0.13544734701E+02  0.18206447432E+02  0.12794510492E+02  0.26050605846E+02  0.00000000000E+00 0. -1.
</event>
<event>
 7    1  0.5755468E-013  0.5930188E+02  0.7816164E-02  0.1266605E+00
        -11   -1    0    0    0    0  0.00000000000E+00  0.00000000000E+00  0.45593999997E+02  0.45594000000E+02  0.51100000000E-03 0. -1.
         11   -1    0    0    0    0 -0.00000000000E+00 -0.00000000000E+00 -0.45593999997E+02  0.45594000000E+02  0.51100000000E-03 0.  1.
    9900012    2    1    2    0    0  0.27992524752E+02  0.33056965796E+01 -0.14906895588E+02  0.59301880638E+02  0.49999884393E+02 0.  0.
        -12    1    1    2    0    0 -0.27992524752E+02 -0.33056965796E+01  0.14906895588E+02  0.31886119362E+02  0.00000000000E+00 0.  1.
         11    1    3    3    0    0  0.19036644751E+02  0.40947307044E+01 -0.49910196944E+01  0.20101515882E+02  0.51100000000E-03 0. -1.
        -11    1    3    3    0    0 -0.10918133474E+02 -0.77147911789E+01  0.40181237148E+01  0.13959547268E+02  0.51100000000E-03 0.  1.
        -12    1    3    3    0    0  0.19874013474E+02  0.69257570540E+01 -0.13933999609E+02  0.25240817488E+02  0.00000000000E+00 0.  1.
</event>
<event>
 7    1  0.5755468E-013  0.5930198E+02  0.7816164E-02  0.1266605E+00
        -11   -1    0    0    0    0  0.00000000000E+00  0.00000000000E+00  0.45593999997E+02  0.45594000000E+02  0.51100000000E-03 0.  1.
         11   -1    0    0    0    0 -0.00000000000E+00 -0.00000000000E+00 -0.45593999997E+02  0.45594000000E+02  0.51100000000E-03 0. -1.
    9900012    2    1    2    0    0 -0.24363116934E+02 -0.19982303914E+02 -0.48851116876E+01  0.59301980294E+02  0.50000066141E+02 0.  0.
        -12    1    1    2    0    0  0.24363116934E+02  0.19982303914E+02  0.48851116876E+01  0.31886019706E+02  0.00000000000E+00 0.  1.
         11    1    3    3    0    0 -0.19981580373E+02 -0.36361585571E+02 -0.35424029219E+00  0.41491612958E+02  0.51100000000E-03 0. -1.
        -11    1    3    3    0    0 -0.15189950495E+01  0.11152975627E+02 -0.32442769535E+01  0.11714160000E+02  0.51100000000E-03 0.  1.
         12    1    3    3    0    0 -0.28625415124E+01  0.52263060297E+01 -0.12865944420E+01  0.60962073361E+01  0.00000000000E+00 0. -1.
</event>
<event>
 7    1  0.5755468E-013  0.5930219E+02  0.7816164E-02  0.1266604E+00
        -11   -1    0    0    0    0  0.00000000000E+00  0.00000000000E+00  0.45593999997E+02  0.45594000000E+02  0.51100000000E-03 0.  1.
         11   -1    0    0    0    0 -0.00000000000E+00 -0.00000000000E+00 -0.45593999997E+02  0.45594000000E+02  0.51100000000E-03 0. -1.
    9900012    2    1    2    0    0  0.39997831668E+01 -0.14127841817E+02 -0.28303901693E+02  0.59302187624E+02  0.50000444260E+02 0.  0.
        -12    1    1    2    0    0 -0.39997831668E+01  0.14127841817E+02  0.28303901693E+02  0.31885812376E+02  0.00000000000E+00 0.  1.
         11    1    3    3    0    0 -0.88489509119E+01  0.63925873890E+01 -0.16482946494E+02  0.19770094363E+02  0.51100000000E-03 0. -1.
        -11    1    3    3    0    0  0.61991448088E+01  0.25059993690E+00  0.79572633726E+01  0.10090105913E+02  0.51100000000E-03 0.  1.
         12    1    3    3    0    0  0.66495892700E+01 -0.20771029143E+02 -0.19778218572E+02  0.29441987348E+02  0.00000000000E+00 0. -1.
</event>
<event>
 7    1  0.5755468E-013  0.5930192E+02  0.7816164E-02  0.1266605E+00
        -11   -1    0    0    0    0  0.00000000000E+00  0.00000000000E+00  0.45593999997E+02  0.45594000000E+02  0.51100000000E-03 0. -1.
         11   -1    0    0    0    0 -0.00000000000E+00 -0.00000000000E+00 -0.45593999997E+02  0.45594000000E+02  0.51100000000E-03 0.  1.
    9900012    2    1    2    0    0 -0.19042586184E+02  0.47872748770E+01  0.25123373988E+02  0.59301921379E+02  0.49999958694E+02 0.  0.
        -12    1    1    2    0    0  0.19042586184E+02 -0.47872748770E+01 -0.25123373988E+02  0.31886078621E+02  0.00000000000E+00 0.  1.
         11    1    3    3    0    0 -0.25605181140E+02  0.36175699780E+01 -0.25160585553E+01  0.25981583182E+02  0.51100000000E-03 0. -1.
        -11    1    3    3    0    0  0.28764149168E+01  0.84210611012E+01  0.21043491808E+02  0.22847682171E+02  0.51100000000E-03 0.  1.
        -12    1    3    3    0    0  0.36861800392E+01 -0.72513562021E+01  0.65959407353E+01  0.10472656026E+02  0.00000000000E+00 0.  1.
</event>
<event>
 7    1  0.5755468E-013  0.5930194E+02  0.7816164E-02  0.1266605E+00
        -11   -1    0    0    0    0  0.00000000000E+00  0.00000000000E+00  0.45593999997E+02  0.45594000000E+02  0.51100000000E-03 0.  1.
         11   -1    0    0    0    0 -0.00000000000E+00 -0.00000000000E+00 -0.45593999997E+02  0.45594000000E+02  0.51100000000E-03 0. -1.
    9900012    2    1    2    0    0 -0.18270902389E+02 -0.41673115865E+01 -0.25797840512E+02  0.59301938232E+02  0.49999989431E+02 0.  0.
        -12    1    1    2    0    0  0.18270902389E+02  0.41673115865E+01  0.25797840512E+02  0.31886061768E+02  0.00000000000E+00 0.  1.
         11    1    3    3    0    0 -0.19745157798E+02  0.47611257400E+01 -0.11169941471E+02  0.23179887133E+02  0.51100000000E-03 0. -1.
        -11    1    3    3    0    0 -0.46396255789E+00 -0.18582379869E+02 -0.17840747620E+02  0.25764556638E+02  0.51100000000E-03 0.  1.
        -12    1    3    3    0    0  0.19382179673E+01  0.96539425427E+01  0.32128485794E+01  0.10357494461E+02  0.00000000000E+00 0.  1.
</event>
<event>
 7    1  0.5755468E-013  0.5930194E+02  0.7816164E-02  0.1266605E+00
        -11   -1    0    0    0    0  0.00000000000E+00  0.00000000000E+00  0.45593999997E+02  0.45594000000E+02  0.51100000000E-03 0.  1.
         11   -1    0    0    0    0 -0.00000000000E+00 -0.00000000000E+00 -0.45593999997E+02  0.45594000000E+02  0.51100000000E-03 0. -1.
    9900012    2    1    2    0    0 -0.18930196701E+01 -0.15701487555E+02 -0.27687553551E+02  0.59301939463E+02  0.49999991676E+02 0.  0.
        -12    1    1    2    0    0  0.18930196701E+01  0.15701487555E+02  0.27687553551E+02  0.31886060537E+02  0.00000000000E+00 0.  1.
         11    1    3    3    0    0 -0.10671317190E+01  0.13333670744E+02  0.27585539384E+01  0.13657787731E+02  0.51100000000E-03 0. -1.
        -11    1    3    3    0    0  0.30121901512E+01 -0.90309299158E+01 -0.63824654871E+00  0.95414015516E+01  0.51100000000E-03 0.  1.
         12    1    3    3    0    0 -0.38380781023E+01 -0.20004228383E+02 -0.29807860941E+02  0.36102750180E+02  0.00000000000E+00 0. -1.
</event>
<event>
 7    1  0.5755468E-013  0.5930192E+02  0.7816164E-02  0.1266605E+00
        -11   -1    0    0    0    0  0.00000000000E+00  0.00000000000E+00  0.45593999997E+02  0.45594000000E+02  0.51100000000E-03 0.  1.
         11   -1    0    0    0    0 -0.00000000000E+00 -0.00000000000E+00 -0.45593999997E+02  0.45594000000E+02  0.51100000000E-03 0. -1.
    9900012    2    1    2    0    0 -0.31869645432E+01  0.26614055594E+02 -0.17270122325E+02  0.59301924305E+02  0.49999964030E+02 0.  0.
        -12    1    1    2    0    0  0.31869645432E+01 -0.26614055594E+02  0.17270122325E+02  0.31886075695E+02  0.00000000000E+00 0.  1.
         11    1    3    3    0    0 -0.14239694584E+01  0.13962927561E+02 -0.34549779113E+02  0.37291798993E+02  0.51100000000E-03 0. -1.
        -11    1    3    3    0    0  0.11104317346E+01  0.49677480282E+01  0.43398264001E+01  0.66892206237E+01  0.51100000000E-03 0.  1.
         12    1    3    3    0    0 -0.28734268194E+01  0.76833800041E+01  0.12939830389E+02  0.15320904688E+02  0.00000000000E+00 0. -1.
</event>
<event>
 7    1  0.5755468E-013  0.5930186E+02  0.7816164E-02  0.1266605E+00
        -11   -1    0    0    0    0  0.00000000000E+00  0.00000000000E+00  0.45593999997E+02  0.45594000000E+02  0.51100000000E-03 0. -1.
         11   -1    0    0    0    0 -0.00000000000E+00 -0.00000000000E+00 -0.45593999997E+02  0.45594000000E+02  0.51100000000E-03 0.  1.
    9900012    2    1    2    0    0 -0.31429811904E+02 -0.40237826460E+01  0.35639596191E+01  0.59301863337E+02  0.49999852839E+02 0.  0.
        -12    1    1    2    0    0  0.31429811904E+02  0.40237826460E+01 -0.35639596191E+01  0.31886136663E+02  0.00000000000E+00 0.  1.
         11    1    3    3    0    0 -0.29531200953E+02  0.13980717316E+02  0.23928142160E+01  0.32760919501E+02  0.51100000000E-03 0. -1.
        -11    1    3    3    0    0 -0.10645293874E+01 -0.22019184599E+02 -0.64958448080E+00  0.22054470600E+02  0.51100000000E-03 0.  1.
         12    1    3    3    0    0 -0.83408156386E+00  0.40146846363E+01  0.18207298839E+01  0.44864732356E+01  0.00000000000E+00 0. -1.
</event>
<event>
 7    1  0.5755468E-013  0.5930194E+02  0.7816164E-02  0.1266605E+00
        -11   -1    0    0    0    0  0.00000000000E+00  0.00000000000E+00  0.45593999997E+02  0.45594000000E+02  0.51100000000E-03 0.  1.
         11   -1    0    0    0    0 -0.00000000000E+00 -0.00000000000E+00 -0.45593999997E+02  0.45594000000E+02  0.51100000000E-03 0. -1.
    9900012    2    1    2    0    0 -0.99647636494E+01  0.41204945238E+01 -0.30007425606E+02  0.59301943781E+02  0.49999999549E+02 0.  0.
        -12    1    1    2    0    0  0.99647636494E+01 -0.41204945238E+01  0.30007425606E+02  0.31886056219E+02  0.00000000000E+00 0.  1.
         11    1    3    3    0    0  0.93413529416E+01 -0.53250221997E+00  0.92604225092E+01  0.13164340420E+02  0.51100000000E-03 0.  1.
        -11    1    3    3    0    0 -0.19949973053E+02  0.73735232959E+01 -0.36209432025E+02  0.41993966691E+02  0.51100000000E-03 0. -1.
        -12    1    3    3    0    0  0.64385646195E+00 -0.27205265522E+01 -0.30584160901E+01  0.41436366691E+01  0.00000000000E+00 0.  1.
</event>
<event>
 7    1  0.5755468E-013  0.5930193E+02  0.7816164E-02  0.1266605E+00
        -11   -1    0    0    0    0  0.00000000000E+00  0.00000000000E+00  0.45593999997E+02  0.45594000000E+02  0.51100000000E-03 0.  1.
         11   -1    0    0    0    0 -0.00000000000E+00 -0.00000000000E+00 -0.45593999997E+02  0.45594000000E+02  0.51100000000E-03 0. -1.
    9900012    2    1    2    0    0 -0.17349841516E+02 -0.78389414827E+01 -0.25578412973E+02  0.59301933852E+02  0.49999981441E+02 0.  0.
        -12    1    1    2    0    0  0.17349841516E+02  0.78389414827E+01  0.25578412973E+02  0.31886066148E+02  0.00000000000E+00 0.  1.
         11    1    3    3    0    0 -0.18511426885E+01 -0.43370141016E+01 -0.31974857731E+01  0.56973973094E+01  0.51100000000E-03 0. -1.
        -11    1    3    3    0    0 -0.18151325679E+02  0.12323892387E+02 -0.28899882240E+02  0.36284323629E+02  0.51100000000E-03 0.  1.
        -12    1    3    3    0    0  0.26526268508E+01 -0.15825819768E+02  0.65189550406E+01  0.17320212913E+02  0.00000000000E+00 0.  1.
</event>
<event>
 7    1  0.5755468E-013  0.5930195E+02  0.7816164E-02  0.1266605E+00
        -11   -1    0    0    0    0  0.00000000000E+00  0.00000000000E+00  0.45593999997E+02  0.45594000000E+02  0.51100000000E-03 0. -1.
         11   -1    0    0    0    0 -0.00000000000E+00 -0.00000000000E+00 -0.45593999997E+02  0.45594000000E+02  0.51100000000E-03 0.  1.
    9900012    2    1    2    0    0  0.67244087604E+01  0.26164222410E+02  0.16939192504E+02  0.59301945836E+02  0.50000003297E+02 0.  0.
        -12    1    1    2    0    0 -0.67244087604E+01 -0.26164222410E+02 -0.16939192504E+02  0.31886054164E+02  0.00000000000E+00 0.  1.
         11    1    3    3    0    0  0.13973034259E+02  0.15914762182E+02  0.20099027652E+02  0.29197538502E+02  0.51100000000E-03 0. -1.
        -11    1    3    3    0    0 -0.11820759758E+01  0.15217662268E+02 -0.11155422927E+02  0.18905502095E+02  0.51100000000E-03 0.  1.
         12    1    3    3    0    0 -0.60665495231E+01 -0.49682020404E+01  0.79955877787E+01  0.11198905239E+02  0.00000000000E+00 0. -1.
</event>
<event>
 7    1  0.5755468E-013  0.5930198E+02  0.7816164E-02  0.1266605E+00
        -11   -1    0    0    0    0  0.00000000000E+00  0.00000000000E+00  0.45593999997E+02  0.45594000000E+02  0.51100000000E-03 0.  1.
         11   -1    0    0    0    0 -0.00000000000E+00 -0.00000000000E+00 -0.45593999997E+02  0.45594000000E+02  0.51100000000E-03 0. -1.
    9900012    2    1    2    0    0 -0.88913859474E+01 -0.30620657882E+02 -0.19110117763E+00  0.59301984996E+02  0.50000074716E+02 0.  0.
        -12    1    1    2    0    0  0.88913859474E+01  0.30620657882E+02  0.19110117763E+00  0.31886015004E+02  0.00000000000E+00 0.  1.
         11    1    3    3    0    0 -0.15719567925E+02 -0.33674689032E+02 -0.91789941718E+01  0.38279804485E+02  0.51100000000E-03 0. -1.
        -11    1    3    3    0    0  0.41265818204E+01 -0.66772014276E+01  0.74209784427E+01  0.10802065438E+02  0.51100000000E-03 0.  1.
         12    1    3    3    0    0  0.27016001568E+01  0.97312325774E+01  0.15669145515E+01  0.10220115072E+02  0.00000000000E+00 0. -1.
</event>
<event>
 7    1  0.5755468E-013  0.5930193E+02  0.7816164E-02  0.1266605E+00
        -11   -1    0    0    0    0  0.00000000000E+00  0.00000000000E+00  0.45593999997E+02  0.45594000000E+02  0.51100000000E-03 0. -1.
         11   -1    0    0    0    0 -0.00000000000E+00 -0.00000000000E+00 -0.45593999997E+02  0.45594000000E+02  0.51100000000E-03 0.  1.
    9900012    2    1    2    0    0 -0.16825662311E+02 -0.26602783802E+02  0.50901991511E+01  0.59301934930E+02  0.49999983408E+02 0.  0.
        -12    1    1    2    0    0  0.16825662311E+02  0.26602783802E+02 -0.50901991511E+01  0.31886065070E+02  0.00000000000E+00 0.  1.
         11    1    3    3    0    0  0.86310456258E+01 -0.25709768820E+02  0.42310016562E+01  0.27447924087E+02  0.51100000000E-03 0. -1.
        -11    1    3    3    0    0 -0.14587866901E+02 -0.86256692221E+01 -0.44108254422E+01  0.17511807776E+02  0.51100000000E-03 0.  1.
         12    1    3    3    0    0 -0.10868841036E+02  0.77326542403E+01  0.52700229372E+01  0.14342203067E+02  0.00000000000E+00 0. -1.
</event>
<event>
 7    1  0.5755468E-013  0.5930199E+02  0.7816164E-02  0.1266605E+00
        -11   -1    0    0    0    0  0.00000000000E+00  0.00000000000E+00  0.45593999997E+02  0.45594000000E+02  0.51100000000E-03 0.  1.
         11   -1    0    0    0    0 -0.00000000000E+00 -0.00000000000E+00 -0.45593999997E+02  0.45594000000E+02  0.51100000000E-03 0. -1.
    9900012    2    1    2    0    0  0.20728827721E+01  0.89455038731E+01 -0.30535206244E+02  0.59301988915E+02  0.50000081864E+02 0.  0.
        -12    1    1    2    0    0 -0.20728827721E+01 -0.89455038731E+01  0.30535206244E+02  0.31886011085E+02  0.00000000000E+00 0.  1.
         11    1    3    3    0    0 -0.15407170999E+02  0.14757288294E+02 -0.38488529082E+01  0.21678840951E+02  0.51100000000E-03 0.  1.
        -11    1    3    3    0    0  0.18302448093E+02 -0.10246365572E+02 -0.17224446948E+02  0.27141281962E+02  0.51100000000E-03 0. -1.
        -12    1    3    3    0    0 -0.82239432198E+00  0.44345811508E+01 -0.94619063878E+01  0.10481866003E+02  0.00000000000E+00 0.  1.
</event>
<event>
 7    1  0.5755468E-013  0.5930205E+02  0.7816164E-02  0.1266604E+00
        -11   -1    0    0    0    0  0.00000000000E+00  0.00000000000E+00  0.45593999997E+02  0.45594000000E+02  0.51100000000E-03 0.  1.
         11   -1    0    0    0    0 -0.00000000000E+00 -0.00000000000E+00 -0.45593999997E+02  0.45594000000E+02  0.51100000000E-03 0. -1.
    9900012    2    1    2    0    0 -0.93061209123E+01  0.29969228182E+02 -0.56528848847E+01  0.59302052754E+02  0.50000198289E+02 0.  0.
        -12    1    1    2    0    0  0.93061209123E+01 -0.29969228182E+02  0.56528848847E+01  0.31885947246E+02  0.00000000000E+00 0.  1.
         11    1    3    3    0    0 -0.97839171718E+01  0.21293516810E+02 -0.22321628392E+02  0.32363466867E+02  0.51100000000E-03 0. -1.
        -11    1    3    3    0    0  0.83289138496E+01  0.59993814339E+01  0.15458387396E+02  0.18555999694E+02  0.51100000000E-03 0.  1.
        -12    1    3    3    0    0 -0.78511175902E+01  0.26763299387E+01  0.12103561114E+01  0.83825861924E+01  0.00000000000E+00 0.  1.
</event>
<event>
 7    1  0.5755468E-013  0.5930195E+02  0.7816164E-02  0.1266605E+00
        -11   -1    0    0    0    0  0.00000000000E+00  0.00000000000E+00  0.45593999997E+02  0.45594000000E+02  0.51100000000E-03 0.  1.
         11   -1    0    0    0    0 -0.00000000000E+00 -0.00000000000E+00 -0.45593999997E+02  0.45594000000E+02  0.51100000000E-03 0. -1.
    9900012    2    1    2    0    0 -0.14532011538E+02 -0.20174735879E+02 -0.19962987949E+02  0.59301949524E+02  0.50000010024E+02 0.  0.
        -12    1    1    2    0    0  0.14532011538E+02  0.20174735879E+02  0.19962987949E+02  0.31886050476E+02  0.00000000000E+00 0.  1.
         11    1    3    3    0    0  0.81716671414E+01  0.16819139763E+01 -0.81737289595E+01  0.11679675674E+02  0.51100000000E-03 0. -1.
        -11    1    3    3    0    0 -0.27248216915E+02 -0.21680308015E+02 -0.18565655306E+02  0.39461178871E+02  0.51100000000E-03 0.  1.
        -12    1    3    3    0    0  0.45445382358E+01 -0.17634184000E+00  0.67763963161E+01  0.81610949789E+01  0.00000000000E+00 0.  1.
</event>
<event>
 7    1  0.5755468E-013  0.5930195E+02  0.7816164E-02  0.1266605E+00
        -11   -1    0    0    0    0  0.00000000000E+00  0.00000000000E+00  0.45593999997E+02  0.45594000000E+02  0.51100000000E-03 0. -1.
         11   -1    0    0    0    0 -0.00000000000E+00 -0.00000000000E+00 -0.45593999997E+02  0.45594000000E+02  0.51100000000E-03 0.  1.
    9900012    2    1    2    0    0  0.16763042212E+02 -0.26988036073E+02  0.27141112848E+01  0.59301951713E+02  0.50000014016E+02 0.  0.
        -12    1    1    2    0    0 -0.16763042212E+02  0.26988036073E+02 -0.27141112848E+01  0.31886048287E+02  0.00000000000E+00 0.  1.
         11    1    3    3    0    0  0.18614678920E+02 -0.15287709975E+02  0.18766615444E+02  0.30535327132E+02  0.51100000000E-03 0. -1.
        -11    1    3    3    0    0 -0.20493190069E+01 -0.17716840007E+02 -0.11531489072E+02  0.21238205402E+02  0.51100000000E-03 0.  1.
         12    1    3    3    0    0  0.19768229959E+00  0.60165139095E+01 -0.45210150872E+01  0.75284191789E+01  0.00000000000E+00 0. -1.
</event>
<event>
 7    1  0.5755468E-013  0.5930194E+02  0.7816164E-02  0.1266605E+00
        -11   -1    0    0    0    0  0.00000000000E+00  0.00000000000E+00  0.45593999997E+02  0.45594000000E+02  0.51100000000E-03 0.  1.
         11   -1    0    0    0    0 -0.00000000000E+00 -0.00000000000E+00 -0.45593999997E+02  0.45594000000E+02  0.51100000000E-03 0. -1.
    9900012    2    1    2    0    0 -0.67912276082E+01  0.29153088652E+02 -0.10986240357E+02  0.59301939918E+02  0.49999992504E+02 0.  0.
        -12    1    1    2    0    0  0.67912276082E+01 -0.29153088652E+02  0.10986240357E+02  0.31886060082E+02  0.00000000000E+00 0.  1.
         11    1    3    3    0    0  0.17724572655E+01 -0.28454548131E+01 -0.14046770625E+02  0.14441259748E+02  0.51100000000E-03 0. -1.
        -11    1    3    3    0    0  0.27960298935E+01  0.32545341767E+02 -0.12733443472E+01  0.32690036096E+02  0.51100000000E-03 0.  1.
        -12    1    3    3    0    0 -0.11359714767E+02 -0.54679830147E+00  0.43338746157E+01  0.12170644073E+02  0.00000000000E+00 0.  1.
</event>
<event>
 7    1  0.5755468E-013  0.5930196E+02  0.7816164E-02  0.1266605E+00
        -11   -1    0    0    0    0  0.00000000000E+00  0.00000000000E+00  0.45593999997E+02  0.45594000000E+02  0.51100000000E-03 0.  1.
         11   -1    0    0    0    0 -0.00000000000E+00 -0.00000000000E+00 -0.45593999997E+02  0.45594000000E+02  0.51100000000E-03 0. -1.
    9900012    2    1    2    0    0 -0.81894383832E+01  0.11893812109E+02 -0.28428684169E+02  0.59301956798E+02  0.50000023290E+02 0.  0.
        -12    1    1    2    0    0  0.81894383832E+01 -0.11893812109E+02  0.28428684169E+02  0.31886043202E+02  0.00000000000E+00 0.  1.
         11    1    3    3    0    0  0.53972129054E+01  0.63358348138E+01 -0.10406136246E+02  0.13325178489E+02  0.51100000000E-03 0. -1.
        -11    1    3    3    0    0 -0.15777116669E+02 -0.78923748589E+01  0.57676084978E+01  0.18559964961E+02  0.51100000000E-03 0.  1.
        -12    1    3    3    0    0  0.21904653806E+01  0.13450352154E+02 -0.23790156420E+02  0.27416813348E+02  0.00000000000E+00 0.  1.
</event>
<event>
 7    1  0.5755468E-013  0.5930193E+02  0.7816164E-02  0.1266605E+00
        -11   -1    0    0    0    0  0.00000000000E+00  0.00000000000E+00  0.45593999997E+02  0.45594000000E+02  0.51100000000E-03 0.  1.
         11   -1    0    0    0    0 -0.00000000000E+00 -0.00000000000E+00 -0.45593999997E+02  0.45594000000E+02  0.51100000000E-03 0. -1.
    9900012    2    1    2    0    0  0.13510305747E+02 -0.48196346758E+01 -0.28477434380E+02  0.59301929237E+02  0.49999973026E+02 0.  0.
        -12    1    1    2    0    0 -0.13510305747E+02  0.48196346758E+01  0.28477434380E+02  0.31886070763E+02  0.00000000000E+00 0.  1.
         11    1    3    3    0    0  0.30613424756E+02  0.23145773819E+01 -0.14417011123E+02  0.33917388663E+02  0.51100000000E-03 0. -1.
        -11    1    3    3    0    0 -0.13067850142E+02 -0.23150253405E+00 -0.97089142109E+01  0.16281440850E+02  0.51100000000E-03 0.  1.
        -12    1    3    3    0    0 -0.40352688673E+01 -0.69027095237E+01 -0.43515090466E+01  0.91030997238E+01  0.00000000000E+00 0.  1.
</event>
<event>
 7    1  0.5755468E-013  0.5930196E+02  0.7816164E-02  0.1266605E+00
        -11   -1    0    0    0    0  0.00000000000E+00  0.00000000000E+00  0.45593999997E+02  0.45594000000E+02  0.51100000000E-03 0.  1.
         11   -1    0    0    0    0 -0.00000000000E+00 -0.00000000000E+00 -0.45593999997E+02  0.45594000000E+02  0.51100000000E-03 0. -1.
    9900012    2    1    2    0    0 -0.84619369388E+01 -0.30454051580E+02  0.42030695666E+01  0.59301961862E+02  0.50000032525E+02 0.  0.
        -12    1    1    2    0    0  0.84619369388E+01  0.30454051580E+02 -0.42030695666E+01  0.31886038138E+02  0.00000000000E+00 0.  1.
         11    1    3    3    0    0  0.18014854459E+02 -0.88709285083E+01  0.92707792935E+01  0.22117316807E+02  0.51100000000E-03 0. -1.
        -11    1    3    3    0    0 -0.24952103463E+02 -0.20043812819E+02 -0.85096141156E+01  0.33117600037E+02  0.51100000000E-03 0.  1.
        -12    1    3    3    0    0 -0.15246879348E+01 -0.15393102525E+01  0.34419043887E+01  0.40670450173E+01  0.00000000000E+00 0.  1.
</event>
<event>
 7    1  0.5755468E-013  0.5930194E+02  0.7816164E-02  0.1266605E+00
        -11   -1    0    0    0    0  0.00000000000E+00  0.00000000000E+00  0.45593999997E+02  0.45594000000E+02  0.51100000000E-03 0. -1.
         11   -1    0    0    0    0 -0.00000000000E+00 -0.00000000000E+00 -0.45593999997E+02  0.45594000000E+02  0.51100000000E-03 0.  1.
    9900012    2    1    2    0    0 -0.45045126804E+01  0.21339233809E+02  0.23260850333E+02  0.59301942040E+02  0.49999996374E+02 0.  0.
        -12    1    1    2    0    0  0.45045126804E+01 -0.21339233809E+02 -0.23260850333E+02  0.31886057960E+02  0.00000000000E+00 0.  1.
         11    1    3    3    0    0  0.88213534324E+01  0.38475299263E+01 -0.14363698665E+01  0.97305149693E+01  0.51100000000E-03 0.  1.
        -11    1    3    3    0    0 -0.19016376208E+02 -0.50720862703E+01  0.12234928287E+02  0.23174168672E+02  0.51100000000E-03 0. -1.
         12    1    3    3    0    0  0.56905100950E+01  0.22563790153E+02  0.12462291913E+02  0.26397258398E+02  0.00000000000E+00 0. -1.
</event>
<event>
 7    1  0.5755468E-013  0.5930196E+02  0.7816164E-02  0.1266605E+00
        -11   -1    0    0    0    0  0.00000000000E+00  0.00000000000E+00  0.45593999997E+02  0.45594000000E+02  0.51100000000E-03 0. -1.
         11   -1    0    0    0    0 -0.00000000000E+00 -0.00000000000E+00 -0.45593999997E+02  0.45594000000E+02  0.51100000000E-03 0.  1.
    9900012    2    1    2    0    0  0.29285039821E+02  0.12697755427E+01  0.12549644044E+02  0.59301961474E+02  0.50000031818E+02 0.  0.
        -12    1    1    2    0    0 -0.29285039821E+02 -0.12697755427E+01 -0.12549644044E+02  0.31886038526E+02  0.00000000000E+00 0.  1.
         11    1    3    3    0    0  0.10816848001E+02 -0.54447275273E+01  0.72129240915E+01  0.14095230851E+02  0.51100000000E-03 0. -1.
        -11    1    3    3    0    0  0.49261127605E+01 -0.16956277474E+01 -0.16991327045E+02  0.17772083035E+02  0.51100000000E-03 0.  1.
        -12    1    3    3    0    0  0.13542079059E+02  0.84101308173E+01  0.22328046997E+02  0.27434647589E+02  0.00000000000E+00 0.  1.
</event>
<event>
 7    1  0.5755468E-013  0.5930197E+02  0.7816164E-02  0.1266605E+00
        -11   -1    0    0    0    0  0.00000000000E+00  0.00000000000E+00  0.45593999997E+02  0.45594000000E+02  0.51100000000E-03 0. -1.
         11   -1    0    0    0    0 -0.00000000000E+00 -0.00000000000E+00 -0.45593999997E+02  0.45594000000E+02  0.51100000000E-03 0.  1.
    9900012    2    1    2    0    0  0.31115950545E+02 -0.87360576922E+00 -0.69103616867E+01  0.59301973845E+02  0.50000054379E+02 0.  0.
        -12    1    1    2    0    0 -0.31115950545E+02  0.87360576922E+00  0.69103616867E+01  0.31886026155E+02  0.00000000000E+00 0.  1.
         11    1    3    3    0    0  0.14541254612E+02 -0.14020954419E+02  0.12385363139E+02  0.23694566230E+02  0.51100000000E-03 0. -1.
        -11    1    3    3    0    0  0.74577808680E+01  0.13689467858E+02 -0.21163618474E+02  0.26285333799E+02  0.51100000000E-03 0.  1.
        -12    1    3    3    0    0  0.91169150651E+01 -0.54211920832E+00  0.18678936486E+01  0.93220738156E+01  0.00000000000E+00 0.  1.
</event>
<event>
 7    1  0.5755468E-013  0.5930195E+02  0.7816164E-02  0.1266605E+00
        -11   -1    0    0    0    0  0.00000000000E+00  0.00000000000E+00  0.45593999997E+02  0.45594000000E+02  0.51100000000E-03 0. -1.
         11   -1    0    0    0    0 -0.00000000000E+00 -0.00000000000E+00 -0.45593999997E+02  0.45594000000E+02  0.51100000000E-03 0.  1.
    9900012    2    1    2    0    0  0.30916329008E+02  0.24171969441E+01  0.74201087079E+01  0.59301948917E+02  0.50000008917E+02 0.  0.
        -12    1    1    2    0    0 -0.30916329008E+02 -0.24171969441E+01 -0.74201087079E+01  0.31886051083E+02  0.00000000000E+00 0.  1.
         11    1    3    3    0    0  0.29013800557E+02 -0.15896338691E+02  0.16697537591E+02  0.37058089109E+02  0.51100000000E-03 0. -1.
        -11    1    3    3    0    0  0.35448861727E+01  0.88885785627E+01 -0.82264341511E+01  0.12619321136E+02  0.51100000000E-03 0.  1.
         12    1    3    3    0    0 -0.16423577216E+01  0.94249570729E+01 -0.10509947317E+01  0.96245386714E+01  0.00000000000E+00 0. -1.
</event>
<event>
 7    1  0.5755468E-013  0.5930196E+02  0.7816164E-02  0.1266605E+00
        -11   -1    0    0    0    0  0.00000000000E+00  0.00000000000E+00  0.45593999997E+02  0.45594000000E+02  0.51100000000E-03 0.  1.
         11   -1    0    0    0    0 -0.00000000000E+00 -0.00000000000E+00 -0.45593999997E+02  0.45594000000E+02  0.51100000000E-03 0. -1.
    9900012    2    1    2    0    0  0.28127062749E+02  0.10949289562E+00  0.15019181915E+02  0.59301961159E+02  0.50000031243E+02 0.  0.
        -12    1    1    2    0    0 -0.28127062749E+02 -0.10949289562E+00 -0.15019181915E+02  0.31886038841E+02  0.00000000000E+00 0.  1.
         11    1    3    3    0    0 -0.65979672571E+01  0.24791392507E+01  0.54752400338E+01  0.89251082368E+01  0.51100000000E-03 0. -1.
        -11    1    3    3    0    0  0.27058419981E+02  0.14193013049E+02  0.19749997245E+01  0.30618627262E+02  0.51100000000E-03 0.  1.
        -12    1    3    3    0    0  0.76666100259E+01 -0.16562659404E+02  0.75689421568E+01  0.19758225659E+02  0.00000000000E+00 0.  1.
</event>
<event>
 7    1  0.5755468E-013  0.5930197E+02  0.7816164E-02  0.1266605E+00
        -11   -1    0    0    0    0  0.00000000000E+00  0.00000000000E+00  0.45593999997E+02  0.45594000000E+02  0.51100000000E-03 0. -1.
         11   -1    0    0    0    0 -0.00000000000E+00 -0.00000000000E+00 -0.45593999997E+02  0.45594000000E+02  0.51100000000E-03 0.  1.
    9900012    2    1    2    0    0  0.10213148685E+02 -0.60838387833E+01  0.29587120928E+02  0.59301965044E+02  0.50000038329E+02 0.  0.
        -12    1    1    2    0    0 -0.10213148685E+02  0.60838387833E+01 -0.29587120928E+02  0.31886034956E+02  0.00000000000E+00 0.  1.
         11    1    3    3    0    0  0.99594594002E+01 -0.26275682174E+02  0.12270294814E+02  0.30662068429E+02  0.51100000000E-03 0. -1.
        -11    1    3    3    0    0 -0.38784717781E+01  0.44584323215E+01  0.18463586422E+01  0.61910582775E+01  0.51100000000E-03 0.  1.
         12    1    3    3    0    0  0.41321610632E+01  0.15733411069E+02  0.15470467471E+02  0.22448838338E+02  0.00000000000E+00 0. -1.
</event>
<event>
 7    1  0.5755468E-013  0.5930195E+02  0.7816164E-02  0.1266605E+00
        -11   -1    0    0    0    0  0.00000000000E+00  0.00000000000E+00  0.45593999997E+02  0.45594000000E+02  0.51100000000E-03 0. -1.
         11   -1    0    0    0    0 -0.00000000000E+00 -0.00000000000E+00 -0.45593999997E+02  0.45594000000E+02  0.51100000000E-03 0.  1.
    9900012    2    1    2    0    0  0.65372097500E+01 -0.30888503541E+02 -0.44593084531E+01  0.59301949850E+02  0.50000010618E+02 0.  0.
        -12    1    1    2    0    0 -0.65372097500E+01  0.30888503541E+02  0.44593084531E+01  0.31886050150E+02  0.00000000000E+00 0.  1.
         11    1    3    3    0    0  0.47242465729E+00 -0.29416267724E+02  0.13676138350E+02  0.32443439279E+02  0.51100000000E-03 0. -1.
        -11    1    3    3    0    0  0.94199738302E+01  0.61261329707E+01 -0.82125906553E+01  0.13918047912E+02  0.51100000000E-03 0.  1.
         12    1    3    3    0    0 -0.33551887375E+01 -0.75983687877E+01 -0.99228561473E+01  0.12940462659E+02  0.00000000000E+00 0. -1.
</event>
<event>
 7    1  0.5755468E-013  0.5930199E+02  0.7816164E-02  0.1266605E+00
        -11   -1    0    0    0    0  0.00000000000E+00  0.00000000000E+00  0.45593999997E+02  0.45594000000E+02  0.51100000000E-03 0.  1.
         11   -1    0    0    0    0 -0.00000000000E+00 -0.00000000000E+00 -0.45593999997E+02  0.45594000000E+02  0.51100000000E-03 0. -1.
    9900012    2    1    2    0    0  0.18021001261E+02 -0.64050939926E+00 -0.26297351239E+02  0.59301993337E+02  0.50000089928E+02 0.  0.
        -12    1    1    2    0    0 -0.18021001261E+02  0.64050939926E+00  0.26297351239E+02  0.31886006663E+02  0.00000000000E+00 0.  1.
         11    1    3    3    0    0  0.56596015385E+01 -0.73126478518E+00 -0.31400020904E+02  0.31914372167E+02  0.51100000000E-03 0. -1.
        -11    1    3    3    0    0  0.19438330859E+02  0.11063995889E+00  0.57761724329E+01  0.20278686250E+02  0.51100000000E-03 0.  1.
        -12    1    3    3    0    0 -0.70769311371E+01 -0.19884572979E-01 -0.67350276783E+00  0.71089349198E+01  0.00000000000E+00 0.  1.
</event>
<event>
 7    1  0.5755468E-013  0.5930194E+02  0.7816164E-02  0.1266605E+00
        -11   -1    0    0    0    0  0.00000000000E+00  0.00000000000E+00  0.45593999997E+02  0.45594000000E+02  0.51100000000E-03 0.  1.
         11   -1    0    0    0    0 -0.00000000000E+00 -0.00000000000E+00 -0.45593999997E+02  0.45594000000E+02  0.51100000000E-03 0. -1.
    9900012    2    1    2    0    0 -0.12862739572E+02 -0.69048366462E+01 -0.28347736123E+02  0.59301937501E+02  0.49999988096E+02 0.  0.
        -12    1    1    2    0    0  0.12862739572E+02  0.69048366462E+01  0.28347736123E+02  0.31886062499E+02  0.00000000000E+00 0.  1.
         11    1    3    3    0    0  0.12995108011E+02 -0.96503093972E+01 -0.23021717066E+02  0.28142508072E+02  0.51100000000E-03 0. -1.
        -11    1    3    3    0    0 -0.17849346650E+02  0.89628910031E+01 -0.63765949240E+01  0.20966486450E+02  0.51100000000E-03 0.  1.
        -12    1    3    3    0    0 -0.80085009326E+01 -0.62174182521E+01  0.10505758668E+01  0.10192942978E+02  0.00000000000E+00 0.  1.
</event>
<event>
 7    1  0.5755468E-013  0.5930194E+02  0.7816164E-02  0.1266605E+00
        -11   -1    0    0    0    0  0.00000000000E+00  0.00000000000E+00  0.45593999997E+02  0.45594000000E+02  0.51100000000E-03 0.  1.
         11   -1    0    0    0    0 -0.00000000000E+00 -0.00000000000E+00 -0.45593999997E+02  0.45594000000E+02  0.51100000000E-03 0. -1.
    9900012    2    1    2    0    0  0.97255498748E+01  0.11517715251E+02 -0.28097626788E+02  0.59301941666E+02  0.49999995693E+02 0.  0.
        -12    1    1    2    0    0 -0.97255498748E+01 -0.11517715251E+02  0.28097626788E+02  0.31886058334E+02  0.00000000000E+00 0.  1.
         11    1    3    3    0    0  0.12288826299E+02 -0.38008412549E+01 -0.20000295054E+02  0.23779685628E+02  0.51100000000E-03 0. -1.
        -11    1    3    3    0    0  0.36997511496E+01  0.23286704382E+02 -0.92368324860E+01  0.25323464103E+02  0.51100000000E-03 0.  1.
         12    1    3    3    0    0 -0.62630275742E+01 -0.79681478756E+01  0.11395007527E+01  0.10198791935E+02  0.00000000000E+00 0. -1.
</event>
<event>
 7    1  0.5755468E-013  0.5930196E+02  0.7816164E-02  0.1266605E+00
        -11   -1    0    0    0    0  0.00000000000E+00  0.00000000000E+00  0.45593999997E+02  0.45594000000E+02  0.51100000000E-03 0.  1.
         11   -1    0    0    0    0 -0.00000000000E+00 -0.00000000000E+00 -0.45593999997E+02  0.45594000000E+02  0.51100000000E-03 0. -1.
    9900012    2    1    2    0    0 -0.23403929662E+02 -0.23051162865E+01 -0.21532817543E+02  0.59301957347E+02  0.50000024291E+02 0.  0.
        -12    1    1    2    0    0  0.23403929662E+02  0.23051162865E+01  0.21532817543E+02  0.31886042653E+02  0.00000000000E+00 0.  1.
         11    1    3    3    0    0 -0.52767894519E+01 -0.13034001661E+02 -0.44684882637E+01  0.14754561798E+02  0.51100000000E-03 0. -1.
        -11    1    3    3    0    0  0.96918034780E+01  0.80504334511E+01 -0.89203485919E+01  0.15437394620E+02  0.51100000000E-03 0.  1.
        -12    1    3    3    0    0 -0.27818943688E+02  0.26784519235E+01 -0.81439806875E+01  0.29110000929E+02  0.00000000000E+00 0.  1.
</event>
<event>
 7    1  0.5755468E-013  0.5930194E+02  0.7816164E-02  0.1266605E+00
        -11   -1    0    0    0    0  0.00000000000E+00  0.00000000000E+00  0.45593999997E+02  0.45594000000E+02  0.51100000000E-03 0.  1.
         11   -1    0    0    0    0 -0.00000000000E+00 -0.00000000000E+00 -0.45593999997E+02  0.45594000000E+02  0.51100000000E-03 0. -1.
    9900012    2    1    2    0    0  0.28755234494E+02 -0.89168403507E+01 -0.10504626711E+02  0.59301941370E+02  0.49999995153E+02 0.  0.
        -12    1    1    2    0    0 -0.28755234494E+02  0.89168403507E+01  0.10504626711E+02  0.31886058630E+02  0.00000000000E+00 0.  1.
         11    1    3    3    0    0  0.19581895484E+02 -0.34651435220E+01  0.25154961954E+01  0.20044589588E+02  0.51100000000E-03 0. -1.
        -11    1    3    3    0    0 -0.26984630608E+01  0.87093994545E+01  0.73812949827E+01  0.11731106411E+02  0.51100000000E-03 0.  1.
        -12    1    3    3    0    0  0.11871802070E+02 -0.14161096283E+02 -0.20401417889E+02  0.27526245371E+02  0.00000000000E+00 0.  1.
</event>
<event>
 7    1  0.5755468E-013  0.5930196E+02  0.7816164E-02  0.1266605E+00
        -11   -1    0    0    0    0  0.00000000000E+00  0.00000000000E+00  0.45593999997E+02  0.45594000000E+02  0.51100000000E-03 0. -1.
         11   -1    0    0    0    0 -0.00000000000E+00 -0.00000000000E+00 -0.45593999997E+02  0.45594000000E+02  0.51100000000E-03 0.  1.
    9900012    2    1    2    0    0  0.29685342981E+02  0.10936184342E+02 -0.39874229421E+01  0.59301964536E+02  0.50000037402E+02 0.  0.
        -12    1    1    2    0    0 -0.29685342981E+02 -0.10936184342E+02  0.39874229421E+01  0.31886035464E+02  0.00000000000E+00 0.  1.
         11    1    3    3    0    0  0.77040401891E+01 -0.15901029075E+02 -0.16448294793E+01  0.17745433924E+02  0.51100000000E-03 0. -1.
        -11    1    3    3    0    0  0.94606303244E+01  0.10117833889E+02 -0.12200961870E+02  0.18459077972E+02  0.51100000000E-03 0.  1.
         12    1    3    3    0    0  0.12520672468E+02  0.16719379528E+02  0.98583684071E+01  0.23097452641E+02  0.00000000000E+00 0. -1.
</event>
<event>
 7    1  0.5755468E-013  0.5930192E+02  0.7816164E-02  0.1266605E+00
        -11   -1    0    0    0    0  0.00000000000E+00  0.00000000000E+00  0.45593999997E+02  0.45594000000E+02  0.51100000000E-03 0. -1.
         11   -1    0    0    0    0 -0.00000000000E+00 -0.00000000000E+00 -0.45593999997E+02  0.45594000000E+02  0.51100000000E-03 0.  1.
    9900012    2    1    2    0    0 -0.31680609466E+02 -0.36011873638E+01  0.30411284755E+00  0.59301920730E+02  0.49999957511E+02 0.  0.
        -12    1    1    2    0    0  0.31680609466E+02  0.36011873638E+01 -0.30411284755E+00  0.31886079270E+02  0.00000000000E+00 0.  1.
         11    1    3    3    0    0 -0.10063936796E+02  0.72402159323E+01  0.27406701791E+00  0.12400752540E+02  0.51100000000E-03 0. -1.
        -11    1    3    3    0    0 -0.40275022613E+01 -0.19999875012E+02 -0.12036935838E+02  0.23687625453E+02  0.51100000000E-03 0.  1.
        -12    1    3    3    0    0 -0.17589170409E+02  0.91584717155E+01  0.12066981668E+02  0.23213542737E+02  0.00000000000E+00 0.  1.
</event>
<event>
 7    1  0.5755468E-013  0.5930194E+02  0.7816164E-02  0.1266605E+00
        -11   -1    0    0    0    0  0.00000000000E+00  0.00000000000E+00  0.45593999997E+02  0.45594000000E+02  0.51100000000E-03 0.  1.
         11   -1    0    0    0    0 -0.00000000000E+00 -0.00000000000E+00 -0.45593999997E+02  0.45594000000E+02  0.51100000000E-03 0. -1.
    9900012    2    1    2    0    0 -0.11712537064E+02  0.11389718403E+02 -0.27382686542E+02  0.59301941416E+02  0.49999995236E+02 0.  0.
        -12    1    1    2    0    0  0.11712537064E+02 -0.11389718403E+02  0.27382686542E+02  0.31886058584E+02  0.00000000000E+00 0.  1.
         11    1    3    3    0    0 -0.15301422659E+02 -0.27358585041E+01 -0.69057971376E+01  0.17009070860E+02  0.51100000000E-03 0. -1.
        -11    1    3    3    0    0  0.18863262002E+02  0.71237998261E+01 -0.12132139455E+02  0.23532105417E+02  0.51100000000E-03 0.  1.
         12    1    3    3    0    0 -0.15274376406E+02  0.70017770811E+01 -0.83447499492E+01  0.18760765139E+02  0.00000000000E+00 0. -1.
</event>
<event>
 7    1  0.5755468E-013  0.5930195E+02  0.7816164E-02  0.1266605E+00
        -11   -1    0    0    0    0  0.00000000000E+00  0.00000000000E+00  0.45593999997E+02  0.45594000000E+02  0.51100000000E-03 0. -1.
         11   -1    0    0    0    0 -0.00000000000E+00 -0.00000000000E+00 -0.45593999997E+02  0.45594000000E+02  0.51100000000E-03 0.  1.
    9900012    2    1    2    0    0  0.15379125425E+01  0.31651296304E+02 -0.35426584672E+01  0.59301950359E+02  0.50000011547E+02 0.  0.
        -12    1    1    2    0    0 -0.15379125425E+01 -0.31651296304E+02  0.35426584672E+01  0.31886049641E+02  0.00000000000E+00 0.  1.
         11    1    3    3    0    0 -0.94155811707E+01  0.32634869550E+02 -0.11020903706E+02  0.35709217271E+02  0.51100000000E-03 0. -1.
        -11    1    3    3    0    0  0.84605863163E+01  0.29985629166E+01 -0.49891011782E+01  0.10269568209E+02  0.51100000000E-03 0.  1.
         12    1    3    3    0    0  0.24929073969E+01 -0.39821361635E+01  0.12467346417E+02  0.13323164879E+02  0.00000000000E+00 0. -1.
</event>
<event>
 7    1  0.5755468E-013  0.5930193E+02  0.7816164E-02  0.1266605E+00
        -11   -1    0    0    0    0  0.00000000000E+00  0.00000000000E+00  0.45593999997E+02  0.45594000000E+02  0.51100000000E-03 0. -1.
         11   -1    0    0    0    0 -0.00000000000E+00 -0.00000000000E+00 -0.45593999997E+02  0.45594000000E+02  0.51100000000E-03 0.  1.
    9900012    2    1    2    0    0 -0.24769089056E+02 -0.12567379687E+02  0.15661245159E+02  0.59301930867E+02  0.49999975997E+02 0.  0.
        -12    1    1    2    0    0  0.24769089056E+02  0.12567379687E+02 -0.15661245159E+02  0.31886069133E+02  0.00000000000E+00 0.  1.
         11    1    3    3    0    0 -0.23563679620E+02  0.38502611842E+01  0.16786517771E+02  0.29186618296E+02  0.51100000000E-03 0. -1.
        -11    1    3    3    0    0  0.10457640102E+02 -0.10506280059E+02  0.50426572242E+01  0.15657986758E+02  0.51100000000E-03 0.  1.
        -12    1    3    3    0    0 -0.11663049538E+02 -0.59113608121E+01 -0.61679298369E+01  0.14457325812E+02  0.00000000000E+00 0.  1.
</event>
<event>
 7    1  0.5755468E-013  0.5930193E+02  0.7816164E-02  0.1266605E+00
        -11   -1    0    0    0    0  0.00000000000E+00  0.00000000000E+00  0.45593999997E+02  0.45594000000E+02  0.51100000000E-03 0. -1.
         11   -1    0    0    0    0 -0.00000000000E+00 -0.00000000000E+00 -0.45593999997E+02  0.45594000000E+02  0.51100000000E-03 0.  1.
    9900012    2    1    2    0    0 -0.18131890279E+02 -0.14942329138E+02  0.21556504879E+02  0.59301928625E+02  0.49999971909E+02 0.  0.
        -12    1    1    2    0    0  0.18131890279E+02  0.14942329138E+02 -0.21556504879E+02  0.31886071375E+02  0.00000000000E+00 0.  1.
         11    1    3    3    0    0 -0.25033769862E+02 -0.22125668068E+02  0.12223630302E+02  0.35576002572E+02  0.51100000000E-03 0. -1.
        -11    1    3    3    0    0 -0.25470152883E+01  0.80366814271E+01  0.11238408069E+02  0.14049105004E+02  0.51100000000E-03 0.  1.
         12    1    3    3    0    0  0.94488948719E+01 -0.85334249760E+00 -0.19055334920E+01  0.96768210487E+01  0.00000000000E+00 0. -1.
</event>
<event>
 7    1  0.5755468E-013  0.5930194E+02  0.7816164E-02  0.1266605E+00
        -11   -1    0    0    0    0  0.00000000000E+00  0.00000000000E+00  0.45593999997E+02  0.45594000000E+02  0.51100000000E-03 0.  1.
         11   -1    0    0    0    0 -0.00000000000E+00 -0.00000000000E+00 -0.45593999997E+02  0.45594000000E+02  0.51100000000E-03 0. -1.
    9900012    2    1    2    0    0 -0.26653312224E+02  0.48803047084E+01 -0.16807873271E+02  0.59301936736E+02  0.49999986702E+02 0.  0.
        -12    1    1    2    0    0  0.26653312224E+02 -0.48803047084E+01  0.16807873271E+02  0.31886063264E+02  0.00000000000E+00 0.  1.
         11    1    3    3    0    0 -0.24521651137E+02  0.10335056886E+01 -0.18575866531E+02  0.30780551102E+02  0.51100000000E-03 0. -1.
        -11    1    3    3    0    0  0.24022285534E+01  0.11864146336E+02  0.10354414500E+02  0.15929299112E+02  0.51100000000E-03 0.  1.
         12    1    3    3    0    0 -0.45338896402E+01 -0.80173473164E+01 -0.85864212402E+01  0.12592086522E+02  0.00000000000E+00 0. -1.
</event>
<event>
 7    1  0.5755468E-013  0.5930197E+02  0.7816164E-02  0.1266605E+00
        -11   -1    0    0    0    0  0.00000000000E+00  0.00000000000E+00  0.45593999997E+02  0.45594000000E+02  0.51100000000E-03 0.  1.
         11   -1    0    0    0    0 -0.00000000000E+00 -0.00000000000E+00 -0.45593999997E+02  0.45594000000E+02  0.51100000000E-03 0. -1.
    9900012    2    1    2    0    0  0.25071482423E+02  0.88337710125E+01 -0.17609778853E+02  0.59301967753E+02  0.50000043269E+02 0.  0.
        -12    1    1    2    0    0 -0.25071482423E+02 -0.88337710125E+01  0.17609778853E+02  0.31886032247E+02  0.00000000000E+00 0.  1.
         11    1    3    3    0    0  0.84031700120E+01 -0.14360033183E+02 -0.13545056103E+02  0.21454425287E+02  0.51100000000E-03 0. -1.
        -11    1    3    3    0    0  0.22941559982E+02  0.15437540696E+02 -0.31095106542E+01  0.27826280634E+02  0.51100000000E-03 0.  1.
        -12    1    3    3    0    0 -0.62732475710E+01  0.77562635002E+01 -0.95521209592E+00  0.10021261833E+02  0.00000000000E+00 0.  1.
</event>
<event>
 7    1  0.5755468E-013  0.5930195E+02  0.7816164E-02  0.1266605E+00
        -11   -1    0    0    0    0  0.00000000000E+00  0.00000000000E+00  0.45593999997E+02  0.45594000000E+02  0.51100000000E-03 0.  1.
         11   -1    0    0    0    0 -0.00000000000E+00 -0.00000000000E+00 -0.45593999997E+02  0.45594000000E+02  0.51100000000E-03 0. -1.
    9900012    2    1    2    0    0 -0.28826947706E+02 -0.90371363818E+01 -0.10200848984E+02  0.59301951828E+02  0.50000014226E+02 0.  0.
        -12    1    1    2    0    0  0.28826947706E+02  0.90371363818E+01  0.10200848984E+02  0.31886048172E+02  0.00000000000E+00 0.  1.
         11    1    3    3    0    0 -0.18639505903E+02 -0.22097811214E+02 -0.25092997996E+00  0.28910333911E+02  0.51100000000E-03 0. -1.
        -11    1    3    3    0    0 -0.72105972271E+01  0.18881650660E+02 -0.23210081731E+01  0.20344446987E+02  0.51100000000E-03 0.  1.
         12    1    3    3    0    0 -0.29768445750E+01 -0.58209758282E+01 -0.76289108314E+01  0.10047170930E+02  0.00000000000E+00 0. -1.
</event>
<event>
 7    1  0.5755468E-013  0.5930193E+02  0.7816164E-02  0.1266605E+00
        -11   -1    0    0    0    0  0.00000000000E+00  0.00000000000E+00  0.45593999997E+02  0.45594000000E+02  0.51100000000E-03 0.  1.
         11   -1    0    0    0    0 -0.00000000000E+00 -0.00000000000E+00 -0.45593999997E+02  0.45594000000E+02  0.51100000000E-03 0. -1.
    9900012    2    1    2    0    0 -0.36062249240E+01 -0.49564851057E+01 -0.31291365645E+02  0.59301934600E+02  0.49999982805E+02 0.  0.
        -12    1    1    2    0    0  0.36062249240E+01  0.49564851057E+01  0.31291365645E+02  0.31886065400E+02  0.00000000000E+00 0.  1.
         11    1    3    3    0    0  0.36492329255E+01 -0.37588168648E+01 -0.10448843275E+02  0.11688624009E+02  0.51100000000E-03 0. -1.
        -11    1    3    3    0    0 -0.58982015214E+01  0.12304804616E+02  0.79433364484E+01  0.15789033916E+02  0.51100000000E-03 0.  1.
        -12    1    3    3    0    0 -0.13572563281E+01 -0.13502472856E+02 -0.28785858818E+02  0.31824276675E+02  0.00000000000E+00 0.  1.
</event>
<event>
 7    1  0.5755468E-013  0.5930194E+02  0.7816164E-02  0.1266605E+00
        -11   -1    0    0    0    0  0.00000000000E+00  0.00000000000E+00  0.45593999997E+02  0.45594000000E+02  0.51100000000E-03 0.  1.
         11   -1    0    0    0    0 -0.00000000000E+00 -0.00000000000E+00 -0.45593999997E+02  0.45594000000E+02  0.51100000000E-03 0. -1.
    9900012    2    1    2    0    0 -0.39911668116E+01 -0.38036136671E+01 -0.31405793147E+02  0.59301941406E+02  0.49999995219E+02 0.  0.
        -12    1    1    2    0    0  0.39911668116E+01  0.38036136671E+01  0.31405793147E+02  0.31886058594E+02  0.00000000000E+00 0.  1.
         11    1    3    3    0    0  0.33601432227E+00  0.19912511001E+02 -0.66590165731E+01  0.20999130981E+02  0.51100000000E-03 0. -1.
        -11    1    3    3    0    0 -0.91190644737E+01 -0.60842448312E+01 -0.90983337757E+01  0.14246229319E+02  0.51100000000E-03 0.  1.
         12    1    3    3    0    0  0.47918833398E+01 -0.17631879837E+02 -0.15648442798E+02  0.24056581106E+02  0.00000000000E+00 0. -1.
</event>
<event>
 7    1  0.5755468E-013  0.5930195E+02  0.7816164E-02  0.1266605E+00
        -11   -1    0    0    0    0  0.00000000000E+00  0.00000000000E+00  0.45593999997E+02  0.45594000000E+02  0.51100000000E-03 0.  1.
         11   -1    0    0    0    0 -0.00000000000E+00 -0.00000000000E+00 -0.45593999997E+02  0.45594000000E+02  0.51100000000E-03 0. -1.
    9900012    2    1    2    0    0  0.74657874477E+01 -0.10972961653E+01 -0.30980289384E+02  0.59301947071E+02  0.50000005551E+02 0.  0.
        -12    1    1    2    0    0 -0.74657874477E+01  0.10972961653E+01  0.30980289384E+02  0.31886052929E+02  0.00000000000E+00 0.  1.
         11    1    3    3    0    0 -0.88666897112E+00 -0.15564287826E+02 -0.31752494609E+02  0.35373070994E+02  0.51100000000E-03 0. -1.
        -11    1    3    3    0    0  0.37828807580E+01  0.49639508715E+01  0.87208215904E+01  0.10723978952E+02  0.51100000000E-03 0.  1.
         12    1    3    3    0    0  0.45695756609E+01  0.95030407897E+01 -0.79486163649E+01  0.13204897125E+02  0.00000000000E+00 0. -1.
</event>
<event>
 7    1  0.5755468E-013  0.5930193E+02  0.7816164E-02  0.1266605E+00
        -11   -1    0    0    0    0  0.00000000000E+00  0.00000000000E+00  0.45593999997E+02  0.45594000000E+02  0.51100000000E-03 0. -1.
         11   -1    0    0    0    0 -0.00000000000E+00 -0.00000000000E+00 -0.45593999997E+02  0.45594000000E+02  0.51100000000E-03 0.  1.
    9900012    2    1    2    0    0 -0.16880698594E+02 -0.12093899508E+02  0.24197122847E+02  0.59301934950E+02  0.49999983444E+02 0.  0.
        -12    1    1    2    0    0  0.16880698594E+02  0.12093899508E+02 -0.24197122847E+02  0.31886065050E+02  0.00000000000E+00 0.  1.
         11    1    3    3    0    0 -0.11637667622E+02  0.42113037208E+01  0.15587191174E+02  0.19903037850E+02  0.51100000000E-03 0. -1.
        -11    1    3    3    0    0  0.12659396773E+02 -0.17790284172E+01 -0.36401876411E+01  0.13291961296E+02  0.51100000000E-03 0.  1.
        -12    1    3    3    0    0 -0.17902427746E+02 -0.14526174812E+02  0.12250119314E+02  0.26106935803E+02  0.00000000000E+00 0.  1.
</event>
<event>
 7    1  0.5755468E-013  0.5930191E+02  0.7816164E-02  0.1266605E+00
        -11   -1    0    0    0    0  0.00000000000E+00  0.00000000000E+00  0.45593999997E+02  0.45594000000E+02  0.51100000000E-03 0.  1.
         11   -1    0    0    0    0 -0.00000000000E+00 -0.00000000000E+00 -0.45593999997E+02  0.45594000000E+02  0.51100000000E-03 0. -1.
    9900012    2    1    2    0    0  0.66999417275E+01  0.20456702025E-01 -0.31174237367E+02  0.59301910352E+02  0.49999938583E+02 0.  0.
        -12    1    1    2    0    0 -0.66999417275E+01 -0.20456702025E-01  0.31174237367E+02  0.31886089648E+02  0.00000000000E+00 0.  1.
         11    1    3    3    0    0 -0.20710871332E+01 -0.13599906092E+02 -0.28407148449E+02  0.31562840982E+02  0.51100000000E-03 0. -1.
        -11    1    3    3    0    0 -0.42329405704E+01  0.10317992804E+02  0.50156062965E+01  0.12228453220E+02  0.51100000000E-03 0.  1.
         12    1    3    3    0    0  0.13003969431E+02  0.33023699900E+01 -0.77826952151E+01  0.15510616149E+02  0.00000000000E+00 0. -1.
</event>
<event>
 7    1  0.5755468E-013  0.5930193E+02  0.7816164E-02  0.1266605E+00
        -11   -1    0    0    0    0  0.00000000000E+00  0.00000000000E+00  0.45593999997E+02  0.45594000000E+02  0.51100000000E-03 0.  1.
         11   -1    0    0    0    0 -0.00000000000E+00 -0.00000000000E+00 -0.45593999997E+02  0.45594000000E+02  0.51100000000E-03 0. -1.
    9900012    2    1    2    0    0  0.18339190418E+02 -0.23823540514E+02 -0.10622346308E+02  0.59301933624E+02  0.49999981027E+02 0.  0.
        -12    1    1    2    0    0 -0.18339190418E+02  0.23823540514E+02  0.10622346308E+02  0.31886066376E+02  0.00000000000E+00 0.  1.
         11    1    3    3    0    0 -0.15429402299E+02 -0.13652389146E+02  0.39237307545E+01  0.20972597550E+02  0.51100000000E-03 0. -1.
        -11    1    3    3    0    0  0.24361201600E+02 -0.56068117574E+01 -0.10617964537E+02  0.27159632778E+02  0.51100000000E-03 0.  1.
         12    1    3    3    0    0  0.94073911170E+01 -0.45643396111E+01 -0.39281125251E+01  0.11169703296E+02  0.00000000000E+00 0. -1.
</event>
<event>
 7    1  0.5755468E-013  0.5930208E+02  0.7816164E-02  0.1266604E+00
        -11   -1    0    0    0    0  0.00000000000E+00  0.00000000000E+00  0.45593999997E+02  0.45594000000E+02  0.51100000000E-03 0.  1.
         11   -1    0    0    0    0 -0.00000000000E+00 -0.00000000000E+00 -0.45593999997E+02  0.45594000000E+02  0.51100000000E-03 0. -1.
    9900012    2    1    2    0    0 -0.12915829462E+02 -0.20800992362E+02 -0.20425760077E+02  0.59302084478E+02  0.50000256147E+02 0.  0.
        -12    1    1    2    0    0  0.12915829462E+02  0.20800992362E+02  0.20425760077E+02  0.31885915522E+02  0.00000000000E+00 0.  1.
         11    1    3    3    0    0  0.12722713248E+02 -0.10202555006E+02 -0.13874347425E+02  0.21411610817E+02  0.51100000000E-03 0. -1.
        -11    1    3    3    0    0 -0.18674439185E+01 -0.14031839508E+01  0.81422780359E+01  0.84707121226E+01  0.51100000000E-03 0.  1.
         12    1    3    3    0    0 -0.23771098792E+02 -0.91952534049E+01 -0.14693690687E+02  0.29419761538E+02  0.00000000000E+00 0. -1.
</event>
<event>
 7    1  0.5755468E-013  0.5930195E+02  0.7816164E-02  0.1266605E+00
        -11   -1    0    0    0    0  0.00000000000E+00  0.00000000000E+00  0.45593999997E+02  0.45594000000E+02  0.51100000000E-03 0.  1.
         11   -1    0    0    0    0 -0.00000000000E+00 -0.00000000000E+00 -0.45593999997E+02  0.45594000000E+02  0.51100000000E-03 0. -1.
    9900012    2    1    2    0    0  0.58607880232E+01 -0.31247198887E+02  0.24461715852E+01  0.59301952425E+02  0.50000015315E+02 0.  0.
        -12    1    1    2    0    0 -0.58607880232E+01  0.31247198887E+02 -0.24461715852E+01  0.31886047575E+02  0.00000000000E+00 0.  1.
         11    1    3    3    0    0  0.21889591347E+02 -0.31006054642E+02  0.22803664259E+01  0.38022752466E+02  0.51100000000E-03 0. -1.
        -11    1    3    3    0    0 -0.15934928635E+02 -0.16165063441E+01 -0.43177550281E+01  0.16588491556E+02  0.51100000000E-03 0.  1.
         12    1    3    3    0    0 -0.93874688518E-01  0.13753620992E+01  0.44835601874E+01  0.46907084023E+01  0.00000000000E+00 0. -1.
</event>
<event>
 7    1  0.5755468E-013  0.5930195E+02  0.7816164E-02  0.1266605E+00
        -11   -1    0    0    0    0  0.00000000000E+00  0.00000000000E+00  0.45593999997E+02  0.45594000000E+02  0.51100000000E-03 0. -1.
         11   -1    0    0    0    0 -0.00000000000E+00 -0.00000000000E+00 -0.45593999997E+02  0.45594000000E+02  0.51100000000E-03 0.  1.
    9900012    2    1    2    0    0  0.21849929042E+02 -0.19801627990E+02 -0.12132448747E+02  0.59301950028E+02  0.50000010944E+02 0.  0.
        -12    1    1    2    0    0 -0.21849929042E+02  0.19801627990E+02  0.12132448747E+02  0.31886049972E+02  0.00000000000E+00 0.  1.
         11    1    3    3    0    0  0.45002270031E+00 -0.12886741552E+02 -0.42721573238E+01  0.13583885921E+02  0.51100000000E-03 0. -1.
        -11    1    3    3    0    0  0.31835951812E+02 -0.29467906223E+01 -0.11496037578E+02  0.33976025121E+02  0.51100000000E-03 0.  1.
        -12    1    3    3    0    0 -0.10436045470E+02 -0.39680958161E+01  0.36357461550E+01  0.11742038987E+02  0.00000000000E+00 0.  1.
</event>
<event>
 7    1  0.5755468E-013  0.5930195E+02  0.7816164E-02  0.1266605E+00
        -11   -1    0    0    0    0  0.00000000000E+00  0.00000000000E+00  0.45593999997E+02  0.45594000000E+02  0.51100000000E-03 0.  1.
         11   -1    0    0    0    0 -0.00000000000E+00 -0.00000000000E+00 -0.45593999997E+02  0.45594000000E+02  0.51100000000E-03 0. -1.
    9900012    2    1    2    0    0  0.29822497509E+02  0.10977103809E+02 -0.26157244099E+01  0.59301950074E+02  0.50000011027E+02 0.  0.
        -12    1    1    2    0    0 -0.29822497509E+02 -0.10977103809E+02  0.26157244099E+01  0.31886049926E+02  0.00000000000E+00 0.  1.
         11    1    3    3    0    0  0.64832105076E+01  0.19656574749E+02 -0.19186378771E+02  0.28222864489E+02  0.51100000000E-03 0. -1.
        -11    1    3    3    0    0  0.16601834321E+02 -0.81844379268E+01  0.79959522856E+01  0.20162866369E+02  0.51100000000E-03 0.  1.
         12    1    3    3    0    0  0.67374526805E+01 -0.49503301314E+00  0.85747020753E+01  0.10916219217E+02  0.00000000000E+00 0. -1.
</event>
<event>
 7    1  0.5755468E-013  0.5930192E+02  0.7816164E-02  0.1266605E+00
        -11   -1    0    0    0    0  0.00000000000E+00  0.00000000000E+00  0.45593999997E+02  0.45594000000E+02  0.51100000000E-03 0. -1.
         11   -1    0    0    0    0 -0.00000000000E+00 -0.00000000000E+00 -0.45593999997E+02  0.45594000000E+02  0.51100000000E-03 0.  1.
    9900012    2    1    2    0    0  0.26098079977E+02 -0.18097416253E+02  0.28453262428E+01  0.59301919417E+02  0.49999955116E+02 0.  0.
        -12    1    1    2    0    0 -0.26098079977E+02  0.18097416253E+02 -0.28453262428E+01  0.31886080583E+02  0.00000000000E+00 0.  1.
         11    1    3    3    0    0  0.73931281586E+01  0.13798137958E+02  0.33872438560E+01  0.16016253504E+02  0.51100000000E-03 0.  1.
        -11    1    3    3    0    0  0.16692401366E+02 -0.29028363348E+02  0.76744252239E+01  0.34353732618E+02  0.51100000000E-03 0. -1.
        -12    1    3    3    0    0  0.20125504518E+01 -0.28671908636E+01 -0.82163428371E+01  0.89319332950E+01  0.00000000000E+00 0.  1.
</event>
<event>
 7    1  0.5755468E-013  0.5930192E+02  0.7816164E-02  0.1266605E+00
        -11   -1    0    0    0    0  0.00000000000E+00  0.00000000000E+00  0.45593999997E+02  0.45594000000E+02  0.51100000000E-03 0. -1.
         11   -1    0    0    0    0 -0.00000000000E+00 -0.00000000000E+00 -0.45593999997E+02  0.45594000000E+02  0.51100000000E-03 0.  1.
    9900012    2    1    2    0    0 -0.22339030924E+02  0.19689131625E+02  0.11402980809E+02  0.59301918740E+02  0.49999953882E+02 0.  0.
        -12    1    1    2    0    0  0.22339030924E+02 -0.19689131625E+02 -0.11402980809E+02  0.31886081260E+02  0.00000000000E+00 0.  1.
         11    1    3    3    0    0 -0.20750877135E+02  0.18236376490E+02 -0.89414920071E+01  0.29036435885E+02  0.51100000000E-03 0. -1.
        -11    1    3    3    0    0 -0.10996492787E+01  0.24182993016E+01  0.25175234042E+02  0.25315011542E+02  0.51100000000E-03 0.  1.
        -12    1    3    3    0    0 -0.48850451045E+00 -0.96554416672E+00 -0.48307612261E+01  0.49504713127E+01  0.00000000000E+00 0.  1.
</event>
<event>
 7    1  0.5755468E-013  0.5930194E+02  0.7816164E-02  0.1266605E+00
        -11   -1    0    0    0    0  0.00000000000E+00  0.00000000000E+00  0.45593999997E+02  0.45594000000E+02  0.51100000000E-03 0. -1.
         11   -1    0    0    0    0 -0.00000000000E+00 -0.00000000000E+00 -0.45593999997E+02  0.45594000000E+02  0.51100000000E-03 0.  1.
    9900012    2    1    2    0    0 -0.78118777311E+01 -0.30278494688E+02 -0.62376347592E+01  0.59301940952E+02  0.49999994390E+02 0.  0.
        -12    1    1    2    0    0  0.78118777311E+01  0.30278494688E+02  0.62376347592E+01  0.31886059048E+02  0.00000000000E+00 0.  1.
         11    1    3    3    0    0 -0.40385174819E+01 -0.31398110129E+02 -0.23292496807E+02  0.39302561632E+02  0.51100000000E-03 0. -1.
        -11    1    3    3    0    0 -0.58084282636E+01  0.21463757320E+01  0.16541932830E+02  0.17662964352E+02  0.51100000000E-03 0.  1.
         12    1    3    3    0    0  0.20350680144E+01 -0.10267602911E+01  0.51292921783E+00  0.23364149677E+01  0.00000000000E+00 0. -1.
</event>
<event>
 7    1  0.5755468E-013  0.5930194E+02  0.7816164E-02  0.1266605E+00
        -11   -1    0    0    0    0  0.00000000000E+00  0.00000000000E+00  0.45593999997E+02  0.45594000000E+02  0.51100000000E-03 0.  1.
         11   -1    0    0    0    0 -0.00000000000E+00 -0.00000000000E+00 -0.45593999997E+02  0.45594000000E+02  0.51100000000E-03 0. -1.
    9900012    2    1    2    0    0  0.24577380564E+02  0.43777365768E+01 -0.19837051880E+02  0.59301939720E+02  0.49999992144E+02 0.  0.
        -12    1    1    2    0    0 -0.24577380564E+02 -0.43777365768E+01  0.19837051880E+02  0.31886060280E+02  0.00000000000E+00 0.  1.
         11    1    3    3    0    0  0.78447483002E+01 -0.15977751564E+01 -0.12279076339E+02  0.14658399549E+02  0.51100000000E-03 0.  1.
        -11    1    3    3    0    0  0.90627430548E+00  0.20226768438E+02  0.36557992399E+01  0.20574458994E+02  0.51100000000E-03 0. -1.
        -12    1    3    3    0    0  0.15826357958E+02 -0.14251256705E+02 -0.11213774781E+02  0.24069081177E+02  0.00000000000E+00 0.  1.
</event>
<event>
 7    1  0.5755468E-013  0.5930194E+02  0.7816164E-02  0.1266605E+00
        -11   -1    0    0    0    0  0.00000000000E+00  0.00000000000E+00  0.45593999997E+02  0.45594000000E+02  0.51100000000E-03 0. -1.
         11   -1    0    0    0    0 -0.00000000000E+00 -0.00000000000E+00 -0.45593999997E+02  0.45594000000E+02  0.51100000000E-03 0.  1.
    9900012    2    1    2    0    0 -0.29759723096E+02 -0.11374510828E+02  0.13038815019E+01  0.59301941568E+02  0.49999995515E+02 0.  0.
        -12    1    1    2    0    0  0.29759723096E+02  0.11374510828E+02 -0.13038815019E+01  0.31886058432E+02  0.00000000000E+00 0.  1.
         11    1    3    3    0    0 -0.13675377723E+02 -0.11341382151E+02  0.68424776490E+01  0.19038445462E+02  0.51100000000E-03 0. -1.
        -11    1    3    3    0    0 -0.41316176022E+01 -0.12071177713E+02 -0.15899407506E+02  0.20385650706E+02  0.51100000000E-03 0.  1.
        -12    1    3    3    0    0 -0.11952727771E+02  0.12038049036E+02  0.10360811359E+02  0.19877845401E+02  0.00000000000E+00 0.  1.
</event>
<event>
 7    1  0.5755468E-013  0.5930194E+02  0.7816164E-02  0.1266605E+00
        -11   -1    0    0    0    0  0.00000000000E+00  0.00000000000E+00  0.45593999997E+02  0.45594000000E+02  0.51100000000E-03 0.  1.
         11   -1    0    0    0    0 -0.00000000000E+00 -0.00000000000E+00 -0.45593999997E+02  0.45594000000E+02  0.51100000000E-03 0. -1.
    9900012    2    1    2    0    0  0.18651567858E+02 -0.10313496905E+02 -0.23716488996E+02  0.59301936394E+02  0.49999986078E+02 0.  0.
        -12    1    1    2    0    0 -0.18651567858E+02  0.10313496905E+02  0.23716488996E+02  0.31886063606E+02  0.00000000000E+00 0.  1.
         11    1    3    3    0    0  0.21050049263E+02  0.15409936320E+02 -0.13971260278E+02  0.29593357792E+02  0.51100000000E-03 0. -1.
        -11    1    3    3    0    0  0.20815491911E+01 -0.11885620249E+02  0.23504477868E+00  0.12068805328E+02  0.51100000000E-03 0.  1.
         12    1    3    3    0    0 -0.44800305962E+01 -0.13837812976E+02 -0.99802734966E+01  0.17639773274E+02  0.00000000000E+00 0. -1.
</event>
<event>
 7    1  0.5755468E-013  0.5930195E+02  0.7816164E-02  0.1266605E+00
        -11   -1    0    0    0    0  0.00000000000E+00  0.00000000000E+00  0.45593999997E+02  0.45594000000E+02  0.51100000000E-03 0. -1.
         11   -1    0    0    0    0 -0.00000000000E+00 -0.00000000000E+00 -0.45593999997E+02  0.45594000000E+02  0.51100000000E-03 0.  1.
    9900012    2    1    2    0    0 -0.30204658106E+02 -0.99024698224E+01  0.25179772402E+01  0.59301945223E+02  0.50000002180E+02 0.  0.
        -12    1    1    2    0    0  0.30204658106E+02  0.99024698224E+01 -0.25179772402E+01  0.31886054777E+02  0.00000000000E+00 0.  1.
         11    1    3    3    0    0 -0.18760200738E+02 -0.24780224261E+02 -0.41230331609E+00  0.31083349891E+02  0.51100000000E-03 0. -1.
        -11    1    3    3    0    0 -0.77696780174E+01  0.12464739902E+02  0.11455229020E+02  0.18626859893E+02  0.51100000000E-03 0.  1.
         12    1    3    3    0    0 -0.36747793503E+01  0.24130145366E+01 -0.85249484633E+01  0.95917354389E+01  0.00000000000E+00 0. -1.
</event>
<event>
 7    1  0.8769526E-013  0.5930196E+02  0.7816164E-02  0.1266605E+00
        -11   -1    0    0    0    0  0.00000000000E+00  0.00000000000E+00  0.45593999997E+02  0.45594000000E+02  0.51100000000E-03 0. -1.
         11   -1    0    0    0    0 -0.00000000000E+00 -0.00000000000E+00 -0.45593999997E+02  0.45594000000E+02  0.51100000000E-03 0.  1.
    9900012    2    1    2    0    0 -0.14297042654E+02 -0.18977412689E+02  0.21264336031E+02  0.59301959044E+02  0.50000027385E+02 0.  0.
        -12    1    1    2    0    0  0.14297042654E+02  0.18977412689E+02 -0.21264336031E+02  0.31886040956E+02  0.00000000000E+00 0.  1.
         11    1    3    3    0    0 -0.71985622142E+00 -0.16722445841E+02 -0.90828565268E+01  0.19043546697E+02  0.51100000000E-03 0. -1.
        -11    1    3    3    0    0 -0.13808504427E+02  0.68618101598E+01  0.11223801912E+02  0.19071784468E+02  0.51100000000E-03 0.  1.
         12    1    3    3    0    0  0.23131799442E+00 -0.91167770081E+01  0.19123390646E+02  0.21186627878E+02  0.00000000000E+00 0. -1.
</event>
<event>
 7    1  0.5755468E-013  0.5930194E+02  0.7816164E-02  0.1266605E+00
        -11   -1    0    0    0    0  0.00000000000E+00  0.00000000000E+00  0.45593999997E+02  0.45594000000E+02  0.51100000000E-03 0. -1.
         11   -1    0    0    0    0 -0.00000000000E+00 -0.00000000000E+00 -0.45593999997E+02  0.45594000000E+02  0.51100000000E-03 0.  1.
    9900012    2    1    2    0    0 -0.23734550083E+02 -0.10424936171E+02  0.18566436087E+02  0.59301941749E+02  0.49999995844E+02 0.  0.
        -12    1    1    2    0    0  0.23734550083E+02  0.10424936171E+02 -0.18566436087E+02  0.31886058251E+02  0.00000000000E+00 0.  1.
         11    1    3    3    0    0 -0.78726267153E+01 -0.20277959726E+02  0.19994738324E+02  0.29545955103E+02  0.51100000000E-03 0. -1.
        -11    1    3    3    0    0 -0.10309133393E+02  0.12701055816E+02  0.81872941293E+01  0.18292808302E+02  0.51100000000E-03 0.  1.
         12    1    3    3    0    0 -0.55527899754E+01 -0.28480322612E+01 -0.96155963660E+01  0.11463178344E+02  0.00000000000E+00 0. -1.
</event>
<event>
 7    1  0.5755468E-013  0.5930195E+02  0.7816164E-02  0.1266605E+00
        -11   -1    0    0    0    0  0.00000000000E+00  0.00000000000E+00  0.45593999997E+02  0.45594000000E+02  0.51100000000E-03 0.  1.
         11   -1    0    0    0    0 -0.00000000000E+00 -0.00000000000E+00 -0.45593999997E+02  0.45594000000E+02  0.51100000000E-03 0. -1.
    9900012    2    1    2    0    0 -0.22255460938E+02  0.21701658704E+02 -0.71030178747E+01  0.59301946701E+02  0.50000004876E+02 0.  0.
        -12    1    1    2    0    0  0.22255460938E+02 -0.21701658704E+02  0.71030178747E+01  0.31886053299E+02  0.00000000000E+00 0.  1.
         11    1    3    3    0    0 -0.18567814687E+02 -0.12404789200E+01 -0.10397695028E+02  0.21317002425E+02  0.51100000000E-03 0. -1.
        -11    1    3    3    0    0  0.40951105675E+01  0.17893173328E+02 -0.10660975892E+02  0.21227152176E+02  0.51100000000E-03 0.  1.
         12    1    3    3    0    0 -0.77827568179E+01  0.50489642961E+01  0.13955653045E+02  0.16757792100E+02  0.00000000000E+00 0. -1.
</event>
<event>
 7    1  0.5755468E-013  0.5930192E+02  0.7816164E-02  0.1266605E+00
        -11   -1    0    0    0    0  0.00000000000E+00  0.00000000000E+00  0.45593999997E+02  0.45594000000E+02  0.51100000000E-03 0.  1.
         11   -1    0    0    0    0 -0.00000000000E+00 -0.00000000000E+00 -0.45593999997E+02  0.45594000000E+02  0.51100000000E-03 0. -1.
    9900012    2    1    2    0    0 -0.10312596393E+02 -0.43194294484E+01 -0.29861591876E+02  0.59301924913E+02  0.49999965138E+02 0.  0.
        -12    1    1    2    0    0  0.10312596393E+02  0.43194294484E+01  0.29861591876E+02  0.31886075087E+02  0.00000000000E+00 0.  1.
         11    1    3    3    0    0  0.92624271637E+01 -0.46403445104E+01 -0.22157794651E+02  0.24460033078E+02  0.51100000000E-03 0. -1.
        -11    1    3    3    0    0 -0.24004847111E+02  0.78245068857E+01 -0.52294740737E+01  0.25783773816E+02  0.51100000000E-03 0.  1.
        -12    1    3    3    0    0  0.44298235545E+01 -0.75035918237E+01 -0.24743231510E+01  0.90581180185E+01  0.00000000000E+00 0.  1.
</event>
<event>
 7    1  0.5755468E-013  0.5930197E+02  0.7816164E-02  0.1266605E+00
        -11   -1    0    0    0    0  0.00000000000E+00  0.00000000000E+00  0.45593999997E+02  0.45594000000E+02  0.51100000000E-03 0. -1.
         11   -1    0    0    0    0 -0.00000000000E+00 -0.00000000000E+00 -0.45593999997E+02  0.45594000000E+02  0.51100000000E-03 0.  1.
    9900012    2    1    2    0    0  0.27243570737E+02 -0.83725527403E+00  0.16547082204E+02  0.59301967441E+02  0.50000042701E+02 0.  0.
        -12    1    1    2    0    0 -0.27243570737E+02  0.83725527403E+00 -0.16547082204E+02  0.31886032559E+02  0.00000000000E+00 0.  1.
         11    1    3    3    0    0  0.35723998022E+01 -0.29427339577E+01  0.13264938686E+02  0.14049210729E+02  0.51100000000E-03 0. -1.
        -11    1    3    3    0    0 -0.63580584491E+01  0.88191217505E+01 -0.68581361530E+01  0.12854409650E+02  0.51100000000E-03 0.  1.
        -12    1    3    3    0    0  0.30029229384E+02 -0.67136430668E+01  0.10140279671E+02  0.32398347063E+02  0.00000000000E+00 0.  1.
</event>
<event>
 7    1  0.5755468E-013  0.5930189E+02  0.7816164E-02  0.1266605E+00
        -11   -1    0    0    0    0  0.00000000000E+00  0.00000000000E+00  0.45593999997E+02  0.45594000000E+02  0.51100000000E-03 0. -1.
         11   -1    0    0    0    0 -0.00000000000E+00 -0.00000000000E+00 -0.45593999997E+02  0.45594000000E+02  0.51100000000E-03 0.  1.
    9900012    2    1    2    0    0  0.29334469196E+02 -0.82437090197E+01  0.93943553091E+01  0.59301894357E+02  0.49999909412E+02 0.  0.
        -12    1    1    2    0    0 -0.29334469196E+02  0.82437090197E+01 -0.93943553091E+01  0.31886105643E+02  0.00000000000E+00 0.  1.
         11    1    3    3    0    0  0.34363212125E+02 -0.48710330241E+01  0.70680348075E+01  0.35419125153E+02  0.51100000000E-03 0. -1.
        -11    1    3    3    0    0 -0.13515546924E+02 -0.60329597580E+01  0.53735779982E+00  0.14810650416E+02  0.51100000000E-03 0.  1.
        -12    1    3    3    0    0  0.84868039947E+01  0.26602837624E+01  0.17889627017E+01  0.90721187872E+01  0.00000000000E+00 0.  1.
</event>
<event>
 7    1  0.5755468E-013  0.5930194E+02  0.7816164E-02  0.1266605E+00
        -11   -1    0    0    0    0  0.00000000000E+00  0.00000000000E+00  0.45593999997E+02  0.45594000000E+02  0.51100000000E-03 0.  1.
         11   -1    0    0    0    0 -0.00000000000E+00 -0.00000000000E+00 -0.45593999997E+02  0.45594000000E+02  0.51100000000E-03 0. -1.
    9900012    2    1    2    0    0 -0.22898970412E+02 -0.53282176274E+01 -0.21539914904E+02  0.59301942183E+02  0.49999996637E+02 0.  0.
        -12    1    1    2    0    0  0.22898970412E+02  0.53282176274E+01  0.21539914904E+02  0.31886057817E+02  0.00000000000E+00 0.  1.
         11    1    3    3    0    0 -0.26420628904E+02 -0.17467471489E+02 -0.19901861137E+02  0.37406500356E+02  0.51100000000E-03 0. -1.
        -11    1    3    3    0    0 -0.33097054870E+01  0.12444958631E+02  0.34969178844E+01  0.13343896758E+02  0.51100000000E-03 0.  1.
         12    1    3    3    0    0  0.68313639790E+01 -0.30570476923E+00 -0.51349716512E+01  0.85515450696E+01  0.00000000000E+00 0. -1.
</event>
<event>
 7    1  0.5755468E-013  0.5930203E+02  0.7816164E-02  0.1266604E+00
        -11   -1    0    0    0    0  0.00000000000E+00  0.00000000000E+00  0.45593999997E+02  0.45594000000E+02  0.51100000000E-03 0. -1.
         11   -1    0    0    0    0 -0.00000000000E+00 -0.00000000000E+00 -0.45593999997E+02  0.45594000000E+02  0.51100000000E-03 0.  1.
    9900012    2    1    2    0    0 -0.55252351777E+01 -0.30329321025E+02 -0.81436524530E+01  0.59302031097E+02  0.50000158794E+02 0.  0.
        -12    1    1    2    0    0  0.55252351777E+01  0.30329321025E+02  0.81436524530E+01  0.31885968903E+02  0.00000000000E+00 0.  1.
         11    1    3    3    0    0 -0.12800613126E+02  0.93909753622E+01  0.16175052054E+01  0.15958146447E+02  0.51100000000E-03 0. -1.
        -11    1    3    3    0    0  0.20202558944E+01 -0.42891784282E+01 -0.55174321870E+01  0.72746507591E+01  0.51100000000E-03 0.  1.
         12    1    3    3    0    0  0.52551220543E+01 -0.35431117959E+02 -0.42437254715E+01  0.36069233891E+02  0.00000000000E+00 0. -1.
</event>
<event>
 7    1  0.5755468E-013  0.5930195E+02  0.7816164E-02  0.1266605E+00
        -11   -1    0    0    0    0  0.00000000000E+00  0.00000000000E+00  0.45593999997E+02  0.45594000000E+02  0.51100000000E-03 0. -1.
         11   -1    0    0    0    0 -0.00000000000E+00 -0.00000000000E+00 -0.45593999997E+02  0.45594000000E+02  0.51100000000E-03 0.  1.
    9900012    2    1    2    0    0 -0.16449847971E+02 -0.24979368890E+02  0.11052316067E+02  0.59301951971E+02  0.50000014487E+02 0.  0.
        -12    1    1    2    0    0  0.16449847971E+02  0.24979368890E+02 -0.11052316067E+02  0.31886048029E+02  0.00000000000E+00 0.  1.
         11    1    3    3    0    0 -0.51986651078E+00  0.56284876036E+01  0.58296919942E+01  0.81200642178E+01  0.51100000000E-03 0. -1.
        -11    1    3    3    0    0  0.77860026562E+01 -0.20508523279E+02  0.11332241934E+02  0.24690910716E+02  0.51100000000E-03 0.  1.
        -12    1    3    3    0    0 -0.23715984117E+02 -0.10099333214E+02 -0.61096178614E+01  0.26490977038E+02  0.00000000000E+00 0.  1.
</event>
<event>
 7    1  0.5755468E-013  0.5930195E+02  0.7816164E-02  0.1266605E+00
        -11   -1    0    0    0    0  0.00000000000E+00  0.00000000000E+00  0.45593999997E+02  0.45594000000E+02  0.51100000000E-03 0.  1.
         11   -1    0    0    0    0 -0.00000000000E+00 -0.00000000000E+00 -0.45593999997E+02  0.45594000000E+02  0.51100000000E-03 0. -1.
    9900012    2    1    2    0    0 -0.21146135397E+02 -0.10268552535E+02 -0.21543393473E+02  0.59301952648E+02  0.50000015721E+02 0.  0.
        -12    1    1    2    0    0  0.21146135397E+02  0.10268552535E+02  0.21543393473E+02  0.31886047352E+02  0.00000000000E+00 0.  1.
         11    1    3    3    0    0 -0.21055761165E+02 -0.15714077650E+02  0.68678867037E+01  0.27155941940E+02  0.51100000000E-03 0.  1.
        -11    1    3    3    0    0  0.50751450179E+01  0.52439356135E+01 -0.24770585438E+02  0.25823203924E+02  0.51100000000E-03 0. -1.
        -12    1    3    3    0    0 -0.51655192499E+01  0.20158950103E+00 -0.36406947386E+01  0.63228067840E+01  0.00000000000E+00 0.  1.
</event>
<event>
 7    1  0.5755468E-013  0.5930199E+02  0.7816164E-02  0.1266605E+00
        -11   -1    0    0    0    0  0.00000000000E+00  0.00000000000E+00  0.45593999997E+02  0.45594000000E+02  0.51100000000E-03 0.  1.
         11   -1    0    0    0    0 -0.00000000000E+00 -0.00000000000E+00 -0.45593999997E+02  0.45594000000E+02  0.51100000000E-03 0. -1.
    9900012    2    1    2    0    0 -0.28184279381E+02 -0.13962592521E+02  0.52354359104E+01  0.59301993927E+02  0.50000091004E+02 0.  0.
        -12    1    1    2    0    0  0.28184279381E+02  0.13962592521E+02 -0.52354359104E+01  0.31886006073E+02  0.00000000000E+00 0.  1.
         11    1    3    3    0    0 -0.31263043524E+02 -0.65388448301E+01  0.66406938997E+01  0.32622587233E+02  0.51100000000E-03 0.  1.
        -11    1    3    3    0    0  0.92325391685E+01 -0.77681998707E+01 -0.10295708090E+02  0.15861472632E+02  0.51100000000E-03 0. -1.
         12    1    3    3    0    0 -0.61537750257E+01  0.34445218021E+00  0.88904501003E+01  0.10817934061E+02  0.00000000000E+00 0. -1.
</event>
<event>
 7    1  0.5755468E-013  0.5930193E+02  0.7816164E-02  0.1266605E+00
        -11   -1    0    0    0    0  0.00000000000E+00  0.00000000000E+00  0.45593999997E+02  0.45594000000E+02  0.51100000000E-03 0. -1.
         11   -1    0    0    0    0 -0.00000000000E+00 -0.00000000000E+00 -0.45593999997E+02  0.45594000000E+02  0.51100000000E-03 0.  1.
    9900012    2    1    2    0    0 -0.19394319208E+02  0.18013344115E+02  0.17779233364E+02  0.59301932153E+02  0.49999978343E+02 0.  0.
        -12    1    1    2    0    0  0.19394319208E+02 -0.18013344115E+02 -0.17779233364E+02  0.31886067847E+02  0.00000000000E+00 0.  1.
         11    1    3    3    0    0  0.19750203127E+01  0.39203971552E+01  0.13072739671E+02  0.13790095788E+02  0.51100000000E-03 0. -1.
        -11    1    3    3    0    0 -0.67297643307E+01 -0.23665734470E+01 -0.14581391760E+02  0.16232910513E+02  0.51100000000E-03 0.  1.
        -12    1    3    3    0    0 -0.14639575190E+02  0.16459520407E+02  0.19287885453E+02  0.29278925851E+02  0.00000000000E+00 0.  1.
</event>
<event>
 7    1  0.5755468E-013  0.5930194E+02  0.7816164E-02  0.1266605E+00
        -11   -1    0    0    0    0  0.00000000000E+00  0.00000000000E+00  0.45593999997E+02  0.45594000000E+02  0.51100000000E-03 0. -1.
         11   -1    0    0    0    0 -0.00000000000E+00 -0.00000000000E+00 -0.45593999997E+02  0.45594000000E+02  0.51100000000E-03 0.  1.
    9900012    2    1    2    0    0 -0.11694024129E+02  0.16357671256E+02  0.24746663120E+02  0.59301938079E+02  0.49999989151E+02 0.  0.
        -12    1    1    2    0    0  0.11694024129E+02 -0.16357671256E+02 -0.24746663120E+02  0.31886061921E+02  0.00000000000E+00 0.  1.
         11    1    3    3    0    0  0.68798545350E+01 -0.86653514865E+01  0.10826093315E+01  0.11117227983E+02  0.51100000000E-03 0.  1.
        -11    1    3    3    0    0 -0.13415713174E+02  0.30933110581E+02  0.16402052887E+02  0.37494880042E+02  0.51100000000E-03 0. -1.
         12    1    3    3    0    0 -0.51581654897E+01 -0.59100878384E+01  0.72620009020E+01  0.10689830054E+02  0.00000000000E+00 0. -1.
</event>
<event>
 7    1  0.5755468E-013  0.5930194E+02  0.7816164E-02  0.1266605E+00
        -11   -1    0    0    0    0  0.00000000000E+00  0.00000000000E+00  0.45593999997E+02  0.45594000000E+02  0.51100000000E-03 0.  1.
         11   -1    0    0    0    0 -0.00000000000E+00 -0.00000000000E+00 -0.45593999997E+02  0.45594000000E+02  0.51100000000E-03 0. -1.
    9900012    2    1    2    0    0 -0.30102579479E+02 -0.57586581595E+01 -0.87973685144E+01  0.59301935209E+02  0.49999983917E+02 0.  0.
        -12    1    1    2    0    0  0.30102579479E+02  0.57586581595E+01  0.87973685144E+01  0.31886064791E+02  0.00000000000E+00 0.  1.
         11    1    3    3    0    0 -0.25220322332E+02 -0.67863106402E+01 -0.64075993153E+01  0.26891931873E+02  0.51100000000E-03 0. -1.
        -11    1    3    3    0    0  0.11335159690E+02  0.75292589283E+01 -0.54741420877E+01  0.14667713423E+02  0.51100000000E-03 0.  1.
        -12    1    3    3    0    0 -0.16217416836E+02 -0.65016064476E+01  0.30843728886E+01  0.17742289913E+02  0.00000000000E+00 0.  1.
</event>
<event>
 7    1  0.5755468E-013  0.5930195E+02  0.7816164E-02  0.1266605E+00
        -11   -1    0    0    0    0  0.00000000000E+00  0.00000000000E+00  0.45593999997E+02  0.45594000000E+02  0.51100000000E-03 0.  1.
         11   -1    0    0    0    0 -0.00000000000E+00 -0.00000000000E+00 -0.45593999997E+02  0.45594000000E+02  0.51100000000E-03 0. -1.
    9900012    2    1    2    0    0 -0.72769468539E+01 -0.74553505182E+01 -0.30136088023E+02  0.59301952767E+02  0.50000015938E+02 0.  0.
        -12    1    1    2    0    0  0.72769468539E+01  0.74553505182E+01  0.30136088023E+02  0.31886047233E+02  0.00000000000E+00 0.  1.
         11    1    3    3    0    0  0.25166694627E+01  0.81644040121E+01  0.12249348244E+01  0.86308506906E+01  0.51100000000E-03 0. -1.
        -11    1    3    3    0    0 -0.17286467648E+02 -0.11012049005E+02 -0.35467312218E+02  0.40963610965E+02  0.51100000000E-03 0.  1.
        -12    1    3    3    0    0  0.74928513319E+01 -0.46077055249E+01  0.41062893706E+01  0.97074911116E+01  0.00000000000E+00 0.  1.
</event>
<event>
 7    1  0.5755468E-013  0.5930193E+02  0.7816164E-02  0.1266605E+00
        -11   -1    0    0    0    0  0.00000000000E+00  0.00000000000E+00  0.45593999997E+02  0.45594000000E+02  0.51100000000E-03 0.  1.
         11   -1    0    0    0    0 -0.00000000000E+00 -0.00000000000E+00 -0.45593999997E+02  0.45594000000E+02  0.51100000000E-03 0. -1.
    9900012    2    1    2    0    0  0.25501453546E+02  0.17056354921E+02 -0.86878214681E+01  0.59301927523E+02  0.49999969899E+02 0.  0.
        -12    1    1    2    0    0 -0.25501453546E+02 -0.17056354921E+02  0.86878214681E+01  0.31886072477E+02  0.00000000000E+00 0.  1.
         11    1    3    3    0    0  0.20504321819E+02 -0.31280262430E+01 -0.38510592212E+01  0.21096028509E+02  0.51100000000E-03 0. -1.
        -11    1    3    3    0    0 -0.27572306054E+01  0.16188471212E+02 -0.16739015393E+02  0.23449169652E+02  0.51100000000E-03 0.  1.
        -12    1    3    3    0    0  0.77543623318E+01  0.39959099518E+01  0.11902253146E+02  0.14756729362E+02  0.00000000000E+00 0.  1.
</event>
<event>
 7    1  0.5755468E-013  0.5930196E+02  0.7816164E-02  0.1266605E+00
        -11   -1    0    0    0    0  0.00000000000E+00  0.00000000000E+00  0.45593999997E+02  0.45594000000E+02  0.51100000000E-03 0. -1.
         11   -1    0    0    0    0 -0.00000000000E+00 -0.00000000000E+00 -0.45593999997E+02  0.45594000000E+02  0.51100000000E-03 0.  1.
    9900012    2    1    2    0    0  0.20307292258E+02  0.75518318881E+01  0.23394507618E+02  0.59301964335E+02  0.50000037036E+02 0.  0.
        -12    1    1    2    0    0 -0.20307292258E+02 -0.75518318881E+01 -0.23394507618E+02  0.31886035665E+02  0.00000000000E+00 0.  1.
         11    1    3    3    0    0  0.10325004868E+02  0.20872908713E+02  0.14532081250E+01  0.23332292167E+02  0.51100000000E-03 0. -1.
        -11    1    3    3    0    0 -0.61016392504E+01  0.30207441241E+00  0.87910776842E+00  0.61720402804E+01  0.51100000000E-03 0.  1.
         12    1    3    3    0    0  0.16083926641E+02 -0.13623151238E+02  0.21062191725E+02  0.29797631887E+02  0.00000000000E+00 0. -1.
</event>
<event>
 7    1  0.5755468E-013  0.5930195E+02  0.7816164E-02  0.1266605E+00
        -11   -1    0    0    0    0  0.00000000000E+00  0.00000000000E+00  0.45593999997E+02  0.45594000000E+02  0.51100000000E-03 0. -1.
         11   -1    0    0    0    0 -0.00000000000E+00 -0.00000000000E+00 -0.45593999997E+02  0.45594000000E+02  0.51100000000E-03 0.  1.
    9900012    2    1    2    0    0  0.25974307740E+02 -0.17359726440E+02 -0.63792992835E+01  0.59301949382E+02  0.50000009766E+02 0.  0.
        -12    1    1    2    0    0 -0.25974307740E+02  0.17359726440E+02  0.63792992835E+01  0.31886050618E+02  0.00000000000E+00 0.  1.
         11    1    3    3    0    0  0.25422523966E+02 -0.12175779349E+02 -0.35020487379E+01  0.28404553740E+02  0.51100000000E-03 0. -1.
        -11    1    3    3    0    0 -0.10416882267E+02 -0.66294533093E+01 -0.11497798958E+02  0.16871883963E+02  0.51100000000E-03 0.  1.
        -12    1    3    3    0    0  0.10968666040E+02  0.14455062177E+01  0.86205484123E+01  0.14025511679E+02  0.00000000000E+00 0.  1.
</event>
<event>
 7    1  0.5755468E-013  0.5930194E+02  0.7816164E-02  0.1266605E+00
        -11   -1    0    0    0    0  0.00000000000E+00  0.00000000000E+00  0.45593999997E+02  0.45594000000E+02  0.51100000000E-03 0. -1.
         11   -1    0    0    0    0 -0.00000000000E+00 -0.00000000000E+00 -0.45593999997E+02  0.45594000000E+02  0.51100000000E-03 0.  1.
    9900012    2    1    2    0    0 -0.28809342168E+02  0.20471688158E+01  0.13511169408E+02  0.59301940427E+02  0.49999993434E+02 0.  0.
        -12    1    1    2    0    0  0.28809342168E+02 -0.20471688158E+01 -0.13511169408E+02  0.31886059573E+02  0.00000000000E+00 0.  1.
         11    1    3    3    0    0 -0.13694179489E+02 -0.13551170613E+01  0.15828044274E+02  0.20973647273E+02  0.51100000000E-03 0. -1.
        -11    1    3    3    0    0  0.71801423007E+00  0.97087651844E+01 -0.14438744864E+02  0.17414161460E+02  0.51100000000E-03 0.  1.
        -12    1    3    3    0    0 -0.15833176908E+02 -0.63064793073E+01  0.12121869999E+02  0.20914131694E+02  0.00000000000E+00 0.  1.
</event>
<event>
 7    1  0.5755468E-013  0.5930194E+02  0.7816164E-02  0.1266605E+00
        -11   -1    0    0    0    0  0.00000000000E+00  0.00000000000E+00  0.45593999997E+02  0.45594000000E+02  0.51100000000E-03 0.  1.
         11   -1    0    0    0    0 -0.00000000000E+00 -0.00000000000E+00 -0.45593999997E+02  0.45594000000E+02  0.51100000000E-03 0. -1.
    9900012    2    1    2    0    0  0.21229348212E+02 -0.13207909890E+02 -0.19788557832E+02  0.59301935172E+02  0.49999983849E+02 0.  0.
        -12    1    1    2    0    0 -0.21229348212E+02  0.13207909890E+02  0.19788557832E+02  0.31886064828E+02  0.00000000000E+00 0.  1.
         11    1    3    3    0    0  0.19563937719E+02  0.49389172935E+00 -0.16962729969E+02  0.25898374396E+02  0.51100000000E-03 0. -1.
        -11    1    3    3    0    0 -0.10847699248E+02 -0.14760384142E+02  0.45036128449E+01  0.18863298967E+02  0.51100000000E-03 0.  1.
        -12    1    3    3    0    0  0.12513109742E+02  0.10585825231E+01 -0.73294407074E+01  0.14540261808E+02  0.00000000000E+00 0.  1.
</event>
<event>
 7    1  0.5755468E-013  0.5930196E+02  0.7816164E-02  0.1266605E+00
        -11   -1    0    0    0    0  0.00000000000E+00  0.00000000000E+00  0.45593999997E+02  0.45594000000E+02  0.51100000000E-03 0. -1.
         11   -1    0    0    0    0 -0.00000000000E+00 -0.00000000000E+00 -0.45593999997E+02  0.45594000000E+02  0.51100000000E-03 0.  1.
    9900012    2    1    2    0    0  0.28866471020E+02 -0.50003500034E+01  0.12587419274E+02  0.59301956450E+02  0.50000022655E+02 0.  0.
        -12    1    1    2    0    0 -0.28866471020E+02  0.50003500034E+01 -0.12587419274E+02  0.31886043550E+02  0.00000000000E+00 0.  1.
         11    1    3    3    0    0  0.13589551661E+02 -0.18786367181E-01  0.11602584022E+02  0.17868861842E+02  0.51100000000E-03 0. -1.
        -11    1    3    3    0    0  0.77367840914E+01  0.14350671967E+02 -0.87604888631E+01  0.18507992310E+02  0.51100000000E-03 0.  1.
        -12    1    3    3    0    0  0.75401352678E+01 -0.19332235603E+02  0.97453241149E+01  0.22925102298E+02  0.00000000000E+00 0.  1.
</event>
<event>
 7    1  0.5755468E-013  0.5930194E+02  0.7816164E-02  0.1266605E+00
        -11   -1    0    0    0    0  0.00000000000E+00  0.00000000000E+00  0.45593999997E+02  0.45594000000E+02  0.51100000000E-03 0.  1.
         11   -1    0    0    0    0 -0.00000000000E+00 -0.00000000000E+00 -0.45593999997E+02  0.45594000000E+02  0.51100000000E-03 0. -1.
    9900012    2    1    2    0    0 -0.31174901797E+02 -0.17252185695E+01 -0.64707075018E+01  0.59301938205E+02  0.49999989381E+02 0.  0.
        -12    1    1    2    0    0  0.31174901797E+02  0.17252185695E+01  0.64707075018E+01  0.31886061795E+02  0.00000000000E+00 0.  1.
         11    1    3    3    0    0 -0.22947878358E+02 -0.79179574862E+01 -0.76971004157E+01  0.25466537397E+02  0.51100000000E-03 0. -1.
        -11    1    3    3    0    0 -0.14070281458E+02  0.81876322376E+01  0.12806061411E+02  0.20712444353E+02  0.51100000000E-03 0.  1.
         12    1    3    3    0    0  0.58432580189E+01 -0.19948933210E+01 -0.11579668497E+02  0.13122956456E+02  0.00000000000E+00 0. -1.
</event>
<event>
 7    1  0.5755468E-013  0.5930194E+02  0.7816164E-02  0.1266605E+00
        -11   -1    0    0    0    0  0.00000000000E+00  0.00000000000E+00  0.45593999997E+02  0.45594000000E+02  0.51100000000E-03 0.  1.
         11   -1    0    0    0    0 -0.00000000000E+00 -0.00000000000E+00 -0.45593999997E+02  0.45594000000E+02  0.51100000000E-03 0. -1.
    9900012    2    1    2    0    0 -0.20959197094E+02  0.24010889780E+02 -0.95406646730E+00  0.59301937000E+02  0.49999987182E+02 0.  0.
        -12    1    1    2    0    0  0.20959197094E+02 -0.24010889780E+02  0.95406646730E+00  0.31886063000E+02  0.00000000000E+00 0.  1.
         11    1    3    3    0    0 -0.26879520252E+02  0.15814217187E+02 -0.12686010220E+02  0.33667980780E+02  0.51100000000E-03 0. -1.
        -11    1    3    3    0    0  0.65488939484E+01 -0.13959075074E+01  0.14208205685E+02  0.15706994581E+02  0.51100000000E-03 0.  1.
        -12    1    3    3    0    0 -0.62857078973E+00  0.95925801008E+01 -0.24762619316E+01  0.99269616390E+01  0.00000000000E+00 0.  1.
</event>
<event>
 7    1  0.5755468E-013  0.5930190E+02  0.7816164E-02  0.1266605E+00
        -11   -1    0    0    0    0  0.00000000000E+00  0.00000000000E+00  0.45593999997E+02  0.45594000000E+02  0.51100000000E-03 0. -1.
         11   -1    0    0    0    0 -0.00000000000E+00 -0.00000000000E+00 -0.45593999997E+02  0.45594000000E+02  0.51100000000E-03 0.  1.
    9900012    2    1    2    0    0  0.31303087533E+02  0.55247134759E+01  0.25135337646E+01  0.59301896443E+02  0.49999913216E+02 0.  0.
        -12    1    1    2    0    0 -0.31303087533E+02 -0.55247134759E+01 -0.25135337646E+01  0.31886103557E+02  0.00000000000E+00 0.  1.
         11    1    3    3    0    0  0.12003695557E+02 -0.14131005104E+02  0.17096711374E+02  0.25220459003E+02  0.51100000000E-03 0. -1.
        -11    1    3    3    0    0  0.20333289378E+02  0.13169726952E+02 -0.11109907010E+02  0.26651724127E+02  0.51100000000E-03 0.  1.
         12    1    3    3    0    0 -0.10338974023E+01  0.64859916285E+01 -0.34732705989E+01  0.74297133119E+01  0.00000000000E+00 0. -1.
</event>
<event>
 7    1  0.5755468E-013  0.5930195E+02  0.7816164E-02  0.1266605E+00
        -11   -1    0    0    0    0  0.00000000000E+00  0.00000000000E+00  0.45593999997E+02  0.45594000000E+02  0.51100000000E-03 0.  1.
         11   -1    0    0    0    0 -0.00000000000E+00 -0.00000000000E+00 -0.45593999997E+02  0.45594000000E+02  0.51100000000E-03 0. -1.
    9900012    2    1    2    0    0 -0.87473814095E+01 -0.24352523322E+02 -0.18632183254E+02  0.59301947775E+02  0.50000006834E+02 0.  0.
        -12    1    1    2    0    0  0.87473814095E+01  0.24352523322E+02  0.18632183254E+02  0.31886052225E+02  0.00000000000E+00 0.  1.
         11    1    3    3    0    0  0.36652870635E+01 -0.10152621507E+02 -0.10934898414E-01  0.10793987797E+02  0.51100000000E-03 0. -1.
        -11    1    3    3    0    0 -0.32680350736E+01  0.14256229497E+02 -0.36299014731E+01  0.15069715248E+02  0.51100000000E-03 0.  1.
        -12    1    3    3    0    0 -0.91446333994E+01 -0.28456131312E+02 -0.14991346883E+02  0.33438244730E+02  0.00000000000E+00 0.  1.
</event>
<event>
 7    1  0.5755468E-013  0.5930197E+02  0.7816164E-02  0.1266605E+00
        -11   -1    0    0    0    0  0.00000000000E+00  0.00000000000E+00  0.45593999997E+02  0.45594000000E+02  0.51100000000E-03 0. -1.
         11   -1    0    0    0    0 -0.00000000000E+00 -0.00000000000E+00 -0.45593999997E+02  0.45594000000E+02  0.51100000000E-03 0.  1.
    9900012    2    1    2    0    0 -0.23045883970E+02 -0.12048566634E+02  0.18450965005E+02  0.59301971155E+02  0.50000049474E+02 0.  0.
        -12    1    1    2    0    0  0.23045883970E+02  0.12048566634E+02 -0.18450965005E+02  0.31886028845E+02  0.00000000000E+00 0.  1.
         11    1    3    3    0    0 -0.27217543851E+02 -0.60029595934E+01  0.32700533312E+02  0.42966906990E+02  0.51100000000E-03 0. -1.
        -11    1    3    3    0    0  0.22328742828E+01 -0.10398302581E+01 -0.60764469105E+01  0.65566898543E+01  0.51100000000E-03 0.  1.
         12    1    3    3    0    0  0.19387855989E+01 -0.50057767830E+01 -0.81731213962E+01  0.97783743106E+01  0.00000000000E+00 0. -1.
</event>
<event>
 7    1  0.5755468E-013  0.5930194E+02  0.7816164E-02  0.1266605E+00
        -11   -1    0    0    0    0  0.00000000000E+00  0.00000000000E+00  0.45593999997E+02  0.45594000000E+02  0.51100000000E-03 0.  1.
         11   -1    0    0    0    0 -0.00000000000E+00 -0.00000000000E+00 -0.45593999997E+02  0.45594000000E+02  0.51100000000E-03 0. -1.
    9900012    2    1    2    0    0  0.14627305631E+02 -0.24099465713E+02 -0.14898939792E+02  0.59301941532E+02  0.49999995449E+02 0.  0.
        -12    1    1    2    0    0 -0.14627305631E+02  0.24099465713E+02  0.14898939792E+02  0.31886058468E+02  0.00000000000E+00 0.  1.
         11    1    3    3    0    0 -0.99742569239E+00  0.23041239808E+01  0.18522876582E+01  0.31200665314E+01  0.51100000000E-03 0. -1.
        -11    1    3    3    0    0  0.75291601664E+01 -0.13764336668E+02 -0.31467319882E+02  0.35161590373E+02  0.51100000000E-03 0.  1.
        -12    1    3    3    0    0  0.80955711569E+01 -0.12639253026E+02  0.14716092431E+02  0.21020284628E+02  0.00000000000E+00 0.  1.
</event>
<event>
 7    1  0.5755468E-013  0.5930195E+02  0.7816164E-02  0.1266605E+00
        -11   -1    0    0    0    0  0.00000000000E+00  0.00000000000E+00  0.45593999997E+02  0.45594000000E+02  0.51100000000E-03 0.  1.
         11   -1    0    0    0    0 -0.00000000000E+00 -0.00000000000E+00 -0.45593999997E+02  0.45594000000E+02  0.51100000000E-03 0. -1.
    9900012    2    1    2    0    0  0.27606579705E+02  0.37919967249E+00 -0.15951591695E+02  0.59301947986E+02  0.50000007219E+02 0.  0.
        -12    1    1    2    0    0 -0.27606579705E+02 -0.37919967249E+00  0.15951591695E+02  0.31886052014E+02  0.00000000000E+00 0.  1.
         11    1    3    3    0    0 -0.35447997715E+01  0.30560753334E+00 -0.22394679361E+02  0.22675552150E+02  0.51100000000E-03 0. -1.
        -11    1    3    3    0    0  0.40815895416E+01 -0.40659443466E+01  0.72126401201E+01  0.92311133879E+01  0.51100000000E-03 0.  1.
         12    1    3    3    0    0  0.27069789935E+02  0.41395364857E+01 -0.76955245479E+00  0.27395282448E+02  0.00000000000E+00 0. -1.
</event>
<event>
 7    1  0.5755468E-013  0.5930193E+02  0.7816164E-02  0.1266605E+00
        -11   -1    0    0    0    0  0.00000000000E+00  0.00000000000E+00  0.45593999997E+02  0.45594000000E+02  0.51100000000E-03 0.  1.
         11   -1    0    0    0    0 -0.00000000000E+00 -0.00000000000E+00 -0.45593999997E+02  0.45594000000E+02  0.51100000000E-03 0. -1.
    9900012    2    1    2    0    0 -0.28165575368E+00  0.23735701941E+02 -0.21289867343E+02  0.59301932070E+02  0.49999978191E+02 0.  0.
        -12    1    1    2    0    0  0.28165575368E+00 -0.23735701941E+02  0.21289867343E+02  0.31886067930E+02  0.00000000000E+00 0.  1.
         11    1    3    3    0    0 -0.30061790166E+01  0.26554485100E+02 -0.26116945599E+02  0.37366731713E+02  0.51100000000E-03 0. -1.
        -11    1    3    3    0    0  0.39910445917E+01  0.19213476101E+01  0.12256239075E+02  0.13032091547E+02  0.51100000000E-03 0.  1.
        -12    1    3    3    0    0 -0.12665213288E+01 -0.47401307697E+01 -0.74291608190E+01  0.89031088090E+01  0.00000000000E+00 0.  1.
</event>
<event>
 7    1  0.5755468E-013  0.5930195E+02  0.7816164E-02  0.1266605E+00
        -11   -1    0    0    0    0  0.00000000000E+00  0.00000000000E+00  0.45593999997E+02  0.45594000000E+02  0.51100000000E-03 0.  1.
         11   -1    0    0    0    0 -0.00000000000E+00 -0.00000000000E+00 -0.45593999997E+02  0.45594000000E+02  0.51100000000E-03 0. -1.
    9900012    2    1    2    0    0 -0.17965374313E+02  0.20612679026E+02  0.16403741720E+02  0.59301953628E+02  0.50000017508E+02 0.  0.
        -12    1    1    2    0    0  0.17965374313E+02 -0.20612679026E+02 -0.16403741720E+02  0.31886046372E+02  0.00000000000E+00 0.  1.
         11    1    3    3    0    0  0.67343420522E+00  0.21785371188E+01 -0.14743060647E+02  0.14918356984E+02  0.51100000000E-03 0. -1.
        -11    1    3    3    0    0 -0.81077087642E+01 -0.67777065007E+00  0.15587920213E+02  0.17583445945E+02  0.51100000000E-03 0.  1.
         12    1    3    3    0    0 -0.10531099754E+02  0.19111912557E+02  0.15558882154E+02  0.26800150699E+02  0.00000000000E+00 0. -1.
</event>
<event>
 7    1  0.5755468E-013  0.5930193E+02  0.7816164E-02  0.1266605E+00
        -11   -1    0    0    0    0  0.00000000000E+00  0.00000000000E+00  0.45593999997E+02  0.45594000000E+02  0.51100000000E-03 0.  1.
         11   -1    0    0    0    0 -0.00000000000E+00 -0.00000000000E+00 -0.45593999997E+02  0.45594000000E+02  0.51100000000E-03 0. -1.
    9900012    2    1    2    0    0 -0.21080562099E+02  0.52360377285E+01 -0.23343418159E+02  0.59301931556E+02  0.49999977255E+02 0.  0.
        -12    1    1    2    0    0  0.21080562099E+02 -0.52360377285E+01  0.23343418159E+02  0.31886068444E+02  0.00000000000E+00 0.  1.
         11    1    3    3    0    0 -0.32668175318E+02 -0.50404689135E+01 -0.56296351182E+01  0.33530714237E+02  0.51100000000E-03 0. -1.
        -11    1    3    3    0    0  0.39525124716E+01 -0.64201881397E+00 -0.90022905166E+01  0.98527040858E+01  0.51100000000E-03 0.  1.
         12    1    3    3    0    0  0.76351007473E+01  0.10918525456E+02 -0.87114925237E+01  0.15918513233E+02  0.00000000000E+00 0. -1.
</event>
<event>
 7    1  0.5755468E-013  0.5930194E+02  0.7816164E-02  0.1266605E+00
        -11   -1    0    0    0    0  0.00000000000E+00  0.00000000000E+00  0.45593999997E+02  0.45594000000E+02  0.51100000000E-03 0. -1.
         11   -1    0    0    0    0 -0.00000000000E+00 -0.00000000000E+00 -0.45593999997E+02  0.45594000000E+02  0.51100000000E-03 0.  1.
    9900012    2    1    2    0    0 -0.18989179799E+02 -0.21914591462E+02  0.13262066603E+02  0.59301942248E+02  0.49999996754E+02 0.  0.
        -12    1    1    2    0    0  0.18989179799E+02  0.21914591462E+02 -0.13262066603E+02  0.31886057752E+02  0.00000000000E+00 0.  1.
         11    1    3    3    0    0  0.13766223306E+01 -0.14497927971E+02  0.13901213875E+01  0.14629334990E+02  0.51100000000E-03 0. -1.
        -11    1    3    3    0    0 -0.17525620287E+02  0.11659282119E+02  0.13983677270E+02  0.25271119014E+02  0.51100000000E-03 0.  1.
         12    1    3    3    0    0 -0.28401818423E+01 -0.19075945610E+02 -0.21117320545E+01  0.19401488244E+02  0.00000000000E+00 0. -1.
</event>
<event>
 7    1  0.5755468E-013  0.5930194E+02  0.7816164E-02  0.1266605E+00
        -11   -1    0    0    0    0  0.00000000000E+00  0.00000000000E+00  0.45593999997E+02  0.45594000000E+02  0.51100000000E-03 0.  1.
         11   -1    0    0    0    0 -0.00000000000E+00 -0.00000000000E+00 -0.45593999997E+02  0.45594000000E+02  0.51100000000E-03 0. -1.
    9900012    2    1    2    0    0  0.77990717323E+01 -0.10072082453E+01 -0.30901143111E+02  0.59301942954E+02  0.49999998043E+02 0.  0.
        -12    1    1    2    0    0 -0.77990717323E+01  0.10072082453E+01  0.30901143111E+02  0.31886057046E+02  0.00000000000E+00 0.  1.
         11    1    3    3    0    0  0.85227595563E+01 -0.27861065249E+01 -0.35346990125E+02  0.36466553596E+02  0.51100000000E-03 0. -1.
        -11    1    3    3    0    0 -0.93739552143E+01 -0.46038208553E+01  0.58879534926E+01  0.11988919860E+02  0.51100000000E-03 0.  1.
         12    1    3    3    0    0  0.86502673904E+01  0.63827191349E+01 -0.14421064791E+01  0.10846469498E+02  0.00000000000E+00 0. -1.
</event>
<event>
 7    1  0.5755468E-013  0.5930194E+02  0.7816164E-02  0.1266605E+00
        -11   -1    0    0    0    0  0.00000000000E+00  0.00000000000E+00  0.45593999997E+02  0.45594000000E+02  0.51100000000E-03 0.  1.
         11   -1    0    0    0    0 -0.00000000000E+00 -0.00000000000E+00 -0.45593999997E+02  0.45594000000E+02  0.51100000000E-03 0. -1.
    9900012    2    1    2    0    0 -0.28089608845E+02  0.81453598078E+01 -0.12702268570E+02  0.59301942885E+02  0.49999997917E+02 0.  0.
        -12    1    1    2    0    0  0.28089608845E+02 -0.81453598078E+01  0.12702268570E+02  0.31886057115E+02  0.00000000000E+00 0.  1.
         11    1    3    3    0    0 -0.27243970508E+02 -0.12864926401E+02 -0.16287553900E+02  0.34249447772E+02  0.51100000000E-03 0. -1.
        -11    1    3    3    0    0 -0.10541132657E+01  0.62440587638E+01 -0.49124013186E+01  0.80144314582E+01  0.51100000000E-03 0.  1.
         12    1    3    3    0    0  0.20847492861E+00  0.14766227445E+02  0.84976866484E+01  0.17038063655E+02  0.00000000000E+00 0. -1.
</event>
<event>
 7    1  0.5755468E-013  0.5930190E+02  0.7816164E-02  0.1266605E+00
        -11   -1    0    0    0    0  0.00000000000E+00  0.00000000000E+00  0.45593999997E+02  0.45594000000E+02  0.51100000000E-03 0. -1.
         11   -1    0    0    0    0 -0.00000000000E+00 -0.00000000000E+00 -0.45593999997E+02  0.45594000000E+02  0.51100000000E-03 0.  1.
    9900012    2    1    2    0    0  0.53742508619E+01  0.21032965213E+02  0.23354977562E+02  0.59301903109E+02  0.49999925375E+02 0.  0.
        -12    1    1    2    0    0 -0.53742508619E+01 -0.21032965213E+02 -0.23354977562E+02  0.31886096891E+02  0.00000000000E+00 0.  1.
         11    1    3    3    0    0 -0.22312591341E+01  0.63551601423E+01  0.31288047863E+02  0.32004820216E+02  0.51100000000E-03 0. -1.
        -11    1    3    3    0    0  0.10907686437E+02  0.60414952406E+01  0.31528052559E+01  0.12861472287E+02  0.51100000000E-03 0.  1.
         12    1    3    3    0    0 -0.33021764406E+01  0.86363098304E+01 -0.11085875556E+02  0.14435610606E+02  0.00000000000E+00 0. -1.
</event>
<event>
 7    1  0.5755468E-013  0.5930195E+02  0.7816164E-02  0.1266605E+00
        -11   -1    0    0    0    0  0.00000000000E+00  0.00000000000E+00  0.45593999997E+02  0.45594000000E+02  0.51100000000E-03 0. -1.
         11   -1    0    0    0    0 -0.00000000000E+00 -0.00000000000E+00 -0.45593999997E+02  0.45594000000E+02  0.51100000000E-03 0.  1.
    9900012    2    1    2    0    0  0.52165603479E+01  0.16776785729E+02  0.26609159356E+02  0.59301946577E+02  0.50000004650E+02 0.  0.
        -12    1    1    2    0    0 -0.52165603479E+01 -0.16776785729E+02 -0.26609159356E+02  0.31886053423E+02  0.00000000000E+00 0.  1.
         11    1    3    3    0    0  0.19516247446E+01 -0.11334715594E+02 -0.11362797311E+00  0.11502066263E+02  0.51100000000E-03 0. -1.
        -11    1    3    3    0    0 -0.10797734312E+02  0.13074432025E+02  0.19823534056E+02  0.26086478141E+02  0.51100000000E-03 0.  1.
        -12    1    3    3    0    0  0.14062669916E+02  0.15037069298E+02  0.68992532726E+01  0.21713402173E+02  0.00000000000E+00 0.  1.
</event>
<event>
 7    1  0.5755468E-013  0.5930201E+02  0.7816164E-02  0.1266605E+00
        -11   -1    0    0    0    0  0.00000000000E+00  0.00000000000E+00  0.45593999997E+02  0.45594000000E+02  0.51100000000E-03 0.  1.
         11   -1    0    0    0    0 -0.00000000000E+00 -0.00000000000E+00 -0.45593999997E+02  0.45594000000E+02  0.51100000000E-03 0. -1.
    9900012    2    1    2    0    0  0.80232907849E+01 -0.20637699573E+02 -0.22944029525E+02  0.59302010451E+02  0.50000121139E+02 0.  0.
        -12    1    1    2    0    0 -0.80232907849E+01  0.20637699573E+02  0.22944029525E+02  0.31885989549E+02  0.00000000000E+00 0.  1.
         11    1    3    3    0    0  0.63325246062E+01  0.44623165139E+01 -0.70704652699E+01  0.10488308536E+02  0.51100000000E-03 0. -1.
        -11    1    3    3    0    0 -0.66462188297E+01 -0.17437541077E+02 -0.27076939258E+02  0.32884657568E+02  0.51100000000E-03 0.  1.
        -12    1    3    3    0    0  0.83369850085E+01 -0.76624750103E+01  0.11203375003E+02  0.15929044346E+02  0.00000000000E+00 0.  1.
</event>
<event>
 7    1  0.5755468E-013  0.5930194E+02  0.7816164E-02  0.1266605E+00
        -11   -1    0    0    0    0  0.00000000000E+00  0.00000000000E+00  0.45593999997E+02  0.45594000000E+02  0.51100000000E-03 0. -1.
         11   -1    0    0    0    0 -0.00000000000E+00 -0.00000000000E+00 -0.45593999997E+02  0.45594000000E+02  0.51100000000E-03 0.  1.
    9900012    2    1    2    0    0  0.94995206416E+01 -0.29907467173E+02  0.56589134112E+01  0.59301940568E+02  0.49999993690E+02 0.  0.
        -12    1    1    2    0    0 -0.94995206416E+01  0.29907467173E+02 -0.56589134112E+01  0.31886059432E+02  0.00000000000E+00 0.  1.
         11    1    3    3    0    0  0.19671445006E+02 -0.21986357801E+02  0.17273306981E+02  0.34186734449E+02  0.51100000000E-03 0. -1.
        -11    1    3    3    0    0 -0.13595925580E+02 -0.53776367803E+01 -0.22075612552E+01  0.14786530921E+02  0.51100000000E-03 0.  1.
         12    1    3    3    0    0  0.34240012153E+01 -0.25434725916E+01 -0.94068323151E+01  0.10328675198E+02  0.00000000000E+00 0. -1.
</event>
<event>
 7    1  0.5755468E-013  0.5930194E+02  0.7816164E-02  0.1266605E+00
        -11   -1    0    0    0    0  0.00000000000E+00  0.00000000000E+00  0.45593999997E+02  0.45594000000E+02  0.51100000000E-03 0. -1.
         11   -1    0    0    0    0 -0.00000000000E+00 -0.00000000000E+00 -0.45593999997E+02  0.45594000000E+02  0.51100000000E-03 0.  1.
    9900012    2    1    2    0    0 -0.65084973708E+00  0.12219933375E+02  0.29444362983E+02  0.59301938962E+02  0.49999990760E+02 0.  0.
        -12    1    1    2    0    0  0.65084973708E+00 -0.12219933375E+02 -0.29444362983E+02  0.31886061038E+02  0.00000000000E+00 0.  1.
         11    1    3    3    0    0  0.45214022198E+00  0.96766301615E+01 -0.56043825552E+01  0.11191546191E+02  0.51100000000E-03 0. -1.
        -11    1    3    3    0    0  0.12228306223E+02 -0.83407485261E+01  0.10575657671E+02  0.18191868911E+02  0.51100000000E-03 0.  1.
         12    1    3    3    0    0 -0.13331296182E+02  0.10884051739E+02  0.24473087868E+02  0.29918523859E+02  0.00000000000E+00 0. -1.
</event>
<event>
 7    1  0.5755468E-013  0.5930195E+02  0.7816164E-02  0.1266605E+00
        -11   -1    0    0    0    0  0.00000000000E+00  0.00000000000E+00  0.45593999997E+02  0.45594000000E+02  0.51100000000E-03 0.  1.
         11   -1    0    0    0    0 -0.00000000000E+00 -0.00000000000E+00 -0.45593999997E+02  0.45594000000E+02  0.51100000000E-03 0. -1.
    9900012    2    1    2    0    0  0.11808667327E+02 -0.72605182486E+01 -0.28715162271E+02  0.59301948291E+02  0.50000007776E+02 0.  0.
        -12    1    1    2    0    0 -0.11808667327E+02  0.72605182486E+01  0.28715162271E+02  0.31886051709E+02  0.00000000000E+00 0.  1.
         11    1    3    3    0    0  0.11630882289E+02 -0.68360351876E+01  0.79511704448E+01  0.15659818377E+02  0.51100000000E-03 0. -1.
        -11    1    3    3    0    0 -0.19120625520E+01 -0.10852512437E+02 -0.97987347096E+01  0.14746125307E+02  0.51100000000E-03 0.  1.
         12    1    3    3    0    0  0.20898475903E+01  0.10428029376E+02 -0.26867598007E+02  0.28896004607E+02  0.00000000000E+00 0. -1.
</event>
<event>
 7    1  0.5755468E-013  0.5930197E+02  0.7816164E-02  0.1266605E+00
        -11   -1    0    0    0    0  0.00000000000E+00  0.00000000000E+00  0.45593999997E+02  0.45594000000E+02  0.51100000000E-03 0.  1.
         11   -1    0    0    0    0 -0.00000000000E+00 -0.00000000000E+00 -0.45593999997E+02  0.45594000000E+02  0.51100000000E-03 0. -1.
    9900012    2    1    2    0    0  0.29895048581E+02  0.43082920848E+00 -0.11082383509E+02  0.59301972218E+02  0.50000051413E+02 0.  0.
        -12    1    1    2    0    0 -0.29895048581E+02 -0.43082920848E+00  0.11082383509E+02  0.31886027782E+02  0.00000000000E+00 0.  1.
         11    1    3    3    0    0 -0.19967196234E+01 -0.10858740827E+01 -0.91105130712E+01  0.93897529499E+01  0.51100000000E-03 0. -1.
        -11    1    3    3    0    0  0.94879731018E+01 -0.83152291779E-01  0.17681750899E+02  0.20066710318E+02  0.51100000000E-03 0.  1.
        -12    1    3    3    0    0  0.22403795103E+02  0.15998555829E+01 -0.19653621336E+02  0.29845508950E+02  0.00000000000E+00 0.  1.
</event>
<event>
 7    1  0.5755468E-013  0.5930167E+02  0.7816164E-02  0.1266606E+00
        -11   -1    0    0    0    0  0.00000000000E+00  0.00000000000E+00  0.45593999997E+02  0.45594000000E+02  0.51100000000E-03 0.  1.
         11   -1    0    0    0    0 -0.00000000000E+00 -0.00000000000E+00 -0.45593999997E+02  0.45594000000E+02  0.51100000000E-03 0. -1.
    9900012    2    1    2    0    0 -0.10119491912E+02  0.20865576903E+02  0.21885194301E+02  0.59301668357E+02  0.49999497241E+02 0.  0.
        -12    1    1    2    0    0  0.10119491912E+02 -0.20865576903E+02 -0.21885194301E+02  0.31886331643E+02  0.00000000000E+00 0.  1.
         11    1    3    3    0    0 -0.15908653276E+02  0.77518742410E+01  0.21723917654E+02  0.28019732365E+02  0.51100000000E-03 0. -1.
        -11    1    3    3    0    0  0.11416311459E+02  0.18630908797E+02  0.44660531864E+01  0.22302209784E+02  0.51100000000E-03 0.  1.
        -12    1    3    3    0    0 -0.56271500951E+01 -0.55172061351E+01 -0.43047765389E+01  0.89797262085E+01  0.00000000000E+00 0.  1.
</event>
<event>
 7    1  0.5755468E-013  0.5930195E+02  0.7816164E-02  0.1266605E+00
        -11   -1    0    0    0    0  0.00000000000E+00  0.00000000000E+00  0.45593999997E+02  0.45594000000E+02  0.51100000000E-03 0.  1.
         11   -1    0    0    0    0 -0.00000000000E+00 -0.00000000000E+00 -0.45593999997E+02  0.45594000000E+02  0.51100000000E-03 0. -1.
    9900012    2    1    2    0    0 -0.29932674699E+02  0.10780489075E+02  0.21299116321E+01  0.59301945323E+02  0.50000002362E+02 0.  0.
        -12    1    1    2    0    0  0.29932674699E+02 -0.10780489075E+02 -0.21299116321E+01  0.31886054677E+02  0.00000000000E+00 0.  1.
         11    1    3    3    0    0 -0.25487783541E+02 -0.13458285038E+02  0.12431012298E+02  0.31389211730E+02  0.51100000000E-03 0. -1.
        -11    1    3    3    0    0 -0.57294378459E+01  0.18013562415E+02 -0.10360992253E+02  0.21556090778E+02  0.51100000000E-03 0.  1.
         12    1    3    3    0    0  0.12845466881E+01  0.62252116975E+01  0.59891587404E-01  0.63566428148E+01  0.00000000000E+00 0. -1.
</event>
<event>
 7    1  0.5755468E-013  0.5930211E+02  0.7816164E-02  0.1266604E+00
        -11   -1    0    0    0    0  0.00000000000E+00  0.00000000000E+00  0.45593999997E+02  0.45594000000E+02  0.51100000000E-03 0.  1.
         11   -1    0    0    0    0 -0.00000000000E+00 -0.00000000000E+00 -0.45593999997E+02  0.45594000000E+02  0.51100000000E-03 0. -1.
    9900012    2    1    2    0    0 -0.12068639197E+02 -0.28013618698E+02 -0.92895109313E+01  0.59302111304E+02  0.50000305070E+02 0.  0.
        -12    1    1    2    0    0  0.12068639197E+02  0.28013618698E+02  0.92895109313E+01  0.31885888696E+02  0.00000000000E+00 0.  1.
         11    1    3    3    0    0  0.79481327177E+01 -0.76281685736E+01 -0.11343881111E+01  0.11074683117E+02  0.51100000000E-03 0. -1.
        -11    1    3    3    0    0 -0.27230664476E+02 -0.25683165712E+02 -0.22389453187E+01  0.37498626177E+02  0.51100000000E-03 0.  1.
        -12    1    3    3    0    0  0.72138925612E+01  0.52977155876E+01 -0.59161775015E+01  0.10728802010E+02  0.00000000000E+00 0.  1.
</event>
<event>
 7    1  0.5755468E-013  0.5930198E+02  0.7816164E-02  0.1266605E+00
        -11   -1    0    0    0    0  0.00000000000E+00  0.00000000000E+00  0.45593999997E+02  0.45594000000E+02  0.51100000000E-03 0. -1.
         11   -1    0    0    0    0 -0.00000000000E+00 -0.00000000000E+00 -0.45593999997E+02  0.45594000000E+02  0.51100000000E-03 0.  1.
    9900012    2    1    2    0    0 -0.22979635239E+02 -0.16971128036E+02  0.14164586817E+02  0.59301978890E+02  0.50000063581E+02 0.  0.
        -12    1    1    2    0    0  0.22979635239E+02  0.16971128036E+02 -0.14164586817E+02  0.31886021110E+02  0.00000000000E+00 0.  1.
         11    1    3    3    0    0  0.90362965053E+01 -0.49360089868E+01 -0.53050424762E+01  0.11582845729E+02  0.51100000000E-03 0.  1.
        -11    1    3    3    0    0 -0.27272808325E+02 -0.36541792135E+01  0.24510090430E+02  0.36849743999E+02  0.51100000000E-03 0. -1.
         12    1    3    3    0    0 -0.47431234193E+01 -0.83809398353E+01 -0.50404611364E+01  0.10869389162E+02  0.00000000000E+00 0. -1.
</event>
<event>
 7    1  0.5755468E-013  0.5930193E+02  0.7816164E-02  0.1266605E+00
        -11   -1    0    0    0    0  0.00000000000E+00  0.00000000000E+00  0.45593999997E+02  0.45594000000E+02  0.51100000000E-03 0. -1.
         11   -1    0    0    0    0 -0.00000000000E+00 -0.00000000000E+00 -0.45593999997E+02  0.45594000000E+02  0.51100000000E-03 0.  1.
    9900012    2    1    2    0    0  0.41485549236E+01 -0.13539085642E+02  0.28569287335E+02  0.59301928953E+02  0.49999972508E+02 0.  0.
        -12    1    1    2    0    0 -0.41485549236E+01  0.13539085642E+02 -0.28569287335E+02  0.31886071047E+02  0.00000000000E+00 0.  1.
         11    1    3    3    0    0 -0.12629005121E+02 -0.79209478088E+01  0.23604837895E+02  0.27918122373E+02  0.51100000000E-03 0. -1.
        -11    1    3    3    0    0  0.46612935616E+01 -0.14931310338E+02  0.35243911847E+01  0.16034120480E+02  0.51100000000E-03 0.  1.
        -12    1    3    3    0    0  0.12116266483E+02  0.93131725052E+01  0.14400582552E+01  0.15349686100E+02  0.00000000000E+00 0.  1.
</event>
<event>
 7    1  0.5755468E-013  0.5930194E+02  0.7816164E-02  0.1266605E+00
        -11   -1    0    0    0    0  0.00000000000E+00  0.00000000000E+00  0.45593999997E+02  0.45594000000E+02  0.51100000000E-03 0.  1.
         11   -1    0    0    0    0 -0.00000000000E+00 -0.00000000000E+00 -0.45593999997E+02  0.45594000000E+02  0.51100000000E-03 0. -1.
    9900012    2    1    2    0    0 -0.41975688846E+01  0.22575513601E+02 -0.22123451493E+02  0.59301944978E+02  0.50000001733E+02 0.  0.
        -12    1    1    2    0    0  0.41975688846E+01 -0.22575513601E+02  0.22123451493E+02  0.31886055022E+02  0.00000000000E+00 0.  1.
         11    1    3    3    0    0 -0.10309899084E+02  0.27292909993E+02 -0.10110572435E+02  0.30877510105E+02  0.51100000000E-03 0. -1.
        -11    1    3    3    0    0  0.95427837566E+01 -0.40009940375E+01 -0.18416615453E+02  0.21124497630E+02  0.51100000000E-03 0.  1.
        -12    1    3    3    0    0 -0.34304535568E+01 -0.71640235481E+00  0.64037363948E+01  0.72999372432E+01  0.00000000000E+00 0.  1.
</event>
<event>
 7    1  0.5755468E-013  0.5930192E+02  0.7816164E-02  0.1266605E+00
        -11   -1    0    0    0    0  0.00000000000E+00  0.00000000000E+00  0.45593999997E+02  0.45594000000E+02  0.51100000000E-03 0. -1.
         11   -1    0    0    0    0 -0.00000000000E+00 -0.00000000000E+00 -0.45593999997E+02  0.45594000000E+02  0.51100000000E-03 0.  1.
    9900012    2    1    2    0    0  0.73534812143E+01  0.11398623213E+01  0.31005631787E+02  0.59301918795E+02  0.49999953982E+02 0.  0.
        -12    1    1    2    0    0 -0.73534812143E+01 -0.11398623213E+01 -0.31005631787E+02  0.31886081205E+02  0.00000000000E+00 0.  1.
         11    1    3    3    0    0 -0.67011333670E+01  0.27044622087E+01  0.44604601149E+01  0.84920556368E+01  0.51100000000E-03 0. -1.
        -11    1    3    3    0    0  0.28387120503E+02 -0.36242916896E+01  0.20036211253E+02  0.34934422313E+02  0.51100000000E-03 0.  1.
        -12    1    3    3    0    0 -0.14332505921E+02  0.20596918021E+01  0.65089604194E+01  0.15875440846E+02  0.00000000000E+00 0.  1.
</event>
<event>
 7    1  0.5755468E-013  0.5930194E+02  0.7816164E-02  0.1266605E+00
        -11   -1    0    0    0    0  0.00000000000E+00  0.00000000000E+00  0.45593999997E+02  0.45594000000E+02  0.51100000000E-03 0.  1.
         11   -1    0    0    0    0 -0.00000000000E+00 -0.00000000000E+00 -0.45593999997E+02  0.45594000000E+02  0.51100000000E-03 0. -1.
    9900012    2    1    2    0    0 -0.69794499352E+01  0.21191378571E+02 -0.22780116950E+02  0.59301937600E+02  0.49999988278E+02 0.  0.
        -12    1    1    2    0    0  0.69794499352E+01 -0.21191378571E+02  0.22780116950E+02  0.31886062400E+02  0.00000000000E+00 0.  1.
         11    1    3    3    0    0  0.12314034390E+02  0.18058635908E+02 -0.16557466351E+02  0.27420785292E+02  0.51100000000E-03 0. -1.
        -11    1    3    3    0    0 -0.55005450918E+00 -0.89462947104E+01 -0.14935310968E+01  0.90867697455E+01  0.51100000000E-03 0.  1.
         12    1    3    3    0    0 -0.18743429816E+02  0.12079037374E+02 -0.47291195015E+01  0.22794382562E+02  0.00000000000E+00 0. -1.
</event>
<event>
 7    1  0.5755468E-013  0.5930194E+02  0.7816164E-02  0.1266605E+00
        -11   -1    0    0    0    0  0.00000000000E+00  0.00000000000E+00  0.45593999997E+02  0.45594000000E+02  0.51100000000E-03 0. -1.
         11   -1    0    0    0    0 -0.00000000000E+00 -0.00000000000E+00 -0.45593999997E+02  0.45594000000E+02  0.51100000000E-03 0.  1.
    9900012    2    1    2    0    0 -0.74729193754E+01 -0.24283826611E+02  0.19265825720E+02  0.59301940357E+02  0.49999993305E+02 0.  0.
        -12    1    1    2    0    0  0.74729193754E+01  0.24283826611E+02 -0.19265825720E+02  0.31886059643E+02  0.00000000000E+00 0.  1.
         11    1    3    3    0    0 -0.18115833603E+01 -0.87779168839E+01  0.65433864420E+01  0.11097277391E+02  0.51100000000E-03 0. -1.
        -11    1    3    3    0    0  0.18476293816E+00  0.15207009414E+02  0.34545052155E+01  0.15595540363E+02  0.51100000000E-03 0.  1.
        -12    1    3    3    0    0 -0.58460989532E+01 -0.30712919142E+02  0.92679340629E+01  0.32609122603E+02  0.00000000000E+00 0.  1.
</event>
<event>
 7    1  0.5755468E-013  0.5930193E+02  0.7816164E-02  0.1266605E+00
        -11   -1    0    0    0    0  0.00000000000E+00  0.00000000000E+00  0.45593999997E+02  0.45594000000E+02  0.51100000000E-03 0.  1.
         11   -1    0    0    0    0 -0.00000000000E+00 -0.00000000000E+00 -0.45593999997E+02  0.45594000000E+02  0.51100000000E-03 0. -1.
    9900012    2    1    2    0    0  0.23694741287E+02  0.19479968555E+02 -0.87069697342E+01  0.59301933114E+02  0.49999980095E+02 0.  0.
        -12    1    1    2    0    0 -0.23694741287E+02 -0.19479968555E+02  0.87069697342E+01  0.31886066886E+02  0.00000000000E+00 0.  1.
         11    1    3    3    0    0  0.32821233904E+01  0.47265272390E+01 -0.47284270704E+01  0.74478464345E+01  0.51100000000E-03 0. -1.
        -11    1    3    3    0    0  0.33789753580E+01  0.22240687014E+02  0.13574798148E+02  0.26274336878E+02  0.51100000000E-03 0.  1.
        -12    1    3    3    0    0  0.17033642538E+02 -0.74872456988E+01 -0.17553340811E+02  0.25579749802E+02  0.00000000000E+00 0.  1.
</event>
<event>
 7    1  0.5755468E-013  0.5930193E+02  0.7816164E-02  0.1266605E+00
        -11   -1    0    0    0    0  0.00000000000E+00  0.00000000000E+00  0.45593999997E+02  0.45594000000E+02  0.51100000000E-03 0. -1.
         11   -1    0    0    0    0 -0.00000000000E+00 -0.00000000000E+00 -0.45593999997E+02  0.45594000000E+02  0.51100000000E-03 0.  1.
    9900012    2    1    2    0    0  0.22825534569E+02 -0.22089602175E+02  0.27867035965E+01  0.59301932987E+02  0.49999979865E+02 0.  0.
        -12    1    1    2    0    0 -0.22825534569E+02  0.22089602175E+02 -0.27867035965E+01  0.31886067013E+02  0.00000000000E+00 0.  1.
         11    1    3    3    0    0  0.52004649259E+01 -0.30879202509E+02 -0.98862717636E+01  0.32837605769E+02  0.51100000000E-03 0. -1.
        -11    1    3    3    0    0  0.13906424904E+02  0.15331481850E+01  0.11727722947E+02  0.18255921855E+02  0.51100000000E-03 0.  1.
         12    1    3    3    0    0  0.37186447392E+01  0.72564521490E+01  0.94525241277E+00  0.82084053635E+01  0.00000000000E+00 0. -1.
</event>
<event>
 7    1  0.5755468E-013  0.5930195E+02  0.7816164E-02  0.1266605E+00
        -11   -1    0    0    0    0  0.00000000000E+00  0.00000000000E+00  0.45593999997E+02  0.45594000000E+02  0.51100000000E-03 0. -1.
         11   -1    0    0    0    0 -0.00000000000E+00 -0.00000000000E+00 -0.45593999997E+02  0.45594000000E+02  0.51100000000E-03 0.  1.
    9900012    2    1    2    0    0  0.43375227354E+00  0.89664026043E+01  0.30596335094E+02  0.59301949164E+02  0.50000009368E+02 0.  0.
        -12    1    1    2    0    0 -0.43375227354E+00 -0.89664026043E+01 -0.30596335094E+02  0.31886050836E+02  0.00000000000E+00 0.  1.
         11    1    3    3    0    0 -0.29806173577E+01  0.18723890835E+00  0.11353571678E+02  0.11739792517E+02  0.51100000000E-03 0. -1.
        -11    1    3    3    0    0  0.22817631950E+02  0.21824693454E+01  0.87185009588E+01  0.24523861023E+02  0.51100000000E-03 0.  1.
        -12    1    3    3    0    0 -0.19403262319E+02  0.65966943506E+01  0.10524262458E+02  0.23038295624E+02  0.00000000000E+00 0.  1.
</event>
<event>
 7    1  0.5755468E-013  0.5930193E+02  0.7816164E-02  0.1266605E+00
        -11   -1    0    0    0    0  0.00000000000E+00  0.00000000000E+00  0.45593999997E+02  0.45594000000E+02  0.51100000000E-03 0. -1.
         11   -1    0    0    0    0 -0.00000000000E+00 -0.00000000000E+00 -0.45593999997E+02  0.45594000000E+02  0.51100000000E-03 0.  1.
    9900012    2    1    2    0    0  0.70304332212E+01  0.17579464253E+02  0.25656514900E+02  0.59301932329E+02  0.49999978665E+02 0.  0.
        -12    1    1    2    0    0 -0.70304332212E+01 -0.17579464253E+02 -0.25656514900E+02  0.31886067671E+02  0.00000000000E+00 0.  1.
         11    1    3    3    0    0  0.11654261058E+02  0.13108381570E+02  0.47408244720E+00  0.17546401985E+02  0.51100000000E-03 0. -1.
        -11    1    3    3    0    0 -0.16128177880E+02 -0.65098483597E+01  0.12618363714E+02  0.21487655770E+02  0.51100000000E-03 0.  1.
        -12    1    3    3    0    0  0.11504350043E+02  0.10980931043E+02  0.12564068739E+02  0.20267874574E+02  0.00000000000E+00 0.  1.
</event>
<event>
 7    1  0.5755468E-013  0.5930195E+02  0.7816164E-02  0.1266605E+00
        -11   -1    0    0    0    0  0.00000000000E+00  0.00000000000E+00  0.45593999997E+02  0.45594000000E+02  0.51100000000E-03 0.  1.
         11   -1    0    0    0    0 -0.00000000000E+00 -0.00000000000E+00 -0.45593999997E+02  0.45594000000E+02  0.51100000000E-03 0. -1.
    9900012    2    1    2    0    0  0.13336915307E+01 -0.10169819521E+01 -0.31841908761E+02  0.59301950716E+02  0.50000012197E+02 0.  0.
        -12    1    1    2    0    0 -0.13336915307E+01  0.10169819521E+01  0.31841908761E+02  0.31886049284E+02  0.00000000000E+00 0.  1.
         11    1    3    3    0    0  0.22106353933E+01  0.12346406462E+02 -0.25189758209E+02  0.28139733124E+02  0.51100000000E-03 0. -1.
        -11    1    3    3    0    0  0.10859209046E+02 -0.12059692237E+02  0.22373384189E+01  0.16381827780E+02  0.51100000000E-03 0.  1.
        -12    1    3    3    0    0 -0.11736152909E+02 -0.13036961778E+01 -0.88894889714E+01  0.14780389812E+02  0.00000000000E+00 0.  1.
</event>
<event>
 7    1  0.5755468E-013  0.5930197E+02  0.7816164E-02  0.1266605E+00
        -11   -1    0    0    0    0  0.00000000000E+00  0.00000000000E+00  0.45593999997E+02  0.45594000000E+02  0.51100000000E-03 0.  1.
         11   -1    0    0    0    0 -0.00000000000E+00 -0.00000000000E+00 -0.45593999997E+02  0.45594000000E+02  0.51100000000E-03 0. -1.
    9900012    2    1    2    0    0  0.98747167899E+01 -0.30299589392E+02 -0.10693919683E+01  0.59301972525E+02  0.50000051971E+02 0.  0.
        -12    1    1    2    0    0 -0.98747167899E+01  0.30299589392E+02  0.10693919683E+01  0.31886027475E+02  0.00000000000E+00 0.  1.
         11    1    3    3    0    0 -0.64651377442E+01  0.97102989790E+01 -0.10946047015E+01  0.11716913929E+02  0.51100000000E-03 0. -1.
        -11    1    3    3    0    0  0.16209471237E+01 -0.23517571247E+02  0.66768848172E+01  0.24500702399E+02  0.51100000000E-03 0.  1.
         12    1    3    3    0    0  0.14718907410E+02 -0.16492317124E+02 -0.66516720840E+01  0.23084356196E+02  0.00000000000E+00 0. -1.
</event>
<event>
 7    1  0.5755468E-013  0.5930195E+02  0.7816164E-02  0.1266605E+00
        -11   -1    0    0    0    0  0.00000000000E+00  0.00000000000E+00  0.45593999997E+02  0.45594000000E+02  0.51100000000E-03 0.  1.
         11   -1    0    0    0    0 -0.00000000000E+00 -0.00000000000E+00 -0.45593999997E+02  0.45594000000E+02  0.51100000000E-03 0. -1.
    9900012    2    1    2    0    0 -0.66279940681E+01 -0.22674111652E+01 -0.31107052621E+02  0.59301950048E+02  0.50000010979E+02 0.  0.
        -12    1    1    2    0    0  0.66279940681E+01  0.22674111652E+01  0.31107052621E+02  0.31886049952E+02  0.00000000000E+00 0.  1.
         11    1    3    3    0    0 -0.48617768278E+01  0.71154416843E+00 -0.44195670336E+02  0.44467971010E+02  0.51100000000E-03 0. -1.
        -11    1    3    3    0    0 -0.45617462985E+00 -0.80929521879E+00  0.12064796627E+02  0.12100511227E+02  0.51100000000E-03 0.  1.
         12    1    3    3    0    0 -0.13100426104E+01 -0.21696601148E+01  0.10238210869E+01  0.27334678108E+01  0.00000000000E+00 0. -1.
</event>
<event>
 7    1  0.5755468E-013  0.5930193E+02  0.7816164E-02  0.1266605E+00
        -11   -1    0    0    0    0  0.00000000000E+00  0.00000000000E+00  0.45593999997E+02  0.45594000000E+02  0.51100000000E-03 0.  1.
         11   -1    0    0    0    0 -0.00000000000E+00 -0.00000000000E+00 -0.45593999997E+02  0.45594000000E+02  0.51100000000E-03 0. -1.
    9900012    2    1    2    0    0  0.63168211846E+01 -0.23489846384E+02 -0.20616659739E+02  0.59301925111E+02  0.49999965501E+02 0.  0.
        -12    1    1    2    0    0 -0.63168211846E+01  0.23489846384E+02  0.20616659739E+02  0.31886074889E+02  0.00000000000E+00 0.  1.
         11    1    3    3    0    0 -0.85208891900E+01 -0.29997019955E+02 -0.13556370577E+02  0.34002969609E+02  0.51100000000E-03 0. -1.
        -11    1    3    3    0    0  0.11309839913E+02  0.30058092531E+00  0.41141496299E+01  0.12038648395E+02  0.51100000000E-03 0.  1.
         12    1    3    3    0    0  0.35278704620E+01  0.62065926454E+01 -0.11174438792E+02  0.13260307107E+02  0.00000000000E+00 0. -1.
</event>
<event>
 7    1  0.5755468E-013  0.5930194E+02  0.7816164E-02  0.1266605E+00
        -11   -1    0    0    0    0  0.00000000000E+00  0.00000000000E+00  0.45593999997E+02  0.45594000000E+02  0.51100000000E-03 0.  1.
         11   -1    0    0    0    0 -0.00000000000E+00 -0.00000000000E+00 -0.45593999997E+02  0.45594000000E+02  0.51100000000E-03 0. -1.
    9900012    2    1    2    0    0  0.36497222580E+01 -0.24346923305E+01 -0.31582786473E+02  0.59301943476E+02  0.49999998993E+02 0.  0.
        -12    1    1    2    0    0 -0.36497222580E+01  0.24346923305E+01  0.31582786473E+02  0.31886056524E+02  0.00000000000E+00 0.  1.
         11    1    3    3    0    0 -0.54995592565E+00 -0.54126176089E+01  0.50341835406E+01  0.74122793445E+01  0.51100000000E-03 0. -1.
        -11    1    3    3    0    0  0.15349505355E+02 -0.89836017230E+00 -0.37011933508E+02  0.40078642540E+02  0.51100000000E-03 0.  1.
        -12    1    3    3    0    0 -0.11149827172E+02  0.38762854506E+01  0.39496349440E+00  0.11811021591E+02  0.00000000000E+00 0.  1.
</event>
<event>
 7    1  0.5755468E-013  0.5930196E+02  0.7816164E-02  0.1266605E+00
        -11   -1    0    0    0    0  0.00000000000E+00  0.00000000000E+00  0.45593999997E+02  0.45594000000E+02  0.51100000000E-03 0.  1.
         11   -1    0    0    0    0 -0.00000000000E+00 -0.00000000000E+00 -0.45593999997E+02  0.45594000000E+02  0.51100000000E-03 0. -1.
    9900012    2    1    2    0    0  0.34861056434E+01  0.14251393412E+02 -0.28310144328E+02  0.59301962012E+02  0.50000032799E+02 0.  0.
        -12    1    1    2    0    0 -0.34861056434E+01 -0.14251393412E+02  0.28310144328E+02  0.31886037988E+02  0.00000000000E+00 0.  1.
         11    1    3    3    0    0 -0.11934330089E+02  0.14453973564E+02 -0.19467314294E+02  0.27024468774E+02  0.51100000000E-03 0. -1.
        -11    1    3    3    0    0  0.17880982217E+02  0.95680498469E+01 -0.90313205596E+01  0.22200041762E+02  0.51100000000E-03 0.  1.
         12    1    3    3    0    0 -0.24605464844E+01 -0.97706299989E+01  0.18849052555E+00  0.10077451476E+02  0.00000000000E+00 0. -1.
</event>
<event>
 7    1  0.5755468E-013  0.5930196E+02  0.7816164E-02  0.1266605E+00
        -11   -1    0    0    0    0  0.00000000000E+00  0.00000000000E+00  0.45593999997E+02  0.45594000000E+02  0.51100000000E-03 0.  1.
         11   -1    0    0    0    0 -0.00000000000E+00 -0.00000000000E+00 -0.45593999997E+02  0.45594000000E+02  0.51100000000E-03 0. -1.
    9900012    2    1    2    0    0 -0.59530395705E+01 -0.71985007814E+01 -0.30487087144E+02  0.59301959541E+02  0.50000028293E+02 0.  0.
        -12    1    1    2    0    0  0.59530395705E+01  0.71985007814E+01  0.30487087144E+02  0.31886040459E+02  0.00000000000E+00 0.  1.
         11    1    3    3    0    0 -0.35447311166E+01  0.62460370484E+01 -0.70594340713E+01  0.10070437288E+02  0.51100000000E-03 0. -1.
        -11    1    3    3    0    0 -0.71084371328E+01 -0.23805867998E+02 -0.19431585837E+01  0.24920375101E+02  0.51100000000E-03 0.  1.
        -12    1    3    3    0    0  0.47001286789E+01  0.10361330168E+02 -0.21484494489E+02  0.24311147153E+02  0.00000000000E+00 0.  1.
</event>
<event>
 7    1  0.5755468E-013  0.5930193E+02  0.7816164E-02  0.1266605E+00
        -11   -1    0    0    0    0  0.00000000000E+00  0.00000000000E+00  0.45593999997E+02  0.45594000000E+02  0.51100000000E-03 0. -1.
         11   -1    0    0    0    0 -0.00000000000E+00 -0.00000000000E+00 -0.45593999997E+02  0.45594000000E+02  0.51100000000E-03 0.  1.
    9900012    2    1    2    0    0  0.26260250681E+02  0.50995737940E+01  0.17352672038E+02  0.59301927091E+02  0.49999969111E+02 0.  0.
        -12    1    1    2    0    0 -0.26260250681E+02 -0.50995737940E+01 -0.17352672038E+02  0.31886072909E+02  0.00000000000E+00 0.  1.
         11    1    3    3    0    0  0.34595931103E+02 -0.47698130562E+01  0.14839465148E+02  0.37945214344E+02  0.51100000000E-03 0. -1.
        -11    1    3    3    0    0 -0.41208027225E+01  0.11677591450E+02  0.75826679273E+01  0.14520468667E+02  0.51100000000E-03 0.  1.
         12    1    3    3    0    0 -0.42148776994E+01 -0.18082046002E+01 -0.50694610377E+01  0.68362440792E+01  0.00000000000E+00 0. -1.
</event>
<event>
 7    1  0.5755468E-013  0.5930193E+02  0.7816164E-02  0.1266605E+00
        -11   -1    0    0    0    0  0.00000000000E+00  0.00000000000E+00  0.45593999997E+02  0.45594000000E+02  0.51100000000E-03 0. -1.
         11   -1    0    0    0    0 -0.00000000000E+00 -0.00000000000E+00 -0.45593999997E+02  0.45594000000E+02  0.51100000000E-03 0.  1.
    9900012    2    1    2    0    0  0.25665029026E+02 -0.12420997995E+02 -0.14273987954E+02  0.59301927206E+02  0.49999969322E+02 0.  0.
        -12    1    1    2    0    0 -0.25665029026E+02  0.12420997995E+02  0.14273987954E+02  0.31886072794E+02  0.00000000000E+00 0.  1.
         11    1    3    3    0    0  0.11151987857E+02  0.16091218480E+02 -0.10845484387E+01  0.19607916537E+02  0.51100000000E-03 0.  1.
        -11    1    3    3    0    0  0.72516257857E+01 -0.16494089252E+02  0.29975855314E+01  0.18265447601E+02  0.51100000000E-03 0. -1.
        -12    1    3    3    0    0  0.72614153832E+01 -0.12018127222E+02 -0.16187025047E+02  0.21428563068E+02  0.00000000000E+00 0.  1.
</event>
<event>
 7    1  0.5755468E-013  0.5930193E+02  0.7816164E-02  0.1266605E+00
        -11   -1    0    0    0    0  0.00000000000E+00  0.00000000000E+00  0.45593999997E+02  0.45594000000E+02  0.51100000000E-03 0.  1.
         11   -1    0    0    0    0 -0.00000000000E+00 -0.00000000000E+00 -0.45593999997E+02  0.45594000000E+02  0.51100000000E-03 0. -1.
    9900012    2    1    2    0    0 -0.22817376215E+02 -0.93956907055E+01 -0.20194299877E+02  0.59301930805E+02  0.49999975885E+02 0.  0.
        -12    1    1    2    0    0  0.22817376215E+02  0.93956907055E+01  0.20194299877E+02  0.31886069195E+02  0.00000000000E+00 0.  1.
         11    1    3    3    0    0 -0.24283394835E+01  0.86914797355E+01 -0.15160127909E+02  0.17642792611E+02  0.51100000000E-03 0.  1.
        -11    1    3    3    0    0 -0.28111109492E+02 -0.13604539821E+02 -0.80215128141E+01  0.32243800159E+02  0.51100000000E-03 0. -1.
        -12    1    3    3    0    0  0.77220727603E+01 -0.44826306196E+01  0.29873408457E+01  0.94153380351E+01  0.00000000000E+00 0.  1.
</event>
<event>
 7    1  0.5755468E-013  0.5930194E+02  0.7816164E-02  0.1266605E+00
        -11   -1    0    0    0    0  0.00000000000E+00  0.00000000000E+00  0.45593999997E+02  0.45594000000E+02  0.51100000000E-03 0. -1.
         11   -1    0    0    0    0 -0.00000000000E+00 -0.00000000000E+00 -0.45593999997E+02  0.45594000000E+02  0.51100000000E-03 0.  1.
    9900012    2    1    2    0    0 -0.13839068814E+02 -0.44144523884E+01  0.28385093430E+02  0.59301941220E+02  0.49999994879E+02 0.  0.
        -12    1    1    2    0    0  0.13839068814E+02  0.44144523884E+01 -0.28385093430E+02  0.31886058780E+02  0.00000000000E+00 0.  1.
         11    1    3    3    0    0 -0.81414205772E+01 -0.22581378875E+02  0.21208940333E+02  0.32031555555E+02  0.51100000000E-03 0. -1.
        -11    1    3    3    0    0 -0.31729770900E+01  0.12434522469E+02 -0.48434735105E+01  0.13716572770E+02  0.51100000000E-03 0.  1.
        -12    1    3    3    0    0 -0.25246711470E+01  0.57324040183E+01  0.12019626607E+02  0.13553812895E+02  0.00000000000E+00 0.  1.
</event>
<event>
 7    1  0.5755468E-013  0.5930199E+02  0.7816164E-02  0.1266605E+00
        -11   -1    0    0    0    0  0.00000000000E+00  0.00000000000E+00  0.45593999997E+02  0.45594000000E+02  0.51100000000E-03 0. -1.
         11   -1    0    0    0    0 -0.00000000000E+00 -0.00000000000E+00 -0.45593999997E+02  0.45594000000E+02  0.51100000000E-03 0.  1.
    9900012    2    1    2    0    0  0.30181382147E+02  0.10243001109E+02 -0.93956823862E+00  0.59301989141E+02  0.50000082276E+02 0.  0.
        -12    1    1    2    0    0 -0.30181382147E+02 -0.10243001109E+02  0.93956823862E+00  0.31886010859E+02  0.00000000000E+00 0.  1.
         11    1    3    3    0    0  0.28107532935E+02  0.14741773392E+02  0.33203341513E+01  0.31912033930E+02  0.51100000000E-03 0. -1.
        -11    1    3    3    0    0  0.10164579676E+01 -0.56514920433E+01 -0.15246806293E+02  0.16292257410E+02  0.51100000000E-03 0.  1.
        -12    1    3    3    0    0  0.10573912449E+01  0.11527197599E+01  0.10986903904E+02  0.11097697801E+02  0.00000000000E+00 0.  1.
</event>
<event>
 7    1  0.5755468E-013  0.5930194E+02  0.7816164E-02  0.1266605E+00
        -11   -1    0    0    0    0  0.00000000000E+00  0.00000000000E+00  0.45593999997E+02  0.45594000000E+02  0.51100000000E-03 0.  1.
         11   -1    0    0    0    0 -0.00000000000E+00 -0.00000000000E+00 -0.45593999997E+02  0.45594000000E+02  0.51100000000E-03 0. -1.
    9900012    2    1    2    0    0  0.22390180123E+02 -0.18944360966E+02  0.12510470745E+02  0.59301939463E+02  0.49999991675E+02 0.  0.
        -12    1    1    2    0    0 -0.22390180123E+02  0.18944360966E+02 -0.12510470745E+02  0.31886060537E+02  0.00000000000E+00 0.  1.
         11    1    3    3    0    0 -0.63370492536E+01  0.99877675238E+01 -0.47960335814E+01  0.12763840791E+02  0.51100000000E-03 0. -1.
        -11    1    3    3    0    0  0.13575455248E+02 -0.10312716776E+02  0.14478387701E+02  0.22366690036E+02  0.51100000000E-03 0.  1.
         12    1    3    3    0    0  0.15151774128E+02 -0.18619411714E+02  0.28281166252E+01  0.24171408636E+02  0.00000000000E+00 0. -1.
</event>
<event>
 7    1  0.5755468E-013  0.5930202E+02  0.7816164E-02  0.1266604E+00
        -11   -1    0    0    0    0  0.00000000000E+00  0.00000000000E+00  0.45593999997E+02  0.45594000000E+02  0.51100000000E-03 0. -1.
         11   -1    0    0    0    0 -0.00000000000E+00 -0.00000000000E+00 -0.45593999997E+02  0.45594000000E+02  0.51100000000E-03 0.  1.
    9900012    2    1    2    0    0 -0.20841763587E+02  0.23425281914E+02  0.57959109484E+01  0.59302023052E+02  0.50000144122E+02 0.  0.
        -12    1    1    2    0    0  0.20841763587E+02 -0.23425281914E+02 -0.57959109484E+01  0.31885976948E+02  0.00000000000E+00 0.  1.
         11    1    3    3    0    0 -0.70822480021E+01  0.18803942699E+02 -0.45869645929E+01  0.20610355218E+02  0.51100000000E-03 0. -1.
        -11    1    3    3    0    0 -0.46903639231E+01 -0.14907476583E+02  0.28875845569E+01  0.15892467293E+02  0.51100000000E-03 0.  1.
        -12    1    3    3    0    0 -0.90691516620E+01  0.19528815799E+02  0.74952909843E+01  0.22799200541E+02  0.00000000000E+00 0.  1.
</event>
<event>
 7    1  0.5755468E-013  0.5930193E+02  0.7816164E-02  0.1266605E+00
        -11   -1    0    0    0    0  0.00000000000E+00  0.00000000000E+00  0.45593999997E+02  0.45594000000E+02  0.51100000000E-03 0.  1.
         11   -1    0    0    0    0 -0.00000000000E+00 -0.00000000000E+00 -0.45593999997E+02  0.45594000000E+02  0.51100000000E-03 0. -1.
    9900012    2    1    2    0    0  0.27628963790E+02 -0.15515157809E+02 -0.35554820380E+01  0.59301933851E+02  0.49999981440E+02 0.  0.
        -12    1    1    2    0    0 -0.27628963790E+02  0.15515157809E+02  0.35554820380E+01  0.31886066149E+02  0.00000000000E+00 0.  1.
         11    1    3    3    0    0  0.21476398319E+02 -0.16523308834E+02 -0.27884812966E+01  0.27240246838E+02  0.51100000000E-03 0. -1.
        -11    1    3    3    0    0 -0.97561491464E+01  0.73158031677E+01  0.60838744161E+01  0.13627800642E+02  0.51100000000E-03 0.  1.
        -12    1    3    3    0    0  0.15908714617E+02 -0.63076521422E+01 -0.68508751576E+01  0.18433886371E+02  0.00000000000E+00 0.  1.
</event>
<event>
 7    1  0.5755468E-013  0.5930193E+02  0.7816164E-02  0.1266605E+00
        -11   -1    0    0    0    0  0.00000000000E+00  0.00000000000E+00  0.45593999997E+02  0.45594000000E+02  0.51100000000E-03 0.  1.
         11   -1    0    0    0    0 -0.00000000000E+00 -0.00000000000E+00 -0.45593999997E+02  0.45594000000E+02  0.51100000000E-03 0. -1.
    9900012    2    1    2    0    0  0.25812149818E+02 -0.80880471546E+01 -0.16883060409E+02  0.59301932293E+02  0.49999978599E+02 0.  0.
        -12    1    1    2    0    0 -0.25812149818E+02  0.80880471546E+01  0.16883060409E+02  0.31886067707E+02  0.00000000000E+00 0.  1.
         11    1    3    3    0    0  0.16925492692E+01 -0.18139326471E+02  0.95700226287E+01  0.20578756552E+02  0.51100000000E-03 0. -1.
        -11    1    3    3    0    0  0.69122183078E+01  0.78890563836E+01 -0.67422576013E+01  0.12468921781E+02  0.51100000000E-03 0.  1.
         12    1    3    3    0    0  0.17207382241E+02  0.21622229332E+01 -0.19710825437E+02  0.26254253960E+02  0.00000000000E+00 0. -1.
</event>
<event>
 7    1  0.5755468E-013  0.5930194E+02  0.7816164E-02  0.1266605E+00
        -11   -1    0    0    0    0  0.00000000000E+00  0.00000000000E+00  0.45593999997E+02  0.45594000000E+02  0.51100000000E-03 0.  1.
         11   -1    0    0    0    0 -0.00000000000E+00 -0.00000000000E+00 -0.45593999997E+02  0.45594000000E+02  0.51100000000E-03 0. -1.
    9900012    2    1    2    0    0 -0.26666839898E+02 -0.55316385231E+01  0.16583159008E+02  0.59301944465E+02  0.50000000797E+02 0.  0.
        -12    1    1    2    0    0  0.26666839898E+02  0.55316385231E+01 -0.16583159008E+02  0.31886055535E+02  0.00000000000E+00 0.  1.
         11    1    3    3    0    0  0.90818004517E+01 -0.11456935022E+02 -0.48243447361E+01  0.15395283756E+02  0.51100000000E-03 0. -1.
        -11    1    3    3    0    0 -0.22453608099E+02  0.85004666421E+01  0.93190535467E+01  0.25753974626E+02  0.51100000000E-03 0.  1.
        -12    1    3    3    0    0 -0.13295032251E+02 -0.25751701430E+01  0.12088450198E+02  0.18152686082E+02  0.00000000000E+00 0.  1.
</event>
<event>
 7    1  0.5755468E-013  0.5930193E+02  0.7816164E-02  0.1266605E+00
        -11   -1    0    0    0    0  0.00000000000E+00  0.00000000000E+00  0.45593999997E+02  0.45594000000E+02  0.51100000000E-03 0.  1.
         11   -1    0    0    0    0 -0.00000000000E+00 -0.00000000000E+00 -0.45593999997E+02  0.45594000000E+02  0.51100000000E-03 0. -1.
    9900012    2    1    2    0    0 -0.21560446789E+02  0.11213520131E+02 -0.20642806003E+02  0.59301931896E+02  0.49999977874E+02 0.  0.
        -12    1    1    2    0    0  0.21560446789E+02 -0.11213520131E+02  0.20642806003E+02  0.31886068104E+02  0.00000000000E+00 0.  1.
         11    1    3    3    0    0 -0.14239454118E+02  0.18760629930E+01 -0.64016770130E+01  0.15724602850E+02  0.51100000000E-03 0. -1.
        -11    1    3    3    0    0  0.12135282705E+02  0.11735369127E+02  0.33820114583E+01  0.17216909614E+02  0.51100000000E-03 0.  1.
        -12    1    3    3    0    0 -0.19456275376E+02 -0.23979119898E+01 -0.17623140448E+02  0.26360419433E+02  0.00000000000E+00 0.  1.
</event>
<event>
 7    1  0.5755468E-013  0.5930193E+02  0.7816164E-02  0.1266605E+00
        -11   -1    0    0    0    0  0.00000000000E+00  0.00000000000E+00  0.45593999997E+02  0.45594000000E+02  0.51100000000E-03 0.  1.
         11   -1    0    0    0    0 -0.00000000000E+00 -0.00000000000E+00 -0.45593999997E+02  0.45594000000E+02  0.51100000000E-03 0. -1.
    9900012    2    1    2    0    0 -0.26008128378E+02  0.11373695489E+02 -0.14523697999E+02  0.59301929462E+02  0.49999973435E+02 0.  0.
        -12    1    1    2    0    0  0.26008128378E+02 -0.11373695489E+02  0.14523697999E+02  0.31886070538E+02  0.00000000000E+00 0.  1.
         11    1    3    3    0    0  0.14454183725E+02  0.61798880392E+01 -0.90383643502E+01  0.18133021638E+02  0.51100000000E-03 0. -1.
        -11    1    3    3    0    0 -0.39929843634E+01  0.29314399513E+00 -0.62344856701E+00  0.40519804917E+01  0.51100000000E-03 0.  1.
         12    1    3    3    0    0 -0.36469327739E+02  0.49006634549E+01 -0.48618850815E+01  0.37116927332E+02  0.00000000000E+00 0. -1.
</event>
<event>
 7    1  0.5755468E-013  0.5930193E+02  0.7816164E-02  0.1266605E+00
        -11   -1    0    0    0    0  0.00000000000E+00  0.00000000000E+00  0.45593999997E+02  0.45594000000E+02  0.51100000000E-03 0. -1.
         11   -1    0    0    0    0 -0.00000000000E+00 -0.00000000000E+00 -0.45593999997E+02  0.45594000000E+02  0.51100000000E-03 0.  1.
    9900012    2    1    2    0    0  0.28196390927E+02  0.32417335605E+01 -0.14531891462E+02  0.59301934591E+02  0.49999982790E+02 0.  0.
        -12    1    1    2    0    0 -0.28196390927E+02 -0.32417335605E+01  0.14531891462E+02  0.31886065409E+02  0.00000000000E+00 0.  1.
         11    1    3    3    0    0  0.13186754289E+02  0.42629447306E+01  0.85656289553E+01  0.16292120369E+02  0.51100000000E-03 0. -1.
        -11    1    3    3    0    0 -0.91527952942E+01  0.52153981229E+01 -0.11161705161E+02  0.15347889159E+02  0.51100000000E-03 0.  1.
        -12    1    3    3    0    0  0.24162431932E+02 -0.62366092930E+01 -0.11935815257E+02  0.27661925063E+02  0.00000000000E+00 0.  1.
</event>
<event>
 7    1  0.5755468E-013  0.5930192E+02  0.7816164E-02  0.1266605E+00
        -11   -1    0    0    0    0  0.00000000000E+00  0.00000000000E+00  0.45593999997E+02  0.45594000000E+02  0.51100000000E-03 0.  1.
         11   -1    0    0    0    0 -0.00000000000E+00 -0.00000000000E+00 -0.45593999997E+02  0.45594000000E+02  0.51100000000E-03 0. -1.
    9900012    2    1    2    0    0 -0.12069552949E+02 -0.27566658200E+02 -0.10541687865E+02  0.59301922540E+02  0.49999960812E+02 0.  0.
        -12    1    1    2    0    0  0.12069552949E+02  0.27566658200E+02  0.10541687865E+02  0.31886077460E+02  0.00000000000E+00 0.  1.
         11    1    3    3    0    0  0.93798350503E+01 -0.23599849218E+02 -0.11600550500E+01  0.25422036045E+02  0.51100000000E-03 0. -1.
        -11    1    3    3    0    0 -0.23550685843E+01  0.48300121588E+01 -0.11556215018E+02  0.12744468263E+02  0.51100000000E-03 0.  1.
        -12    1    3    3    0    0 -0.19094319415E+02 -0.87968211411E+01  0.21745822027E+01  0.21135418232E+02  0.00000000000E+00 0.  1.
</event>
<event>
 7    1  0.5755468E-013  0.5930186E+02  0.7816164E-02  0.1266605E+00
        -11   -1    0    0    0    0  0.00000000000E+00  0.00000000000E+00  0.45593999997E+02  0.45594000000E+02  0.51100000000E-03 0. -1.
         11   -1    0    0    0    0 -0.00000000000E+00 -0.00000000000E+00 -0.45593999997E+02  0.45594000000E+02  0.51100000000E-03 0.  1.
    9900012    2    1    2    0    0  0.25183769659E+02  0.18067847543E+01  0.19474072934E+02  0.59301855015E+02  0.49999837662E+02 0.  0.
        -12    1    1    2    0    0 -0.25183769659E+02 -0.18067847543E+01 -0.19474072934E+02  0.31886144985E+02  0.00000000000E+00 0.  1.
         11    1    3    3    0    0  0.22188438591E+02  0.23638939908E+02  0.16156825319E+02  0.36223877370E+02  0.51100000000E-03 0. -1.
        -11    1    3    3    0    0  0.41502189883E+01 -0.10473695355E+02  0.30435817142E+00  0.11270104090E+02  0.51100000000E-03 0.  1.
         12    1    3    3    0    0 -0.11548879199E+01 -0.11358459798E+02  0.30128894428E+01  0.11807873555E+02  0.00000000000E+00 0. -1.
</event>
<event>
 7    1  0.5755468E-013  0.5930195E+02  0.7816164E-02  0.1266605E+00
        -11   -1    0    0    0    0  0.00000000000E+00  0.00000000000E+00  0.45593999997E+02  0.45594000000E+02  0.51100000000E-03 0.  1.
         11   -1    0    0    0    0 -0.00000000000E+00 -0.00000000000E+00 -0.45593999997E+02  0.45594000000E+02  0.51100000000E-03 0. -1.
    9900012    2    1    2    0    0  0.20742210753E+02 -0.22669220515E+02 -0.85198371997E+01  0.59301945186E+02  0.50000002113E+02 0.  0.
        -12    1    1    2    0    0 -0.20742210753E+02  0.22669220515E+02  0.85198371997E+01  0.31886054814E+02  0.00000000000E+00 0.  1.
         11    1    3    3    0    0 -0.48559862795E+01  0.96812504130E+01 -0.14807446503E+01  0.10931597197E+02  0.51100000000E-03 0. -1.
        -11    1    3    3    0    0  0.16615148380E+02 -0.28877294974E+02  0.41879866937E+01  0.33578275023E+02  0.51100000000E-03 0.  1.
         12    1    3    3    0    0  0.89830486526E+01 -0.34731759545E+01 -0.11227079243E+02  0.14792072966E+02  0.00000000000E+00 0. -1.
</event>
<event>
 7    1  0.5755468E-013  0.5930211E+02  0.7816164E-02  0.1266604E+00
        -11   -1    0    0    0    0  0.00000000000E+00  0.00000000000E+00  0.45593999997E+02  0.45594000000E+02  0.51100000000E-03 0. -1.
         11   -1    0    0    0    0 -0.00000000000E+00 -0.00000000000E+00 -0.45593999997E+02  0.45594000000E+02  0.51100000000E-03 0.  1.
    9900012    2    1    2    0    0 -0.11612717923E+02 -0.29198420488E+00 -0.29694602023E+02  0.59302111873E+02  0.50000306109E+02 0.  0.
        -12    1    1    2    0    0  0.11612717923E+02  0.29198420488E+00  0.29694602023E+02  0.31885888127E+02  0.00000000000E+00 0.  1.
         11    1    3    3    0    0  0.13629298767E+02 -0.43928437099E+01 -0.45707712427E+01  0.15031527226E+02  0.51100000000E-03 0. -1.
        -11    1    3    3    0    0 -0.15764945947E+02  0.80677292551E+01 -0.28415568980E+02  0.33482328724E+02  0.51100000000E-03 0.  1.
         12    1    3    3    0    0 -0.94770707433E+01 -0.39668697501E+01  0.32917381999E+01  0.10788255923E+02  0.00000000000E+00 0. -1.
</event>
<event>
 7    1  0.5755468E-013  0.5930193E+02  0.7816164E-02  0.1266605E+00
        -11   -1    0    0    0    0  0.00000000000E+00  0.00000000000E+00  0.45593999997E+02  0.45594000000E+02  0.51100000000E-03 0. -1.
         11   -1    0    0    0    0 -0.00000000000E+00 -0.00000000000E+00 -0.45593999997E+02  0.45594000000E+02  0.51100000000E-03 0.  1.
    9900012    2    1    2    0    0  0.17225534307E+02 -0.23228123079E+02  0.13433406945E+02  0.59301934766E+02  0.49999983109E+02 0.  0.
        -12    1    1    2    0    0 -0.17225534307E+02  0.23228123079E+02 -0.13433406945E+02  0.31886065234E+02  0.00000000000E+00 0.  1.
         11    1    3    3    0    0  0.21264333241E+02 -0.13428655114E+02  0.90763324476E+00  0.25165938185E+02  0.51100000000E-03 0. -1.
        -11    1    3    3    0    0 -0.45957772394E+01  0.10442242498E+02  0.32465611749E+01  0.11861777125E+02  0.51100000000E-03 0.  1.
        -12    1    3    3    0    0  0.55697830572E+00 -0.20241710463E+02  0.92792125257E+01  0.22274219457E+02  0.00000000000E+00 0.  1.
</event>
<event>
 7    1  0.5755468E-013  0.5930198E+02  0.7816164E-02  0.1266605E+00
        -11   -1    0    0    0    0  0.00000000000E+00  0.00000000000E+00  0.45593999997E+02  0.45594000000E+02  0.51100000000E-03 0. -1.
         11   -1    0    0    0    0 -0.00000000000E+00 -0.00000000000E+00 -0.45593999997E+02  0.45594000000E+02  0.51100000000E-03 0.  1.
    9900012    2    1    2    0    0  0.22003543304E+02 -0.21421142197E+02  0.85847070810E+01  0.59301977253E+02  0.50000060595E+02 0.  0.
        -12    1    1    2    0    0 -0.22003543304E+02  0.21421142197E+02 -0.85847070810E+01  0.31886022747E+02  0.00000000000E+00 0.  1.
         11    1    3    3    0    0  0.61156692977E+01  0.10428119626E+01  0.71169802868E+01  0.94414128398E+01  0.51100000000E-03 0. -1.
        -11    1    3    3    0    0  0.11065130255E+02 -0.11009876826E+01 -0.17602625209E+02  0.20820703541E+02  0.51100000000E-03 0.  1.
        -12    1    3    3    0    0  0.48227437510E+01 -0.21362966477E+02  0.19070352003E+02  0.29039860873E+02  0.00000000000E+00 0.  1.
</event>
<event>
 7    1  0.5755468E-013  0.5930197E+02  0.7816164E-02  0.1266605E+00
        -11   -1    0    0    0    0  0.00000000000E+00  0.00000000000E+00  0.45593999997E+02  0.45594000000E+02  0.51100000000E-03 0.  1.
         11   -1    0    0    0    0 -0.00000000000E+00 -0.00000000000E+00 -0.45593999997E+02  0.45594000000E+02  0.51100000000E-03 0. -1.
    9900012    2    1    2    0    0 -0.41339207449E+01 -0.24324587106E+02 -0.20197632756E+02  0.59301965321E+02  0.50000038834E+02 0.  0.
        -12    1    1    2    0    0  0.41339207449E+01  0.24324587106E+02  0.20197632756E+02  0.31886034679E+02  0.00000000000E+00 0.  1.
         11    1    3    3    0    0  0.52142220133E+01 -0.55033062952E+01 -0.15492045620E+02  0.17247549656E+02  0.51100000000E-03 0. -1.
        -11    1    3    3    0    0 -0.21931537091E+02 -0.14798489719E+02  0.32138283184E+01  0.26651759977E+02  0.51100000000E-03 0.  1.
        -12    1    3    3    0    0  0.12583394333E+02 -0.40227910915E+01 -0.79194154550E+01  0.15402655688E+02  0.00000000000E+00 0.  1.
</event>
<event>
 7    1  0.5755468E-013  0.5930194E+02  0.7816164E-02  0.1266605E+00
        -11   -1    0    0    0    0  0.00000000000E+00  0.00000000000E+00  0.45593999997E+02  0.45594000000E+02  0.51100000000E-03 0.  1.
         11   -1    0    0    0    0 -0.00000000000E+00 -0.00000000000E+00 -0.45593999997E+02  0.45594000000E+02  0.51100000000E-03 0. -1.
    9900012    2    1    2    0    0 -0.18458382768E+02  0.25974911271E+02  0.11457416182E+01  0.59301942956E+02  0.49999998045E+02 0.  0.
        -12    1    1    2    0    0  0.18458382768E+02 -0.25974911271E+02 -0.11457416182E+01  0.31886057044E+02  0.00000000000E+00 0.  1.
         11    1    3    3    0    0 -0.13642003691E+02  0.27183951487E+02 -0.12696437905E+02  0.32958625864E+02  0.51100000000E-03 0. -1.
        -11    1    3    3    0    0  0.49741045686E+01 -0.34230972379E+01 -0.29957585083E+01  0.67404658786E+01  0.51100000000E-03 0.  1.
         12    1    3    3    0    0 -0.97904836461E+01  0.22140570225E+01  0.16837938031E+02  0.19602851213E+02  0.00000000000E+00 0. -1.
</event>
<event>
 7    1  0.5755468E-013  0.5930192E+02  0.7816164E-02  0.1266605E+00
        -11   -1    0    0    0    0  0.00000000000E+00  0.00000000000E+00  0.45593999997E+02  0.45594000000E+02  0.51100000000E-03 0. -1.
         11   -1    0    0    0    0 -0.00000000000E+00 -0.00000000000E+00 -0.45593999997E+02  0.45594000000E+02  0.51100000000E-03 0.  1.
    9900012    2    1    2    0    0 -0.28302293747E+02 -0.88724611656E+00  0.14659988170E+02  0.59301916983E+02  0.49999950677E+02 0.  0.
        -12    1    1    2    0    0  0.28302293747E+02  0.88724611656E+00 -0.14659988170E+02  0.31886083017E+02  0.00000000000E+00 0.  1.
         11    1    3    3    0    0 -0.73995541004E+01 -0.88193610691E+01 -0.36415558689E+01  0.12074579080E+02  0.51100000000E-03 0. -1.
        -11    1    3    3    0    0 -0.50116797247E+01  0.16442009606E+02 -0.48741246003E+01  0.17866552673E+02  0.51100000000E-03 0.  1.
        -12    1    3    3    0    0 -0.15891059922E+02 -0.85098946536E+01  0.23175668639E+02  0.29360785230E+02  0.00000000000E+00 0.  1.
</event>
<event>
 7    1  0.5755468E-013  0.5930193E+02  0.7816164E-02  0.1266605E+00
        -11   -1    0    0    0    0  0.00000000000E+00  0.00000000000E+00  0.45593999997E+02  0.45594000000E+02  0.51100000000E-03 0.  1.
         11   -1    0    0    0    0 -0.00000000000E+00 -0.00000000000E+00 -0.45593999997E+02  0.45594000000E+02  0.51100000000E-03 0. -1.
    9900012    2    1    2    0    0 -0.28562583533E+02  0.91021086513E+01 -0.10865176787E+02  0.59301927388E+02  0.49999969654E+02 0.  0.
        -12    1    1    2    0    0  0.28562583533E+02 -0.91021086513E+01  0.10865176787E+02  0.31886072612E+02  0.00000000000E+00 0.  1.
         11    1    3    3    0    0 -0.15763513329E+02  0.20557014127E+02 -0.20497630075E+02  0.33033801192E+02  0.51100000000E-03 0. -1.
        -11    1    3    3    0    0  0.19434274177E+01 -0.70486603337E+01 -0.12554249746E+01  0.74186666427E+01  0.51100000000E-03 0.  1.
         12    1    3    3    0    0 -0.14742497622E+02 -0.44062451419E+01  0.10887878262E+02  0.18849459553E+02  0.00000000000E+00 0. -1.
</event>
<event>
 7    1  0.5755468E-013  0.5930198E+02  0.7816164E-02  0.1266605E+00
        -11   -1    0    0    0    0  0.00000000000E+00  0.00000000000E+00  0.45593999997E+02  0.45594000000E+02  0.51100000000E-03 0. -1.
         11   -1    0    0    0    0 -0.00000000000E+00 -0.00000000000E+00 -0.45593999997E+02  0.45594000000E+02  0.51100000000E-03 0.  1.
    9900012    2    1    2    0    0 -0.12787240426E+02  0.27699751932E+02 -0.92697483921E+01  0.59301984099E+02  0.50000073080E+02 0.  0.
        -12    1    1    2    0    0  0.12787240426E+02 -0.27699751932E+02  0.92697483921E+01  0.31886015901E+02  0.00000000000E+00 0.  1.
         11    1    3    3    0    0 -0.30855829053E+01  0.14910111866E+02  0.17107035978E+01  0.15321839471E+02  0.51100000000E-03 0. -1.
        -11    1    3    3    0    0  0.11937221224E+02 -0.28930420310E+01  0.45175009489E+01  0.13087198242E+02  0.51100000000E-03 0.  1.
        -12    1    3    3    0    0 -0.21638878745E+02  0.15682682097E+02 -0.15497952939E+02  0.30892946386E+02  0.00000000000E+00 0.  1.
</event>
<event>
 7    1  0.5755468E-013  0.5930193E+02  0.7816164E-02  0.1266605E+00
        -11   -1    0    0    0    0  0.00000000000E+00  0.00000000000E+00  0.45593999997E+02  0.45594000000E+02  0.51100000000E-03 0. -1.
         11   -1    0    0    0    0 -0.00000000000E+00 -0.00000000000E+00 -0.45593999997E+02  0.45594000000E+02  0.51100000000E-03 0.  1.
    9900012    2    1    2    0    0  0.23248392003E+02  0.21224857335E+02  0.50733949620E+01  0.59301927240E+02  0.49999969384E+02 0.  0.
        -12    1    1    2    0    0 -0.23248392003E+02 -0.21224857335E+02 -0.50733949620E+01  0.31886072760E+02  0.00000000000E+00 0.  1.
         11    1    3    3    0    0  0.12338744066E+02  0.13954464359E+01  0.14037169038E+02  0.18741237706E+02  0.51100000000E-03 0. -1.
        -11    1    3    3    0    0  0.13130527247E+02  0.23128626797E+02 -0.17020396049E+02  0.31575908621E+02  0.51100000000E-03 0.  1.
        -12    1    3    3    0    0 -0.22208793104E+01 -0.32992158976E+01  0.80566219733E+01  0.89847809139E+01  0.00000000000E+00 0.  1.
</event>
<event>
 7    1  0.5755468E-013  0.5930195E+02  0.7816164E-02  0.1266605E+00
        -11   -1    0    0    0    0  0.00000000000E+00  0.00000000000E+00  0.45593999997E+02  0.45594000000E+02  0.51100000000E-03 0.  1.
         11   -1    0    0    0    0 -0.00000000000E+00 -0.00000000000E+00 -0.45593999997E+02  0.45594000000E+02  0.51100000000E-03 0. -1.
    9900012    2    1    2    0    0  0.28447475249E+02 -0.19598799943E+01 -0.14269557606E+02  0.59301948945E+02  0.50000008968E+02 0.  0.
        -12    1    1    2    0    0 -0.28447475249E+02  0.19598799943E+01  0.14269557606E+02  0.31886051055E+02  0.00000000000E+00 0.  1.
         11    1    3    3    0    0  0.14503810491E+00  0.85845270518E+01 -0.25385104987E+02  0.26797736774E+02  0.51100000000E-03 0. -1.
        -11    1    3    3    0    0  0.16082099785E+02 -0.47295428559E+01  0.81964773160E+01  0.18659709263E+02  0.51100000000E-03 0.  1.
         12    1    3    3    0    0  0.12220337359E+02 -0.58148641901E+01  0.29190700652E+01  0.13844502908E+02  0.00000000000E+00 0. -1.
</event>
<event>
 7    1  0.5755468E-013  0.5930194E+02  0.7816164E-02  0.1266605E+00
        -11   -1    0    0    0    0  0.00000000000E+00  0.00000000000E+00  0.45593999997E+02  0.45594000000E+02  0.51100000000E-03 0.  1.
         11   -1    0    0    0    0 -0.00000000000E+00 -0.00000000000E+00 -0.45593999997E+02  0.45594000000E+02  0.51100000000E-03 0. -1.
    9900012    2    1    2    0    0  0.24115429934E+02 -0.23847477234E+01 -0.20723887865E+02  0.59301944885E+02  0.50000001563E+02 0.  0.
        -12    1    1    2    0    0 -0.24115429934E+02  0.23847477234E+01  0.20723887865E+02  0.31886055115E+02  0.00000000000E+00 0.  1.
         11    1    3    3    0    0  0.27276720878E+02  0.73018796147E+01 -0.83321025581E+01  0.29440802997E+02  0.51100000000E-03 0. -1.
        -11    1    3    3    0    0 -0.34704006413E+01 -0.10704363704E+02  0.50875290203E+01  0.12349495322E+02  0.51100000000E-03 0.  1.
         12    1    3    3    0    0  0.30910969662E+00  0.10177363655E+01 -0.17479314327E+02  0.17511646566E+02  0.00000000000E+00 0. -1.
</event>
<event>
 7    1  0.5755468E-013  0.5930189E+02  0.7816164E-02  0.1266605E+00
        -11   -1    0    0    0    0  0.00000000000E+00  0.00000000000E+00  0.45593999997E+02  0.45594000000E+02  0.51100000000E-03 0. -1.
         11   -1    0    0    0    0 -0.00000000000E+00 -0.00000000000E+00 -0.45593999997E+02  0.45594000000E+02  0.51100000000E-03 0.  1.
    9900012    2    1    2    0    0 -0.94797459554E+01  0.27802382893E+02 -0.12405082072E+02  0.59301887990E+02  0.49999897800E+02 0.  0.
        -12    1    1    2    0    0  0.94797459554E+01 -0.27802382893E+02  0.12405082072E+02  0.31886112010E+02  0.00000000000E+00 0.  1.
         11    1    3    3    0    0 -0.16391926027E+02  0.27565263074E+02 -0.30003660953E+01  0.32210885802E+02  0.51100000000E-03 0. -1.
        -11    1    3    3    0    0  0.35700086453E+01  0.54593643334E+01 -0.16455897769E+02  0.17701587282E+02  0.51100000000E-03 0.  1.
         12    1    3    3    0    0  0.33421714267E+01 -0.52222445139E+01  0.70511817922E+01  0.93894149059E+01  0.00000000000E+00 0. -1.
</event>
<event>
 7    1  0.5755468E-013  0.5930191E+02  0.7816164E-02  0.1266605E+00
        -11   -1    0    0    0    0  0.00000000000E+00  0.00000000000E+00  0.45593999997E+02  0.45594000000E+02  0.51100000000E-03 0.  1.
         11   -1    0    0    0    0 -0.00000000000E+00 -0.00000000000E+00 -0.45593999997E+02  0.45594000000E+02  0.51100000000E-03 0. -1.
    9900012    2    1    2    0    0 -0.12048682181E+02 -0.27212801901E+02 -0.11446203741E+02  0.59301907268E+02  0.49999932960E+02 0.  0.
        -12    1    1    2    0    0  0.12048682181E+02  0.27212801901E+02  0.11446203741E+02  0.31886092732E+02  0.00000000000E+00 0.  1.
         11    1    3    3    0    0 -0.95701860165E+01 -0.43049202325E+00 -0.10336115824E+02  0.14092873176E+02  0.51100000000E-03 0. -1.
        -11    1    3    3    0    0  0.10512246042E+02  0.31163339281E+00  0.86491000166E+01  0.13616584137E+02  0.51100000000E-03 0.  1.
        -12    1    3    3    0    0 -0.12990742206E+02 -0.27093943271E+02 -0.97591879331E+01  0.31592449955E+02  0.00000000000E+00 0.  1.
</event>
<event>
 7    1  0.5755468E-013  0.5930195E+02  0.7816164E-02  0.1266605E+00
        -11   -1    0    0    0    0  0.00000000000E+00  0.00000000000E+00  0.45593999997E+02  0.45594000000E+02  0.51100000000E-03 0.  1.
         11   -1    0    0    0    0 -0.00000000000E+00 -0.00000000000E+00 -0.45593999997E+02  0.45594000000E+02  0.51100000000E-03 0. -1.
    9900012    2    1    2    0    0  0.91592928318E+01 -0.12845439322E+02 -0.27709610115E+02  0.59301945849E+02  0.50000003322E+02 0.  0.
        -12    1    1    2    0    0 -0.91592928318E+01  0.12845439322E+02  0.27709610115E+02  0.31886054151E+02  0.00000000000E+00 0.  1.
         11    1    3    3    0    0 -0.50655697121E+01 -0.21490707591E+02 -0.35035993422E+01  0.22355887767E+02  0.51100000000E-03 0. -1.
        -11    1    3    3    0    0  0.10132865754E+02  0.50909601183E+01  0.79170931866E+00  0.11367482009E+02  0.51100000000E-03 0.  1.
         12    1    3    3    0    0  0.40919967896E+01  0.35543081501E+01 -0.24997720092E+02  0.25578576073E+02  0.00000000000E+00 0. -1.
</event>
<event>
 7    1  0.5755468E-013  0.5930192E+02  0.7816164E-02  0.1266605E+00
        -11   -1    0    0    0    0  0.00000000000E+00  0.00000000000E+00  0.45593999997E+02  0.45594000000E+02  0.51100000000E-03 0.  1.
         11   -1    0    0    0    0 -0.00000000000E+00 -0.00000000000E+00 -0.45593999997E+02  0.45594000000E+02  0.51100000000E-03 0. -1.
    9900012    2    1    2    0    0 -0.31403893369E+02  0.26547841532E+01 -0.48445715084E+01  0.59301917287E+02  0.49999951232E+02 0.  0.
        -12    1    1    2    0    0  0.31403893369E+02 -0.26547841532E+01  0.48445715084E+01  0.31886082713E+02  0.00000000000E+00 0.  1.
         11    1    3    3    0    0 -0.19161976754E+02  0.63352783463E+01 -0.99558924444E+01  0.22504152939E+02  0.51100000000E-03 0. -1.
        -11    1    3    3    0    0 -0.80057280333E+01  0.10001471590E+02  0.14747747454E+02  0.19535024201E+02  0.51100000000E-03 0.  1.
        -12    1    3    3    0    0 -0.42361885818E+01 -0.13681965783E+02 -0.96364265177E+01  0.17262740148E+02  0.00000000000E+00 0.  1.
</event>
<event>
 7    1  0.5755468E-013  0.5930192E+02  0.7816164E-02  0.1266605E+00
        -11   -1    0    0    0    0  0.00000000000E+00  0.00000000000E+00  0.45593999997E+02  0.45594000000E+02  0.51100000000E-03 0. -1.
         11   -1    0    0    0    0 -0.00000000000E+00 -0.00000000000E+00 -0.45593999997E+02  0.45594000000E+02  0.51100000000E-03 0.  1.
    9900012    2    1    2    0    0  0.20473737902E+02  0.14714237364E+02  0.19520223488E+02  0.59301923886E+02  0.49999963267E+02 0.  0.
        -12    1    1    2    0    0 -0.20473737902E+02 -0.14714237364E+02 -0.19520223488E+02  0.31886076114E+02  0.00000000000E+00 0.  1.
         11    1    3    3    0    0  0.20666840490E+02  0.12529315518E+02  0.27680868932E+02  0.36746871272E+02  0.51100000000E-03 0. -1.
        -11    1    3    3    0    0  0.72637724140E+00 -0.87843618946E+00 -0.14979791666E+02  0.15023096640E+02  0.51100000000E-03 0.  1.
        -12    1    3    3    0    0 -0.91947982969E+00  0.30633580355E+01  0.68191462215E+01  0.75319559744E+01  0.00000000000E+00 0.  1.
</event>
<event>
 7    1  0.5755468E-013  0.5930193E+02  0.7816164E-02  0.1266605E+00
        -11   -1    0    0    0    0  0.00000000000E+00  0.00000000000E+00  0.45593999997E+02  0.45594000000E+02  0.51100000000E-03 0.  1.
         11   -1    0    0    0    0 -0.00000000000E+00 -0.00000000000E+00 -0.45593999997E+02  0.45594000000E+02  0.51100000000E-03 0. -1.
    9900012    2    1    2    0    0  0.30785219405E+02  0.71812479159E+01 -0.41738861315E+01  0.59301931242E+02  0.49999976681E+02 0.  0.
        -12    1    1    2    0    0 -0.30785219405E+02 -0.71812479159E+01  0.41738861315E+01  0.31886068758E+02  0.00000000000E+00 0.  1.
         11    1    3    3    0    0 -0.54974363302E+01  0.85423320855E+00 -0.49227938517E+01  0.74286889924E+01  0.51100000000E-03 0. -1.
        -11    1    3    3    0    0  0.23029913353E+02 -0.58981588391E+00  0.17861492672E+02  0.29150603982E+02  0.51100000000E-03 0.  1.
        -12    1    3    3    0    0  0.13252742382E+02  0.69168305912E+01 -0.17112584952E+02  0.22722638267E+02  0.00000000000E+00 0.  1.
</event>
<event>
 7    1  0.5755468E-013  0.5930195E+02  0.7816164E-02  0.1266605E+00
        -11   -1    0    0    0    0  0.00000000000E+00  0.00000000000E+00  0.45593999997E+02  0.45594000000E+02  0.51100000000E-03 0.  1.
         11   -1    0    0    0    0 -0.00000000000E+00 -0.00000000000E+00 -0.45593999997E+02  0.45594000000E+02  0.51100000000E-03 0. -1.
    9900012    2    1    2    0    0  0.60735368855E+01 -0.46751207287E+01 -0.30951184579E+02  0.59301946137E+02  0.50000003847E+02 0.  0.
        -12    1    1    2    0    0 -0.60735368855E+01  0.46751207287E+01  0.30951184579E+02  0.31886053863E+02  0.00000000000E+00 0.  1.
         11    1    3    3    0    0  0.19604751887E+02 -0.45638716584E+01 -0.12386804007E+02  0.23634892317E+02  0.51100000000E-03 0. -1.
        -11    1    3    3    0    0 -0.15510136009E+02  0.81457739632E+01 -0.20492176880E+02  0.26960105081E+02  0.51100000000E-03 0.  1.
         12    1    3    3    0    0  0.19789210073E+01 -0.82570230335E+01  0.19277963081E+01  0.87069487385E+01  0.00000000000E+00 0. -1.
</event>
<event>
 7    1  0.5755468E-013  0.5930201E+02  0.7816164E-02  0.1266605E+00
        -11   -1    0    0    0    0  0.00000000000E+00  0.00000000000E+00  0.45593999997E+02  0.45594000000E+02  0.51100000000E-03 0.  1.
         11   -1    0    0    0    0 -0.00000000000E+00 -0.00000000000E+00 -0.45593999997E+02  0.45594000000E+02  0.51100000000E-03 0. -1.
    9900012    2    1    2    0    0  0.18290419929E+02  0.29076036928E+01 -0.25956168785E+02  0.59302010625E+02  0.50000121457E+02 0.  0.
        -12    1    1    2    0    0 -0.18290419929E+02 -0.29076036928E+01  0.25956168785E+02  0.31885989375E+02  0.00000000000E+00 0.  1.
         11    1    3    3    0    0  0.10356206187E+02  0.78484422922E+01 -0.78374414445E+01  0.15174799559E+02  0.51100000000E-03 0. -1.
        -11    1    3    3    0    0 -0.59832849970E+01 -0.29025141659E+01  0.10390753705E+02  0.12336614230E+02  0.51100000000E-03 0.  1.
        -12    1    3    3    0    0  0.13917498740E+02 -0.20383244335E+01 -0.28509481046E+02  0.31790596836E+02  0.00000000000E+00 0.  1.
</event>
<event>
 7    1  0.5755468E-013  0.5930200E+02  0.7816164E-02  0.1266605E+00
        -11   -1    0    0    0    0  0.00000000000E+00  0.00000000000E+00  0.45593999997E+02  0.45594000000E+02  0.51100000000E-03 0.  1.
         11   -1    0    0    0    0 -0.00000000000E+00 -0.00000000000E+00 -0.45593999997E+02  0.45594000000E+02  0.51100000000E-03 0. -1.
    9900012    2    1    2    0    0 -0.29620117251E+02  0.77514301056E+01 -0.89039689570E+01  0.59302004989E+02  0.50000111179E+02 0.  0.
        -12    1    1    2    0    0  0.29620117251E+02 -0.77514301056E+01  0.89039689570E+01  0.31885995011E+02  0.00000000000E+00 0.  1.
         11    1    3    3    0    0  0.62358600404E+01  0.27358235290E+01  0.79708324209E+01  0.10483551429E+02  0.51100000000E-03 0.  1.
        -11    1    3    3    0    0 -0.34046508344E+02  0.13812396409E+02 -0.14734252486E+02  0.39585922013E+02  0.51100000000E-03 0. -1.
         12    1    3    3    0    0 -0.18094689469E+01 -0.87967898319E+01 -0.21405488917E+01  0.92325315474E+01  0.00000000000E+00 0. -1.
</event>
<event>
 7    1  0.6232475E-013  0.5930228E+02  0.7816164E-02  0.1266604E+00
        -11   -1    0    0    0    0  0.00000000000E+00  0.00000000000E+00  0.45593999997E+02  0.45594000000E+02  0.51100000000E-03 0. -1.
         11   -1    0    0    0    0 -0.00000000000E+00 -0.00000000000E+00 -0.45593999997E+02  0.45594000000E+02  0.51100000000E-03 0.  1.
    9900012    2    1    2    0    0  0.25848698267E+02  0.45635299530E+01  0.18102991572E+02  0.59302277308E+02  0.50000607819E+02 0.  0.
        -12    1    1    2    0    0 -0.25848698267E+02 -0.45635299530E+01 -0.18102991572E+02  0.31885722692E+02  0.00000000000E+00 0.  1.
         11    1    3    3    0    0  0.52972886858E+01  0.83818932503E+00  0.22105419151E+02  0.22746722509E+02  0.51100000000E-03 0. -1.
        -11    1    3    3    0    0  0.17300769305E+02 -0.11034935846E+02 -0.58274202244E+01  0.21331789761E+02  0.51100000000E-03 0.  1.
        -12    1    3    3    0    0  0.32506402760E+01  0.14760276474E+02  0.18249926450E+01  0.15223765038E+02  0.00000000000E+00 0.  1.
</event>
<event>
 7    1  0.5755468E-013  0.5930193E+02  0.7816164E-02  0.1266605E+00
        -11   -1    0    0    0    0  0.00000000000E+00  0.00000000000E+00  0.45593999997E+02  0.45594000000E+02  0.51100000000E-03 0. -1.
         11   -1    0    0    0    0 -0.00000000000E+00 -0.00000000000E+00 -0.45593999997E+02  0.45594000000E+02  0.51100000000E-03 0.  1.
    9900012    2    1    2    0    0  0.25995911703E+02  0.34122905670E+01  0.18146355571E+02  0.59301931370E+02  0.49999976915E+02 0.  0.
        -12    1    1    2    0    0 -0.25995911703E+02 -0.34122905670E+01 -0.18146355571E+02  0.31886068630E+02  0.00000000000E+00 0.  1.
         11    1    3    3    0    0  0.61863229089E+01  0.14995228281E+02  0.16482971348E+02  0.23126084992E+02  0.51100000000E-03 0. -1.
        -11    1    3    3    0    0  0.15056642972E+02 -0.20838481424E+02  0.17825426580E+01  0.25770569731E+02  0.51100000000E-03 0.  1.
        -12    1    3    3    0    0  0.47529458220E+01  0.92555437102E+01 -0.11915843511E+00  0.10405276647E+02  0.00000000000E+00 0.  1.
</event>
<event>
 7    1  0.5755468E-013  0.5930195E+02  0.7816164E-02  0.1266605E+00
        -11   -1    0    0    0    0  0.00000000000E+00  0.00000000000E+00  0.45593999997E+02  0.45594000000E+02  0.51100000000E-03 0.  1.
         11   -1    0    0    0    0 -0.00000000000E+00 -0.00000000000E+00 -0.45593999997E+02  0.45594000000E+02  0.51100000000E-03 0. -1.
    9900012    2    1    2    0    0 -0.28893121753E+02 -0.10036725282E+02  0.90095407724E+01  0.59301950324E+02  0.50000011484E+02 0.  0.
        -12    1    1    2    0    0  0.28893121753E+02  0.10036725282E+02 -0.90095407724E+01  0.31886049676E+02  0.00000000000E+00 0.  1.
         11    1    3    3    0    0 -0.79749839998E+01  0.15134808596E+01  0.16147494982E+02  0.18072979516E+02  0.51100000000E-03 0.  1.
        -11    1    3    3    0    0  0.69505201269E+01 -0.33208450978E+01 -0.93170899982E+01  0.12089082202E+02  0.51100000000E-03 0. -1.
         12    1    3    3    0    0 -0.27868657880E+02 -0.82293610436E+01  0.21791357881E+01  0.29139888606E+02  0.00000000000E+00 0. -1.
</event>
<event>
 7    1  0.5755468E-013  0.5930159E+02  0.7816164E-02  0.1266606E+00
        -11   -1    0    0    0    0  0.00000000000E+00  0.00000000000E+00  0.45593999997E+02  0.45594000000E+02  0.51100000000E-03 0. -1.
         11   -1    0    0    0    0 -0.00000000000E+00 -0.00000000000E+00 -0.45593999997E+02  0.45594000000E+02  0.51100000000E-03 0.  1.
    9900012    2    1    2    0    0  0.37033663582E+01  0.19934004042E+02  0.24610241466E+02  0.59301585580E+02  0.49999346273E+02 0.  0.
        -12    1    1    2    0    0 -0.37033663582E+01 -0.19934004042E+02 -0.24610241466E+02  0.31886414420E+02  0.00000000000E+00 0.  1.
         11    1    3    3    0    0  0.10244512173E+02  0.20509598749E+02  0.23881412405E+02  0.33104614923E+02  0.51100000000E-03 0. -1.
        -11    1    3    3    0    0 -0.91724744882E+00 -0.11625129531E+02 -0.48141647694E+01  0.12615909091E+02  0.51100000000E-03 0.  1.
         12    1    3    3    0    0 -0.56238983656E+01  0.11049534824E+02  0.55429938303E+01  0.13581061566E+02  0.00000000000E+00 0. -1.
</event>
<event>
 7    1  0.5755468E-013  0.5930190E+02  0.7816164E-02  0.1266605E+00
        -11   -1    0    0    0    0  0.00000000000E+00  0.00000000000E+00  0.45593999997E+02  0.45594000000E+02  0.51100000000E-03 0. -1.
         11   -1    0    0    0    0 -0.00000000000E+00 -0.00000000000E+00 -0.45593999997E+02  0.45594000000E+02  0.51100000000E-03 0.  1.
    9900012    2    1    2    0    0 -0.90626532678E+01 -0.30528892658E+02 -0.16057070045E+01  0.59301901679E+02  0.49999922766E+02 0.  0.
        -12    1    1    2    0    0  0.90626532678E+01  0.30528892658E+02  0.16057070045E+01  0.31886098321E+02  0.00000000000E+00 0.  1.
         11    1    3    3    0    0  0.42093915335E+01 -0.23456877422E+02  0.12645758214E+02  0.26978867221E+02  0.51100000000E-03 0. -1.
        -11    1    3    3    0    0 -0.11510038487E+02 -0.22569938510E+01 -0.20876399547E+02  0.23945752557E+02  0.51100000000E-03 0.  1.
        -12    1    3    3    0    0 -0.17620063144E+01 -0.48150213844E+01  0.66249343287E+01  0.83772819006E+01  0.00000000000E+00 0.  1.
</event>
<event>
 7    1  0.5755468E-013  0.5930196E+02  0.7816164E-02  0.1266605E+00
        -11   -1    0    0    0    0  0.00000000000E+00  0.00000000000E+00  0.45593999997E+02  0.45594000000E+02  0.51100000000E-03 0.  1.
         11   -1    0    0    0    0 -0.00000000000E+00 -0.00000000000E+00 -0.45593999997E+02  0.45594000000E+02  0.51100000000E-03 0. -1.
    9900012    2    1    2    0    0  0.15309632740E+02  0.15994541801E+02 -0.22945794626E+02  0.59301957394E+02  0.50000024377E+02 0.  0.
        -12    1    1    2    0    0 -0.15309632740E+02 -0.15994541801E+02  0.22945794626E+02  0.31886042606E+02  0.00000000000E+00 0.  1.
         11    1    3    3    0    0  0.45465604355E+01 -0.17248651179E+01  0.24844884768E+01  0.54606826240E+01  0.51100000000E-03 0.  1.
        -11    1    3    3    0    0  0.14584896449E+02  0.28752748858E+02 -0.86186278264E+01  0.33372451471E+02  0.51100000000E-03 0. -1.
        -12    1    3    3    0    0 -0.38218241450E+01 -0.11033341939E+02 -0.16811655276E+02  0.20468823299E+02  0.00000000000E+00 0.  1.
</event>
<event>
 7    1  0.5755468E-013  0.5930198E+02  0.7816164E-02  0.1266605E+00
        -11   -1    0    0    0    0  0.00000000000E+00  0.00000000000E+00  0.45593999997E+02  0.45594000000E+02  0.51100000000E-03 0.  1.
         11   -1    0    0    0    0 -0.00000000000E+00 -0.00000000000E+00 -0.45593999997E+02  0.45594000000E+02  0.51100000000E-03 0. -1.
    9900012    2    1    2    0    0  0.22641525162E+02 -0.12320225319E+02 -0.18769441423E+02  0.59301975712E+02  0.50000057785E+02 0.  0.
        -12    1    1    2    0    0 -0.22641525162E+02  0.12320225319E+02  0.18769441423E+02  0.31886024288E+02  0.00000000000E+00 0.  1.
         11    1    3    3    0    0  0.24012176368E+02 -0.73911333390E+01  0.41462257104E+01  0.25463791034E+02  0.51100000000E-03 0. -1.
        -11    1    3    3    0    0 -0.10457134303E+02 -0.62194122693E+01 -0.39896034701E+01  0.12804283772E+02  0.51100000000E-03 0.  1.
        -12    1    3    3    0    0  0.90864830973E+01  0.12903202890E+01 -0.18926063663E+02  0.21033900905E+02  0.00000000000E+00 0.  1.
</event>
<event>
 7    1  0.5755468E-013  0.5930192E+02  0.7816164E-02  0.1266605E+00
        -11   -1    0    0    0    0  0.00000000000E+00  0.00000000000E+00  0.45593999997E+02  0.45594000000E+02  0.51100000000E-03 0.  1.
         11   -1    0    0    0    0 -0.00000000000E+00 -0.00000000000E+00 -0.45593999997E+02  0.45594000000E+02  0.51100000000E-03 0. -1.
    9900012    2    1    2    0    0  0.27278513055E+02  0.10190396333E+02 -0.12990787876E+02  0.59301921195E+02  0.49999958359E+02 0.  0.
        -12    1    1    2    0    0 -0.27278513055E+02 -0.10190396333E+02  0.12990787876E+02  0.31886078805E+02  0.00000000000E+00 0.  1.
         11    1    3    3    0    0  0.96030549976E+01 -0.28055256095E+01 -0.20014470107E+02  0.22375626318E+02  0.51100000000E-03 0.  1.
        -11    1    3    3    0    0  0.86986777406E+01  0.18278727223E+02  0.13800707661E+02  0.24499763173E+02  0.51100000000E-03 0. -1.
         12    1    3    3    0    0  0.89767803169E+01 -0.52828052810E+01 -0.67770254302E+01  0.12426531703E+02  0.00000000000E+00 0. -1.
</event>
<event>
 7    1  0.5755468E-013  0.5930195E+02  0.7816164E-02  0.1266605E+00
        -11   -1    0    0    0    0  0.00000000000E+00  0.00000000000E+00  0.45593999997E+02  0.45594000000E+02  0.51100000000E-03 0. -1.
         11   -1    0    0    0    0 -0.00000000000E+00 -0.00000000000E+00 -0.45593999997E+02  0.45594000000E+02  0.51100000000E-03 0.  1.
    9900012    2    1    2    0    0 -0.59851812041E+01 -0.25104965538E+02  0.18725339806E+02  0.59301952274E+02  0.50000015039E+02 0.  0.
        -12    1    1    2    0    0  0.59851812041E+01  0.25104965538E+02 -0.18725339806E+02  0.31886047726E+02  0.00000000000E+00 0.  1.
         11    1    3    3    0    0  0.10327486398E+01 -0.17826788969E+02  0.22440847145E+02  0.28678434329E+02  0.51100000000E-03 0. -1.
        -11    1    3    3    0    0 -0.87165025322E+01 -0.48937525840E+01 -0.15520408590E+02  0.18461021472E+02  0.51100000000E-03 0.  1.
         12    1    3    3    0    0  0.16985726883E+01 -0.23844239848E+01  0.11804901251E+02  0.12162496473E+02  0.00000000000E+00 0. -1.
</event>
<event>
 7    1  0.5755468E-013  0.5930189E+02  0.7816164E-02  0.1266605E+00
        -11   -1    0    0    0    0  0.00000000000E+00  0.00000000000E+00  0.45593999997E+02  0.45594000000E+02  0.51100000000E-03 0.  1.
         11   -1    0    0    0    0 -0.00000000000E+00 -0.00000000000E+00 -0.45593999997E+02  0.45594000000E+02  0.51100000000E-03 0. -1.
    9900012    2    1    2    0    0 -0.11739745124E+02  0.72535148253E+01 -0.28745237863E+02  0.59301893422E+02  0.49999907707E+02 0.  0.
        -12    1    1    2    0    0  0.11739745124E+02 -0.72535148253E+01  0.28745237863E+02  0.31886106578E+02  0.00000000000E+00 0.  1.
         11    1    3    3    0    0  0.18994739732E+01 -0.44183926072E+01 -0.25908166115E+02  0.26350773543E+02  0.51100000000E-03 0. -1.
        -11    1    3    3    0    0 -0.93627318730E+01  0.20353301609E+02  0.12669636093E+01  0.22439314418E+02  0.51100000000E-03 0.  1.
         12    1    3    3    0    0 -0.42764872244E+01 -0.86813941766E+01 -0.41040353578E+01  0.10511805461E+02  0.00000000000E+00 0. -1.
</event>
<event>
 7    1  0.5755468E-013  0.5930194E+02  0.7816164E-02  0.1266605E+00
        -11   -1    0    0    0    0  0.00000000000E+00  0.00000000000E+00  0.45593999997E+02  0.45594000000E+02  0.51100000000E-03 0. -1.
         11   -1    0    0    0    0 -0.00000000000E+00 -0.00000000000E+00 -0.45593999997E+02  0.45594000000E+02  0.51100000000E-03 0.  1.
    9900012    2    1    2    0    0  0.27672648736E+02 -0.13691242518E+02  0.79684054482E+01  0.59301935722E+02  0.49999984853E+02 0.  0.
        -12    1    1    2    0    0 -0.27672648736E+02  0.13691242518E+02 -0.79684054482E+01  0.31886064278E+02  0.00000000000E+00 0.  1.
         11    1    3    3    0    0  0.33086334548E+02 -0.11178724659E+02  0.17038581687E+02  0.38858495661E+02  0.51100000000E-03 0. -1.
        -11    1    3    3    0    0 -0.60411106570E+01 -0.49740170098E+01 -0.13345412470E+02  0.15470484719E+02  0.51100000000E-03 0.  1.
        -12    1    3    3    0    0  0.62742484488E+00  0.24614991514E+01  0.42752362310E+01  0.49729553426E+01  0.00000000000E+00 0.  1.
</event>
<event>
 7    1  0.5755468E-013  0.5930194E+02  0.7816164E-02  0.1266605E+00
        -11   -1    0    0    0    0  0.00000000000E+00  0.00000000000E+00  0.45593999997E+02  0.45594000000E+02  0.51100000000E-03 0.  1.
         11   -1    0    0    0    0 -0.00000000000E+00 -0.00000000000E+00 -0.45593999997E+02  0.45594000000E+02  0.51100000000E-03 0. -1.
    9900012    2    1    2    0    0 -0.22931090136E+02 -0.22110027984E+02  0.14257933377E+01  0.59301935349E+02  0.49999984172E+02 0.  0.
        -12    1    1    2    0    0  0.22931090136E+02  0.22110027984E+02 -0.14257933377E+01  0.31886064651E+02  0.00000000000E+00 0.  1.
         11    1    3    3    0    0 -0.21446050675E+02 -0.16181728634E+01 -0.29371979219E+01  0.21706651166E+02  0.51100000000E-03 0. -1.
        -11    1    3    3    0    0  0.12392227063E+02 -0.11477880093E+02 -0.61664893351E+01  0.17981507556E+02  0.51100000000E-03 0.  1.
        -12    1    3    3    0    0 -0.13877266524E+02 -0.90139750275E+01  0.10529480595E+02  0.19613776627E+02  0.00000000000E+00 0.  1.
</event>
<event>
 7    1  0.5755468E-013  0.5930193E+02  0.7816164E-02  0.1266605E+00
        -11   -1    0    0    0    0  0.00000000000E+00  0.00000000000E+00  0.45593999997E+02  0.45594000000E+02  0.51100000000E-03 0.  1.
         11   -1    0    0    0    0 -0.00000000000E+00 -0.00000000000E+00 -0.45593999997E+02  0.45594000000E+02  0.51100000000E-03 0. -1.
    9900012    2    1    2    0    0  0.27129981439E+02 -0.10341910191E+02 -0.13180686466E+02  0.59301929452E+02  0.49999973417E+02 0.  0.
        -12    1    1    2    0    0 -0.27129981439E+02  0.10341910191E+02  0.13180686466E+02  0.31886070548E+02  0.00000000000E+00 0.  1.
         11    1    3    3    0    0  0.26842368732E+02  0.21372850335E+01 -0.12656588381E+02  0.29753486790E+02  0.51100000000E-03 0. -1.
        -11    1    3    3    0    0  0.30232004510E+00 -0.17411916988E+02 -0.91047256605E+01  0.19651012193E+02  0.51100000000E-03 0.  1.
        -12    1    3    3    0    0 -0.14707337962E-01  0.49327217629E+01  0.85806275757E+01  0.98974304690E+01  0.00000000000E+00 0.  1.
</event>
<event>
 7    1  0.5755468E-013  0.5930193E+02  0.7816164E-02  0.1266605E+00
        -11   -1    0    0    0    0  0.00000000000E+00  0.00000000000E+00  0.45593999997E+02  0.45594000000E+02  0.51100000000E-03 0. -1.
         11   -1    0    0    0    0 -0.00000000000E+00 -0.00000000000E+00 -0.45593999997E+02  0.45594000000E+02  0.51100000000E-03 0.  1.
    9900012    2    1    2    0    0  0.31775542057E+02  0.91403124443E+00  0.24901655387E+01  0.59301930149E+02  0.49999974688E+02 0.  0.
        -12    1    1    2    0    0 -0.31775542057E+02 -0.91403124443E+00 -0.24901655387E+01  0.31886069851E+02  0.00000000000E+00 0.  1.
         11    1    3    3    0    0  0.12656587171E+02  0.10886955972E+02 -0.20194902208E+02  0.26202081685E+02  0.51100000000E-03 0. -1.
        -11    1    3    3    0    0  0.15380352842E+02 -0.63192048122E+01  0.10057421428E+02  0.19432944425E+02  0.51100000000E-03 0.  1.
         12    1    3    3    0    0  0.37386020439E+01 -0.36537199158E+01  0.12627646318E+02  0.13666904039E+02  0.00000000000E+00 0. -1.
</event>
<event>
 7    1  0.5755468E-013  0.5930196E+02  0.7816164E-02  0.1266605E+00
        -11   -1    0    0    0    0  0.00000000000E+00  0.00000000000E+00  0.45593999997E+02  0.45594000000E+02  0.51100000000E-03 0.  1.
         11   -1    0    0    0    0 -0.00000000000E+00 -0.00000000000E+00 -0.45593999997E+02  0.45594000000E+02  0.51100000000E-03 0. -1.
    9900012    2    1    2    0    0 -0.13354577310E+02  0.23936789916E+02 -0.16291252954E+02  0.59301959646E+02  0.50000028484E+02 0.  0.
        -12    1    1    2    0    0  0.13354577310E+02 -0.23936789916E+02  0.16291252954E+02  0.31886040354E+02  0.00000000000E+00 0.  1.
         11    1    3    3    0    0 -0.18371375584E+02  0.10504749748E+02  0.10577377708E+02  0.23658785420E+02  0.51100000000E-03 0. -1.
        -11    1    3    3    0    0  0.11744079253E+02  0.11266539372E+02 -0.20039823714E+02  0.25815747939E+02  0.51100000000E-03 0.  1.
         12    1    3    3    0    0 -0.67272809798E+01  0.21655007967E+01 -0.68288069488E+01  0.98274262870E+01  0.00000000000E+00 0. -1.
</event>
<event>
 7    1  0.5755468E-013  0.5930195E+02  0.7816164E-02  0.1266605E+00
        -11   -1    0    0    0    0  0.00000000000E+00  0.00000000000E+00  0.45593999997E+02  0.45594000000E+02  0.51100000000E-03 0.  1.
         11   -1    0    0    0    0 -0.00000000000E+00 -0.00000000000E+00 -0.45593999997E+02  0.45594000000E+02  0.51100000000E-03 0. -1.
    9900012    2    1    2    0    0  0.64931281977E+01 -0.28946087656E+02 -0.11691172222E+02  0.59301949565E+02  0.50000010099E+02 0.  0.
        -12    1    1    2    0    0 -0.64931281977E+01  0.28946087656E+02  0.11691172222E+02  0.31886050435E+02  0.00000000000E+00 0.  1.
         11    1    3    3    0    0  0.33292563807E+01 -0.34101928078E+02  0.64489006549E+01  0.34865653107E+02  0.51100000000E-03 0. -1.
        -11    1    3    3    0    0  0.65792493225E+00  0.25046076157E+01  0.24264381893E+01  0.35487359824E+01  0.51100000000E-03 0.  1.
         12    1    3    3    0    0  0.25059468848E+01  0.26512328062E+01 -0.20566511066E+02  0.20887560476E+02  0.00000000000E+00 0. -1.
</event>
<event>
 7    1  0.5755468E-013  0.5930194E+02  0.7816164E-02  0.1266605E+00
        -11   -1    0    0    0    0  0.00000000000E+00  0.00000000000E+00  0.45593999997E+02  0.45594000000E+02  0.51100000000E-03 0.  1.
         11   -1    0    0    0    0 -0.00000000000E+00 -0.00000000000E+00 -0.45593999997E+02  0.45594000000E+02  0.51100000000E-03 0. -1.
    9900012    2    1    2    0    0  0.18950050879E+02  0.25626843837E+02  0.93876494426E+00  0.59301939833E+02  0.49999992349E+02 0.  0.
        -12    1    1    2    0    0 -0.18950050879E+02 -0.25626843837E+02 -0.93876494426E+00  0.31886060167E+02  0.00000000000E+00 0.  1.
         11    1    3    3    0    0 -0.66550542868E+01 -0.21484713377E+01  0.10816368235E+02  0.12880197930E+02  0.51100000000E-03 0. -1.
        -11    1    3    3    0    0  0.12269768542E+02  0.16003734829E+02  0.75371429724E+01  0.21528475863E+02  0.51100000000E-03 0.  1.
         12    1    3    3    0    0  0.13335336624E+02  0.11771580346E+02 -0.17414746263E+02  0.24893266040E+02  0.00000000000E+00 0. -1.
</event>
<event>
 7    1  0.5755468E-013  0.5930195E+02  0.7816164E-02  0.1266605E+00
        -11   -1    0    0    0    0  0.00000000000E+00  0.00000000000E+00  0.45593999997E+02  0.45594000000E+02  0.51100000000E-03 0.  1.
         11   -1    0    0    0    0 -0.00000000000E+00 -0.00000000000E+00 -0.45593999997E+02  0.45594000000E+02  0.51100000000E-03 0. -1.
    9900012    2    1    2    0    0 -0.19212218746E+02 -0.25447577496E+02  0.17777004315E+00  0.59301950516E+02  0.50000011832E+02 0.  0.
        -12    1    1    2    0    0  0.19212218746E+02  0.25447577496E+02 -0.17777004315E+00  0.31886049484E+02  0.00000000000E+00 0.  1.
         11    1    3    3    0    0 -0.28107607244E+02 -0.18284855053E+02  0.13728299451E+02  0.36233130080E+02  0.51100000000E-03 0. -1.
        -11    1    3    3    0    0  0.50581035002E+01  0.41596579437E+01 -0.33626847235E+01  0.73617127109E+01  0.51100000000E-03 0.  1.
         12    1    3    3    0    0  0.38372849981E+01 -0.11322380386E+02 -0.10187844684E+02  0.15707107725E+02  0.00000000000E+00 0. -1.
</event>
<event>
 7    1  0.5755468E-013  0.5930196E+02  0.7816164E-02  0.1266605E+00
        -11   -1    0    0    0    0  0.00000000000E+00  0.00000000000E+00  0.45593999997E+02  0.45594000000E+02  0.51100000000E-03 0.  1.
         11   -1    0    0    0    0 -0.00000000000E+00 -0.00000000000E+00 -0.45593999997E+02  0.45594000000E+02  0.51100000000E-03 0. -1.
    9900012    2    1    2    0    0 -0.56029412277E+01  0.28743966436E+02 -0.12613930810E+02  0.59301955916E+02  0.50000021682E+02 0.  0.
        -12    1    1    2    0    0  0.56029412277E+01 -0.28743966436E+02  0.12613930810E+02  0.31886044084E+02  0.00000000000E+00 0.  1.
         11    1    3    3    0    0 -0.51482047237E+01  0.32511888254E+02 -0.16914484273E+01  0.32960398780E+02  0.51100000000E-03 0. -1.
        -11    1    3    3    0    0  0.10883979206E+02  0.19213992245E+01 -0.32686593842E+01  0.11525489697E+02  0.51100000000E-03 0.  1.
         12    1    3    3    0    0 -0.11338715710E+02 -0.56893210426E+01 -0.76538229982E+01  0.14816067439E+02  0.00000000000E+00 0. -1.
</event>
<event>
 7    1  0.5755468E-013  0.5930196E+02  0.7816164E-02  0.1266605E+00
        -11   -1    0    0    0    0  0.00000000000E+00  0.00000000000E+00  0.45593999997E+02  0.45594000000E+02  0.51100000000E-03 0.  1.
         11   -1    0    0    0    0 -0.00000000000E+00 -0.00000000000E+00 -0.45593999997E+02  0.45594000000E+02  0.51100000000E-03 0. -1.
    9900012    2    1    2    0    0  0.14276916913E+02  0.26231091754E+02 -0.11172245940E+02  0.59301959003E+02  0.50000027311E+02 0.  0.
        -12    1    1    2    0    0 -0.14276916913E+02 -0.26231091754E+02  0.11172245940E+02  0.31886040997E+02  0.00000000000E+00 0.  1.
         11    1    3    3    0    0  0.28938554846E+02  0.28469015985E+02 -0.11298442716E+02  0.42137627316E+02  0.51100000000E-03 0.  1.
        -11    1    3    3    0    0 -0.73984990985E+01 -0.30655193826E+01 -0.38025367822E+01  0.88653530238E+01  0.51100000000E-03 0. -1.
        -12    1    3    3    0    0 -0.72631388346E+01  0.82759515139E+00  0.39287335590E+01  0.82989786627E+01  0.00000000000E+00 0.  1.
</event>
<event>
 7    1  0.5755468E-013  0.5930195E+02  0.7816164E-02  0.1266605E+00
        -11   -1    0    0    0    0  0.00000000000E+00  0.00000000000E+00  0.45593999997E+02  0.45594000000E+02  0.51100000000E-03 0.  1.
         11   -1    0    0    0    0 -0.00000000000E+00 -0.00000000000E+00 -0.45593999997E+02  0.45594000000E+02  0.51100000000E-03 0. -1.
    9900012    2    1    2    0    0 -0.18103876177E+02 -0.19776872656E+02 -0.17258181990E+02  0.59301954929E+02  0.50000019881E+02 0.  0.
        -12    1    1    2    0    0  0.18103876177E+02  0.19776872656E+02  0.17258181990E+02  0.31886045071E+02  0.00000000000E+00 0.  1.
         11    1    3    3    0    0 -0.18427710788E+02  0.95569062043E+01 -0.11813561579E+02  0.23884623055E+02  0.51100000000E-03 0. -1.
        -11    1    3    3    0    0  0.74619748664E+01 -0.17066422578E+02  0.30529535662E+01  0.18874966868E+02  0.51100000000E-03 0.  1.
         12    1    3    3    0    0 -0.71381402559E+01 -0.12267356283E+02 -0.84975739774E+01  0.16542365006E+02  0.00000000000E+00 0. -1.
</event>
<event>
 7    1  0.5755468E-013  0.5930194E+02  0.7816164E-02  0.1266605E+00
        -11   -1    0    0    0    0  0.00000000000E+00  0.00000000000E+00  0.45593999997E+02  0.45594000000E+02  0.51100000000E-03 0.  1.
         11   -1    0    0    0    0 -0.00000000000E+00 -0.00000000000E+00 -0.45593999997E+02  0.45594000000E+02  0.51100000000E-03 0. -1.
    9900012    2    1    2    0    0  0.60287357823E+01  0.28450206409E+02 -0.13075192982E+02  0.59301943935E+02  0.49999999831E+02 0.  0.
        -12    1    1    2    0    0 -0.60287357823E+01 -0.28450206409E+02  0.13075192982E+02  0.31886056065E+02  0.00000000000E+00 0.  1.
         11    1    3    3    0    0  0.65594660691E+01  0.79461796333E+01 -0.29191237354E+02  0.30956367752E+02  0.51100000000E-03 0. -1.
        -11    1    3    3    0    0  0.18289685638E+01  0.69237036137E+01  0.11975457811E+02  0.13953293080E+02  0.51100000000E-03 0.  1.
         12    1    3    3    0    0 -0.23596988507E+01  0.13580323162E+02  0.41405865613E+01  0.14392283104E+02  0.00000000000E+00 0. -1.
</event>
<event>
 7    1  0.5755468E-013  0.5930195E+02  0.7816164E-02  0.1266605E+00
        -11   -1    0    0    0    0  0.00000000000E+00  0.00000000000E+00  0.45593999997E+02  0.45594000000E+02  0.51100000000E-03 0.  1.
         11   -1    0    0    0    0 -0.00000000000E+00 -0.00000000000E+00 -0.45593999997E+02  0.45594000000E+02  0.51100000000E-03 0. -1.
    9900012    2    1    2    0    0 -0.97280138224E+00  0.18744914138E+02 -0.25775992241E+02  0.59301954078E+02  0.50000018329E+02 0.  0.
        -12    1    1    2    0    0  0.97280138224E+00 -0.18744914138E+02  0.25775992241E+02  0.31886045922E+02  0.00000000000E+00 0.  1.
         11    1    3    3    0    0 -0.58290492284E+01 -0.12905369346E+02 -0.78345333512E+00  0.14182389512E+02  0.51100000000E-03 0. -1.
        -11    1    3    3    0    0 -0.13226540422E+01  0.25789821633E+02 -0.96421205624E+01  0.27565101175E+02  0.51100000000E-03 0.  1.
         12    1    3    3    0    0  0.61789018883E+01  0.58604618505E+01 -0.15350418343E+02  0.17554463391E+02  0.00000000000E+00 0. -1.
</event>
<event>
 7    1  0.5755468E-013  0.5930200E+02  0.7816164E-02  0.1266605E+00
        -11   -1    0    0    0    0  0.00000000000E+00  0.00000000000E+00  0.45593999997E+02  0.45594000000E+02  0.51100000000E-03 0.  1.
         11   -1    0    0    0    0 -0.00000000000E+00 -0.00000000000E+00 -0.45593999997E+02  0.45594000000E+02  0.51100000000E-03 0. -1.
    9900012    2    1    2    0    0 -0.25018100984E+02  0.86162890221E+01  0.17792442786E+02  0.59302002546E+02  0.50000106722E+02 0.  0.
        -12    1    1    2    0    0  0.25018100984E+02 -0.86162890221E+01 -0.17792442786E+02  0.31885997454E+02  0.00000000000E+00 0.  1.
         11    1    3    3    0    0 -0.60136981291E+01  0.72627900445E+01 -0.10686425216E+02  0.14251749667E+02  0.51100000000E-03 0. -1.
        -11    1    3    3    0    0  0.15675490001E+00  0.50372442074E+01  0.24657845450E+02  0.25167593127E+02  0.51100000000E-03 0.  1.
        -12    1    3    3    0    0 -0.19161157755E+02 -0.36837452298E+01  0.38210225522E+01  0.19882659751E+02  0.00000000000E+00 0.  1.
</event>
<event>
 7    1  0.5755468E-013  0.5930190E+02  0.7816164E-02  0.1266605E+00
        -11   -1    0    0    0    0  0.00000000000E+00  0.00000000000E+00  0.45593999997E+02  0.45594000000E+02  0.51100000000E-03 0. -1.
         11   -1    0    0    0    0 -0.00000000000E+00 -0.00000000000E+00 -0.45593999997E+02  0.45594000000E+02  0.51100000000E-03 0.  1.
    9900012    2    1    2    0    0  0.12078955955E+02  0.11949189300E+02  0.26982204341E+02  0.59301895613E+02  0.49999911703E+02 0.  0.
        -12    1    1    2    0    0 -0.12078955955E+02 -0.11949189300E+02 -0.26982204341E+02  0.31886104387E+02  0.00000000000E+00 0.  1.
         11    1    3    3    0    0  0.10726928247E+02 -0.79596245299E+01  0.79290196646E+01  0.15533575421E+02  0.51100000000E-03 0. -1.
        -11    1    3    3    0    0 -0.11401149497E+02  0.15094426647E+02  0.22805466944E+02  0.29629668382E+02  0.51100000000E-03 0.  1.
        -12    1    3    3    0    0  0.12753177205E+02  0.48143871828E+01 -0.37522822674E+01  0.14138651809E+02  0.00000000000E+00 0.  1.
</event>
<event>
 7    1  0.5755468E-013  0.5930196E+02  0.7816164E-02  0.1266605E+00
        -11   -1    0    0    0    0  0.00000000000E+00  0.00000000000E+00  0.45593999997E+02  0.45594000000E+02  0.51100000000E-03 0.  1.
         11   -1    0    0    0    0 -0.00000000000E+00 -0.00000000000E+00 -0.45593999997E+02  0.45594000000E+02  0.51100000000E-03 0. -1.
    9900012    2    1    2    0    0 -0.17881405438E+02 -0.26386978402E+02 -0.83807437659E+00  0.59301958253E+02  0.50000025943E+02 0.  0.
        -12    1    1    2    0    0  0.17881405438E+02  0.26386978402E+02  0.83807437659E+00  0.31886041747E+02  0.00000000000E+00 0.  1.
         11    1    3    3    0    0 -0.18642036872E+01 -0.16670064495E+02  0.11447547040E+02  0.20307945222E+02  0.51100000000E-03 0. -1.
        -11    1    3    3    0    0 -0.25345728744E+02 -0.99738011408E+01 -0.64608262679E+01  0.27993301897E+02  0.51100000000E-03 0.  1.
        -12    1    3    3    0    0  0.93285269939E+01  0.25688723386E+00 -0.58247951482E+01  0.11000711134E+02  0.00000000000E+00 0.  1.
</event>
<event>
 7    1  0.5755468E-013  0.5930192E+02  0.7816164E-02  0.1266605E+00
        -11   -1    0    0    0    0  0.00000000000E+00  0.00000000000E+00  0.45593999997E+02  0.45594000000E+02  0.51100000000E-03 0. -1.
         11   -1    0    0    0    0 -0.00000000000E+00 -0.00000000000E+00 -0.45593999997E+02  0.45594000000E+02  0.51100000000E-03 0.  1.
    9900012    2    1    2    0    0 -0.44413326626E+01 -0.24299917622E+02 -0.20162104577E+02  0.59301923208E+02  0.49999962029E+02 0.  0.
        -12    1    1    2    0    0  0.44413326626E+01  0.24299917622E+02  0.20162104577E+02  0.31886076792E+02  0.00000000000E+00 0.  1.
         11    1    3    3    0    0  0.18884900665E+02 -0.17727016313E+02 -0.22314628952E+02  0.34188144817E+02  0.51100000000E-03 0.  1.
        -11    1    3    3    0    0 -0.16783999606E+02 -0.40814959564E+01 -0.12731400655E+01  0.17319992434E+02  0.51100000000E-03 0. -1.
        -12    1    3    3    0    0 -0.65422337210E+01 -0.24914053521E+01  0.34256644405E+01  0.77937859573E+01  0.00000000000E+00 0.  1.
</event>
<event>
 7    1  0.5755468E-013  0.5930190E+02  0.7816164E-02  0.1266605E+00
        -11   -1    0    0    0    0  0.00000000000E+00  0.00000000000E+00  0.45593999997E+02  0.45594000000E+02  0.51100000000E-03 0.  1.
         11   -1    0    0    0    0 -0.00000000000E+00 -0.00000000000E+00 -0.45593999997E+02  0.45594000000E+02  0.51100000000E-03 0. -1.
    9900012    2    1    2    0    0 -0.96316253009E+01 -0.22365039643E+02 -0.20585441677E+02  0.59301896237E+02  0.49999912841E+02 0.  0.
        -12    1    1    2    0    0  0.96316253009E+01  0.22365039643E+02  0.20585441677E+02  0.31886103763E+02  0.00000000000E+00 0.  1.
         11    1    3    3    0    0  0.11021851253E+02  0.10666256890E+02 -0.21696289621E+01  0.15490562649E+02  0.51100000000E-03 0. -1.
        -11    1    3    3    0    0 -0.10221198392E+02 -0.19994240438E+02 -0.14274025035E+02  0.26608087835E+02  0.51100000000E-03 0.  1.
         12    1    3    3    0    0 -0.10432278162E+02 -0.13037056095E+02 -0.41417876801E+01  0.17203245753E+02  0.00000000000E+00 0. -1.
</event>
<event>
 7    1  0.5755468E-013  0.5930195E+02  0.7816164E-02  0.1266605E+00
        -11   -1    0    0    0    0  0.00000000000E+00  0.00000000000E+00  0.45593999997E+02  0.45594000000E+02  0.51100000000E-03 0. -1.
         11   -1    0    0    0    0 -0.00000000000E+00 -0.00000000000E+00 -0.45593999997E+02  0.45594000000E+02  0.51100000000E-03 0.  1.
    9900012    2    1    2    0    0  0.90532035724E+01  0.26998776487E+02  0.14346633912E+02  0.59301947700E+02  0.50000006697E+02 0.  0.
        -12    1    1    2    0    0 -0.90532035724E+01 -0.26998776487E+02 -0.14346633912E+02  0.31886052300E+02  0.00000000000E+00 0.  1.
         11    1    3    3    0    0  0.21435187870E+02  0.22510981113E+02  0.10938027077E+02  0.32952268303E+02  0.51100000000E-03 0. -1.
        -11    1    3    3    0    0 -0.16538152689E+02  0.92395232445E+01  0.54541897935E+01  0.19713636669E+02  0.51100000000E-03 0.  1.
         12    1    3    3    0    0  0.41561683912E+01 -0.47517278708E+01 -0.20455829587E+01  0.66360427285E+01  0.00000000000E+00 0. -1.
</event>
<event>
 7    1  0.5755468E-013  0.5930193E+02  0.7816164E-02  0.1266605E+00
        -11   -1    0    0    0    0  0.00000000000E+00  0.00000000000E+00  0.45593999997E+02  0.45594000000E+02  0.51100000000E-03 0.  1.
         11   -1    0    0    0    0 -0.00000000000E+00 -0.00000000000E+00 -0.45593999997E+02  0.45594000000E+02  0.51100000000E-03 0. -1.
    9900012    2    1    2    0    0 -0.68752110020E+01  0.15761017480E+02 -0.26852253796E+02  0.59301925731E+02  0.49999966632E+02 0.  0.
        -12    1    1    2    0    0  0.68752110020E+01 -0.15761017480E+02  0.26852253796E+02  0.31886074269E+02  0.00000000000E+00 0.  1.
         11    1    3    3    0    0  0.18098961072E+02  0.58990999042E+01 -0.22888345620E+02  0.29769920004E+02  0.51100000000E-03 0. -1.
        -11    1    3    3    0    0 -0.15119215089E+02  0.11328094250E+02 -0.23512446251E+00  0.18893693870E+02  0.51100000000E-03 0.  1.
         12    1    3    3    0    0 -0.98549569842E+01 -0.14661766744E+01 -0.37287837134E+01  0.10638311858E+02  0.00000000000E+00 0. -1.
</event>
<event>
 7    1  0.7836207E-013  0.5930179E+02  0.7816164E-02  0.1266605E+00
        -11   -1    0    0    0    0  0.00000000000E+00  0.00000000000E+00  0.45593999997E+02  0.45594000000E+02  0.51100000000E-03 0.  1.
         11   -1    0    0    0    0 -0.00000000000E+00 -0.00000000000E+00 -0.45593999997E+02  0.45594000000E+02  0.51100000000E-03 0. -1.
    9900012    2    1    2    0    0 -0.17468195697E+02 -0.93873341197E+00 -0.26659170286E+02  0.59301789161E+02  0.49999717559E+02 0.  0.
        -12    1    1    2    0    0  0.17468195697E+02  0.93873341197E+00  0.26659170286E+02  0.31886210839E+02  0.00000000000E+00 0.  1.
         11    1    3    3    0    0 -0.25470561694E+02 -0.50005955864E+01 -0.29350353598E+02  0.39181612088E+02  0.51100000000E-03 0. -1.
        -11    1    3    3    0    0  0.35142346640E+00 -0.92605502230E+00  0.89779100865E+01  0.90323831927E+01  0.51100000000E-03 0.  1.
         12    1    3    3    0    0  0.76509425314E+01  0.49879171968E+01 -0.62867267750E+01  0.11087793880E+02  0.00000000000E+00 0. -1.
</event>
<event>
 7    1  0.5755468E-013  0.5930197E+02  0.7816164E-02  0.1266605E+00
        -11   -1    0    0    0    0  0.00000000000E+00  0.00000000000E+00  0.45593999997E+02  0.45594000000E+02  0.51100000000E-03 0.  1.
         11   -1    0    0    0    0 -0.00000000000E+00 -0.00000000000E+00 -0.45593999997E+02  0.45594000000E+02  0.51100000000E-03 0. -1.
    9900012    2    1    2    0    0 -0.27515554102E+02  0.14082210088E+02  0.78297386539E+01  0.59301965974E+02  0.50000040025E+02 0.  0.
        -12    1    1    2    0    0  0.27515554102E+02 -0.14082210088E+02 -0.78297386539E+01  0.31886034026E+02  0.00000000000E+00 0.  1.
         11    1    3    3    0    0 -0.13696023159E+02  0.63671106087E+01 -0.70790677211E-01  0.15103845850E+02  0.51100000000E-03 0. -1.
        -11    1    3    3    0    0  0.13905372387E+02 -0.21234587096E+01  0.24251998018E+01  0.14274104261E+02  0.51100000000E-03 0.  1.
        -12    1    3    3    0    0 -0.27724903331E+02  0.98385581886E+01  0.54753295293E+01  0.29924015863E+02  0.00000000000E+00 0.  1.
</event>
<event>
 7    1  0.5755468E-013  0.5930194E+02  0.7816164E-02  0.1266605E+00
        -11   -1    0    0    0    0  0.00000000000E+00  0.00000000000E+00  0.45593999997E+02  0.45594000000E+02  0.51100000000E-03 0. -1.
         11   -1    0    0    0    0 -0.00000000000E+00 -0.00000000000E+00 -0.45593999997E+02  0.45594000000E+02  0.51100000000E-03 0.  1.
    9900012    2    1    2    0    0 -0.14628539251E+02  0.39904292334E+01  0.28050014109E+02  0.59301937565E+02  0.49999988213E+02 0.  0.
        -12    1    1    2    0    0  0.14628539251E+02 -0.39904292334E+01 -0.28050014109E+02  0.31886062435E+02  0.00000000000E+00 0.  1.
         11    1    3    3    0    0  0.12408077272E+02  0.29777254556E+01  0.23761124728E+02  0.26970692967E+02  0.51100000000E-03 0. -1.
        -11    1    3    3    0    0 -0.58670016483E+01 -0.71800753704E+01  0.22420560517E+01  0.95394971704E+01  0.51100000000E-03 0.  1.
         12    1    3    3    0    0 -0.21169614875E+02  0.81927791481E+01  0.20468333292E+01  0.22791747428E+02  0.00000000000E+00 0. -1.
</event>
<event>
 7    1  0.5755468E-013  0.5930194E+02  0.7816164E-02  0.1266605E+00
        -11   -1    0    0    0    0  0.00000000000E+00  0.00000000000E+00  0.45593999997E+02  0.45594000000E+02  0.51100000000E-03 0.  1.
         11   -1    0    0    0    0 -0.00000000000E+00 -0.00000000000E+00 -0.45593999997E+02  0.45594000000E+02  0.51100000000E-03 0. -1.
    9900012    2    1    2    0    0  0.33354713491E+01 -0.21160054988E+02 -0.23618791011E+02  0.59301943721E+02  0.49999999440E+02 0.  0.
        -12    1    1    2    0    0 -0.33354713491E+01  0.21160054988E+02  0.23618791011E+02  0.31886056279E+02  0.00000000000E+00 0.  1.
         11    1    3    3    0    0  0.14082547558E+02  0.43479071922E+01 -0.96891818707E+01  0.17638103307E+02  0.51100000000E-03 0. -1.
        -11    1    3    3    0    0 -0.18869033967E+02 -0.12615352962E+02 -0.13522941300E+02  0.26420778090E+02  0.51100000000E-03 0.  1.
        -12    1    3    3    0    0  0.81219577587E+01 -0.12892609218E+02 -0.40666784038E+00  0.15243062324E+02  0.00000000000E+00 0.  1.
</event>
<event>
 7    1  0.5755468E-013  0.5930198E+02  0.7816164E-02  0.1266605E+00
        -11   -1    0    0    0    0  0.00000000000E+00  0.00000000000E+00  0.45593999997E+02  0.45594000000E+02  0.51100000000E-03 0.  1.
         11   -1    0    0    0    0 -0.00000000000E+00 -0.00000000000E+00 -0.45593999997E+02  0.45594000000E+02  0.51100000000E-03 0. -1.
    9900012    2    1    2    0    0  0.38056110542E+01  0.26300497605E+02 -0.17621562552E+02  0.59301979292E+02  0.50000064314E+02 0.  0.
        -12    1    1    2    0    0 -0.38056110542E+01 -0.26300497605E+02  0.17621562552E+02  0.31886020708E+02  0.00000000000E+00 0.  1.
         11    1    3    3    0    0 -0.15675669577E+01 -0.49109071308E+01 -0.19458111929E+02  0.20129391325E+02  0.51100000000E-03 0. -1.
        -11    1    3    3    0    0 -0.59886583729E+01  0.19994754911E+02  0.75787038488E+01  0.22205652554E+02  0.51100000000E-03 0.  1.
        -12    1    3    3    0    0  0.11361836385E+02  0.11216649825E+02 -0.57421544713E+01  0.16966935413E+02  0.00000000000E+00 0.  1.
</event>
<event>
 7    1  0.5755468E-013  0.5930193E+02  0.7816164E-02  0.1266605E+00
        -11   -1    0    0    0    0  0.00000000000E+00  0.00000000000E+00  0.45593999997E+02  0.45594000000E+02  0.51100000000E-03 0.  1.
         11   -1    0    0    0    0 -0.00000000000E+00 -0.00000000000E+00 -0.45593999997E+02  0.45594000000E+02  0.51100000000E-03 0. -1.
    9900012    2    1    2    0    0  0.18684568435E+01  0.36267706444E+00 -0.31829213270E+02  0.59301929639E+02  0.49999973759E+02 0.  0.
        -12    1    1    2    0    0 -0.18684568435E+01 -0.36267706444E+00  0.31829213270E+02  0.31886070361E+02  0.00000000000E+00 0.  1.
         11    1    3    3    0    0 -0.51872466198E+01 -0.85046413439E+01  0.46730612788E+00  0.99727041047E+01  0.51100000000E-03 0.  1.
        -11    1    3    3    0    0  0.59134036451E+01  0.20088894674E+02 -0.31752928601E+02  0.38036568022E+02  0.51100000000E-03 0. -1.
         12    1    3    3    0    0  0.11422998182E+01 -0.11221576265E+02 -0.54359079763E+00  0.11292657513E+02  0.00000000000E+00 0. -1.
</event>
<event>
 7    1  0.5755468E-013  0.5930197E+02  0.7816164E-02  0.1266605E+00
        -11   -1    0    0    0    0  0.00000000000E+00  0.00000000000E+00  0.45593999997E+02  0.45594000000E+02  0.51100000000E-03 0. -1.
         11   -1    0    0    0    0 -0.00000000000E+00 -0.00000000000E+00 -0.45593999997E+02  0.45594000000E+02  0.51100000000E-03 0.  1.
    9900012    2    1    2    0    0 -0.14798165253E+02 -0.27324927951E+02  0.71471277122E+01  0.59301971446E+02  0.50000050004E+02 0.  0.
        -12    1    1    2    0    0  0.14798165253E+02  0.27324927951E+02 -0.71471277122E+01  0.31886028554E+02  0.00000000000E+00 0.  1.
         11    1    3    3    0    0 -0.22636333182E+02 -0.20230404424E+02  0.12471722568E+02  0.32820979680E+02  0.51100000000E-03 0. -1.
        -11    1    3    3    0    0 -0.38677699759E+01 -0.66212338861E+01 -0.11043095288E+02  0.13444342177E+02  0.51100000000E-03 0.  1.
         12    1    3    3    0    0  0.11705937905E+02 -0.47328964141E+00  0.57185004320E+01  0.13036649589E+02  0.00000000000E+00 0. -1.
</event>
<event>
 7    1  0.5755468E-013  0.5930200E+02  0.7816164E-02  0.1266605E+00
        -11   -1    0    0    0    0  0.00000000000E+00  0.00000000000E+00  0.45593999997E+02  0.45594000000E+02  0.51100000000E-03 0. -1.
         11   -1    0    0    0    0 -0.00000000000E+00 -0.00000000000E+00 -0.45593999997E+02  0.45594000000E+02  0.51100000000E-03 0.  1.
    9900012    2    1    2    0    0  0.97486953679E+01  0.80185150071E+01  0.29281111010E+02  0.59301998271E+02  0.50000098927E+02 0.  0.
        -12    1    1    2    0    0 -0.97486953679E+01 -0.80185150071E+01 -0.29281111010E+02  0.31886001729E+02  0.00000000000E+00 0.  1.
         11    1    3    3    0    0 -0.13918883225E+02  0.14179356378E+02  0.26899018022E+02  0.33441689974E+02  0.51100000000E-03 0. -1.
        -11    1    3    3    0    0  0.13611757135E+02 -0.62548390461E+01 -0.15555068355E+01  0.15060628990E+02  0.51100000000E-03 0.  1.
         12    1    3    3    0    0  0.10055821458E+02  0.93997675733E-01  0.39375998229E+01  0.10799679306E+02  0.00000000000E+00 0. -1.
</event>
<event>
 7    1  0.5755468E-013  0.5930201E+02  0.7816164E-02  0.1266605E+00
        -11   -1    0    0    0    0  0.00000000000E+00  0.00000000000E+00  0.45593999997E+02  0.45594000000E+02  0.51100000000E-03 0.  1.
         11   -1    0    0    0    0 -0.00000000000E+00 -0.00000000000E+00 -0.45593999997E+02  0.45594000000E+02  0.51100000000E-03 0. -1.
    9900012    2    1    2    0    0 -0.23277428113E+02  0.20273089597E+02 -0.79924526218E+01  0.59302013733E+02  0.50000127125E+02 0.  0.
        -12    1    1    2    0    0  0.23277428113E+02 -0.20273089597E+02  0.79924526218E+01  0.31885986267E+02  0.00000000000E+00 0.  1.
         11    1    3    3    0    0  0.38121702303E+01  0.14879341331E+02 -0.52410987489E+01  0.16229496500E+02  0.51100000000E-03 0. -1.
        -11    1    3    3    0    0 -0.10287868669E+00 -0.11251687796E+02 -0.74412445104E-01  0.11252404176E+02  0.51100000000E-03 0.  1.
        -12    1    3    3    0    0 -0.26986719656E+02  0.16645436062E+02 -0.26769414278E+01  0.31820113056E+02  0.00000000000E+00 0.  1.
</event>
<event>
 7    1  0.5755468E-013  0.5930194E+02  0.7816164E-02  0.1266605E+00
        -11   -1    0    0    0    0  0.00000000000E+00  0.00000000000E+00  0.45593999997E+02  0.45594000000E+02  0.51100000000E-03 0.  1.
         11   -1    0    0    0    0 -0.00000000000E+00 -0.00000000000E+00 -0.45593999997E+02  0.45594000000E+02  0.51100000000E-03 0. -1.
    9900012    2    1    2    0    0 -0.70226763231E+01  0.10821421417E+02 -0.29159898630E+02  0.59301939843E+02  0.49999992368E+02 0.  0.
        -12    1    1    2    0    0  0.70226763231E+01 -0.10821421417E+02  0.29159898630E+02  0.31886060157E+02  0.00000000000E+00 0.  1.
         11    1    3    3    0    0 -0.98857906944E+01  0.50635630067E+01 -0.11070447385E+02  0.15681942914E+02  0.51100000000E-03 0. -1.
        -11    1    3    3    0    0  0.17266971372E+02 -0.84482594571E+01 -0.64297309739E+01  0.20269751574E+02  0.51100000000E-03 0.  1.
        -12    1    3    3    0    0 -0.14403857001E+02  0.14206117868E+02 -0.11659720271E+02  0.23350245355E+02  0.00000000000E+00 0.  1.
</event>
<event>
 7    1  0.5755468E-013  0.5930196E+02  0.7816164E-02  0.1266605E+00
        -11   -1    0    0    0    0  0.00000000000E+00  0.00000000000E+00  0.45593999997E+02  0.45594000000E+02  0.51100000000E-03 0. -1.
         11   -1    0    0    0    0 -0.00000000000E+00 -0.00000000000E+00 -0.45593999997E+02  0.45594000000E+02  0.51100000000E-03 0.  1.
    9900012    2    1    2    0    0 -0.58167606978E+01  0.11671917963E+02  0.29097273905E+02  0.59301957244E+02  0.50000024103E+02 0.  0.
        -12    1    1    2    0    0  0.58167606978E+01 -0.11671917963E+02 -0.29097273905E+02  0.31886042756E+02  0.00000000000E+00 0.  1.
         11    1    3    3    0    0 -0.10404074137E+02 -0.15380596229E+02  0.47027751451E+01  0.19155249759E+02  0.51100000000E-03 0. -1.
        -11    1    3    3    0    0  0.90004284352E+01  0.22519518474E+02  0.14068348602E+02  0.28036669862E+02  0.51100000000E-03 0.  1.
         12    1    3    3    0    0 -0.44131149958E+01  0.45329957175E+01  0.10326150158E+02  0.12110037623E+02  0.00000000000E+00 0. -1.
</event>
<event>
 7    1  0.5755468E-013  0.5930195E+02  0.7816164E-02  0.1266605E+00
        -11   -1    0    0    0    0  0.00000000000E+00  0.00000000000E+00  0.45593999997E+02  0.45594000000E+02  0.51100000000E-03 0.  1.
         11   -1    0    0    0    0 -0.00000000000E+00 -0.00000000000E+00 -0.45593999997E+02  0.45594000000E+02  0.51100000000E-03 0. -1.
    9900012    2    1    2    0    0 -0.28470167384E+02  0.12923388780E+02 -0.62574508575E+01  0.59301951332E+02  0.50000013322E+02 0.  0.
        -12    1    1    2    0    0  0.28470167384E+02 -0.12923388780E+02  0.62574508575E+01  0.31886048668E+02  0.00000000000E+00 0.  1.
         11    1    3    3    0    0 -0.10106486832E+02  0.25091355042E+02 -0.14958049979E+02  0.30910523020E+02  0.51100000000E-03 0. -1.
        -11    1    3    3    0    0  0.22252002026E+01 -0.19064692838E+01 -0.14236771334E+01  0.32577596463E+01  0.51100000000E-03 0.  1.
         12    1    3    3    0    0 -0.20588880754E+02 -0.10261496978E+02  0.10124276255E+02  0.25133668666E+02  0.00000000000E+00 0. -1.
</event>
<event>
 7    1  0.5755468E-013  0.5930193E+02  0.7816164E-02  0.1266605E+00
        -11   -1    0    0    0    0  0.00000000000E+00  0.00000000000E+00  0.45593999997E+02  0.45594000000E+02  0.51100000000E-03 0. -1.
         11   -1    0    0    0    0 -0.00000000000E+00 -0.00000000000E+00 -0.45593999997E+02  0.45594000000E+02  0.51100000000E-03 0.  1.
    9900012    2    1    2    0    0 -0.20554750736E+02 -0.22958386530E+02  0.81936651177E+01  0.59301930347E+02  0.49999975049E+02 0.  0.
        -12    1    1    2    0    0  0.20554750736E+02  0.22958386530E+02 -0.81936651177E+01  0.31886069653E+02  0.00000000000E+00 0.  1.
         11    1    3    3    0    0 -0.17556316558E+02 -0.75795882359E+01 -0.59298119287E+01  0.20020916030E+02  0.51100000000E-03 0.  1.
        -11    1    3    3    0    0  0.78808471634E+01  0.75630107518E+01  0.67550457868E+01  0.12842800609E+02  0.51100000000E-03 0. -1.
        -12    1    3    3    0    0 -0.10879281341E+02 -0.22941809046E+02  0.73684312596E+01  0.26438213707E+02  0.00000000000E+00 0.  1.
</event>
<event>
 7    1  0.5755468E-013  0.5930196E+02  0.7816164E-02  0.1266605E+00
        -11   -1    0    0    0    0  0.00000000000E+00  0.00000000000E+00  0.45593999997E+02  0.45594000000E+02  0.51100000000E-03 0.  1.
         11   -1    0    0    0    0 -0.00000000000E+00 -0.00000000000E+00 -0.45593999997E+02  0.45594000000E+02  0.51100000000E-03 0. -1.
    9900012    2    1    2    0    0  0.14179622791E+02 -0.24296802339E+02 -0.15010766455E+02  0.59301962053E+02  0.50000032873E+02 0.  0.
        -12    1    1    2    0    0 -0.14179622791E+02  0.24296802339E+02  0.15010766455E+02  0.31886037947E+02  0.00000000000E+00 0.  1.
         11    1    3    3    0    0  0.40500354853E+01  0.20829594403E+00 -0.11900152958E+02  0.12572184190E+02  0.51100000000E-03 0. -1.
        -11    1    3    3    0    0  0.97116263942E+00 -0.27588648279E+02  0.10925176811E+02  0.29688990541E+02  0.51100000000E-03 0.  1.
        -12    1    3    3    0    0  0.91584246666E+01  0.30835499959E+01 -0.14035790309E+02  0.17040787322E+02  0.00000000000E+00 0.  1.
</event>
<event>
 7    1  0.5755468E-013  0.5930196E+02  0.7816164E-02  0.1266605E+00
        -11   -1    0    0    0    0  0.00000000000E+00  0.00000000000E+00  0.45593999997E+02  0.45594000000E+02  0.51100000000E-03 0.  1.
         11   -1    0    0    0    0 -0.00000000000E+00 -0.00000000000E+00 -0.45593999997E+02  0.45594000000E+02  0.51100000000E-03 0. -1.
    9900012    2    1    2    0    0  0.26738238212E+02  0.17371763724E+02  0.89121873880E-01  0.59301960731E+02  0.50000030462E+02 0.  0.
        -12    1    1    2    0    0 -0.26738238212E+02 -0.17371763724E+02 -0.89121873880E-01  0.31886039269E+02  0.00000000000E+00 0.  1.
         11    1    3    3    0    0  0.80628435549E+01  0.17046944618E+01 -0.10081689108E+02  0.13021362637E+02  0.51100000000E-03 0. -1.
        -11    1    3    3    0    0 -0.83211067801E+01  0.63636373004E+01  0.13984000348E+02  0.17472520246E+02  0.51100000000E-03 0.  1.
        -12    1    3    3    0    0  0.26996501438E+02  0.93034319617E+01 -0.38131893664E+01  0.28808077848E+02  0.00000000000E+00 0.  1.
</event>
<event>
 7    1  0.5755468E-013  0.5930197E+02  0.7816164E-02  0.1266605E+00
        -11   -1    0    0    0    0  0.00000000000E+00  0.00000000000E+00  0.45593999997E+02  0.45594000000E+02  0.51100000000E-03 0.  1.
         11   -1    0    0    0    0 -0.00000000000E+00 -0.00000000000E+00 -0.45593999997E+02  0.45594000000E+02  0.51100000000E-03 0. -1.
    9900012    2    1    2    0    0  0.25953108914E+02 -0.16938067529E+02 -0.75004412013E+01  0.59301974658E+02  0.50000055861E+02 0.  0.
        -12    1    1    2    0    0 -0.25953108914E+02  0.16938067529E+02  0.75004412013E+01  0.31886025342E+02  0.00000000000E+00 0.  1.
         11    1    3    3    0    0  0.27061253330E+02 -0.14356620019E+02 -0.19894497193E+02  0.36526907739E+02  0.51100000000E-03 0. -1.
        -11    1    3    3    0    0 -0.14015877430E+01 -0.10019248221E+02  0.25493763008E+01  0.10433077346E+02  0.51100000000E-03 0.  1.
         12    1    3    3    0    0  0.29344332767E+00  0.74378007111E+01  0.98446796909E+01  0.12341989573E+02  0.00000000000E+00 0. -1.
</event>
<event>
 7    1  0.5755468E-013  0.5930200E+02  0.7816164E-02  0.1266605E+00
        -11   -1    0    0    0    0  0.00000000000E+00  0.00000000000E+00  0.45593999997E+02  0.45594000000E+02  0.51100000000E-03 0. -1.
         11   -1    0    0    0    0 -0.00000000000E+00 -0.00000000000E+00 -0.45593999997E+02  0.45594000000E+02  0.51100000000E-03 0.  1.
    9900012    2    1    2    0    0 -0.13712405564E+02 -0.10441174422E+02  0.26826648270E+02  0.59301996063E+02  0.50000094899E+02 0.  0.
        -12    1    1    2    0    0  0.13712405564E+02  0.10441174422E+02 -0.26826648270E+02  0.31886003937E+02  0.00000000000E+00 0.  1.
         11    1    3    3    0    0  0.14357147323E+01  0.64295631000E+01 -0.96152749021E+01  0.11655645420E+02  0.51100000000E-03 0.  1.
        -11    1    3    3    0    0  0.73408172824E+00 -0.99234530539E+01  0.24915116579E+02  0.26828656897E+02  0.51100000000E-03 0. -1.
        -12    1    3    3    0    0 -0.15882202025E+02 -0.69472844683E+01  0.11526806593E+02  0.20817693745E+02  0.00000000000E+00 0.  1.
</event>
<event>
 7    1  0.5755468E-013  0.5930194E+02  0.7816164E-02  0.1266605E+00
        -11   -1    0    0    0    0  0.00000000000E+00  0.00000000000E+00  0.45593999997E+02  0.45594000000E+02  0.51100000000E-03 0. -1.
         11   -1    0    0    0    0 -0.00000000000E+00 -0.00000000000E+00 -0.45593999997E+02  0.45594000000E+02  0.51100000000E-03 0.  1.
    9900012    2    1    2    0    0  0.31799653845E+02  0.22776748186E+01  0.56119113647E+00  0.59301941562E+02  0.49999995503E+02 0.  0.
        -12    1    1    2    0    0 -0.31799653845E+02 -0.22776748186E+01 -0.56119113647E+00  0.31886058438E+02  0.00000000000E+00 0.  1.
         11    1    3    3    0    0  0.25177607162E+02  0.10696320413E+02 -0.98332408036E+01  0.29069155436E+02  0.51100000000E-03 0. -1.
        -11    1    3    3    0    0 -0.95799820920E+01 -0.15991851187E+01 -0.18832599809E+00  0.97143665192E+01  0.51100000000E-03 0.  1.
        -12    1    3    3    0    0  0.16202028774E+02 -0.68194604759E+01  0.10582757938E+02  0.20518419607E+02  0.00000000000E+00 0.  1.
</event>
<event>
 7    1  0.5755468E-013  0.5930194E+02  0.7816164E-02  0.1266605E+00
        -11   -1    0    0    0    0  0.00000000000E+00  0.00000000000E+00  0.45593999997E+02  0.45594000000E+02  0.51100000000E-03 0.  1.
         11   -1    0    0    0    0 -0.00000000000E+00 -0.00000000000E+00 -0.45593999997E+02  0.45594000000E+02  0.51100000000E-03 0. -1.
    9900012    2    1    2    0    0  0.16880144141E+02  0.26807128546E+02  0.36275751025E+01  0.59301941789E+02  0.49999995917E+02 0.  0.
        -12    1    1    2    0    0 -0.16880144141E+02 -0.26807128546E+02 -0.36275751025E+01  0.31886058211E+02  0.00000000000E+00 0.  1.
         11    1    3    3    0    0  0.17322933597E+02  0.28124938410E+02 -0.12283168503E+02  0.35241629044E+02  0.51100000000E-03 0. -1.
        -11    1    3    3    0    0  0.13799089228E+01 -0.80340916509E+01  0.18313737842E+01  0.83549211540E+01  0.51100000000E-03 0.  1.
        -12    1    3    3    0    0 -0.18226983789E+01  0.67162817879E+01  0.14079369822E+02  0.15705391591E+02  0.00000000000E+00 0.  1.
</event>
<event>
 7    1  0.5755468E-013  0.5930194E+02  0.7816164E-02  0.1266605E+00
        -11   -1    0    0    0    0  0.00000000000E+00  0.00000000000E+00  0.45593999997E+02  0.45594000000E+02  0.51100000000E-03 0.  1.
         11   -1    0    0    0    0 -0.00000000000E+00 -0.00000000000E+00 -0.45593999997E+02  0.45594000000E+02  0.51100000000E-03 0. -1.
    9900012    2    1    2    0    0 -0.35836810105E+01 -0.31566030577E+02 -0.27320112042E+01  0.59301938136E+02  0.49999989254E+02 0.  0.
        -12    1    1    2    0    0  0.35836810105E+01  0.31566030577E+02  0.27320112042E+01  0.31886061864E+02  0.00000000000E+00 0.  1.
         11    1    3    3    0    0 -0.80062150002E+01 -0.45441459553E+01 -0.42882931220E+01  0.10155697871E+02  0.51100000000E-03 0. -1.
        -11    1    3    3    0    0  0.76541845963E+01 -0.84782458550E+01  0.19847606854E+02  0.22899665777E+02  0.51100000000E-03 0.  1.
        -12    1    3    3    0    0 -0.32316506066E+01 -0.18543638767E+02 -0.18291324937E+02  0.26246574487E+02  0.00000000000E+00 0.  1.
</event>
<event>
 7    1  0.5755468E-013  0.5930197E+02  0.7816164E-02  0.1266605E+00
        -11   -1    0    0    0    0  0.00000000000E+00  0.00000000000E+00  0.45593999997E+02  0.45594000000E+02  0.51100000000E-03 0. -1.
         11   -1    0    0    0    0 -0.00000000000E+00 -0.00000000000E+00 -0.45593999997E+02  0.45594000000E+02  0.51100000000E-03 0.  1.
    9900012    2    1    2    0    0 -0.22352036073E+02 -0.22976683420E+01  0.22623573910E+02  0.59301970255E+02  0.50000047833E+02 0.  0.
        -12    1    1    2    0    0  0.22352036073E+02  0.22976683420E+01 -0.22623573910E+02  0.31886029745E+02  0.00000000000E+00 0.  1.
         11    1    3    3    0    0 -0.62953395798E+01 -0.86517518828E+01  0.28688407324E+02  0.30618765914E+02  0.51100000000E-03 0. -1.
        -11    1    3    3    0    0  0.42185229895E+01  0.63168569238E+01 -0.28960974753E+00  0.76014795715E+01  0.51100000000E-03 0.  1.
         12    1    3    3    0    0 -0.20275219482E+02  0.37226617077E-01 -0.57752236658E+01  0.21081724770E+02  0.00000000000E+00 0. -1.
</event>
<event>
 7    1  0.5755468E-013  0.5930196E+02  0.7816164E-02  0.1266605E+00
        -11   -1    0    0    0    0  0.00000000000E+00  0.00000000000E+00  0.45593999997E+02  0.45594000000E+02  0.51100000000E-03 0.  1.
         11   -1    0    0    0    0 -0.00000000000E+00 -0.00000000000E+00 -0.45593999997E+02  0.45594000000E+02  0.51100000000E-03 0. -1.
    9900012    2    1    2    0    0  0.31708724489E+01  0.23480639633E+02 -0.21338337904E+02  0.59301960200E+02  0.50000029494E+02 0.  0.
        -12    1    1    2    0    0 -0.31708724489E+01 -0.23480639633E+02  0.21338337904E+02  0.31886039800E+02  0.00000000000E+00 0.  1.
         11    1    3    3    0    0 -0.92399965087E+01 -0.63473669161E+01  0.71605241729E+00  0.11232957472E+02  0.51100000000E-03 0.  1.
        -11    1    3    3    0    0  0.17980429597E+02  0.12452250231E+02 -0.36888758303E+01  0.22180220681E+02  0.51100000000E-03 0. -1.
         12    1    3    3    0    0 -0.55695606394E+01  0.17375756318E+02 -0.18365514491E+02  0.25888782046E+02  0.00000000000E+00 0. -1.
</event>
<event>
 7    1  0.6387896E-013  0.5930197E+02  0.7816164E-02  0.1266605E+00
        -11   -1    0    0    0    0  0.00000000000E+00  0.00000000000E+00  0.45593999997E+02  0.45594000000E+02  0.51100000000E-03 0.  1.
         11   -1    0    0    0    0 -0.00000000000E+00 -0.00000000000E+00 -0.45593999997E+02  0.45594000000E+02  0.51100000000E-03 0. -1.
    9900012    2    1    2    0    0 -0.59500603019E+01 -0.29823677419E+02 -0.95845819902E+01  0.59301965999E+02  0.50000040070E+02 0.  0.
        -12    1    1    2    0    0  0.59500603019E+01  0.29823677419E+02  0.95845819902E+01  0.31886034001E+02  0.00000000000E+00 0.  1.
         11    1    3    3    0    0 -0.16341636256E+02 -0.22414809675E+02 -0.18695965644E+01  0.27802304938E+02  0.51100000000E-03 0. -1.
        -11    1    3    3    0    0  0.11558296645E+02 -0.30160475797E+01  0.84992574560E+01  0.14660427753E+02  0.51100000000E-03 0.  1.
         12    1    3    3    0    0 -0.11667206906E+01 -0.43928201639E+01 -0.16214242882E+02  0.16839233308E+02  0.00000000000E+00 0. -1.
</event>
<event>
 7    1  0.5755468E-013  0.5930195E+02  0.7816164E-02  0.1266605E+00
        -11   -1    0    0    0    0  0.00000000000E+00  0.00000000000E+00  0.45593999997E+02  0.45594000000E+02  0.51100000000E-03 0.  1.
         11   -1    0    0    0    0 -0.00000000000E+00 -0.00000000000E+00 -0.45593999997E+02  0.45594000000E+02  0.51100000000E-03 0. -1.
    9900012    2    1    2    0    0  0.11316419359E+02 -0.27165645909E+02 -0.12275441345E+02  0.59301950935E+02  0.50000012598E+02 0.  0.
        -12    1    1    2    0    0 -0.11316419359E+02  0.27165645909E+02  0.12275441345E+02  0.31886049065E+02  0.00000000000E+00 0.  1.
         11    1    3    3    0    0 -0.13582054894E+02 -0.13496597571E+02 -0.18341694485E+02  0.26515054554E+02  0.51100000000E-03 0. -1.
        -11    1    3    3    0    0  0.33425760755E+00  0.15444494746E+01  0.34258246166E+01  0.37727081642E+01  0.51100000000E-03 0.  1.
         12    1    3    3    0    0  0.24564216645E+02 -0.15213497813E+02  0.26404285238E+01  0.29014188217E+02  0.00000000000E+00 0. -1.
</event>
<event>
 7    1  0.5755468E-013  0.5930197E+02  0.7816164E-02  0.1266605E+00
        -11   -1    0    0    0    0  0.00000000000E+00  0.00000000000E+00  0.45593999997E+02  0.45594000000E+02  0.51100000000E-03 0. -1.
         11   -1    0    0    0    0 -0.00000000000E+00 -0.00000000000E+00 -0.45593999997E+02  0.45594000000E+02  0.51100000000E-03 0.  1.
    9900012    2    1    2    0    0 -0.26297879596E+01 -0.22769977523E+02  0.22165996319E+02  0.59301967730E+02  0.50000043228E+02 0.  0.
        -12    1    1    2    0    0  0.26297879596E+01  0.22769977523E+02 -0.22165996319E+02  0.31886032270E+02  0.00000000000E+00 0.  1.
         11    1    3    3    0    0  0.28474708546E+01 -0.26343316160E+02  0.27772161293E+02  0.38384519532E+02  0.51100000000E-03 0. -1.
        -11    1    3    3    0    0 -0.67416518861E+01  0.10384972944E+02 -0.64847502102E+00  0.12398308486E+02  0.51100000000E-03 0.  1.
        -12    1    3    3    0    0  0.12643930719E+01 -0.68116343064E+01 -0.49576899536E+01  0.85191397124E+01  0.00000000000E+00 0.  1.
</event>
<event>
 7    1  0.5755468E-013  0.5930192E+02  0.7816164E-02  0.1266605E+00
        -11   -1    0    0    0    0  0.00000000000E+00  0.00000000000E+00  0.45593999997E+02  0.45594000000E+02  0.51100000000E-03 0.  1.
         11   -1    0    0    0    0 -0.00000000000E+00 -0.00000000000E+00 -0.45593999997E+02  0.45594000000E+02  0.51100000000E-03 0. -1.
    9900012    2    1    2    0    0  0.13581067646E+02 -0.14995911392E+02  0.24645471400E+02  0.59301921260E+02  0.49999958476E+02 0.  0.
        -12    1    1    2    0    0 -0.13581067646E+02  0.14995911392E+02 -0.24645471400E+02  0.31886078740E+02  0.00000000000E+00 0.  1.
         11    1    3    3    0    0  0.91591017011E+01 -0.84501595579E+01 -0.32363353099E+01  0.12875100272E+02  0.51100000000E-03 0. -1.
        -11    1    3    3    0    0 -0.11941275161E+02  0.81704043947E+01  0.69374264499E+01  0.16046103778E+02  0.51100000000E-03 0.  1.
        -12    1    3    3    0    0  0.16363241106E+02 -0.14716156229E+02  0.20944380260E+02  0.30380717209E+02  0.00000000000E+00 0.  1.
</event>
<event>
 7    1  0.5755468E-013  0.5930196E+02  0.7816164E-02  0.1266605E+00
        -11   -1    0    0    0    0  0.00000000000E+00  0.00000000000E+00  0.45593999997E+02  0.45594000000E+02  0.51100000000E-03 0.  1.
         11   -1    0    0    0    0 -0.00000000000E+00 -0.00000000000E+00 -0.45593999997E+02  0.45594000000E+02  0.51100000000E-03 0. -1.
    9900012    2    1    2    0    0 -0.19626753254E+02 -0.18657715719E+02  0.16834483521E+02  0.59301958625E+02  0.50000026622E+02 0.  0.
        -12    1    1    2    0    0  0.19626753254E+02  0.18657715719E+02 -0.16834483521E+02  0.31886041375E+02  0.00000000000E+00 0.  1.
         11    1    3    3    0    0 -0.13902541085E+02  0.11384226361E+02 -0.14420369685E+01  0.18026667173E+02  0.51100000000E-03 0. -1.
        -11    1    3    3    0    0 -0.11998231961E+00 -0.20292638975E+02  0.57164049237E+00  0.20301043457E+02  0.51100000000E-03 0.  1.
         12    1    3    3    0    0 -0.56042298488E+01 -0.97493031049E+01  0.17704879998E+02  0.20974247995E+02  0.00000000000E+00 0. -1.
</event>
<event>
 7    1  0.5755468E-013  0.5930193E+02  0.7816164E-02  0.1266605E+00
        -11   -1    0    0    0    0  0.00000000000E+00  0.00000000000E+00  0.45593999997E+02  0.45594000000E+02  0.51100000000E-03 0.  1.
         11   -1    0    0    0    0 -0.00000000000E+00 -0.00000000000E+00 -0.45593999997E+02  0.45594000000E+02  0.51100000000E-03 0. -1.
    9900012    2    1    2    0    0  0.22203673726E+02 -0.22472793022E+02 -0.43234413391E+01  0.59301926267E+02  0.49999967608E+02 0.  0.
        -12    1    1    2    0    0 -0.22203673726E+02  0.22472793022E+02  0.43234413391E+01  0.31886073733E+02  0.00000000000E+00 0.  1.
         11    1    3    3    0    0 -0.11800992544E+02 -0.10109226376E+02 -0.38251215660E+01  0.16002857189E+02  0.51100000000E-03 0. -1.
        -11    1    3    3    0    0  0.33576098511E+02 -0.38016405308E+01  0.32423643750E+01  0.33945836107E+02  0.51100000000E-03 0.  1.
        -12    1    3    3    0    0  0.42856775870E+00 -0.85619261146E+01 -0.37406841480E+01  0.93532329710E+01  0.00000000000E+00 0.  1.
</event>
<event>
 7    1  0.5755468E-013  0.5930197E+02  0.7816164E-02  0.1266605E+00
        -11   -1    0    0    0    0  0.00000000000E+00  0.00000000000E+00  0.45593999997E+02  0.45594000000E+02  0.51100000000E-03 0. -1.
         11   -1    0    0    0    0 -0.00000000000E+00 -0.00000000000E+00 -0.45593999997E+02  0.45594000000E+02  0.51100000000E-03 0.  1.
    9900012    2    1    2    0    0  0.25640623587E+02 -0.18774075393E+02  0.26098817705E+01  0.59301969083E+02  0.50000045695E+02 0.  0.
        -12    1    1    2    0    0 -0.25640623587E+02  0.18774075393E+02 -0.26098817705E+01  0.31886030917E+02  0.00000000000E+00 0.  1.
         11    1    3    3    0    0  0.10530940700E+02 -0.26489211614E+02  0.44217842917E+01  0.28846684741E+02  0.51100000000E-03 0.  1.
        -11    1    3    3    0    0  0.15487039043E+02  0.76350163318E+01  0.91126730470E+01  0.19523899790E+02  0.51100000000E-03 0. -1.
        -12    1    3    3    0    0 -0.37735615601E+00  0.80119889710E-01 -0.10924575568E+02  0.10931384551E+02  0.00000000000E+00 0.  1.
</event>
<event>
 7    1  0.5755468E-013  0.5930195E+02  0.7816164E-02  0.1266605E+00
        -11   -1    0    0    0    0  0.00000000000E+00  0.00000000000E+00  0.45593999997E+02  0.45594000000E+02  0.51100000000E-03 0.  1.
         11   -1    0    0    0    0 -0.00000000000E+00 -0.00000000000E+00 -0.45593999997E+02  0.45594000000E+02  0.51100000000E-03 0. -1.
    9900012    2    1    2    0    0  0.14644741620E+02 -0.25343516871E+02 -0.12647457297E+02  0.59301945359E+02  0.50000002427E+02 0.  0.
        -12    1    1    2    0    0 -0.14644741620E+02  0.25343516871E+02  0.12647457297E+02  0.31886054641E+02  0.00000000000E+00 0.  1.
         11    1    3    3    0    0 -0.83631688834E+01  0.52566980173E+01  0.44993519667E+01  0.10854475400E+02  0.51100000000E-03 0.  1.
        -11    1    3    3    0    0  0.13114707222E+02 -0.55268947836E+01 -0.16077739304E+02  0.21471744523E+02  0.51100000000E-03 0. -1.
         12    1    3    3    0    0  0.98932032816E+01 -0.25073320105E+02 -0.10690699599E+01  0.26975725436E+02  0.00000000000E+00 0. -1.
</event>
<event>
 7    1  0.5755468E-013  0.5930195E+02  0.7816164E-02  0.1266605E+00
        -11   -1    0    0    0    0  0.00000000000E+00  0.00000000000E+00  0.45593999997E+02  0.45594000000E+02  0.51100000000E-03 0. -1.
         11   -1    0    0    0    0 -0.00000000000E+00 -0.00000000000E+00 -0.45593999997E+02  0.45594000000E+02  0.51100000000E-03 0.  1.
    9900012    2    1    2    0    0  0.26447249233E+02 -0.16413466270E+02  0.69182020832E+01  0.59301946826E+02  0.50000005103E+02 0.  0.
        -12    1    1    2    0    0 -0.26447249233E+02  0.16413466270E+02 -0.69182020832E+01  0.31886053174E+02  0.00000000000E+00 0.  1.
         11    1    3    3    0    0 -0.12600251173E+02  0.83377671687E+00  0.25839008738E+01  0.12889455272E+02  0.51100000000E-03 0. -1.
        -11    1    3    3    0    0  0.35934642448E+01 -0.35595644811E+01 -0.51750741035E+01  0.72363579798E+01  0.51100000000E-03 0.  1.
         12    1    3    3    0    0  0.35454036161E+02 -0.13687678505E+02  0.95093753129E+01  0.39176133574E+02  0.00000000000E+00 0. -1.
</event>
<event>
 7    1  0.5755468E-013  0.5930194E+02  0.7816164E-02  0.1266605E+00
        -11   -1    0    0    0    0  0.00000000000E+00  0.00000000000E+00  0.45593999997E+02  0.45594000000E+02  0.51100000000E-03 0.  1.
         11   -1    0    0    0    0 -0.00000000000E+00 -0.00000000000E+00 -0.45593999997E+02  0.45594000000E+02  0.51100000000E-03 0. -1.
    9900012    2    1    2    0    0  0.13268104082E+01 -0.75585471579E+01 -0.30948805384E+02  0.59301943240E+02  0.49999998564E+02 0.  0.
        -12    1    1    2    0    0 -0.13268104082E+01  0.75585471579E+01  0.30948805384E+02  0.31886056760E+02  0.00000000000E+00 0.  1.
         11    1    3    3    0    0  0.11645406193E+02  0.61438118511E+01 -0.16430058659E+02  0.21054898177E+02  0.51100000000E-03 0. -1.
        -11    1    3    3    0    0 -0.13718158600E+02  0.62995230054E+01 -0.62295632564E+01  0.16330319167E+02  0.51100000000E-03 0.  1.
        -12    1    3    3    0    0  0.33995628150E+01 -0.20001882014E+02 -0.82891834683E+01  0.21916725896E+02  0.00000000000E+00 0.  1.
</event>
<event>
 7    1  0.5755468E-013  0.5930194E+02  0.7816164E-02  0.1266605E+00
        -11   -1    0    0    0    0  0.00000000000E+00  0.00000000000E+00  0.45593999997E+02  0.45594000000E+02  0.51100000000E-03 0.  1.
         11   -1    0    0    0    0 -0.00000000000E+00 -0.00000000000E+00 -0.45593999997E+02  0.45594000000E+02  0.51100000000E-03 0. -1.
    9900012    2    1    2    0    0  0.10963332305E+01 -0.22489070794E+02 -0.22577880821E+02  0.59301937933E+02  0.49999988885E+02 0.  0.
        -12    1    1    2    0    0 -0.10963332305E+01  0.22489070794E+02  0.22577880821E+02  0.31886062067E+02  0.00000000000E+00 0.  1.
         11    1    3    3    0    0  0.13329047308E+02 -0.13245251654E+01 -0.15830275228E+02  0.20736814680E+02  0.51100000000E-03 0. -1.
        -11    1    3    3    0    0 -0.40841505352E+01 -0.14027437716E+02  0.10643936748E+02  0.18076025123E+02  0.51100000000E-03 0.  1.
         12    1    3    3    0    0 -0.81485635420E+01 -0.71371079128E+01 -0.17391542342E+02  0.20489098130E+02  0.00000000000E+00 0. -1.
</event>
<event>
 7    1  0.5755468E-013  0.5930194E+02  0.7816164E-02  0.1266605E+00
        -11   -1    0    0    0    0  0.00000000000E+00  0.00000000000E+00  0.45593999997E+02  0.45594000000E+02  0.51100000000E-03 0.  1.
         11   -1    0    0    0    0 -0.00000000000E+00 -0.00000000000E+00 -0.45593999997E+02  0.45594000000E+02  0.51100000000E-03 0. -1.
    9900012    2    1    2    0    0 -0.16329976683E+02  0.24316781389E+02 -0.12599482633E+02  0.59301937869E+02  0.49999988768E+02 0.  0.
        -12    1    1    2    0    0  0.16329976683E+02 -0.24316781389E+02  0.12599482633E+02  0.31886062131E+02  0.00000000000E+00 0.  1.
         11    1    3    3    0    0 -0.42559298129E+01 -0.22631300726E+01  0.10108993821E+02  0.11199395190E+02  0.51100000000E-03 0.  1.
        -11    1    3    3    0    0 -0.20125059317E+02  0.13332826142E+02 -0.51571326637E+01  0.24685588570E+02  0.51100000000E-03 0. -1.
         12    1    3    3    0    0  0.80510124478E+01  0.13247085320E+02 -0.17551343790E+02  0.23416954109E+02  0.00000000000E+00 0. -1.
</event>
<event>
 7    1  0.5755468E-013  0.5930194E+02  0.7816164E-02  0.1266605E+00
        -11   -1    0    0    0    0  0.00000000000E+00  0.00000000000E+00  0.45593999997E+02  0.45594000000E+02  0.51100000000E-03 0. -1.
         11   -1    0    0    0    0 -0.00000000000E+00 -0.00000000000E+00 -0.45593999997E+02  0.45594000000E+02  0.51100000000E-03 0.  1.
    9900012    2    1    2    0    0 -0.15133577225E+02  0.13072059325E+02  0.24835793812E+02  0.59301944287E+02  0.50000000473E+02 0.  0.
        -12    1    1    2    0    0  0.15133577225E+02 -0.13072059325E+02 -0.24835793812E+02  0.31886055713E+02  0.00000000000E+00 0.  1.
         11    1    3    3    0    0 -0.13188685663E+02  0.10153105788E+02  0.15431845688E+02  0.22697331302E+02  0.51100000000E-03 0. -1.
        -11    1    3    3    0    0  0.49679448826E+01  0.32171544878E+01 -0.12394076114E+02  0.13734761823E+02  0.51100000000E-03 0.  1.
        -12    1    3    3    0    0 -0.69128364451E+01 -0.29820094994E+00  0.21798024237E+02  0.22869851162E+02  0.00000000000E+00 0.  1.
</event>
<event>
 7    1  0.5755468E-013  0.5930196E+02  0.7816164E-02  0.1266605E+00
        -11   -1    0    0    0    0  0.00000000000E+00  0.00000000000E+00  0.45593999997E+02  0.45594000000E+02  0.51100000000E-03 0. -1.
         11   -1    0    0    0    0 -0.00000000000E+00 -0.00000000000E+00 -0.45593999997E+02  0.45594000000E+02  0.51100000000E-03 0.  1.
    9900012    2    1    2    0    0 -0.22551960355E+02 -0.18669130168E+02  0.12632972009E+02  0.59301963576E+02  0.50000035651E+02 0.  0.
        -12    1    1    2    0    0  0.22551960355E+02  0.18669130168E+02 -0.12632972009E+02  0.31886036424E+02  0.00000000000E+00 0.  1.
         11    1    3    3    0    0 -0.30308085676E+02 -0.19726851456E+02  0.16286851076E+02  0.39660941037E+02  0.51100000000E-03 0. -1.
        -11    1    3    3    0    0  0.10644469887E+02  0.62368538869E+01  0.58625401139E+00  0.12350982941E+02  0.51100000000E-03 0.  1.
         12    1    3    3    0    0 -0.28883445666E+01 -0.51791325991E+01 -0.42401330789E+01  0.72900395980E+01  0.00000000000E+00 0. -1.
</event>
<event>
 7    1  0.5755468E-013  0.5930194E+02  0.7816164E-02  0.1266605E+00
        -11   -1    0    0    0    0  0.00000000000E+00  0.00000000000E+00  0.45593999997E+02  0.45594000000E+02  0.51100000000E-03 0.  1.
         11   -1    0    0    0    0 -0.00000000000E+00 -0.00000000000E+00 -0.45593999997E+02  0.45594000000E+02  0.51100000000E-03 0. -1.
    9900012    2    1    2    0    0 -0.24332529027E+02  0.15565011454E+02 -0.13504789632E+02  0.59301938885E+02  0.49999990621E+02 0.  0.
        -12    1    1    2    0    0  0.24332529027E+02 -0.15565011454E+02  0.13504789632E+02  0.31886061115E+02  0.00000000000E+00 0.  1.
         11    1    3    3    0    0 -0.11157519616E+02  0.16747790296E+02  0.21003108563E+01  0.20233388983E+02  0.51100000000E-03 0. -1.
        -11    1    3    3    0    0 -0.18524860923E+02 -0.97688168032E+01 -0.19120976637E+02  0.28358631874E+02  0.51100000000E-03 0.  1.
         12    1    3    3    0    0  0.53498515117E+01  0.85860379611E+01  0.35158761488E+01  0.10709918028E+02  0.00000000000E+00 0. -1.
</event>
<event>
 7    1  0.5755468E-013  0.5930192E+02  0.7816164E-02  0.1266605E+00
        -11   -1    0    0    0    0  0.00000000000E+00  0.00000000000E+00  0.45593999997E+02  0.45594000000E+02  0.51100000000E-03 0. -1.
         11   -1    0    0    0    0 -0.00000000000E+00 -0.00000000000E+00 -0.45593999997E+02  0.45594000000E+02  0.51100000000E-03 0.  1.
    9900012    2    1    2    0    0 -0.20682658553E+02  0.13466035529E+02 -0.20189488717E+02  0.59301922594E+02  0.49999960910E+02 0.  0.
        -12    1    1    2    0    0  0.20682658553E+02 -0.13466035529E+02  0.20189488717E+02  0.31886077406E+02  0.00000000000E+00 0.  1.
         11    1    3    3    0    0 -0.10943059690E+02  0.75553087760E+01  0.18989495495E+01  0.13432767985E+02  0.51100000000E-03 0. -1.
        -11    1    3    3    0    0  0.12289459632E+02  0.19532521959E+01  0.24220230106E+01  0.12677231871E+02  0.51100000000E-03 0.  1.
        -12    1    3    3    0    0 -0.22029058495E+02  0.39574745571E+01 -0.24510461277E+02  0.33191922738E+02  0.00000000000E+00 0.  1.
</event>
<event>
 7    1  0.5755468E-013  0.5930193E+02  0.7816164E-02  0.1266605E+00
        -11   -1    0    0    0    0  0.00000000000E+00  0.00000000000E+00  0.45593999997E+02  0.45594000000E+02  0.51100000000E-03 0. -1.
         11   -1    0    0    0    0 -0.00000000000E+00 -0.00000000000E+00 -0.45593999997E+02  0.45594000000E+02  0.51100000000E-03 0.  1.
    9900012    2    1    2    0    0  0.31870843889E+01 -0.27968761816E+02  0.14977053361E+02  0.59301932952E+02  0.49999979801E+02 0.  0.
        -12    1    1    2    0    0 -0.31870843889E+01  0.27968761816E+02 -0.14977053361E+02  0.31886067048E+02  0.00000000000E+00 0.  1.
         11    1    3    3    0    0 -0.65366811063E+01  0.20829323263E+01  0.41209382287E+01  0.80030581098E+01  0.51100000000E-03 0. -1.
        -11    1    3    3    0    0  0.24667818787E+01 -0.37335456297E+02  0.14867174786E+02  0.40262317322E+02  0.51100000000E-03 0.  1.
        -12    1    3    3    0    0  0.72569836166E+01  0.72837621555E+01 -0.40110596540E+01  0.11036557520E+02  0.00000000000E+00 0.  1.
</event>
<event>
 7    1  0.6073641E-013  0.5930194E+02  0.7816164E-02  0.1266605E+00
        -11   -1    0    0    0    0  0.00000000000E+00  0.00000000000E+00  0.45593999997E+02  0.45594000000E+02  0.51100000000E-03 0.  1.
         11   -1    0    0    0    0 -0.00000000000E+00 -0.00000000000E+00 -0.45593999997E+02  0.45594000000E+02  0.51100000000E-03 0. -1.
    9900012    2    1    2    0    0  0.92323731899E+01  0.30376199617E+02  0.29615412086E+01  0.59301938088E+02  0.49999989168E+02 0.  0.
        -12    1    1    2    0    0 -0.92323731899E+01 -0.30376199617E+02 -0.29615412086E+01  0.31886061912E+02  0.00000000000E+00 0.  1.
         11    1    3    3    0    0  0.69526463426E+00  0.39603863404E+02  0.42409536291E+01  0.39836353716E+02  0.51100000000E-03 0. -1.
        -11    1    3    3    0    0  0.39534944802E+01 -0.51143215957E+01  0.67501348109E+01  0.93461609346E+01  0.51100000000E-03 0.  1.
         12    1    3    3    0    0  0.45836140754E+01 -0.41133421909E+01 -0.80295472314E+01  0.10119423438E+02  0.00000000000E+00 0. -1.
</event>
<event>
 7    1  0.5755468E-013  0.5930192E+02  0.7816164E-02  0.1266605E+00
        -11   -1    0    0    0    0  0.00000000000E+00  0.00000000000E+00  0.45593999997E+02  0.45594000000E+02  0.51100000000E-03 0.  1.
         11   -1    0    0    0    0 -0.00000000000E+00 -0.00000000000E+00 -0.45593999997E+02  0.45594000000E+02  0.51100000000E-03 0. -1.
    9900012    2    1    2    0    0 -0.12678855693E+01  0.12107014065E+02 -0.29470909572E+02  0.59301924130E+02  0.49999963711E+02 0.  0.
        -12    1    1    2    0    0  0.12678855693E+01 -0.12107014065E+02  0.29470909572E+02  0.31886075870E+02  0.00000000000E+00 0.  1.
         11    1    3    3    0    0  0.32851937210E+01  0.10775954342E+02 -0.12217398426E+02  0.16618619507E+02  0.51100000000E-03 0. -1.
        -11    1    3    3    0    0 -0.11399076585E+02  0.17501875236E+01 -0.27803111572E+02  0.30100084995E+02  0.51100000000E-03 0.  1.
        -12    1    3    3    0    0  0.68459972942E+01 -0.41912780011E+00  0.10549600426E+02  0.12583219628E+02  0.00000000000E+00 0.  1.
</event>
<event>
 7    1  0.5755468E-013  0.5930193E+02  0.7816164E-02  0.1266605E+00
        -11   -1    0    0    0    0  0.00000000000E+00  0.00000000000E+00  0.45593999997E+02  0.45594000000E+02  0.51100000000E-03 0. -1.
         11   -1    0    0    0    0 -0.00000000000E+00 -0.00000000000E+00 -0.45593999997E+02  0.45594000000E+02  0.51100000000E-03 0.  1.
    9900012    2    1    2    0    0 -0.25586257354E+01 -0.21357885301E+02  0.23537537412E+02  0.59301929411E+02  0.49999973343E+02 0.  0.
        -12    1    1    2    0    0  0.25586257354E+01  0.21357885301E+02 -0.23537537412E+02  0.31886070589E+02  0.00000000000E+00 0.  1.
         11    1    3    3    0    0 -0.10584050335E+02 -0.11530284805E+02  0.35519765766E+01  0.16049489931E+02  0.51100000000E-03 0. -1.
        -11    1    3    3    0    0  0.22169901146E+02 -0.57664889448E+01  0.16201119090E+02  0.28057675806E+02  0.51100000000E-03 0.  1.
        -12    1    3    3    0    0 -0.14144476547E+02 -0.40611115506E+01  0.37844417448E+01  0.15194763674E+02  0.00000000000E+00 0.  1.
</event>
<event>
 7    1  0.5755468E-013  0.5930192E+02  0.7816164E-02  0.1266605E+00
        -11   -1    0    0    0    0  0.00000000000E+00  0.00000000000E+00  0.45593999997E+02  0.45594000000E+02  0.51100000000E-03 0.  1.
         11   -1    0    0    0    0 -0.00000000000E+00 -0.00000000000E+00 -0.45593999997E+02  0.45594000000E+02  0.51100000000E-03 0. -1.
    9900012    2    1    2    0    0  0.43851516818E+01  0.28408535309E+02 -0.13800287402E+02  0.59301915793E+02  0.49999948507E+02 0.  0.
        -12    1    1    2    0    0 -0.43851516818E+01 -0.28408535309E+02  0.13800287402E+02  0.31886084207E+02  0.00000000000E+00 0.  1.
         11    1    3    3    0    0  0.19600828431E+02  0.19131600880E+02  0.39942387193E+00  0.27392885337E+02  0.51100000000E-03 0. -1.
        -11    1    3    3    0    0 -0.85192182997E+01 -0.35344579668E+01  0.27570945457E+01  0.96265800860E+01  0.51100000000E-03 0.  1.
         12    1    3    3    0    0 -0.66964584496E+01  0.12811392396E+02 -0.16956805819E+02  0.22282450370E+02  0.00000000000E+00 0. -1.
</event>
<event>
 7    1  0.5755468E-013  0.5930195E+02  0.7816164E-02  0.1266605E+00
        -11   -1    0    0    0    0  0.00000000000E+00  0.00000000000E+00  0.45593999997E+02  0.45594000000E+02  0.51100000000E-03 0. -1.
         11   -1    0    0    0    0 -0.00000000000E+00 -0.00000000000E+00 -0.45593999997E+02  0.45594000000E+02  0.51100000000E-03 0.  1.
    9900012    2    1    2    0    0  0.25693987240E+02 -0.16655698475E+02  0.88953386187E+01  0.59301947859E+02  0.50000006987E+02 0.  0.
        -12    1    1    2    0    0 -0.25693987240E+02  0.16655698475E+02 -0.88953386187E+01  0.31886052141E+02  0.00000000000E+00 0.  1.
         11    1    3    3    0    0 -0.71792303954E+01 -0.13083285884E+02  0.84126119973E+01  0.17131426078E+02  0.51100000000E-03 0.  1.
        -11    1    3    3    0    0  0.27418350023E+02 -0.12763866827E+02  0.48394311253E+01  0.30628455858E+02  0.51100000000E-03 0. -1.
        -12    1    3    3    0    0  0.54548676129E+01  0.91914542357E+01 -0.43567045038E+01  0.11542065923E+02  0.00000000000E+00 0.  1.
</event>
<event>
 7    1  0.5755468E-013  0.5930196E+02  0.7816164E-02  0.1266605E+00
        -11   -1    0    0    0    0  0.00000000000E+00  0.00000000000E+00  0.45593999997E+02  0.45594000000E+02  0.51100000000E-03 0.  1.
         11   -1    0    0    0    0 -0.00000000000E+00 -0.00000000000E+00 -0.45593999997E+02  0.45594000000E+02  0.51100000000E-03 0. -1.
    9900012    2    1    2    0    0  0.28908492338E+01  0.29814539487E+02  0.10929579455E+02  0.59301961030E+02  0.50000031008E+02 0.  0.
        -12    1    1    2    0    0 -0.28908492338E+01 -0.29814539487E+02 -0.10929579455E+02  0.31886038970E+02  0.00000000000E+00 0.  1.
         11    1    3    3    0    0 -0.90508503105E+01  0.26034640330E+02 -0.11819034109E+02  0.29990164320E+02  0.51100000000E-03 0. -1.
        -11    1    3    3    0    0 -0.17349964794E+01 -0.21350956553E+01  0.75121882156E+01  0.80001136423E+01  0.51100000000E-03 0.  1.
         12    1    3    3    0    0  0.13676696024E+02  0.59149948130E+01  0.15236425348E+02  0.21311683067E+02  0.00000000000E+00 0. -1.
</event>
<event>
 7    1  0.5755468E-013  0.5930194E+02  0.7816164E-02  0.1266605E+00
        -11   -1    0    0    0    0  0.00000000000E+00  0.00000000000E+00  0.45593999997E+02  0.45594000000E+02  0.51100000000E-03 0.  1.
         11   -1    0    0    0    0 -0.00000000000E+00 -0.00000000000E+00 -0.45593999997E+02  0.45594000000E+02  0.51100000000E-03 0. -1.
    9900012    2    1    2    0    0 -0.23672926410E+02  0.91024647460E+01 -0.19325071418E+02  0.59301942003E+02  0.49999996307E+02 0.  0.
        -12    1    1    2    0    0  0.23672926410E+02 -0.91024647460E+01  0.19325071418E+02  0.31886057997E+02  0.00000000000E+00 0.  1.
         11    1    3    3    0    0  0.89493849567E+01  0.82651984852E+01 -0.10871789925E+02  0.16327915162E+02  0.51100000000E-03 0. -1.
        -11    1    3    3    0    0 -0.18867585803E+02 -0.56309803331E+01  0.73783867567E+01  0.21026990391E+02  0.51100000000E-03 0.  1.
         12    1    3    3    0    0 -0.13754725564E+02  0.64682465939E+01 -0.15831668250E+02  0.21947036449E+02  0.00000000000E+00 0. -1.
</event>
<event>
 7    1  0.5755468E-013  0.5930195E+02  0.7816164E-02  0.1266605E+00
        -11   -1    0    0    0    0  0.00000000000E+00  0.00000000000E+00  0.45593999997E+02  0.45594000000E+02  0.51100000000E-03 0.  1.
         11   -1    0    0    0    0 -0.00000000000E+00 -0.00000000000E+00 -0.45593999997E+02  0.45594000000E+02  0.51100000000E-03 0. -1.
    9900012    2    1    2    0    0  0.24801215202E+02 -0.11640041626E+02  0.16313465255E+02  0.59301953002E+02  0.50000016366E+02 0.  0.
        -12    1    1    2    0    0 -0.24801215202E+02  0.11640041626E+02 -0.16313465255E+02  0.31886046998E+02  0.00000000000E+00 0.  1.
         11    1    3    3    0    0  0.19814559187E+02  0.67348482846E+01 -0.12261904854E+02  0.24255499337E+02  0.51100000000E-03 0. -1.
        -11    1    3    3    0    0  0.54808847854E+01 -0.78818910211E+01  0.16018945812E+02  0.18675409748E+02  0.51100000000E-03 0.  1.
         12    1    3    3    0    0 -0.49422876976E+00 -0.10492998889E+02  0.12556424298E+02  0.16371043916E+02  0.00000000000E+00 0. -1.
</event>
<event>
 7    1  0.5755468E-013  0.5930195E+02  0.7816164E-02  0.1266605E+00
        -11   -1    0    0    0    0  0.00000000000E+00  0.00000000000E+00  0.45593999997E+02  0.45594000000E+02  0.51100000000E-03 0. -1.
         11   -1    0    0    0    0 -0.00000000000E+00 -0.00000000000E+00 -0.45593999997E+02  0.45594000000E+02  0.51100000000E-03 0.  1.
    9900012    2    1    2    0    0  0.30596076573E+02  0.68555556234E+01  0.57966798813E+01  0.59301952233E+02  0.50000014964E+02 0.  0.
        -12    1    1    2    0    0 -0.30596076573E+02 -0.68555556234E+01 -0.57966798813E+01  0.31886047767E+02  0.00000000000E+00 0.  1.
         11    1    3    3    0    0 -0.10851216799E+02 -0.49994892134E+01  0.78472753147E+01  0.14294178135E+02  0.51100000000E-03 0. -1.
        -11    1    3    3    0    0  0.23738525272E+02  0.12741676038E+02  0.12557570080E+01  0.26971184925E+02  0.51100000000E-03 0.  1.
         12    1    3    3    0    0  0.17708768100E+02 -0.88663120148E+00 -0.33063524414E+01  0.18036589173E+02  0.00000000000E+00 0. -1.
</event>
<event>
 7    1  0.5755468E-013  0.5930193E+02  0.7816164E-02  0.1266605E+00
        -11   -1    0    0    0    0  0.00000000000E+00  0.00000000000E+00  0.45593999997E+02  0.45594000000E+02  0.51100000000E-03 0. -1.
         11   -1    0    0    0    0 -0.00000000000E+00 -0.00000000000E+00 -0.45593999997E+02  0.45594000000E+02  0.51100000000E-03 0.  1.
    9900012    2    1    2    0    0 -0.13865404139E+02 -0.15482855200E+02  0.24181667426E+02  0.59301932877E+02  0.49999979663E+02 0.  0.
        -12    1    1    2    0    0  0.13865404139E+02  0.15482855200E+02 -0.24181667426E+02  0.31886067123E+02  0.00000000000E+00 0.  1.
         11    1    3    3    0    0 -0.17061407049E+02 -0.72302889541E+01  0.23395992312E+01  0.18677323515E+02  0.51100000000E-03 0. -1.
        -11    1    3    3    0    0  0.38941111087E+01 -0.21059172459E+02  0.13151439938E+02  0.25131916335E+02  0.51100000000E-03 0.  1.
         12    1    3    3    0    0 -0.69810819915E+00  0.12806606212E+02  0.86906282563E+01  0.15492693027E+02  0.00000000000E+00 0. -1.
</event>
<event>
 7    1  0.5755468E-013  0.5930215E+02  0.7816164E-02  0.1266604E+00
        -11   -1    0    0    0    0  0.00000000000E+00  0.00000000000E+00  0.45593999997E+02  0.45594000000E+02  0.51100000000E-03 0.  1.
         11   -1    0    0    0    0 -0.00000000000E+00 -0.00000000000E+00 -0.45593999997E+02  0.45594000000E+02  0.51100000000E-03 0. -1.
    9900012    2    1    2    0    0 -0.38470261296E+00 -0.27392869901E+02 -0.16315327904E+02  0.59302152950E+02  0.50000381022E+02 0.  0.
        -12    1    1    2    0    0  0.38470261296E+00  0.27392869901E+02  0.16315327904E+02  0.31885847050E+02  0.00000000000E+00 0.  1.
         11    1    3    3    0    0  0.85745533287E+01 -0.28384771613E+02  0.24041241404E+00  0.29652588802E+02  0.51100000000E-03 0.  1.
        -11    1    3    3    0    0 -0.10371951150E+02 -0.43633293858E+01 -0.20127480362E+02  0.23059303545E+02  0.51100000000E-03 0. -1.
        -12    1    3    3    0    0  0.14126952084E+01  0.53552310975E+01  0.35717400444E+01  0.65902606021E+01  0.00000000000E+00 0.  1.
</event>
<event>
 7    1  0.5755468E-013  0.5930186E+02  0.7816164E-02  0.1266605E+00
        -11   -1    0    0    0    0  0.00000000000E+00  0.00000000000E+00  0.45593999997E+02  0.45594000000E+02  0.51100000000E-03 0.  1.
         11   -1    0    0    0    0 -0.00000000000E+00 -0.00000000000E+00 -0.45593999997E+02  0.45594000000E+02  0.51100000000E-03 0. -1.
    9900012    2    1    2    0    0  0.13519918719E+02  0.21111670529E+02  0.19703683172E+02  0.59301859355E+02  0.49999845576E+02 0.  0.
        -12    1    1    2    0    0 -0.13519918719E+02 -0.21111670529E+02 -0.19703683172E+02  0.31886140645E+02  0.00000000000E+00 0.  1.
         11    1    3    3    0    0  0.17015840551E+02  0.17225152794E+02  0.26077290225E+01  0.24352514641E+02  0.51100000000E-03 0. -1.
        -11    1    3    3    0    0 -0.14834486980E+02  0.77059150974E+01  0.15647673752E+02  0.22897441463E+02  0.51100000000E-03 0.  1.
        -12    1    3    3    0    0  0.11338565148E+02 -0.38193973625E+01  0.14482803981E+01  0.12051903250E+02  0.00000000000E+00 0.  1.
</event>
<event>
 7    1  0.5755468E-013  0.5930218E+02  0.7816164E-02  0.1266604E+00
        -11   -1    0    0    0    0  0.00000000000E+00  0.00000000000E+00  0.45593999997E+02  0.45594000000E+02  0.51100000000E-03 0.  1.
         11   -1    0    0    0    0 -0.00000000000E+00 -0.00000000000E+00 -0.45593999997E+02  0.45594000000E+02  0.51100000000E-03 0. -1.
    9900012    2    1    2    0    0  0.24651954450E+02  0.17784818197E+02  0.96273907293E+01  0.59302183894E+02  0.50000437456E+02 0.  0.
        -12    1    1    2    0    0 -0.24651954450E+02 -0.17784818197E+02 -0.96273907293E+01  0.31885816106E+02  0.00000000000E+00 0.  1.
         11    1    3    3    0    0  0.33569148810E+01  0.15799847418E+02 -0.15563385820E+02  0.22430404240E+02  0.51100000000E-03 0. -1.
        -11    1    3    3    0    0  0.20871459148E+02 -0.18844015859E+01  0.25453503177E+02  0.32970435250E+02  0.51100000000E-03 0.  1.
        -12    1    3    3    0    0  0.42358042062E+00  0.38693723655E+01 -0.26272662807E+00  0.39013444038E+01  0.00000000000E+00 0.  1.
</event>
<event>
 7    1  0.5755468E-013  0.5930229E+02  0.7816164E-02  0.1266604E+00
        -11   -1    0    0    0    0  0.00000000000E+00  0.00000000000E+00  0.45593999997E+02  0.45594000000E+02  0.51100000000E-03 0.  1.
         11   -1    0    0    0    0 -0.00000000000E+00 -0.00000000000E+00 -0.45593999997E+02  0.45594000000E+02  0.51100000000E-03 0. -1.
    9900012    2    1    2    0    0  0.13817958471E+02 -0.50916642526E+01 -0.28281402925E+02  0.59302285761E+02  0.50000623235E+02 0.  0.
        -12    1    1    2    0    0 -0.13817958471E+02  0.50916642526E+01  0.28281402925E+02  0.31885714239E+02  0.00000000000E+00 0.  1.
         11    1    3    3    0    0 -0.10427689031E+01  0.13264103798E+02 -0.22917420226E+02  0.26499659746E+02  0.51100000000E-03 0. -1.
        -11    1    3    3    0    0  0.19645898781E+02 -0.85888970479E+01 -0.27514423156E+01  0.21617144272E+02  0.51100000000E-03 0.  1.
        -12    1    3    3    0    0 -0.47851714068E+01 -0.97668710025E+01 -0.26125403827E+01  0.11185481743E+02  0.00000000000E+00 0.  1.
</event>
<event>
 7    1  0.5755468E-013  0.5930195E+02  0.7816164E-02  0.1266605E+00
        -11   -1    0    0    0    0  0.00000000000E+00  0.00000000000E+00  0.45593999997E+02  0.45594000000E+02  0.51100000000E-03 0.  1.
         11   -1    0    0    0    0 -0.00000000000E+00 -0.00000000000E+00 -0.45593999997E+02  0.45594000000E+02  0.51100000000E-03 0. -1.
    9900012    2    1    2    0    0  0.15469170911E+02  0.17815415511E+02 -0.21448454117E+02  0.59301945642E+02  0.50000002944E+02 0.  0.
        -12    1    1    2    0    0 -0.15469170911E+02 -0.17815415511E+02  0.21448454117E+02  0.31886054358E+02  0.00000000000E+00 0.  1.
         11    1    3    3    0    0  0.11846023528E+02  0.17201536807E+02 -0.24331725284E+02  0.32066399822E+02  0.51100000000E-03 0. -1.
        -11    1    3    3    0    0 -0.20203699030E+01 -0.80667205420E+01 -0.84700871999E+01  0.11869972716E+02  0.51100000000E-03 0.  1.
        -12    1    3    3    0    0  0.56435172851E+01  0.86805992456E+01  0.11353358367E+02  0.15365573104E+02  0.00000000000E+00 0.  1.
</event>
<event>
 7    1  0.5755468E-013  0.5930192E+02  0.7816164E-02  0.1266605E+00
        -11   -1    0    0    0    0  0.00000000000E+00  0.00000000000E+00  0.45593999997E+02  0.45594000000E+02  0.51100000000E-03 0. -1.
         11   -1    0    0    0    0 -0.00000000000E+00 -0.00000000000E+00 -0.45593999997E+02  0.45594000000E+02  0.51100000000E-03 0.  1.
    9900012    2    1    2    0    0  0.25077036591E+01  0.43224206799E+01  0.31492065313E+02  0.59301920343E+02  0.49999956806E+02 0.  0.
        -12    1    1    2    0    0 -0.25077036591E+01 -0.43224206799E+01 -0.31492065313E+02  0.31886079657E+02  0.00000000000E+00 0.  1.
         11    1    3    3    0    0  0.30534239612E+01 -0.72731532171E+01  0.22102798229E+01  0.81919163059E+01  0.51100000000E-03 0. -1.
        -11    1    3    3    0    0  0.99472927683E+01  0.23796854744E+02  0.18434553402E+02  0.31702865619E+02  0.51100000000E-03 0.  1.
        -12    1    3    3    0    0 -0.10493013070E+02 -0.12201280847E+02  0.10847232089E+02  0.19407138418E+02  0.00000000000E+00 0.  1.
</event>
<event>
 7    1  0.5755468E-013  0.5930196E+02  0.7816164E-02  0.1266605E+00
        -11   -1    0    0    0    0  0.00000000000E+00  0.00000000000E+00  0.45593999997E+02  0.45594000000E+02  0.51100000000E-03 0. -1.
         11   -1    0    0    0    0 -0.00000000000E+00 -0.00000000000E+00 -0.45593999997E+02  0.45594000000E+02  0.51100000000E-03 0.  1.
    9900012    2    1    2    0    0 -0.20321269071E+01 -0.31800101417E+02 -0.11591628609E+01  0.59301958408E+02  0.50000026226E+02 0.  0.
        -12    1    1    2    0    0  0.20321269071E+01  0.31800101417E+02  0.11591628609E+01  0.31886041592E+02  0.00000000000E+00 0.  1.
         11    1    3    3    0    0  0.21333614547E+02 -0.65160996170E+01  0.15734742273E+01  0.22361987507E+02  0.51100000000E-03 0. -1.
        -11    1    3    3    0    0 -0.55902098825E+01 -0.63123159525E+01 -0.65318455374E+01  0.10665870129E+02  0.51100000000E-03 0.  1.
         12    1    3    3    0    0 -0.17775531572E+02 -0.18971685847E+02  0.37992084492E+01  0.26274100772E+02  0.00000000000E+00 0. -1.
</event>
<event>
 7    1  0.5755468E-013  0.5930194E+02  0.7816164E-02  0.1266605E+00
        -11   -1    0    0    0    0  0.00000000000E+00  0.00000000000E+00  0.45593999997E+02  0.45594000000E+02  0.51100000000E-03 0.  1.
         11   -1    0    0    0    0 -0.00000000000E+00 -0.00000000000E+00 -0.45593999997E+02  0.45594000000E+02  0.51100000000E-03 0. -1.
    9900012    2    1    2    0    0 -0.75075117012E+01 -0.23644954038E+02 -0.20031824914E+02  0.59301943599E+02  0.49999999218E+02 0.  0.
        -12    1    1    2    0    0  0.75075117012E+01  0.23644954038E+02  0.20031824914E+02  0.31886056401E+02  0.00000000000E+00 0.  1.
         11    1    3    3    0    0 -0.19912403965E+02 -0.28384164691E+02 -0.15736389743E+02  0.38076220917E+02  0.51100000000E-03 0. -1.
        -11    1    3    3    0    0  0.13496924723E+02 -0.16941995565E+01 -0.36445272661E+00  0.13607722630E+02  0.51100000000E-03 0.  1.
         12    1    3    3    0    0 -0.10920324596E+01  0.64334102096E+01 -0.39309824445E+01  0.76180000523E+01  0.00000000000E+00 0. -1.
</event>
<event>
 7    1  0.5755468E-013  0.5930158E+02  0.7816164E-02  0.1266606E+00
        -11   -1    0    0    0    0  0.00000000000E+00  0.00000000000E+00  0.45593999997E+02  0.45594000000E+02  0.51100000000E-03 0.  1.
         11   -1    0    0    0    0 -0.00000000000E+00 -0.00000000000E+00 -0.45593999997E+02  0.45594000000E+02  0.51100000000E-03 0. -1.
    9900012    2    1    2    0    0  0.21606157212E+02 -0.15727268705E+02 -0.17394552928E+02  0.59301584680E+02  0.49999344632E+02 0.  0.
        -12    1    1    2    0    0 -0.21606157212E+02  0.15727268705E+02  0.17394552928E+02  0.31886415320E+02  0.00000000000E+00 0.  1.
         11    1    3    3    0    0  0.14706413039E+01  0.14303835483E+02 -0.12146302166E+02  0.18822729662E+02  0.51100000000E-03 0. -1.
        -11    1    3    3    0    0  0.17450314647E+02 -0.21996079057E+02  0.35072807196E+01  0.28295617920E+02  0.51100000000E-03 0.  1.
         12    1    3    3    0    0  0.26852012613E+01 -0.80350251309E+01 -0.87555314821E+01  0.12183237099E+02  0.00000000000E+00 0. -1.
</event>
<event>
 7    1  0.5755468E-013  0.5930196E+02  0.7816164E-02  0.1266605E+00
        -11   -1    0    0    0    0  0.00000000000E+00  0.00000000000E+00  0.45593999997E+02  0.45594000000E+02  0.51100000000E-03 0.  1.
         11   -1    0    0    0    0 -0.00000000000E+00 -0.00000000000E+00 -0.45593999997E+02  0.45594000000E+02  0.51100000000E-03 0. -1.
    9900012    2    1    2    0    0  0.29597080336E+02  0.24284418508E+01 -0.11611846748E+02  0.59301961063E+02  0.50000031068E+02 0.  0.
        -12    1    1    2    0    0 -0.29597080336E+02 -0.24284418508E+01  0.11611846748E+02  0.31886038937E+02  0.00000000000E+00 0.  1.
         11    1    3    3    0    0 -0.81541032687E+01 -0.13534252921E+02 -0.81382639850E+01  0.17773484273E+02  0.51100000000E-03 0.  1.
        -11    1    3    3    0    0  0.32810934013E+02  0.11845744188E+02 -0.37951403462E+01  0.35089630045E+02  0.51100000000E-03 0. -1.
        -12    1    3    3    0    0  0.49402495914E+01  0.41169505830E+01  0.32155758331E+00  0.64388467452E+01  0.00000000000E+00 0.  1.
</event>
<event>
 7    1  0.5755468E-013  0.5930200E+02  0.7816164E-02  0.1266605E+00
        -11   -1    0    0    0    0  0.00000000000E+00  0.00000000000E+00  0.45593999997E+02  0.45594000000E+02  0.51100000000E-03 0.  1.
         11   -1    0    0    0    0 -0.00000000000E+00 -0.00000000000E+00 -0.45593999997E+02  0.45594000000E+02  0.51100000000E-03 0. -1.
    9900012    2    1    2    0    0  0.21654099904E+02 -0.16518528736E+02 -0.16581776234E+02  0.59301997784E+02  0.50000098039E+02 0.  0.
        -12    1    1    2    0    0 -0.21654099904E+02  0.16518528736E+02  0.16581776234E+02  0.31886002216E+02  0.00000000000E+00 0.  1.
         11    1    3    3    0    0  0.14716530059E+02 -0.22158342559E+02 -0.22548554815E+02  0.34871273656E+02  0.51100000000E-03 0. -1.
        -11    1    3    3    0    0 -0.65133844619E+01 -0.20629027734E+01  0.57484661147E+01  0.89288637538E+01  0.51100000000E-03 0.  1.
         12    1    3    3    0    0  0.13450954307E+02  0.77027165964E+01  0.21831246626E+00  0.15501860374E+02  0.00000000000E+00 0. -1.
</event>
<event>
 7    1  0.5755468E-013  0.5930195E+02  0.7816164E-02  0.1266605E+00
        -11   -1    0    0    0    0  0.00000000000E+00  0.00000000000E+00  0.45593999997E+02  0.45594000000E+02  0.51100000000E-03 0.  1.
         11   -1    0    0    0    0 -0.00000000000E+00 -0.00000000000E+00 -0.45593999997E+02  0.45594000000E+02  0.51100000000E-03 0. -1.
    9900012    2    1    2    0    0 -0.10200838288E+02  0.20483620573E+02 -0.22205503456E+02  0.59301949801E+02  0.50000010528E+02 0.  0.
        -12    1    1    2    0    0  0.10200838288E+02 -0.20483620573E+02  0.22205503456E+02  0.31886050199E+02  0.00000000000E+00 0.  1.
         11    1    3    3    0    0 -0.59507812587E+01  0.24301721947E+02 -0.20480480249E+02  0.32333195924E+02  0.51100000000E-03 0. -1.
        -11    1    3    3    0    0 -0.15398533929E+02 -0.10990079948E+01 -0.90445621608E+00  0.15464174955E+02  0.51100000000E-03 0.  1.
         12    1    3    3    0    0  0.11148476899E+02 -0.27190933787E+01 -0.82056699140E+00  0.11504578922E+02  0.00000000000E+00 0. -1.
</event>
<event>
 7    1  0.5755468E-013  0.5930194E+02  0.7816164E-02  0.1266605E+00
        -11   -1    0    0    0    0  0.00000000000E+00  0.00000000000E+00  0.45593999997E+02  0.45594000000E+02  0.51100000000E-03 0. -1.
         11   -1    0    0    0    0 -0.00000000000E+00 -0.00000000000E+00 -0.45593999997E+02  0.45594000000E+02  0.51100000000E-03 0.  1.
    9900012    2    1    2    0    0  0.33145857928E+01 -0.27455743474E+02  0.15871883006E+02  0.59301937232E+02  0.49999987607E+02 0.  0.
        -12    1    1    2    0    0 -0.33145857928E+01  0.27455743474E+02 -0.15871883006E+02  0.31886062768E+02  0.00000000000E+00 0.  1.
         11    1    3    3    0    0 -0.19837663654E+01 -0.14170746406E+02  0.84309738053E+01  0.16608031258E+02  0.51100000000E-03 0. -1.
        -11    1    3    3    0    0  0.18717483194E+02 -0.10453449894E+01 -0.64532153099E+01  0.19826268216E+02  0.51100000000E-03 0.  1.
        -12    1    3    3    0    0 -0.13419131036E+02 -0.12239652079E+02  0.13894124511E+02  0.22867637759E+02  0.00000000000E+00 0.  1.
</event>
<event>
 7    1  0.5755468E-013  0.5930196E+02  0.7816164E-02  0.1266605E+00
        -11   -1    0    0    0    0  0.00000000000E+00  0.00000000000E+00  0.45593999997E+02  0.45594000000E+02  0.51100000000E-03 0.  1.
         11   -1    0    0    0    0 -0.00000000000E+00 -0.00000000000E+00 -0.45593999997E+02  0.45594000000E+02  0.51100000000E-03 0. -1.
    9900012    2    1    2    0    0  0.21401463179E+02  0.15131890351E+02  0.18158276258E+02  0.59301957152E+02  0.50000023936E+02 0.  0.
        -12    1    1    2    0    0 -0.21401463179E+02 -0.15131890351E+02 -0.18158276258E+02  0.31886042848E+02  0.00000000000E+00 0.  1.
         11    1    3    3    0    0  0.25352474455E+02  0.18108140016E+02 -0.63132888697E+01  0.31788524855E+02  0.51100000000E-03 0. -1.
        -11    1    3    3    0    0 -0.38614511138E+01 -0.66581074586E+01  0.21317665700E+02  0.22664599506E+02  0.51100000000E-03 0.  1.
         12    1    3    3    0    0 -0.89560162118E-01  0.36818577940E+01  0.31538994278E+01  0.48488327913E+01  0.00000000000E+00 0. -1.
</event>
<event>
 7    1  0.5755468E-013  0.5930195E+02  0.7816164E-02  0.1266605E+00
        -11   -1    0    0    0    0  0.00000000000E+00  0.00000000000E+00  0.45593999997E+02  0.45594000000E+02  0.51100000000E-03 0.  1.
         11   -1    0    0    0    0 -0.00000000000E+00 -0.00000000000E+00 -0.45593999997E+02  0.45594000000E+02  0.51100000000E-03 0. -1.
    9900012    2    1    2    0    0 -0.13394719280E+02  0.13180035015E+02 -0.25760214366E+02  0.59301945497E+02  0.50000002679E+02 0.  0.
        -12    1    1    2    0    0  0.13394719280E+02 -0.13180035015E+02  0.25760214366E+02  0.31886054503E+02  0.00000000000E+00 0.  1.
         11    1    3    3    0    0  0.18066683289E+01  0.94494315946E+01 -0.53668949287E+00  0.96355510369E+01  0.51100000000E-03 0. -1.
        -11    1    3    3    0    0 -0.10440158895E+02 -0.15033221280E+02 -0.55801162739E+00  0.18311363604E+02  0.51100000000E-03 0.  1.
        -12    1    3    3    0    0 -0.47612287135E+01  0.18763824701E+02 -0.24665513246E+02  0.31355030856E+02  0.00000000000E+00 0.  1.
</event>
<event>
 7    1  0.5755468E-013  0.5930193E+02  0.7816164E-02  0.1266605E+00
        -11   -1    0    0    0    0  0.00000000000E+00  0.00000000000E+00  0.45593999997E+02  0.45594000000E+02  0.51100000000E-03 0. -1.
         11   -1    0    0    0    0 -0.00000000000E+00 -0.00000000000E+00 -0.45593999997E+02  0.45594000000E+02  0.51100000000E-03 0.  1.
    9900012    2    1    2    0    0  0.21122171855E+02 -0.43981735854E+01  0.23478318513E+02  0.59301929139E+02  0.49999972847E+02 0.  0.
        -12    1    1    2    0    0 -0.21122171855E+02  0.43981735854E+01 -0.23478318513E+02  0.31886070861E+02  0.00000000000E+00 0.  1.
         11    1    3    3    0    0  0.37853314672E+01 -0.41707931415E+01  0.25280696988E+02  0.25900538416E+02  0.51100000000E-03 0.  1.
        -11    1    3    3    0    0  0.20301949942E+02 -0.25213715677E+01 -0.11171965826E+02  0.23309639781E+02  0.51100000000E-03 0. -1.
         12    1    3    3    0    0 -0.29651095545E+01  0.22939911238E+01  0.93695873513E+01  0.10091750942E+02  0.00000000000E+00 0. -1.
</event>
<event>
 7    1  0.5755468E-013  0.5930194E+02  0.7816164E-02  0.1266605E+00
        -11   -1    0    0    0    0  0.00000000000E+00  0.00000000000E+00  0.45593999997E+02  0.45594000000E+02  0.51100000000E-03 0.  1.
         11   -1    0    0    0    0 -0.00000000000E+00 -0.00000000000E+00 -0.45593999997E+02  0.45594000000E+02  0.51100000000E-03 0. -1.
    9900012    2    1    2    0    0  0.90891404336E+01  0.38933698872E+01 -0.30314187019E+02  0.59301941330E+02  0.49999995079E+02 0.  0.
        -12    1    1    2    0    0 -0.90891404336E+01 -0.38933698872E+01  0.30314187019E+02  0.31886058670E+02  0.00000000000E+00 0.  1.
         11    1    3    3    0    0 -0.72369124911E+01 -0.35844586502E+01 -0.35445488059E+02  0.36353870086E+02  0.51100000000E-03 0. -1.
        -11    1    3    3    0    0  0.98730553407E+00  0.26236960148E+01  0.62202517990E+01  0.68227623218E+01  0.51100000000E-03 0.  1.
         12    1    3    3    0    0  0.15338747391E+02  0.48541325226E+01 -0.10889507590E+01  0.16125308922E+02  0.00000000000E+00 0. -1.
</event>
<event>
 7    1  0.5755468E-013  0.5930185E+02  0.7816164E-02  0.1266605E+00
        -11   -1    0    0    0    0  0.00000000000E+00  0.00000000000E+00  0.45593999997E+02  0.45594000000E+02  0.51100000000E-03 0.  1.
         11   -1    0    0    0    0 -0.00000000000E+00 -0.00000000000E+00 -0.45593999997E+02  0.45594000000E+02  0.51100000000E-03 0. -1.
    9900012    2    1    2    0    0  0.15687587724E+02 -0.20067266537E+02 -0.19181528494E+02  0.59301848927E+02  0.49999826559E+02 0.  0.
        -12    1    1    2    0    0 -0.15687587724E+02  0.20067266537E+02  0.19181528494E+02  0.31886151073E+02  0.00000000000E+00 0.  1.
         11    1    3    3    0    0  0.86979745940E+01 -0.33107884213E+02 -0.43602881155E+01  0.34507953747E+02  0.51100000000E-03 0. -1.
        -11    1    3    3    0    0 -0.32700673867E+01  0.10834089599E+00 -0.34111787735E+01  0.47266499076E+01  0.51100000000E-03 0.  1.
         12    1    3    3    0    0  0.10259680517E+02  0.12932276780E+02 -0.11410061604E+02  0.20067245273E+02  0.00000000000E+00 0. -1.
</event>
<event>
 7    1  0.5755468E-013  0.5930193E+02  0.7816164E-02  0.1266605E+00
        -11   -1    0    0    0    0  0.00000000000E+00  0.00000000000E+00  0.45593999997E+02  0.45594000000E+02  0.51100000000E-03 0.  1.
         11   -1    0    0    0    0 -0.00000000000E+00 -0.00000000000E+00 -0.45593999997E+02  0.45594000000E+02  0.51100000000E-03 0. -1.
    9900012    2    1    2    0    0  0.24625467863E+01 -0.52152071330E+01 -0.31360150158E+02  0.59301928745E+02  0.49999972129E+02 0.  0.
        -12    1    1    2    0    0 -0.24625467863E+01  0.52152071330E+01  0.31360150158E+02  0.31886071255E+02  0.00000000000E+00 0.  1.
         11    1    3    3    0    0 -0.36579627329E-01 -0.86353869944E+01 -0.43373693245E+02  0.44224976117E+02  0.51100000000E-03 0. -1.
        -11    1    3    3    0    0  0.44784852331E+01  0.91574401745E+00  0.28827265043E+01  0.54042140454E+01  0.51100000000E-03 0.  1.
         12    1    3    3    0    0 -0.19793588195E+01  0.25044358439E+01  0.91308165824E+01  0.96727385829E+01  0.00000000000E+00 0. -1.
</event>
<event>
 7    1  0.5755468E-013  0.5930195E+02  0.7816164E-02  0.1266605E+00
        -11   -1    0    0    0    0  0.00000000000E+00  0.00000000000E+00  0.45593999997E+02  0.45594000000E+02  0.51100000000E-03 0.  1.
         11   -1    0    0    0    0 -0.00000000000E+00 -0.00000000000E+00 -0.45593999997E+02  0.45594000000E+02  0.51100000000E-03 0. -1.
    9900012    2    1    2    0    0  0.11308230522E+02 -0.21954054642E+02 -0.20170856307E+02  0.59301952316E+02  0.50000015115E+02 0.  0.
        -12    1    1    2    0    0 -0.11308230522E+02  0.21954054642E+02  0.20170856307E+02  0.31886047684E+02  0.00000000000E+00 0.  1.
         11    1    3    3    0    0 -0.13108838423E+02 -0.18485314711E+01 -0.84799670331E+01  0.15721595166E+02  0.51100000000E-03 0. -1.
        -11    1    3    3    0    0  0.21829505238E+02 -0.19360045803E+02  0.23607195734E+01  0.29273053643E+02  0.51100000000E-03 0.  1.
         12    1    3    3    0    0  0.25875637074E+01 -0.74547736853E+00 -0.14051608848E+02  0.14307303507E+02  0.00000000000E+00 0. -1.
</event>
<event>
 7    1  0.5755468E-013  0.5930186E+02  0.7816164E-02  0.1266605E+00
        -11   -1    0    0    0    0  0.00000000000E+00  0.00000000000E+00  0.45593999997E+02  0.45594000000E+02  0.51100000000E-03 0. -1.
         11   -1    0    0    0    0 -0.00000000000E+00 -0.00000000000E+00 -0.45593999997E+02  0.45594000000E+02  0.51100000000E-03 0.  1.
    9900012    2    1    2    0    0  0.11831511989E+02 -0.25018633974E+02  0.15836963430E+02  0.59301856731E+02  0.49999840791E+02 0.  0.
        -12    1    1    2    0    0 -0.11831511989E+02  0.25018633974E+02 -0.15836963430E+02  0.31886143269E+02  0.00000000000E+00 0.  1.
         11    1    3    3    0    0 -0.17686634186E+02  0.32152306152E-01  0.92536853803E+01  0.19961181227E+02  0.51100000000E-03 0. -1.
        -11    1    3    3    0    0  0.11512534086E+02 -0.97959784014E+01  0.14140790946E+01  0.15182201878E+02  0.51100000000E-03 0.  1.
         12    1    3    3    0    0  0.18005612088E+02 -0.15254807879E+02  0.51691989553E+01  0.24158473626E+02  0.00000000000E+00 0. -1.
</event>
<event>
 7    1  0.5755468E-013  0.5930196E+02  0.7816164E-02  0.1266605E+00
        -11   -1    0    0    0    0  0.00000000000E+00  0.00000000000E+00  0.45593999997E+02  0.45594000000E+02  0.51100000000E-03 0.  1.
         11   -1    0    0    0    0 -0.00000000000E+00 -0.00000000000E+00 -0.45593999997E+02  0.45594000000E+02  0.51100000000E-03 0. -1.
    9900012    2    1    2    0    0  0.45254018455E+01  0.73906561922E+01 -0.30685798872E+02  0.59301963664E+02  0.50000035812E+02 0.  0.
        -12    1    1    2    0    0 -0.45254018455E+01 -0.73906561922E+01  0.30685798872E+02  0.31886036336E+02  0.00000000000E+00 0.  1.
         11    1    3    3    0    0 -0.57858240043E+01 -0.24731316979E+01 -0.36892358418E+02  0.37425101866E+02  0.51100000000E-03 0. -1.
        -11    1    3    3    0    0  0.70515486000E+01  0.38216776027E+01 -0.44710723958E+01  0.91825947306E+01  0.51100000000E-03 0.  1.
         12    1    3    3    0    0  0.32596772499E+01  0.60421102874E+01  0.10677631941E+02  0.12694267067E+02  0.00000000000E+00 0. -1.
</event>
<event>
 7    1  0.5755468E-013  0.5930194E+02  0.7816164E-02  0.1266605E+00
        -11   -1    0    0    0    0  0.00000000000E+00  0.00000000000E+00  0.45593999997E+02  0.45594000000E+02  0.51100000000E-03 0. -1.
         11   -1    0    0    0    0 -0.00000000000E+00 -0.00000000000E+00 -0.45593999997E+02  0.45594000000E+02  0.51100000000E-03 0.  1.
    9900012    2    1    2    0    0  0.31080370435E+02  0.35360116816E+01 -0.61828628324E+01  0.59301943521E+02  0.49999999075E+02 0.  0.
        -12    1    1    2    0    0 -0.31080370435E+02 -0.35360116816E+01  0.61828628324E+01  0.31886056479E+02  0.00000000000E+00 0.  1.
         11    1    3    3    0    0  0.26808385009E+02  0.50480398448E+01  0.10528483211E+02  0.29240745067E+02  0.51100000000E-03 0. -1.
        -11    1    3    3    0    0 -0.13508633183E+01 -0.12390861508E+02 -0.61928688074E+01  0.13917970576E+02  0.51100000000E-03 0.  1.
        -12    1    3    3    0    0  0.56228487446E+01  0.10878833345E+02 -0.10518477236E+02  0.16143227878E+02  0.00000000000E+00 0.  1.
</event>
<event>
 7    1  0.5755468E-013  0.5930200E+02  0.7816164E-02  0.1266605E+00
        -11   -1    0    0    0    0  0.00000000000E+00  0.00000000000E+00  0.45593999997E+02  0.45594000000E+02  0.51100000000E-03 0. -1.
         11   -1    0    0    0    0 -0.00000000000E+00 -0.00000000000E+00 -0.45593999997E+02  0.45594000000E+02  0.51100000000E-03 0.  1.
    9900012    2    1    2    0    0  0.14082399639E+02  0.17471683287E+02  0.22652669492E+02  0.59301997874E+02  0.50000098203E+02 0.  0.
        -12    1    1    2    0    0 -0.14082399639E+02 -0.17471683287E+02 -0.22652669492E+02  0.31886002126E+02  0.00000000000E+00 0.  1.
         11    1    3    3    0    0 -0.47246618808E+01  0.20277942174E+02  0.14142631924E+02  0.25170049795E+02  0.51100000000E-03 0. -1.
        -11    1    3    3    0    0  0.73620541477E+01  0.47084459602E+01 -0.85711848078E+01  0.12240690908E+02  0.51100000000E-03 0.  1.
        -12    1    3    3    0    0  0.11445007372E+02 -0.75147048478E+01  0.17081222376E+02  0.21891257171E+02  0.00000000000E+00 0.  1.
</event>
<event>
 7    1  0.5755468E-013  0.5930198E+02  0.7816164E-02  0.1266605E+00
        -11   -1    0    0    0    0  0.00000000000E+00  0.00000000000E+00  0.45593999997E+02  0.45594000000E+02  0.51100000000E-03 0.  1.
         11   -1    0    0    0    0 -0.00000000000E+00 -0.00000000000E+00 -0.45593999997E+02  0.45594000000E+02  0.51100000000E-03 0. -1.
    9900012    2    1    2    0    0 -0.15988300050E+01  0.31370452236E+02 -0.54823998950E+01  0.59301980501E+02  0.50000066519E+02 0.  0.
        -12    1    1    2    0    0  0.15988300050E+01 -0.31370452236E+02  0.54823998950E+01  0.31886019499E+02  0.00000000000E+00 0.  1.
         11    1    3    3    0    0 -0.21695786744E+01  0.30384732876E+02  0.13057971849E+02  0.33142867900E+02  0.51100000000E-03 0. -1.
        -11    1    3    3    0    0 -0.66907406239E+01 -0.16115615921E+01 -0.16937506669E+02  0.18282293983E+02  0.51100000000E-03 0.  1.
        -12    1    3    3    0    0  0.72614892933E+01  0.25972809514E+01 -0.16028650751E+01  0.78768186184E+01  0.00000000000E+00 0.  1.
</event>
<event>
 7    1  0.5755468E-013  0.5930199E+02  0.7816164E-02  0.1266605E+00
        -11   -1    0    0    0    0  0.00000000000E+00  0.00000000000E+00  0.45593999997E+02  0.45594000000E+02  0.51100000000E-03 0. -1.
         11   -1    0    0    0    0 -0.00000000000E+00 -0.00000000000E+00 -0.45593999997E+02  0.45594000000E+02  0.51100000000E-03 0.  1.
    9900012    2    1    2    0    0  0.18487174817E+02  0.23383368286E+02  0.11320790649E+02  0.59301986671E+02  0.50000077770E+02 0.  0.
        -12    1    1    2    0    0 -0.18487174817E+02 -0.23383368286E+02 -0.11320790649E+02  0.31886013329E+02  0.00000000000E+00 0.  1.
         11    1    3    3    0    0  0.88393470202E+01  0.14814851481E+02  0.30312143341E+02  0.34877498683E+02  0.51100000000E-03 0. -1.
        -11    1    3    3    0    0  0.77929929017E+01  0.91338331184E+01 -0.11283601268E+02  0.16476568321E+02  0.51100000000E-03 0.  1.
        -12    1    3    3    0    0  0.18548348950E+01 -0.56531631371E+00 -0.77077514236E+01  0.79479196668E+01  0.00000000000E+00 0.  1.
</event>
<event>
 7    1  0.5755468E-013  0.5930194E+02  0.7816164E-02  0.1266605E+00
        -11   -1    0    0    0    0  0.00000000000E+00  0.00000000000E+00  0.45593999997E+02  0.45594000000E+02  0.51100000000E-03 0. -1.
         11   -1    0    0    0    0 -0.00000000000E+00 -0.00000000000E+00 -0.45593999997E+02  0.45594000000E+02  0.51100000000E-03 0.  1.
    9900012    2    1    2    0    0 -0.18569598129E+00  0.14009893046E+02  0.28642783172E+02  0.59301943266E+02  0.49999998611E+02 0.  0.
        -12    1    1    2    0    0  0.18569598129E+00 -0.14009893046E+02 -0.28642783172E+02  0.31886056734E+02  0.00000000000E+00 0.  1.
         11    1    3    3    0    0  0.17922534533E+02  0.60302084186E+01  0.46024869194E+00  0.18915403426E+02  0.51100000000E-03 0. -1.
        -11    1    3    3    0    0 -0.20787631048E+02  0.33071918373E+01  0.14169407815E+02  0.25373908657E+02  0.51100000000E-03 0.  1.
        -12    1    3    3    0    0  0.26794005336E+01  0.46724927904E+01  0.14013126665E+02  0.15012631183E+02  0.00000000000E+00 0.  1.
</event>
<event>
 7    1  0.5755468E-013  0.5930195E+02  0.7816164E-02  0.1266605E+00
        -11   -1    0    0    0    0  0.00000000000E+00  0.00000000000E+00  0.45593999997E+02  0.45594000000E+02  0.51100000000E-03 0. -1.
         11   -1    0    0    0    0 -0.00000000000E+00 -0.00000000000E+00 -0.45593999997E+02  0.45594000000E+02  0.51100000000E-03 0.  1.
    9900012    2    1    2    0    0  0.70758400874E+01  0.24235868565E+02  0.19474987453E+02  0.59301953297E+02  0.50000016905E+02 0.  0.
        -12    1    1    2    0    0 -0.70758400874E+01 -0.24235868565E+02 -0.19474987453E+02  0.31886046703E+02  0.00000000000E+00 0.  1.
         11    1    3    3    0    0  0.29335598946E+01  0.13632806785E+02  0.11620569818E+02  0.18152047754E+02  0.51100000000E-03 0. -1.
        -11    1    3    3    0    0  0.10413551863E+02 -0.96791570886E+01 -0.63870095309E+01  0.15585956351E+02  0.51100000000E-03 0.  1.
        -12    1    3    3    0    0 -0.62712716706E+01  0.20282218868E+02  0.14241427166E+02  0.25563949192E+02  0.00000000000E+00 0.  1.
</event>
<event>
 7    1  0.5755468E-013  0.5930195E+02  0.7816164E-02  0.1266605E+00
        -11   -1    0    0    0    0  0.00000000000E+00  0.00000000000E+00  0.45593999997E+02  0.45594000000E+02  0.51100000000E-03 0.  1.
         11   -1    0    0    0    0 -0.00000000000E+00 -0.00000000000E+00 -0.45593999997E+02  0.45594000000E+02  0.51100000000E-03 0. -1.
    9900012    2    1    2    0    0 -0.29646801108E+02 -0.12877337670E+01  0.11667444452E+02  0.59301947654E+02  0.50000006613E+02 0.  0.
        -12    1    1    2    0    0  0.29646801108E+02  0.12877337670E+01 -0.11667444452E+02  0.31886052346E+02  0.00000000000E+00 0.  1.
         11    1    3    3    0    0 -0.85024844631E+01  0.25278260984E+01 -0.17774635189E+01  0.90466305137E+01  0.51100000000E-03 0. -1.
        -11    1    3    3    0    0 -0.65888218646E+01 -0.22904382455E+02  0.28045147416E+01  0.23997679313E+02  0.51100000000E-03 0.  1.
        -12    1    3    3    0    0 -0.14555494781E+02  0.19088822590E+02  0.10640393229E+02  0.26257637827E+02  0.00000000000E+00 0.  1.
</event>
<event>
 7    1  0.5755468E-013  0.5930196E+02  0.7816164E-02  0.1266605E+00
        -11   -1    0    0    0    0  0.00000000000E+00  0.00000000000E+00  0.45593999997E+02  0.45594000000E+02  0.51100000000E-03 0.  1.
         11   -1    0    0    0    0 -0.00000000000E+00 -0.00000000000E+00 -0.45593999997E+02  0.45594000000E+02  0.51100000000E-03 0. -1.
    9900012    2    1    2    0    0  0.26401106312E+01  0.12601877957E-02 -0.31776558102E+02  0.59301955552E+02  0.50000021017E+02 0.  0.
        -12    1    1    2    0    0 -0.26401106312E+01 -0.12601877957E-02  0.31776558102E+02  0.31886044448E+02  0.00000000000E+00 0.  1.
         11    1    3    3    0    0  0.13829144310E+02  0.63620070902E+01 -0.26554297317E+02  0.30608023014E+02  0.51100000000E-03 0. -1.
        -11    1    3    3    0    0 -0.19129777687E+02 -0.46118883363E+01 -0.58765724103E+01  0.20536601762E+02  0.51100000000E-03 0.  1.
         12    1    3    3    0    0  0.79407440081E+01 -0.17488585662E+01  0.65431162543E+00  0.81573307760E+01  0.00000000000E+00 0. -1.
</event>
<event>
 7    1  0.5755468E-013  0.5930207E+02  0.7816164E-02  0.1266604E+00
        -11   -1    0    0    0    0  0.00000000000E+00  0.00000000000E+00  0.45593999997E+02  0.45594000000E+02  0.51100000000E-03 0.  1.
         11   -1    0    0    0    0 -0.00000000000E+00 -0.00000000000E+00 -0.45593999997E+02  0.45594000000E+02  0.51100000000E-03 0. -1.
    9900012    2    1    2    0    0 -0.28476749101E+02 -0.11467543418E+02  0.86187415374E+01  0.59302070547E+02  0.50000230739E+02 0.  0.
        -12    1    1    2    0    0  0.28476749101E+02  0.11467543418E+02 -0.86187415374E+01  0.31885929453E+02  0.00000000000E+00 0.  1.
         11    1    3    3    0    0 -0.28778988829E+02 -0.19067171184E+01  0.97862026893E+01  0.30457109704E+02  0.51100000000E-03 0. -1.
        -11    1    3    3    0    0  0.99034722392E+01  0.11589105576E+01  0.71072070619E+01  0.12244763312E+02  0.51100000000E-03 0.  1.
        -12    1    3    3    0    0 -0.96012325121E+01 -0.10719736857E+02 -0.82746682138E+01  0.16600197531E+02  0.00000000000E+00 0.  1.
</event>
<event>
 7    1  0.5755468E-013  0.5930195E+02  0.7816164E-02  0.1266605E+00
        -11   -1    0    0    0    0  0.00000000000E+00  0.00000000000E+00  0.45593999997E+02  0.45594000000E+02  0.51100000000E-03 0. -1.
         11   -1    0    0    0    0 -0.00000000000E+00 -0.00000000000E+00 -0.45593999997E+02  0.45594000000E+02  0.51100000000E-03 0.  1.
    9900012    2    1    2    0    0  0.10276252550E+02  0.24611663238E+02  0.17475268248E+02  0.59301947655E+02  0.50000006615E+02 0.  0.
        -12    1    1    2    0    0 -0.10276252550E+02 -0.24611663238E+02 -0.17475268248E+02  0.31886052345E+02  0.00000000000E+00 0.  1.
         11    1    3    3    0    0 -0.10467521039E+02  0.19254783400E+02  0.14135508617E+02  0.26079269250E+02  0.51100000000E-03 0. -1.
        -11    1    3    3    0    0  0.19938816004E+02  0.13258573362E+02 -0.13785984910E+01  0.23984300809E+02  0.51100000000E-03 0.  1.
         12    1    3    3    0    0  0.80495758488E+00 -0.79016935237E+01  0.47183581213E+01  0.92383775965E+01  0.00000000000E+00 0. -1.
</event>
<event>
 7    1  0.5755468E-013  0.5930194E+02  0.7816164E-02  0.1266605E+00
        -11   -1    0    0    0    0  0.00000000000E+00  0.00000000000E+00  0.45593999997E+02  0.45594000000E+02  0.51100000000E-03 0. -1.
         11   -1    0    0    0    0 -0.00000000000E+00 -0.00000000000E+00 -0.45593999997E+02  0.45594000000E+02  0.51100000000E-03 0.  1.
    9900012    2    1    2    0    0 -0.31475001366E+02  0.48076056067E+01  0.17123513474E+01  0.59301938314E+02  0.49999989580E+02 0.  0.
        -12    1    1    2    0    0  0.31475001366E+02 -0.48076056067E+01 -0.17123513474E+01  0.31886061686E+02  0.00000000000E+00 0.  1.
         11    1    3    3    0    0 -0.16084769909E+02 -0.10266475855E+02  0.18156646849E+02  0.26339783115E+02  0.51100000000E-03 0. -1.
        -11    1    3    3    0    0 -0.55474324910E+01  0.15463661307E+02 -0.36744595163E+01  0.16834502703E+02  0.51100000000E-03 0.  1.
         12    1    3    3    0    0 -0.98427989667E+01 -0.38957984589E+00 -0.12769835985E+02  0.16127652496E+02  0.00000000000E+00 0. -1.
</event>
<event>
 7    1  0.5755468E-013  0.5930198E+02  0.7816164E-02  0.1266605E+00
        -11   -1    0    0    0    0  0.00000000000E+00  0.00000000000E+00  0.45593999997E+02  0.45594000000E+02  0.51100000000E-03 0. -1.
         11   -1    0    0    0    0 -0.00000000000E+00 -0.00000000000E+00 -0.45593999997E+02  0.45594000000E+02  0.51100000000E-03 0.  1.
    9900012    2    1    2    0    0 -0.19728846377E+02  0.22469393432E+01  0.24948793622E+02  0.59301977687E+02  0.50000061386E+02 0.  0.
        -12    1    1    2    0    0  0.19728846377E+02 -0.22469393432E+01 -0.24948793622E+02  0.31886022313E+02  0.00000000000E+00 0.  1.
         11    1    3    3    0    0 -0.23259046582E+02  0.13095991437E+02  0.25053103066E+02  0.36608007500E+02  0.51100000000E-03 0. -1.
        -11    1    3    3    0    0  0.26228278594E+01 -0.13984510355E+02 -0.64007314167E+01  0.15601766528E+02  0.51100000000E-03 0.  1.
        -12    1    3    3    0    0  0.90737234545E+00  0.31354582610E+01  0.62964219729E+01  0.70922036589E+01  0.00000000000E+00 0.  1.
</event>
<event>
 7    1  0.5755468E-013  0.5930197E+02  0.7816164E-02  0.1266605E+00
        -11   -1    0    0    0    0  0.00000000000E+00  0.00000000000E+00  0.45593999997E+02  0.45594000000E+02  0.51100000000E-03 0. -1.
         11   -1    0    0    0    0 -0.00000000000E+00 -0.00000000000E+00 -0.45593999997E+02  0.45594000000E+02  0.51100000000E-03 0.  1.
    9900012    2    1    2    0    0  0.39806318786E+01 -0.31619218951E+02  0.10480256258E+01  0.59301971791E+02  0.50000050633E+02 0.  0.
        -12    1    1    2    0    0 -0.39806318786E+01  0.31619218951E+02 -0.10480256258E+01  0.31886028209E+02  0.00000000000E+00 0.  1.
         11    1    3    3    0    0 -0.18527498823E+00  0.48712797729E+01 -0.14242158443E+02  0.15053330888E+02  0.51100000000E-03 0.  1.
        -11    1    3    3    0    0  0.32065570446E+01 -0.38528044891E+02  0.12434338472E+02  0.40611636568E+02  0.51100000000E-03 0. -1.
        -12    1    3    3    0    0  0.95934982229E+00  0.20375461669E+01  0.28558455966E+01  0.36370043354E+01  0.00000000000E+00 0.  1.
</event>
<event>
 7    1  0.5755468E-013  0.5930196E+02  0.7816164E-02  0.1266605E+00
        -11   -1    0    0    0    0  0.00000000000E+00  0.00000000000E+00  0.45593999997E+02  0.45594000000E+02  0.51100000000E-03 0.  1.
         11   -1    0    0    0    0 -0.00000000000E+00 -0.00000000000E+00 -0.45593999997E+02  0.45594000000E+02  0.51100000000E-03 0. -1.
    9900012    2    1    2    0    0 -0.18864939839E+02 -0.21310134527E+02 -0.14377466227E+02  0.59301963498E+02  0.50000035509E+02 0.  0.
        -12    1    1    2    0    0  0.18864939839E+02  0.21310134527E+02  0.14377466227E+02  0.31886036502E+02  0.00000000000E+00 0.  1.
         11    1    3    3    0    0  0.49898960336E+01 -0.75830996944E+01  0.85415695425E+00  0.91176777616E+01  0.51100000000E-03 0. -1.
        -11    1    3    3    0    0 -0.17111189742E+02 -0.94035034211E+01 -0.28582426693E+02  0.34614647288E+02  0.51100000000E-03 0.  1.
        -12    1    3    3    0    0 -0.67436461312E+01 -0.43235314115E+01  0.13350803511E+02  0.15569638448E+02  0.00000000000E+00 0.  1.
</event>
<event>
 7    1  0.5755468E-013  0.5930187E+02  0.7816164E-02  0.1266605E+00
        -11   -1    0    0    0    0  0.00000000000E+00  0.00000000000E+00  0.45593999997E+02  0.45594000000E+02  0.51100000000E-03 0.  1.
         11   -1    0    0    0    0 -0.00000000000E+00 -0.00000000000E+00 -0.45593999997E+02  0.45594000000E+02  0.51100000000E-03 0. -1.
    9900012    2    1    2    0    0 -0.16532032677E+02  0.25595036733E+02 -0.93973933375E+01  0.59301874313E+02  0.49999872857E+02 0.  0.
        -12    1    1    2    0    0  0.16532032677E+02 -0.25595036733E+02  0.93973933375E+01  0.31886125687E+02  0.00000000000E+00 0.  1.
         11    1    3    3    0    0 -0.23620008033E+02  0.15202448430E+01 -0.12245380187E+02  0.26648926058E+02  0.51100000000E-03 0. -1.
        -11    1    3    3    0    0  0.10703482426E+02  0.21951693043E+02 -0.38770247609E+01  0.24727973729E+02  0.51100000000E-03 0.  1.
        -12    1    3    3    0    0 -0.36155070697E+01  0.21230988468E+01  0.67250116103E+01  0.79249745263E+01  0.00000000000E+00 0.  1.
</event>
<event>
 7    1  0.5755468E-013  0.5930194E+02  0.7816164E-02  0.1266605E+00
        -11   -1    0    0    0    0  0.00000000000E+00  0.00000000000E+00  0.45593999997E+02  0.45594000000E+02  0.51100000000E-03 0. -1.
         11   -1    0    0    0    0 -0.00000000000E+00 -0.00000000000E+00 -0.45593999997E+02  0.45594000000E+02  0.51100000000E-03 0.  1.
    9900012    2    1    2    0    0 -0.17342392964E+02  0.20096257253E+02 -0.17666432170E+02  0.59301937607E+02  0.49999988291E+02 0.  0.
        -12    1    1    2    0    0  0.17342392964E+02 -0.20096257253E+02  0.17666432170E+02  0.31886062393E+02  0.00000000000E+00 0.  1.
         11    1    3    3    0    0 -0.20671659184E+02 -0.11383469828E+02 -0.43973603747E+01  0.24004950682E+02  0.51100000000E-03 0. -1.
        -11    1    3    3    0    0  0.71486335091E+00  0.10614625401E+00 -0.15392705152E+01  0.17004854065E+01  0.51100000000E-03 0.  1.
         12    1    3    3    0    0  0.26144028683E+01  0.31373580827E+02 -0.11729801280E+02  0.33596501519E+02  0.00000000000E+00 0. -1.
</event>
<event>
 7    1  0.5755468E-013  0.5930207E+02  0.7816164E-02  0.1266604E+00
        -11   -1    0    0    0    0  0.00000000000E+00  0.00000000000E+00  0.45593999997E+02  0.45594000000E+02  0.51100000000E-03 0. -1.
         11   -1    0    0    0    0 -0.00000000000E+00 -0.00000000000E+00 -0.45593999997E+02  0.45594000000E+02  0.51100000000E-03 0.  1.
    9900012    2    1    2    0    0  0.95779669522E+01 -0.15070510649E+01  0.30376045323E+02  0.59302066059E+02  0.50000222555E+02 0.  0.
        -12    1    1    2    0    0 -0.95779669522E+01  0.15070510649E+01 -0.30376045323E+02  0.31885933941E+02  0.00000000000E+00 0.  1.
         11    1    3    3    0    0 -0.84533594553E+01  0.31641780314E+01  0.22460404369E+02  0.24206219725E+02  0.51100000000E-03 0. -1.
        -11    1    3    3    0    0  0.19735083718E+02 -0.14308767140E+02  0.62878945072E+01  0.25174430759E+02  0.51100000000E-03 0.  1.
        -12    1    3    3    0    0 -0.17037573109E+01  0.96375380434E+01  0.16277464464E+01  0.99214155747E+01  0.00000000000E+00 0.  1.
</event>
<event>
 7    1  0.5755468E-013  0.5930194E+02  0.7816164E-02  0.1266605E+00
        -11   -1    0    0    0    0  0.00000000000E+00  0.00000000000E+00  0.45593999997E+02  0.45594000000E+02  0.51100000000E-03 0. -1.
         11   -1    0    0    0    0 -0.00000000000E+00 -0.00000000000E+00 -0.45593999997E+02  0.45594000000E+02  0.51100000000E-03 0.  1.
    9900012    2    1    2    0    0 -0.73446446862E+01 -0.14254507488E+02  0.27560582988E+02  0.59301944679E+02  0.50000001189E+02 0.  0.
        -12    1    1    2    0    0  0.73446446862E+01  0.14254507488E+02 -0.27560582988E+02  0.31886055321E+02  0.00000000000E+00 0.  1.
         11    1    3    3    0    0 -0.14352400554E+02  0.10835869087E+02  0.21987157577E+02  0.28404974197E+02  0.51100000000E-03 0. -1.
        -11    1    3    3    0    0  0.63455330198E+01 -0.13477071371E+02 -0.44449518786E+01  0.15545251349E+02  0.51100000000E-03 0.  1.
         12    1    3    3    0    0  0.66222284812E+00 -0.11613305204E+02  0.10018377289E+02  0.15351719134E+02  0.00000000000E+00 0. -1.
</event>
<event>
 7    1  0.5755468E-013  0.5930195E+02  0.7816164E-02  0.1266605E+00
        -11   -1    0    0    0    0  0.00000000000E+00  0.00000000000E+00  0.45593999997E+02  0.45594000000E+02  0.51100000000E-03 0.  1.
         11   -1    0    0    0    0 -0.00000000000E+00 -0.00000000000E+00 -0.45593999997E+02  0.45594000000E+02  0.51100000000E-03 0. -1.
    9900012    2    1    2    0    0 -0.24504191372E+02  0.57216797589E+01 -0.19583843453E+02  0.59301953860E+02  0.50000017931E+02 0.  0.
        -12    1    1    2    0    0  0.24504191372E+02 -0.57216797589E+01  0.19583843453E+02  0.31886046140E+02  0.00000000000E+00 0.  1.
         11    1    3    3    0    0 -0.18292310757E+02 -0.17740897819E+02 -0.34060967313E+01  0.25708939758E+02  0.51100000000E-03 0. -1.
        -11    1    3    3    0    0 -0.11012271238E+02  0.21674700915E+02 -0.13631043762E+02  0.27872354258E+02  0.51100000000E-03 0.  1.
        -12    1    3    3    0    0  0.48003906225E+01  0.17878766636E+01 -0.25467029593E+01  0.57206598444E+01  0.00000000000E+00 0.  1.
</event>
<event>
 7    1  0.5755468E-013  0.5930197E+02  0.7816164E-02  0.1266605E+00
        -11   -1    0    0    0    0  0.00000000000E+00  0.00000000000E+00  0.45593999997E+02  0.45594000000E+02  0.51100000000E-03 0.  1.
         11   -1    0    0    0    0 -0.00000000000E+00 -0.00000000000E+00 -0.45593999997E+02  0.45594000000E+02  0.51100000000E-03 0. -1.
    9900012    2    1    2    0    0  0.24346953846E+02 -0.19040017198E+02 -0.78372686972E+01  0.59301965485E+02  0.50000039132E+02 0.  0.
        -12    1    1    2    0    0 -0.24346953846E+02  0.19040017198E+02  0.78372686972E+01  0.31886034515E+02  0.00000000000E+00 0.  1.
         11    1    3    3    0    0  0.24218349425E+02 -0.17693250959E+02  0.74278036926E+01  0.30899058988E+02  0.51100000000E-03 0. -1.
        -11    1    3    3    0    0 -0.60829268350E+01 -0.99935026899E+01 -0.28373386721E+01  0.12038379704E+02  0.51100000000E-03 0.  1.
         12    1    3    3    0    0  0.62115312556E+01  0.86467364508E+01 -0.12427733718E+02  0.16364526793E+02  0.00000000000E+00 0. -1.
</event>
<event>
 7    1  0.5755468E-013  0.5930194E+02  0.7816164E-02  0.1266605E+00
        -11   -1    0    0    0    0  0.00000000000E+00  0.00000000000E+00  0.45593999997E+02  0.45594000000E+02  0.51100000000E-03 0.  1.
         11   -1    0    0    0    0 -0.00000000000E+00 -0.00000000000E+00 -0.45593999997E+02  0.45594000000E+02  0.51100000000E-03 0. -1.
    9900012    2    1    2    0    0  0.13200093563E+01 -0.18545538918E+01 -0.31804696833E+02  0.59301944498E+02  0.50000000858E+02 0.  0.
        -12    1    1    2    0    0 -0.13200093563E+01  0.18545538918E+01  0.31804696833E+02  0.31886055502E+02  0.00000000000E+00 0.  1.
         11    1    3    3    0    0 -0.52106064342E+01 -0.97272562223E+01 -0.37484446068E+02  0.39074974476E+02  0.51100000000E-03 0. -1.
        -11    1    3    3    0    0 -0.24948125398E+01  0.51540408016E+01  0.86239614552E+01  0.10351856724E+02  0.51100000000E-03 0.  1.
         12    1    3    3    0    0  0.90254283302E+01  0.27186615290E+01 -0.29442122199E+01  0.98751132981E+01  0.00000000000E+00 0. -1.
</event>
<event>
 7    1  0.5755468E-013  0.5930194E+02  0.7816164E-02  0.1266605E+00
        -11   -1    0    0    0    0  0.00000000000E+00  0.00000000000E+00  0.45593999997E+02  0.45594000000E+02  0.51100000000E-03 0.  1.
         11   -1    0    0    0    0 -0.00000000000E+00 -0.00000000000E+00 -0.45593999997E+02  0.45594000000E+02  0.51100000000E-03 0. -1.
    9900012    2    1    2    0    0 -0.89221092994E+01  0.29048660687E+02  0.96587740882E+01  0.59301942875E+02  0.49999997899E+02 0.  0.
        -12    1    1    2    0    0  0.89221092994E+01 -0.29048660687E+02 -0.96587740882E+01  0.31886057125E+02  0.00000000000E+00 0.  1.
         11    1    3    3    0    0  0.42115562825E+01  0.10141542116E+02 -0.54566456744E+01  0.12262261826E+02  0.51100000000E-03 0. -1.
        -11    1    3    3    0    0 -0.70701079210E+01  0.17705897178E+02  0.27345874320E+02  0.33335897520E+02  0.51100000000E-03 0.  1.
        -12    1    3    3    0    0 -0.60635576609E+01  0.12012213934E+01 -0.12230454557E+02  0.13703783530E+02  0.00000000000E+00 0.  1.
</event>
<event>
 7    1  0.5755468E-013  0.5930194E+02  0.7816164E-02  0.1266605E+00
        -11   -1    0    0    0    0  0.00000000000E+00  0.00000000000E+00  0.45593999997E+02  0.45594000000E+02  0.51100000000E-03 0.  1.
         11   -1    0    0    0    0 -0.00000000000E+00 -0.00000000000E+00 -0.45593999997E+02  0.45594000000E+02  0.51100000000E-03 0. -1.
    9900012    2    1    2    0    0  0.15192808945E+02 -0.44771102658E+01 -0.27674078998E+02  0.59301943355E+02  0.49999998772E+02 0.  0.
        -12    1    1    2    0    0 -0.15192808945E+02  0.44771102658E+01  0.27674078998E+02  0.31886056645E+02  0.00000000000E+00 0.  1.
         11    1    3    3    0    0  0.85240572649E+01 -0.14064502166E+02 -0.29960184541E+02  0.34177220943E+02  0.51100000000E-03 0. -1.
        -11    1    3    3    0    0  0.18314220585E+01  0.16413904204E+02  0.26719945647E+00  0.16517922199E+02  0.51100000000E-03 0.  1.
        -12    1    3    3    0    0  0.48373296219E+01 -0.68265123039E+01  0.20189060857E+01  0.86068002120E+01  0.00000000000E+00 0.  1.
</event>
<event>
 7    1  0.5755468E-013  0.5930195E+02  0.7816164E-02  0.1266605E+00
        -11   -1    0    0    0    0  0.00000000000E+00  0.00000000000E+00  0.45593999997E+02  0.45594000000E+02  0.51100000000E-03 0. -1.
         11   -1    0    0    0    0 -0.00000000000E+00 -0.00000000000E+00 -0.45593999997E+02  0.45594000000E+02  0.51100000000E-03 0.  1.
    9900012    2    1    2    0    0  0.95590512093E+01  0.10737399871E+02  0.28461425685E+02  0.59301953396E+02  0.50000017086E+02 0.  0.
        -12    1    1    2    0    0 -0.95590512093E+01 -0.10737399871E+02 -0.28461425685E+02  0.31886046604E+02  0.00000000000E+00 0.  1.
         11    1    3    3    0    0  0.80861687238E+01 -0.99389920614E+01 -0.53638781051E+01  0.13890315922E+02  0.51100000000E-03 0.  1.
        -11    1    3    3    0    0 -0.77282266077E+01  0.11314489917E+02  0.27747771105E+02  0.30946437115E+02  0.51100000000E-03 0. -1.
        -12    1    3    3    0    0  0.92011090931E+01  0.93619020157E+01  0.60775326847E+01  0.14465200359E+02  0.00000000000E+00 0.  1.
</event>
<event>
 7    1  0.5755468E-013  0.5930192E+02  0.7816164E-02  0.1266605E+00
        -11   -1    0    0    0    0  0.00000000000E+00  0.00000000000E+00  0.45593999997E+02  0.45594000000E+02  0.51100000000E-03 0. -1.
         11   -1    0    0    0    0 -0.00000000000E+00 -0.00000000000E+00 -0.45593999997E+02  0.45594000000E+02  0.51100000000E-03 0.  1.
    9900012    2    1    2    0    0 -0.27620074626E+02  0.15853338301E+02 -0.15891783650E+01  0.59301916115E+02  0.49999949094E+02 0.  0.
        -12    1    1    2    0    0  0.27620074626E+02 -0.15853338301E+02  0.15891783650E+01  0.31886083885E+02  0.00000000000E+00 0.  1.
         11    1    3    3    0    0 -0.31288773601E+02  0.24748667507E+02 -0.83203522634E+01  0.40751836264E+02  0.51100000000E-03 0. -1.
        -11    1    3    3    0    0  0.47489004490E+01 -0.97494209124E+01 -0.81896856435E+00  0.10875383826E+02  0.51100000000E-03 0.  1.
         12    1    3    3    0    0 -0.10802014740E+01  0.85409170630E+00  0.75501424627E+01  0.76746960249E+01  0.00000000000E+00 0. -1.
</event>
<event>
 7    1  0.5755468E-013  0.5930190E+02  0.7816164E-02  0.1266605E+00
        -11   -1    0    0    0    0  0.00000000000E+00  0.00000000000E+00  0.45593999997E+02  0.45594000000E+02  0.51100000000E-03 0.  1.
         11   -1    0    0    0    0 -0.00000000000E+00 -0.00000000000E+00 -0.45593999997E+02  0.45594000000E+02  0.51100000000E-03 0. -1.
    9900012    2    1    2    0    0  0.32299643293E+01 -0.29256373230E+02 -0.12261942485E+02  0.59301901499E+02  0.49999922437E+02 0.  0.
        -12    1    1    2    0    0 -0.32299643293E+01  0.29256373230E+02  0.12261942485E+02  0.31886098501E+02  0.00000000000E+00 0.  1.
         11    1    3    3    0    0 -0.54043676879E+01  0.67433372951E+01 -0.16925511694E+02  0.19004018900E+02  0.51100000000E-03 0. -1.
        -11    1    3    3    0    0  0.96266451513E+01 -0.30461446449E+02 -0.14627964317E+01  0.31979865389E+02  0.51100000000E-03 0.  1.
         12    1    3    3    0    0 -0.99231313414E+00 -0.55382640763E+01  0.61263656412E+01  0.83180172100E+01  0.00000000000E+00 0. -1.
</event>
<event>
 7    1  0.5755468E-013  0.5930195E+02  0.7816164E-02  0.1266605E+00
        -11   -1    0    0    0    0  0.00000000000E+00  0.00000000000E+00  0.45593999997E+02  0.45594000000E+02  0.51100000000E-03 0.  1.
         11   -1    0    0    0    0 -0.00000000000E+00 -0.00000000000E+00 -0.45593999997E+02  0.45594000000E+02  0.51100000000E-03 0. -1.
    9900012    2    1    2    0    0 -0.28411868126E+02 -0.88448904402E+01 -0.11456604130E+02  0.59301951084E+02  0.50000012868E+02 0.  0.
        -12    1    1    2    0    0  0.28411868126E+02  0.88448904402E+01  0.11456604130E+02  0.31886048916E+02  0.00000000000E+00 0.  1.
         11    1    3    3    0    0 -0.26971178172E+02 -0.37470731949E+01 -0.31705442269E+00  0.27232068105E+02  0.51100000000E-03 0. -1.
        -11    1    3    3    0    0  0.40183758900E+01 -0.11105024785E+02 -0.17941596253E+02  0.21479520401E+02  0.51100000000E-03 0.  1.
         12    1    3    3    0    0 -0.54590658443E+01  0.60072075399E+01  0.68020465459E+01  0.10590362578E+02  0.00000000000E+00 0. -1.
</event>
<event>
 7    1  0.5755468E-013  0.5930198E+02  0.7816164E-02  0.1266605E+00
        -11   -1    0    0    0    0  0.00000000000E+00  0.00000000000E+00  0.45593999997E+02  0.45594000000E+02  0.51100000000E-03 0.  1.
         11   -1    0    0    0    0 -0.00000000000E+00 -0.00000000000E+00 -0.45593999997E+02  0.45594000000E+02  0.51100000000E-03 0. -1.
    9900012    2    1    2    0    0 -0.70434018594E+01  0.15932316305E+02 -0.26707110629E+02  0.59301984715E+02  0.50000074204E+02 0.  0.
        -12    1    1    2    0    0  0.70434018594E+01 -0.15932316305E+02  0.26707110629E+02  0.31886015285E+02  0.00000000000E+00 0.  1.
         11    1    3    3    0    0 -0.12688774674E+02 -0.20269230420E+01  0.50026761061E+01  0.13789132976E+02  0.51100000000E-03 0. -1.
        -11    1    3    3    0    0  0.12228866801E+02  0.15721485325E+02 -0.91741750839E+01  0.21928879880E+02  0.51100000000E-03 0.  1.
        -12    1    3    3    0    0 -0.65834939863E+01  0.22377540216E+01 -0.22535611651E+02  0.23583971859E+02  0.00000000000E+00 0.  1.
</event>
<event>
 7    1  0.5755468E-013  0.5930192E+02  0.7816164E-02  0.1266605E+00
        -11   -1    0    0    0    0  0.00000000000E+00  0.00000000000E+00  0.45593999997E+02  0.45594000000E+02  0.51100000000E-03 0.  1.
         11   -1    0    0    0    0 -0.00000000000E+00 -0.00000000000E+00 -0.45593999997E+02  0.45594000000E+02  0.51100000000E-03 0. -1.
    9900012    2    1    2    0    0  0.27283057831E+02  0.62276831137E+01 -0.15283092060E+02  0.59301918640E+02  0.49999953700E+02 0.  0.
        -12    1    1    2    0    0 -0.27283057831E+02 -0.62276831137E+01  0.15283092060E+02  0.31886081360E+02  0.00000000000E+00 0.  1.
         11    1    3    3    0    0  0.20075924557E+02 -0.11683211576E+02 -0.20256871561E+02  0.30820139929E+02  0.51100000000E-03 0. -1.
        -11    1    3    3    0    0  0.44827659160E+01  0.21383085450E+02  0.21034454972E-01  0.21847928422E+02  0.51100000000E-03 0.  1.
        -12    1    3    3    0    0  0.27243673576E+01 -0.34721907609E+01  0.49527450457E+01  0.66338502898E+01  0.00000000000E+00 0.  1.
</event>
<event>
 7    1  0.5755468E-013  0.5930198E+02  0.7816164E-02  0.1266605E+00
        -11   -1    0    0    0    0  0.00000000000E+00  0.00000000000E+00  0.45593999997E+02  0.45594000000E+02  0.51100000000E-03 0. -1.
         11   -1    0    0    0    0 -0.00000000000E+00 -0.00000000000E+00 -0.45593999997E+02  0.45594000000E+02  0.51100000000E-03 0.  1.
    9900012    2    1    2    0    0  0.18426179972E+02  0.24489813588E+02 -0.88001867039E+01  0.59301978549E+02  0.50000062958E+02 0.  0.
        -12    1    1    2    0    0 -0.18426179972E+02 -0.24489813588E+02  0.88001867039E+01  0.31886021451E+02  0.00000000000E+00 0.  1.
         11    1    3    3    0    0  0.11859681605E+02  0.19114023991E+01  0.15324230420E+02  0.19471454623E+02  0.51100000000E-03 0. -1.
        -11    1    3    3    0    0  0.12218748529E+02  0.16058677339E+02 -0.83252531403E+01  0.21828622806E+02  0.51100000000E-03 0.  1.
         12    1    3    3    0    0 -0.56522501609E+01  0.65197338495E+01 -0.15799163984E+02  0.18001901120E+02  0.00000000000E+00 0. -1.
</event>
<event>
 7    1  0.5755468E-013  0.5930193E+02  0.7816164E-02  0.1266605E+00
        -11   -1    0    0    0    0  0.00000000000E+00  0.00000000000E+00  0.45593999997E+02  0.45594000000E+02  0.51100000000E-03 0. -1.
         11   -1    0    0    0    0 -0.00000000000E+00 -0.00000000000E+00 -0.45593999997E+02  0.45594000000E+02  0.51100000000E-03 0.  1.
    9900012    2    1    2    0    0  0.16436751356E+02  0.16985441461E+02  0.21402089678E+02  0.59301930011E+02  0.49999974437E+02 0.  0.
        -12    1    1    2    0    0 -0.16436751356E+02 -0.16985441461E+02 -0.21402089678E+02  0.31886069989E+02  0.00000000000E+00 0.  1.
         11    1    3    3    0    0  0.86754991510E+01  0.76391158799E+01 -0.11836934234E+02  0.16544890125E+02  0.51100000000E-03 0. -1.
        -11    1    3    3    0    0 -0.87161379025E+01  0.26865026761E+01  0.11499780209E+02  0.14677646326E+02  0.51100000000E-03 0.  1.
         12    1    3    3    0    0  0.16477390108E+02  0.66598229054E+01  0.21739243702E+02  0.28079393559E+02  0.00000000000E+00 0. -1.
</event>
<event>
 7    1  0.5755468E-013  0.5930193E+02  0.7816164E-02  0.1266605E+00
        -11   -1    0    0    0    0  0.00000000000E+00  0.00000000000E+00  0.45593999997E+02  0.45594000000E+02  0.51100000000E-03 0.  1.
         11   -1    0    0    0    0 -0.00000000000E+00 -0.00000000000E+00 -0.45593999997E+02  0.45594000000E+02  0.51100000000E-03 0. -1.
    9900012    2    1    2    0    0 -0.87729482708E+00 -0.10885038057E+02 -0.29957761593E+02  0.59301934401E+02  0.49999982443E+02 0.  0.
        -12    1    1    2    0    0  0.87729482708E+00  0.10885038057E+02  0.29957761593E+02  0.31886065599E+02  0.00000000000E+00 0.  1.
         11    1    3    3    0    0  0.93889534078E+01 -0.50165967945E+01 -0.15427770472E+02  0.18743926790E+02  0.51100000000E-03 0. -1.
        -11    1    3    3    0    0 -0.22033107961E+02 -0.10821125996E+02 -0.62125396988E+01  0.25320945164E+02  0.51100000000E-03 0.  1.
        -12    1    3    3    0    0  0.11766859726E+02  0.49526847331E+01 -0.83174514219E+01  0.15237062447E+02  0.00000000000E+00 0.  1.
</event>
<event>
 7    1  0.5755468E-013  0.5930195E+02  0.7816164E-02  0.1266605E+00
        -11   -1    0    0    0    0  0.00000000000E+00  0.00000000000E+00  0.45593999997E+02  0.45594000000E+02  0.51100000000E-03 0.  1.
         11   -1    0    0    0    0 -0.00000000000E+00 -0.00000000000E+00 -0.45593999997E+02  0.45594000000E+02  0.51100000000E-03 0. -1.
    9900012    2    1    2    0    0 -0.92204657584E+01 -0.25203331788E+02 -0.17219028667E+02  0.59301954930E+02  0.50000019882E+02 0.  0.
        -12    1    1    2    0    0  0.92204657584E+01  0.25203331788E+02  0.17219028667E+02  0.31886045070E+02  0.00000000000E+00 0.  1.
         11    1    3    3    0    0 -0.14044602701E+02 -0.27291058785E-01  0.77937369701E+01  0.16062189952E+02  0.51100000000E-03 0. -1.
        -11    1    3    3    0    0  0.11839024652E+02 -0.25418129811E+02 -0.21815072981E+02  0.35526627158E+02  0.51100000000E-03 0.  1.
        -12    1    3    3    0    0 -0.70148877096E+01  0.24208908201E+00 -0.31976926560E+01  0.77131378196E+01  0.00000000000E+00 0.  1.
</event>
<event>
 7    1  0.5755468E-013  0.5930195E+02  0.7816164E-02  0.1266605E+00
        -11   -1    0    0    0    0  0.00000000000E+00  0.00000000000E+00  0.45593999997E+02  0.45594000000E+02  0.51100000000E-03 0.  1.
         11   -1    0    0    0    0 -0.00000000000E+00 -0.00000000000E+00 -0.45593999997E+02  0.45594000000E+02  0.51100000000E-03 0. -1.
    9900012    2    1    2    0    0 -0.64393529597E+01  0.13845923467E+02 -0.27991879089E+02  0.59301950415E+02  0.50000011649E+02 0.  0.
        -12    1    1    2    0    0  0.64393529597E+01 -0.13845923467E+02  0.27991879089E+02  0.31886049585E+02  0.00000000000E+00 0.  1.
         11    1    3    3    0    0 -0.92178343485E+01 -0.10157231751E+02 -0.20934275384E+02  0.25027619004E+02  0.51100000000E-03 0. -1.
        -11    1    3    3    0    0  0.86790897593E+01  0.25762514620E+02 -0.42820412006E+01  0.27520349484E+02  0.51100000000E-03 0.  1.
        -12    1    3    3    0    0 -0.59006083704E+01 -0.17593594021E+01 -0.27755625050E+01  0.67539819267E+01  0.00000000000E+00 0.  1.
</event>
<event>
 7    1  0.5755468E-013  0.5930194E+02  0.7816164E-02  0.1266605E+00
        -11   -1    0    0    0    0  0.00000000000E+00  0.00000000000E+00  0.45593999997E+02  0.45594000000E+02  0.51100000000E-03 0.  1.
         11   -1    0    0    0    0 -0.00000000000E+00 -0.00000000000E+00 -0.45593999997E+02  0.45594000000E+02  0.51100000000E-03 0. -1.
    9900012    2    1    2    0    0 -0.74096250978E+00  0.19955407043E+02 -0.24858677123E+02  0.59301935270E+02  0.49999984027E+02 0.  0.
        -12    1    1    2    0    0  0.74096250978E+00 -0.19955407043E+02  0.24858677123E+02  0.31886064730E+02  0.00000000000E+00 0.  1.
         11    1    3    3    0    0 -0.14413850858E+02 -0.79438361805E+01 -0.70849583555E+01  0.17918154620E+02  0.51100000000E-03 0. -1.
        -11    1    3    3    0    0  0.61829328300E+01  0.92571216452E+01  0.39331703796E+01  0.11806472336E+02  0.51100000000E-03 0.  1.
        -12    1    3    3    0    0  0.74899555185E+01  0.18642121579E+02 -0.21706889147E+02  0.29577308313E+02  0.00000000000E+00 0.  1.
</event>
<event>
 7    1  0.5755468E-013  0.5930194E+02  0.7816164E-02  0.1266605E+00
        -11   -1    0    0    0    0  0.00000000000E+00  0.00000000000E+00  0.45593999997E+02  0.45594000000E+02  0.51100000000E-03 0.  1.
         11   -1    0    0    0    0 -0.00000000000E+00 -0.00000000000E+00 -0.45593999997E+02  0.45594000000E+02  0.51100000000E-03 0. -1.
    9900012    2    1    2    0    0  0.21383773921E+02  0.23277997831E+02 -0.41939977212E+01  0.59301943690E+02  0.49999999383E+02 0.  0.
        -12    1    1    2    0    0 -0.21383773921E+02 -0.23277997831E+02  0.41939977212E+01  0.31886056310E+02  0.00000000000E+00 0.  1.
         11    1    3    3    0    0  0.25392832121E+02  0.94775989088E+01 -0.85923979145E+01  0.28433257048E+02  0.51100000000E-03 0. -1.
        -11    1    3    3    0    0 -0.97824435317E+00  0.10705703164E+02  0.15550620152E+02  0.18904783247E+02  0.51100000000E-03 0.  1.
         12    1    3    3    0    0 -0.30308138463E+01  0.30946957587E+01 -0.11152219959E+02  0.11963903394E+02  0.00000000000E+00 0. -1.
</event>
<event>
 7    1  0.5755468E-013  0.5930196E+02  0.7816164E-02  0.1266605E+00
        -11   -1    0    0    0    0  0.00000000000E+00  0.00000000000E+00  0.45593999997E+02  0.45594000000E+02  0.51100000000E-03 0.  1.
         11   -1    0    0    0    0 -0.00000000000E+00 -0.00000000000E+00 -0.45593999997E+02  0.45594000000E+02  0.51100000000E-03 0. -1.
    9900012    2    1    2    0    0 -0.28597163367E+01  0.26779306479E+02  0.17070743108E+02  0.59301960684E+02  0.50000030377E+02 0.  0.
        -12    1    1    2    0    0  0.28597163367E+01 -0.26779306479E+02 -0.17070743108E+02  0.31886039316E+02  0.00000000000E+00 0.  1.
         11    1    3    3    0    0 -0.11509892500E+02  0.48708603121E+01  0.71450967067E+01  0.14396364567E+02  0.51100000000E-03 0. -1.
        -11    1    3    3    0    0  0.20350472563E+02  0.19174326601E+02  0.15152522692E+02  0.31802444534E+02  0.51100000000E-03 0.  1.
        -12    1    3    3    0    0 -0.11700296399E+02  0.27341195656E+01 -0.52268762911E+01  0.13103151583E+02  0.00000000000E+00 0.  1.
</event>
<event>
 7    1  0.5755468E-013  0.5930186E+02  0.7816164E-02  0.1266605E+00
        -11   -1    0    0    0    0  0.00000000000E+00  0.00000000000E+00  0.45593999997E+02  0.45594000000E+02  0.51100000000E-03 0.  1.
         11   -1    0    0    0    0 -0.00000000000E+00 -0.00000000000E+00 -0.45593999997E+02  0.45594000000E+02  0.51100000000E-03 0. -1.
    9900012    2    1    2    0    0 -0.15791777516E+02 -0.80958553216E+01 -0.26491565442E+02  0.59301856456E+02  0.49999840290E+02 0.  0.
        -12    1    1    2    0    0  0.15791777516E+02  0.80958553216E+01  0.26491565442E+02  0.31886143544E+02  0.00000000000E+00 0.  1.
         11    1    3    3    0    0  0.14370741615E+02 -0.41503559862E+01 -0.98566866907E+01  0.17913624484E+02  0.51100000000E-03 0. -1.
        -11    1    3    3    0    0 -0.19350791098E+02 -0.52950068913E+01  0.16216332926E+01  0.20127590738E+02  0.51100000000E-03 0.  1.
         12    1    3    3    0    0 -0.10811728033E+02  0.13495075560E+01 -0.18256512044E+02  0.21260641235E+02  0.00000000000E+00 0. -1.
</event>
<event>
 7    1  0.5755468E-013  0.5930196E+02  0.7816164E-02  0.1266605E+00
        -11   -1    0    0    0    0  0.00000000000E+00  0.00000000000E+00  0.45593999997E+02  0.45594000000E+02  0.51100000000E-03 0.  1.
         11   -1    0    0    0    0 -0.00000000000E+00 -0.00000000000E+00 -0.45593999997E+02  0.45594000000E+02  0.51100000000E-03 0. -1.
    9900012    2    1    2    0    0  0.95929828452E+01 -0.28307126132E+01 -0.30276743165E+02  0.59301961826E+02  0.50000032459E+02 0.  0.
        -12    1    1    2    0    0 -0.95929828452E+01  0.28307126132E+01  0.30276743165E+02  0.31886038174E+02  0.00000000000E+00 0.  1.
         11    1    3    3    0    0 -0.36516784035E+00 -0.11638809172E+01 -0.10116494634E+02  0.10189770865E+02  0.51100000000E-03 0. -1.
        -11    1    3    3    0    0  0.17000103995E+02  0.16398743454E+02 -0.41828738343E+01  0.23987887704E+02  0.51100000000E-03 0.  1.
        -12    1    3    3    0    0 -0.70419533098E+01 -0.18065575150E+02 -0.15977374697E+02  0.25124303257E+02  0.00000000000E+00 0.  1.
</event>
<event>
 7    1  0.5755468E-013  0.5930195E+02  0.7816164E-02  0.1266605E+00
        -11   -1    0    0    0    0  0.00000000000E+00  0.00000000000E+00  0.45593999997E+02  0.45594000000E+02  0.51100000000E-03 0.  1.
         11   -1    0    0    0    0 -0.00000000000E+00 -0.00000000000E+00 -0.45593999997E+02  0.45594000000E+02  0.51100000000E-03 0. -1.
    9900012    2    1    2    0    0  0.22717454443E+02  0.87155852062E+01 -0.20607667159E+02  0.59301951207E+02  0.50000013094E+02 0.  0.
        -12    1    1    2    0    0 -0.22717454443E+02 -0.87155852062E+01  0.20607667159E+02  0.31886048793E+02  0.00000000000E+00 0.  1.
         11    1    3    3    0    0  0.71315261960E+01 -0.22208384865E+01  0.17855397950E+01  0.76797748722E+01  0.51100000000E-03 0. -1.
        -11    1    3    3    0    0  0.13198037007E+01  0.24337527623E+02 -0.38792937591E+01  0.24680074006E+02  0.51100000000E-03 0.  1.
        -12    1    3    3    0    0  0.14266124546E+02 -0.13401103930E+02 -0.18513913195E+02  0.26942102329E+02  0.00000000000E+00 0.  1.
</event>
<event>
 7    1  0.5755468E-013  0.5930192E+02  0.7816164E-02  0.1266605E+00
        -11   -1    0    0    0    0  0.00000000000E+00  0.00000000000E+00  0.45593999997E+02  0.45594000000E+02  0.51100000000E-03 0.  1.
         11   -1    0    0    0    0 -0.00000000000E+00 -0.00000000000E+00 -0.45593999997E+02  0.45594000000E+02  0.51100000000E-03 0. -1.
    9900012    2    1    2    0    0 -0.22762078898E+02 -0.39896442670E+01 -0.21970260606E+02  0.59301923913E+02  0.49999963315E+02 0.  0.
        -12    1    1    2    0    0  0.22762078898E+02  0.39896442670E+01  0.21970260606E+02  0.31886076087E+02  0.00000000000E+00 0.  1.
         11    1    3    3    0    0  0.30082108628E+01  0.17580569220E+02 -0.13862902921E+01  0.17889872770E+02  0.51100000000E-03 0.  1.
        -11    1    3    3    0    0 -0.25179279653E+02 -0.17569012661E+02 -0.14136581354E+02  0.33801024576E+02  0.51100000000E-03 0. -1.
        -12    1    3    3    0    0 -0.59101010758E+00 -0.40012008258E+01 -0.64473889599E+01  0.76110265665E+01  0.00000000000E+00 0.  1.
</event>
<event>
 7    1  0.5755468E-013  0.5930199E+02  0.7816164E-02  0.1266605E+00
        -11   -1    0    0    0    0  0.00000000000E+00  0.00000000000E+00  0.45593999997E+02  0.45594000000E+02  0.51100000000E-03 0.  1.
         11   -1    0    0    0    0 -0.00000000000E+00 -0.00000000000E+00 -0.45593999997E+02  0.45594000000E+02  0.51100000000E-03 0. -1.
    9900012    2    1    2    0    0 -0.42536249054E+01  0.18825293737E+02 -0.25381740861E+02  0.59301987733E+02  0.50000079708E+02 0.  0.
        -12    1    1    2    0    0  0.42536249054E+01 -0.18825293737E+02  0.25381740861E+02  0.31886012267E+02  0.00000000000E+00 0.  1.
         11    1    3    3    0    0  0.46430463037E+01 -0.28956424029E+01 -0.19795269560E+02  0.20537656174E+02  0.51100000000E-03 0. -1.
        -11    1    3    3    0    0 -0.64614268225E+01 -0.34579749237E+01  0.73265113858E+01  0.10362692531E+02  0.51100000000E-03 0.  1.
         12    1    3    3    0    0 -0.24352443866E+01  0.25178911064E+02 -0.12912982687E+02  0.28401639028E+02  0.00000000000E+00 0. -1.
</event>
<event>
 7    1  0.5755468E-013  0.5930195E+02  0.7816164E-02  0.1266605E+00
        -11   -1    0    0    0    0  0.00000000000E+00  0.00000000000E+00  0.45593999997E+02  0.45594000000E+02  0.51100000000E-03 0. -1.
         11   -1    0    0    0    0 -0.00000000000E+00 -0.00000000000E+00 -0.45593999997E+02  0.45594000000E+02  0.51100000000E-03 0.  1.
    9900012    2    1    2    0    0  0.26545147693E+02 -0.72834637879E+01  0.16094305707E+02  0.59301946826E+02  0.50000005104E+02 0.  0.
        -12    1    1    2    0    0 -0.26545147693E+02  0.72834637879E+01 -0.16094305707E+02  0.31886053174E+02  0.00000000000E+00 0.  1.
         11    1    3    3    0    0  0.33708967752E+02 -0.63718495249E+01  0.12880808971E+02  0.36644374920E+02  0.51100000000E-03 0. -1.
        -11    1    3    3    0    0 -0.10813349926E+02  0.28027427111E+01  0.93799840977E+01  0.14586569345E+02  0.51100000000E-03 0.  1.
        -12    1    3    3    0    0  0.36495298665E+01 -0.37143569741E+01 -0.61664873608E+01  0.80710025616E+01  0.00000000000E+00 0.  1.
</event>
<event>
 7    1  0.5755468E-013  0.5930195E+02  0.7816164E-02  0.1266605E+00
        -11   -1    0    0    0    0  0.00000000000E+00  0.00000000000E+00  0.45593999997E+02  0.45594000000E+02  0.51100000000E-03 0.  1.
         11   -1    0    0    0    0 -0.00000000000E+00 -0.00000000000E+00 -0.45593999997E+02  0.45594000000E+02  0.51100000000E-03 0. -1.
    9900012    2    1    2    0    0  0.13301037328E+02  0.19864193912E+02 -0.21100157552E+02  0.59301945956E+02  0.50000003517E+02 0.  0.
        -12    1    1    2    0    0 -0.13301037328E+02 -0.19864193912E+02  0.21100157552E+02  0.31886054044E+02  0.00000000000E+00 0.  1.
         11    1    3    3    0    0  0.64688721466E+01  0.18145243034E+02  0.51359409266E-01  0.19263924565E+02  0.51100000000E-03 0. -1.
        -11    1    3    3    0    0 -0.10348656183E+02 -0.44203019419E+01  0.10495547241E+01  0.11302005107E+02  0.51100000000E-03 0.  1.
        -12    1    3    3    0    0  0.17180821364E+02  0.61392528201E+01 -0.22201071685E+02  0.28736016284E+02  0.00000000000E+00 0.  1.
</event>
<event>
 7    1  0.5755468E-013  0.5930198E+02  0.7816164E-02  0.1266605E+00
        -11   -1    0    0    0    0  0.00000000000E+00  0.00000000000E+00  0.45593999997E+02  0.45594000000E+02  0.51100000000E-03 0.  1.
         11   -1    0    0    0    0 -0.00000000000E+00 -0.00000000000E+00 -0.45593999997E+02  0.45594000000E+02  0.51100000000E-03 0. -1.
    9900012    2    1    2    0    0 -0.87937415410E+01 -0.66518664166E+01 -0.29918912512E+02  0.59301975742E+02  0.50000057839E+02 0.  0.
        -12    1    1    2    0    0  0.87937415410E+01  0.66518664166E+01  0.29918912512E+02  0.31886024258E+02  0.00000000000E+00 0.  1.
         11    1    3    3    0    0 -0.86762726499E+01 -0.40394302912E+01 -0.81144485925E+01  0.12547469083E+02  0.51100000000E-03 0. -1.
        -11    1    3    3    0    0  0.11503288027E+02 -0.18409929681E+02 -0.12470419754E+02  0.25035225491E+02  0.51100000000E-03 0.  1.
        -12    1    3    3    0    0 -0.11620756918E+02  0.15797493555E+02 -0.93340441648E+01  0.21719281168E+02  0.00000000000E+00 0.  1.
</event>
<event>
 7    1  0.5755468E-013  0.5930195E+02  0.7816164E-02  0.1266605E+00
        -11   -1    0    0    0    0  0.00000000000E+00  0.00000000000E+00  0.45593999997E+02  0.45594000000E+02  0.51100000000E-03 0. -1.
         11   -1    0    0    0    0 -0.00000000000E+00 -0.00000000000E+00 -0.45593999997E+02  0.45594000000E+02  0.51100000000E-03 0.  1.
    9900012    2    1    2    0    0 -0.13148684136E+02  0.94121711754E+01  0.27481695942E+02  0.59301945484E+02  0.50000002657E+02 0.  0.
        -12    1    1    2    0    0  0.13148684136E+02 -0.94121711754E+01 -0.27481695942E+02  0.31886054516E+02  0.00000000000E+00 0.  1.
         11    1    3    3    0    0 -0.76101063225E+01 -0.61393785116E+01 -0.57803482521E+01  0.11358614041E+02  0.51100000000E-03 0.  1.
        -11    1    3    3    0    0 -0.34672076854E+01  0.27739242803E+01  0.34642128865E+02  0.34925539045E+02  0.51100000000E-03 0. -1.
        -12    1    3    3    0    0 -0.20713701281E+01  0.12777625407E+02 -0.13800846707E+01  0.13017792399E+02  0.00000000000E+00 0.  1.
</event>
<event>
 7    1  0.5755468E-013  0.5930194E+02  0.7816164E-02  0.1266605E+00
        -11   -1    0    0    0    0  0.00000000000E+00  0.00000000000E+00  0.45593999997E+02  0.45594000000E+02  0.51100000000E-03 0.  1.
         11   -1    0    0    0    0 -0.00000000000E+00 -0.00000000000E+00 -0.45593999997E+02  0.45594000000E+02  0.51100000000E-03 0. -1.
    9900012    2    1    2    0    0 -0.70235408207E+01  0.10018393393E+02 -0.29445243729E+02  0.59301941759E+02  0.49999995863E+02 0.  0.
        -12    1    1    2    0    0  0.70235408207E+01 -0.10018393393E+02  0.29445243729E+02  0.31886058241E+02  0.00000000000E+00 0.  1.
         11    1    3    3    0    0 -0.15368119307E+02  0.11853863908E+02 -0.40593830008E+02  0.44995024342E+02  0.51100000000E-03 0. -1.
        -11    1    3    3    0    0  0.57183044136E+01 -0.81147532707E-01  0.61855204868E+01  0.84241470929E+01  0.51100000000E-03 0.  1.
         12    1    3    3    0    0  0.26262740730E+01 -0.17543229823E+01  0.49630657917E+01  0.58827703241E+01  0.00000000000E+00 0. -1.
</event>
<event>
 7    1  0.7312379E-013  0.5930193E+02  0.7816164E-02  0.1266605E+00
        -11   -1    0    0    0    0  0.00000000000E+00  0.00000000000E+00  0.45593999997E+02  0.45594000000E+02  0.51100000000E-03 0. -1.
         11   -1    0    0    0    0 -0.00000000000E+00 -0.00000000000E+00 -0.45593999997E+02  0.45594000000E+02  0.51100000000E-03 0.  1.
    9900012    2    1    2    0    0 -0.35456350551E+01  0.71735770139E+01  0.30865676112E+02  0.59301926285E+02  0.49999967641E+02 0.  0.
        -12    1    1    2    0    0  0.35456350551E+01 -0.71735770139E+01 -0.30865676112E+02  0.31886073715E+02  0.00000000000E+00 0.  1.
         11    1    3    3    0    0  0.14043615115E+02 -0.20925625585E+01  0.26864596109E+02  0.30385991310E+02  0.51100000000E-03 0. -1.
        -11    1    3    3    0    0 -0.88602722015E+01  0.36199544902E+01 -0.83994867571E+01  0.12734200879E+02  0.51100000000E-03 0.  1.
         12    1    3    3    0    0 -0.87289779684E+01  0.56461850822E+01  0.12400566760E+02  0.16181734095E+02  0.00000000000E+00 0. -1.
</event>
<event>
 7    1  0.5755468E-013  0.5930195E+02  0.7816164E-02  0.1266605E+00
        -11   -1    0    0    0    0  0.00000000000E+00  0.00000000000E+00  0.45593999997E+02  0.45594000000E+02  0.51100000000E-03 0. -1.
         11   -1    0    0    0    0 -0.00000000000E+00 -0.00000000000E+00 -0.45593999997E+02  0.45594000000E+02  0.51100000000E-03 0.  1.
    9900012    2    1    2    0    0  0.19715372468E+02 -0.23624786377E+02  0.83602648178E+01  0.59301945513E+02  0.50000002708E+02 0.  0.
        -12    1    1    2    0    0 -0.19715372468E+02  0.23624786377E+02 -0.83602648178E+01  0.31886054487E+02  0.00000000000E+00 0.  1.
         11    1    3    3    0    0  0.25577933531E+00  0.70268958757E+01  0.13491717809E+02  0.15214109846E+02  0.51100000000E-03 0. -1.
        -11    1    3    3    0    0  0.22100732576E+02 -0.19705002046E+02 -0.10753193482E+02  0.31501756402E+02  0.51100000000E-03 0.  1.
         12    1    3    3    0    0 -0.26411394434E+01 -0.10946680207E+02  0.56217404910E+01  0.12586079265E+02  0.00000000000E+00 0. -1.
</event>
<event>
 7    1  0.5755468E-013  0.5930198E+02  0.7816164E-02  0.1266605E+00
        -11   -1    0    0    0    0  0.00000000000E+00  0.00000000000E+00  0.45593999997E+02  0.45594000000E+02  0.51100000000E-03 0. -1.
         11   -1    0    0    0    0 -0.00000000000E+00 -0.00000000000E+00 -0.45593999997E+02  0.45594000000E+02  0.51100000000E-03 0.  1.
    9900012    2    1    2    0    0 -0.19625786635E+02 -0.12761080044E+02  0.21649521290E+02  0.59301977403E+02  0.50000060869E+02 0.  0.
        -12    1    1    2    0    0  0.19625786635E+02  0.12761080044E+02 -0.21649521290E+02  0.31886022597E+02  0.00000000000E+00 0.  1.
         11    1    3    3    0    0  0.79416742329E+00  0.41308390720E+01 -0.72956717043E+01  0.84214820082E+01  0.51100000000E-03 0. -1.
        -11    1    3    3    0    0 -0.26539690985E+02 -0.18287164735E+02  0.14922270053E+02  0.35516893662E+02  0.51100000000E-03 0.  1.
        -12    1    3    3    0    0  0.61197369263E+01  0.13952456198E+01  0.14022922941E+02  0.15363601733E+02  0.00000000000E+00 0.  1.
</event>
<event>
 7    1  0.5755468E-013  0.5930195E+02  0.7816164E-02  0.1266605E+00
        -11   -1    0    0    0    0  0.00000000000E+00  0.00000000000E+00  0.45593999997E+02  0.45594000000E+02  0.51100000000E-03 0.  1.
         11   -1    0    0    0    0 -0.00000000000E+00 -0.00000000000E+00 -0.45593999997E+02  0.45594000000E+02  0.51100000000E-03 0. -1.
    9900012    2    1    2    0    0  0.22779592321E+02 -0.11047124105E+02 -0.19384826505E+02  0.59301948568E+02  0.50000008280E+02 0.  0.
        -12    1    1    2    0    0 -0.22779592321E+02  0.11047124105E+02  0.19384826505E+02  0.31886051432E+02  0.00000000000E+00 0.  1.
         11    1    3    3    0    0  0.11853433844E+02  0.87955571367E+01  0.65059195539E+01  0.16130490034E+02  0.51100000000E-03 0.  1.
        -11    1    3    3    0    0 -0.73166628858E+01 -0.50423388993E+00 -0.92616232984E+01  0.11813783221E+02  0.51100000000E-03 0. -1.
         12    1    3    3    0    0  0.18242821363E+02 -0.19338447352E+02 -0.16629122761E+02  0.31357675313E+02  0.00000000000E+00 0. -1.
</event>
<event>
 7    1  0.5755468E-013  0.5930195E+02  0.7816164E-02  0.1266605E+00
        -11   -1    0    0    0    0  0.00000000000E+00  0.00000000000E+00  0.45593999997E+02  0.45594000000E+02  0.51100000000E-03 0.  1.
         11   -1    0    0    0    0 -0.00000000000E+00 -0.00000000000E+00 -0.45593999997E+02  0.45594000000E+02  0.51100000000E-03 0. -1.
    9900012    2    1    2    0    0  0.16824332045E+02  0.16178142296E+02 -0.21723947965E+02  0.59301947374E+02  0.50000006103E+02 0.  0.
        -12    1    1    2    0    0 -0.16824332045E+02 -0.16178142296E+02  0.21723947965E+02  0.31886052626E+02  0.00000000000E+00 0.  1.
         11    1    3    3    0    0  0.18269067965E+02  0.18213691416E+02 -0.11339938987E+02  0.28179631222E+02  0.51100000000E-03 0. -1.
        -11    1    3    3    0    0 -0.32772855012E+01 -0.10853566502E+02  0.56989202745E+01  0.12689294646E+02  0.51100000000E-03 0.  1.
         12    1    3    3    0    0  0.18325495811E+01  0.88180173815E+01 -0.16082929252E+02  0.18433021506E+02  0.00000000000E+00 0. -1.
</event>
<event>
 7    1  0.5755468E-013  0.5930203E+02  0.7816164E-02  0.1266604E+00
        -11   -1    0    0    0    0  0.00000000000E+00  0.00000000000E+00  0.45593999997E+02  0.45594000000E+02  0.51100000000E-03 0.  1.
         11   -1    0    0    0    0 -0.00000000000E+00 -0.00000000000E+00 -0.45593999997E+02  0.45594000000E+02  0.51100000000E-03 0. -1.
    9900012    2    1    2    0    0  0.25474040422E+02  0.14426318950E+02 -0.12636053504E+02  0.59302027190E+02  0.50000151668E+02 0.  0.
        -12    1    1    2    0    0 -0.25474040422E+02 -0.14426318950E+02  0.12636053504E+02  0.31885972810E+02  0.00000000000E+00 0.  1.
         11    1    3    3    0    0 -0.17148438031E+01 -0.14448832685E+02 -0.86001839516E+01  0.16901852546E+02  0.51100000000E-03 0.  1.
        -11    1    3    3    0    0  0.27449886657E+02  0.22327214196E+02 -0.51389242799E+01  0.35754850220E+02  0.51100000000E-03 0. -1.
        -12    1    3    3    0    0 -0.26100243134E+00  0.65479374386E+01  0.11030547279E+01  0.66453244241E+01  0.00000000000E+00 0.  1.
</event>
<event>
 7    1  0.5755468E-013  0.5930204E+02  0.7816164E-02  0.1266604E+00
        -11   -1    0    0    0    0  0.00000000000E+00  0.00000000000E+00  0.45593999997E+02  0.45594000000E+02  0.51100000000E-03 0.  1.
         11   -1    0    0    0    0 -0.00000000000E+00 -0.00000000000E+00 -0.45593999997E+02  0.45594000000E+02  0.51100000000E-03 0. -1.
    9900012    2    1    2    0    0 -0.19290283575E+02 -0.13615151394E+02 -0.21429589078E+02  0.59302036380E+02  0.50000168428E+02 0.  0.
        -12    1    1    2    0    0  0.19290283575E+02  0.13615151394E+02  0.21429589078E+02  0.31885963620E+02  0.00000000000E+00 0.  1.
         11    1    3    3    0    0  0.32515004568E+01 -0.56882845344E+01 -0.12688683629E+02  0.14280459680E+02  0.51100000000E-03 0. -1.
        -11    1    3    3    0    0 -0.61391531558E+01  0.70007989508E+01  0.11636387122E+02  0.14903217536E+02  0.51100000000E-03 0.  1.
        -12    1    3    3    0    0 -0.16402630876E+02 -0.14927665811E+02 -0.20377292571E+02  0.30118359164E+02  0.00000000000E+00 0.  1.
</event>
<event>
 7    1  0.5755468E-013  0.5930195E+02  0.7816164E-02  0.1266605E+00
        -11   -1    0    0    0    0  0.00000000000E+00  0.00000000000E+00  0.45593999997E+02  0.45594000000E+02  0.51100000000E-03 0. -1.
         11   -1    0    0    0    0 -0.00000000000E+00 -0.00000000000E+00 -0.45593999997E+02  0.45594000000E+02  0.51100000000E-03 0.  1.
    9900012    2    1    2    0    0 -0.38952234731E+01  0.26667185794E+02  0.17041379969E+02  0.59301949832E+02  0.50000010586E+02 0.  0.
        -12    1    1    2    0    0  0.38952234731E+01 -0.26667185794E+02 -0.17041379969E+02  0.31886050168E+02  0.00000000000E+00 0.  1.
         11    1    3    3    0    0 -0.31001342033E+00  0.38468415916E+02  0.23548824985E+02  0.45105014021E+02  0.51100000000E-03 0. -1.
        -11    1    3    3    0    0 -0.13635533446E+01 -0.86580251137E+01 -0.43592152460E+01  0.97889444995E+01  0.51100000000E-03 0.  1.
         12    1    3    3    0    0 -0.22216567081E+01 -0.31432050088E+01 -0.21482297703E+01  0.44079913115E+01  0.00000000000E+00 0. -1.
</event>
<event>
 7    1  0.5755468E-013  0.5930194E+02  0.7816164E-02  0.1266605E+00
        -11   -1    0    0    0    0  0.00000000000E+00  0.00000000000E+00  0.45593999997E+02  0.45594000000E+02  0.51100000000E-03 0.  1.
         11   -1    0    0    0    0 -0.00000000000E+00 -0.00000000000E+00 -0.45593999997E+02  0.45594000000E+02  0.51100000000E-03 0. -1.
    9900012    2    1    2    0    0  0.47645659209E+01 -0.25807528555E+02 -0.18110524266E+02  0.59301941797E+02  0.49999995931E+02 0.  0.
        -12    1    1    2    0    0 -0.47645659209E+01  0.25807528555E+02  0.18110524266E+02  0.31886058203E+02  0.00000000000E+00 0.  1.
         11    1    3    3    0    0 -0.81260120136E+01 -0.18580148407E+02 -0.17863956029E+02  0.27025449327E+02  0.51100000000E-03 0. -1.
        -11    1    3    3    0    0  0.21348823602E+02 -0.96567660933E+01 -0.93031261407E+00  0.23449752289E+02  0.51100000000E-03 0.  1.
        -12    1    3    3    0    0 -0.84582456679E+01  0.24293859452E+01  0.68374437649E+00  0.88267401809E+01  0.00000000000E+00 0.  1.
</event>
<event>
 7    1  0.5755468E-013  0.5930195E+02  0.7816164E-02  0.1266605E+00
        -11   -1    0    0    0    0  0.00000000000E+00  0.00000000000E+00  0.45593999997E+02  0.45594000000E+02  0.51100000000E-03 0.  1.
         11   -1    0    0    0    0 -0.00000000000E+00 -0.00000000000E+00 -0.45593999997E+02  0.45594000000E+02  0.51100000000E-03 0. -1.
    9900012    2    1    2    0    0  0.30113825247E+02  0.81461421808E+01 -0.65968160631E+01  0.59301951552E+02  0.50000013722E+02 0.  0.
        -12    1    1    2    0    0 -0.30113825247E+02 -0.81461421808E+01  0.65968160631E+01  0.31886048448E+02  0.00000000000E+00 0.  1.
         11    1    3    3    0    0  0.11499056345E+02 -0.14954031669E+02 -0.59649347273E+00  0.18873451319E+02  0.51100000000E-03 0. -1.
        -11    1    3    3    0    0  0.18279538941E+02  0.17306195787E+02 -0.15306645894E+02  0.29460810669E+02  0.51100000000E-03 0.  1.
        -12    1    3    3    0    0  0.33522996159E+00  0.57939780634E+01  0.93063233035E+01  0.10967689563E+02  0.00000000000E+00 0.  1.
</event>
<event>
 7    1  0.5755468E-013  0.5930196E+02  0.7816164E-02  0.1266605E+00
        -11   -1    0    0    0    0  0.00000000000E+00  0.00000000000E+00  0.45593999997E+02  0.45594000000E+02  0.51100000000E-03 0.  1.
         11   -1    0    0    0    0 -0.00000000000E+00 -0.00000000000E+00 -0.45593999997E+02  0.45594000000E+02  0.51100000000E-03 0. -1.
    9900012    2    1    2    0    0  0.56167445358E+01  0.72254975728E+01 -0.30544458907E+02  0.59301959100E+02  0.50000027488E+02 0.  0.
        -12    1    1    2    0    0 -0.56167445358E+01 -0.72254975728E+01  0.30544458907E+02  0.31886040900E+02  0.00000000000E+00 0.  1.
         11    1    3    3    0    0 -0.57537724509E+01  0.22933928485E+02 -0.26530511415E+02  0.35537853190E+02  0.51100000000E-03 0. -1.
        -11    1    3    3    0    0  0.20644847092E+01 -0.10841565402E+02 -0.67173071860E+01  0.12919901454E+02  0.51100000000E-03 0.  1.
         12    1    3    3    0    0  0.93060322775E+01 -0.48668655095E+01  0.27033596943E+01  0.10844204456E+02  0.00000000000E+00 0. -1.
</event>
<event>
 7    1  0.5755468E-013  0.5930197E+02  0.7816164E-02  0.1266605E+00
        -11   -1    0    0    0    0  0.00000000000E+00  0.00000000000E+00  0.45593999997E+02  0.45594000000E+02  0.51100000000E-03 0.  1.
         11   -1    0    0    0    0 -0.00000000000E+00 -0.00000000000E+00 -0.45593999997E+02  0.45594000000E+02  0.51100000000E-03 0. -1.
    9900012    2    1    2    0    0 -0.25454521788E+02 -0.13036726801E+02 -0.14100704312E+02  0.59301971912E+02  0.50000050854E+02 0.  0.
        -12    1    1    2    0    0  0.25454521788E+02  0.13036726801E+02  0.14100704312E+02  0.31886028088E+02  0.00000000000E+00 0.  1.
         11    1    3    3    0    0 -0.13495044622E+02 -0.92575635620E+01 -0.18426025295E+02  0.24644210697E+02  0.51100000000E-03 0. -1.
        -11    1    3    3    0    0  0.90249799977E+01  0.49621079647E+01  0.59028008383E+01  0.11870797674E+02  0.51100000000E-03 0.  1.
         12    1    3    3    0    0 -0.20984457164E+02 -0.87412712039E+01 -0.15774798555E+01  0.22786963541E+02  0.00000000000E+00 0. -1.
</event>
<event>
 7    1  0.5755468E-013  0.5930196E+02  0.7816164E-02  0.1266605E+00
        -11   -1    0    0    0    0  0.00000000000E+00  0.00000000000E+00  0.45593999997E+02  0.45594000000E+02  0.51100000000E-03 0.  1.
         11   -1    0    0    0    0 -0.00000000000E+00 -0.00000000000E+00 -0.45593999997E+02  0.45594000000E+02  0.51100000000E-03 0. -1.
    9900012    2    1    2    0    0 -0.15744512171E+02  0.26997432931E+02 -0.63220556360E+01  0.59301961741E+02  0.50000032305E+02 0.  0.
        -12    1    1    2    0    0  0.15744512171E+02 -0.26997432931E+02  0.63220556360E+01  0.31886038259E+02  0.00000000000E+00 0.  1.
         11    1    3    3    0    0 -0.93800009334E+01 -0.46313573822E+01  0.75199997127E+01  0.12883488839E+02  0.51100000000E-03 0. -1.
        -11    1    3    3    0    0  0.12108950564E+02  0.15543659009E+02 -0.45639123128E+01  0.20225264276E+02  0.51100000000E-03 0.  1.
         12    1    3    3    0    0 -0.18473461801E+02  0.16085131304E+02 -0.92781430359E+01  0.26193208627E+02  0.00000000000E+00 0. -1.
</event>
<event>
 7    1  0.5755468E-013  0.5930196E+02  0.7816164E-02  0.1266605E+00
        -11   -1    0    0    0    0  0.00000000000E+00  0.00000000000E+00  0.45593999997E+02  0.45594000000E+02  0.51100000000E-03 0.  1.
         11   -1    0    0    0    0 -0.00000000000E+00 -0.00000000000E+00 -0.45593999997E+02  0.45594000000E+02  0.51100000000E-03 0. -1.
    9900012    2    1    2    0    0 -0.14648707659E+02 -0.14986703538E+02 -0.24031925289E+02  0.59301963054E+02  0.50000034699E+02 0.  0.
        -12    1    1    2    0    0  0.14648707659E+02  0.14986703538E+02  0.24031925289E+02  0.31886036946E+02  0.00000000000E+00 0.  1.
         11    1    3    3    0    0 -0.16537421688E+02 -0.10770206940E+02  0.40576743611E+01  0.20148161085E+02  0.51100000000E-03 0. -1.
        -11    1    3    3    0    0  0.12160330036E+02  0.32791169022E+01 -0.66896111257E+01  0.14261035429E+02  0.51100000000E-03 0.  1.
         12    1    3    3    0    0 -0.10271616007E+02 -0.74956135005E+01 -0.21399988525E+02  0.24892766540E+02  0.00000000000E+00 0. -1.
</event>
<event>
 7    1  0.5755468E-013  0.5930199E+02  0.7816164E-02  0.1266605E+00
        -11   -1    0    0    0    0  0.00000000000E+00  0.00000000000E+00  0.45593999997E+02  0.45594000000E+02  0.51100000000E-03 0.  1.
         11   -1    0    0    0    0 -0.00000000000E+00 -0.00000000000E+00 -0.45593999997E+02  0.45594000000E+02  0.51100000000E-03 0. -1.
    9900012    2    1    2    0    0 -0.23143896149E+02 -0.18262045163E+02 -0.12148072682E+02  0.59301985944E+02  0.50000076446E+02 0.  0.
        -12    1    1    2    0    0  0.23143896149E+02  0.18262045163E+02  0.12148072682E+02  0.31886014056E+02  0.00000000000E+00 0.  1.
         11    1    3    3    0    0 -0.29176799866E+02  0.30467114738E+01  0.95759088202E-01  0.29335597340E+02  0.51100000000E-03 0. -1.
        -11    1    3    3    0    0  0.16167081528E+01 -0.10383142309E+02  0.27823525491E+01  0.10870366849E+02  0.51100000000E-03 0.  1.
         12    1    3    3    0    0  0.44161955641E+01 -0.10925614327E+02 -0.15026184320E+02  0.19096021756E+02  0.00000000000E+00 0. -1.
</event>
<event>
 7    1  0.5755468E-013  0.5930191E+02  0.7816164E-02  0.1266605E+00
        -11   -1    0    0    0    0  0.00000000000E+00  0.00000000000E+00  0.45593999997E+02  0.45594000000E+02  0.51100000000E-03 0.  1.
         11   -1    0    0    0    0 -0.00000000000E+00 -0.00000000000E+00 -0.45593999997E+02  0.45594000000E+02  0.51100000000E-03 0. -1.
    9900012    2    1    2    0    0  0.17886388314E+02  0.24345668485E+02 -0.10202368974E+02  0.59301909089E+02  0.49999936279E+02 0.  0.
        -12    1    1    2    0    0 -0.17886388314E+02 -0.24345668485E+02  0.10202368974E+02  0.31886090911E+02  0.00000000000E+00 0.  1.
         11    1    3    3    0    0  0.23680862107E+02  0.18121401257E+02 -0.99519421928E+01  0.31435800727E+02  0.51100000000E-03 0. -1.
        -11    1    3    3    0    0 -0.14443492191E+02  0.99499986996E+01 -0.35363007781E+01  0.17891963678E+02  0.51100000000E-03 0.  1.
        -12    1    3    3    0    0  0.86490183983E+01 -0.37257314712E+01  0.32858739967E+01  0.99741446838E+01  0.00000000000E+00 0.  1.
</event>
<event>
 7    1  0.5755468E-013  0.5930194E+02  0.7816164E-02  0.1266605E+00
        -11   -1    0    0    0    0  0.00000000000E+00  0.00000000000E+00  0.45593999997E+02  0.45594000000E+02  0.51100000000E-03 0.  1.
         11   -1    0    0    0    0 -0.00000000000E+00 -0.00000000000E+00 -0.45593999997E+02  0.45594000000E+02  0.51100000000E-03 0. -1.
    9900012    2    1    2    0    0  0.99799566150E+01 -0.30212902609E+02 -0.20740332781E+01  0.59301942983E+02  0.49999998094E+02 0.  0.
        -12    1    1    2    0    0 -0.99799566150E+01  0.30212902609E+02  0.20740332781E+01  0.31886057017E+02  0.00000000000E+00 0.  1.
         11    1    3    3    0    0 -0.49411952977E+01 -0.16244753656E+02 -0.16002176987E+02  0.23331890213E+02  0.51100000000E-03 0. -1.
        -11    1    3    3    0    0  0.13878276646E+02 -0.77695161147E+01 -0.44753295749E+01  0.16522727329E+02  0.51100000000E-03 0.  1.
        -12    1    3    3    0    0  0.10428752663E+01 -0.61986328377E+01  0.18403473284E+02  0.19447325440E+02  0.00000000000E+00 0.  1.
</event>
<event>
 7    1  0.5755468E-013  0.5930196E+02  0.7816164E-02  0.1266605E+00
        -11   -1    0    0    0    0  0.00000000000E+00  0.00000000000E+00  0.45593999997E+02  0.45594000000E+02  0.51100000000E-03 0.  1.
         11   -1    0    0    0    0 -0.00000000000E+00 -0.00000000000E+00 -0.45593999997E+02  0.45594000000E+02  0.51100000000E-03 0. -1.
    9900012    2    1    2    0    0  0.26605464215E+02 -0.72429310350E+01 -0.16012777925E+02  0.59301955514E+02  0.50000020949E+02 0.  0.
        -12    1    1    2    0    0 -0.26605464215E+02  0.72429310350E+01  0.16012777925E+02  0.31886044486E+02  0.00000000000E+00 0.  1.
         11    1    3    3    0    0  0.66618397325E+01  0.17950663976E+02 -0.74397202431E+01  0.20541564774E+02  0.51100000000E-03 0.  1.
        -11    1    3    3    0    0  0.23588168473E+02 -0.18014649166E+02 -0.76937837538E+01  0.30661434820E+02  0.51100000000E-03 0. -1.
         12    1    3    3    0    0 -0.36445439910E+01 -0.71789458456E+01 -0.87927392849E+00  0.80989559202E+01  0.00000000000E+00 0. -1.
</event>
<event>
 7    1  0.5755468E-013  0.5930195E+02  0.7816164E-02  0.1266605E+00
        -11   -1    0    0    0    0  0.00000000000E+00  0.00000000000E+00  0.45593999997E+02  0.45594000000E+02  0.51100000000E-03 0.  1.
         11   -1    0    0    0    0 -0.00000000000E+00 -0.00000000000E+00 -0.45593999997E+02  0.45594000000E+02  0.51100000000E-03 0. -1.
    9900012    2    1    2    0    0  0.27534689989E+02 -0.15967538409E+02 -0.18970372019E+01  0.59301949982E+02  0.50000010858E+02 0.  0.
        -12    1    1    2    0    0 -0.27534689989E+02  0.15967538409E+02  0.18970372019E+01  0.31886050018E+02  0.00000000000E+00 0.  1.
         11    1    3    3    0    0  0.11455387057E+02  0.18746270204E+01 -0.30596680997E+01  0.12004236262E+02  0.51100000000E-03 0. -1.
        -11    1    3    3    0    0  0.11612732902E+02 -0.28042696711E+02  0.11154143067E+02  0.32336717707E+02  0.51100000000E-03 0.  1.
        -12    1    3    3    0    0  0.44665700306E+01  0.10200531282E+02 -0.99915121688E+01  0.14960996012E+02  0.00000000000E+00 0.  1.
</event>
<event>
 7    1  0.5755468E-013  0.5930195E+02  0.7816164E-02  0.1266605E+00
        -11   -1    0    0    0    0  0.00000000000E+00  0.00000000000E+00  0.45593999997E+02  0.45594000000E+02  0.51100000000E-03 0. -1.
         11   -1    0    0    0    0 -0.00000000000E+00 -0.00000000000E+00 -0.45593999997E+02  0.45594000000E+02  0.51100000000E-03 0.  1.
    9900012    2    1    2    0    0  0.23536910343E+02 -0.16540968281E+01  0.21447564031E+02  0.59301949952E+02  0.50000010804E+02 0.  0.
        -12    1    1    2    0    0 -0.23536910343E+02  0.16540968281E+01 -0.21447564031E+02  0.31886050048E+02  0.00000000000E+00 0.  1.
         11    1    3    3    0    0  0.66085959666E+01 -0.21119154479E+01  0.15520857670E+00  0.69395833789E+01  0.51100000000E-03 0. -1.
        -11    1    3    3    0    0  0.12251159993E+02  0.18761161377E+02  0.24499187091E+02  0.33200636527E+02  0.51100000000E-03 0.  1.
        -12    1    3    3    0    0  0.46771543829E+01 -0.18303342758E+02 -0.32068316363E+01  0.19161730046E+02  0.00000000000E+00 0.  1.
</event>
<event>
 7    1  0.5755468E-013  0.5930197E+02  0.7816164E-02  0.1266605E+00
        -11   -1    0    0    0    0  0.00000000000E+00  0.00000000000E+00  0.45593999997E+02  0.45594000000E+02  0.51100000000E-03 0.  1.
         11   -1    0    0    0    0 -0.00000000000E+00 -0.00000000000E+00 -0.45593999997E+02  0.45594000000E+02  0.51100000000E-03 0. -1.
    9900012    2    1    2    0    0 -0.31803801810E+02 -0.88629463908E+00  0.21098861760E+01  0.59301969400E+02  0.50000046273E+02 0.  0.
        -12    1    1    2    0    0  0.31803801810E+02  0.88629463908E+00 -0.21098861760E+01  0.31886030600E+02  0.00000000000E+00 0.  1.
         11    1    3    3    0    0 -0.18970650994E+02 -0.85028022510E+01 -0.21817690706E+02  0.30136271721E+02  0.51100000000E-03 0. -1.
        -11    1    3    3    0    0 -0.47732241024E+01  0.41661036292E+01  0.16501458998E+02  0.17675922525E+02  0.51100000000E-03 0.  1.
         12    1    3    3    0    0 -0.80599267140E+01  0.34504039827E+01  0.74261178836E+01  0.11489775154E+02  0.00000000000E+00 0. -1.
</event>
<event>
 7    1  0.5755468E-013  0.5930193E+02  0.7816164E-02  0.1266605E+00
        -11   -1    0    0    0    0  0.00000000000E+00  0.00000000000E+00  0.45593999997E+02  0.45594000000E+02  0.51100000000E-03 0.  1.
         11   -1    0    0    0    0 -0.00000000000E+00 -0.00000000000E+00 -0.45593999997E+02  0.45594000000E+02  0.51100000000E-03 0. -1.
    9900012    2    1    2    0    0 -0.36153261067E+01 -0.10776940653E+02 -0.29791078518E+02  0.59301931068E+02  0.49999976364E+02 0.  0.
        -12    1    1    2    0    0  0.36153261067E+01  0.10776940653E+02  0.29791078518E+02  0.31886068932E+02  0.00000000000E+00 0.  1.
         11    1    3    3    0    0 -0.82445543595E+01 -0.22801067827E+02 -0.24720948112E+02  0.34626386564E+02  0.51100000000E-03 0. -1.
        -11    1    3    3    0    0  0.10041821386E+02  0.12919944956E+02 -0.82592867370E+01  0.18329729187E+02  0.51100000000E-03 0.  1.
         12    1    3    3    0    0 -0.54125931335E+01 -0.89581778213E+00  0.31891563313E+01  0.63458153166E+01  0.00000000000E+00 0. -1.
</event>
<event>
 7    1  0.5755468E-013  0.5930193E+02  0.7816164E-02  0.1266605E+00
        -11   -1    0    0    0    0  0.00000000000E+00  0.00000000000E+00  0.45593999997E+02  0.45594000000E+02  0.51100000000E-03 0.  1.
         11   -1    0    0    0    0 -0.00000000000E+00 -0.00000000000E+00 -0.45593999997E+02  0.45594000000E+02  0.51100000000E-03 0. -1.
    9900012    2    1    2    0    0 -0.63923651329E+00  0.11287029805E+02 -0.29814686388E+02  0.59301934242E+02  0.49999982153E+02 0.  0.
        -12    1    1    2    0    0  0.63923651329E+00 -0.11287029805E+02  0.29814686388E+02  0.31886065758E+02  0.00000000000E+00 0.  1.
         11    1    3    3    0    0 -0.18532140193E+02 -0.45971709011E+01 -0.81681184989E+01  0.20767579553E+02  0.51100000000E-03 0. -1.
        -11    1    3    3    0    0  0.16608895509E+02  0.12455659267E+02 -0.48181301157E+01  0.21312278993E+02  0.51100000000E-03 0.  1.
         12    1    3    3    0    0  0.12840081701E+01  0.34285414387E+01 -0.16828437773E+02  0.17222075695E+02  0.00000000000E+00 0. -1.
</event>
<event>
 7    1  0.5755468E-013  0.5930196E+02  0.7816164E-02  0.1266605E+00
        -11   -1    0    0    0    0  0.00000000000E+00  0.00000000000E+00  0.45593999997E+02  0.45594000000E+02  0.51100000000E-03 0. -1.
         11   -1    0    0    0    0 -0.00000000000E+00 -0.00000000000E+00 -0.45593999997E+02  0.45594000000E+02  0.51100000000E-03 0.  1.
    9900012    2    1    2    0    0  0.31375643766E+01  0.17548257697E+02  0.26437353366E+02  0.59301963692E+02  0.50000035863E+02 0.  0.
        -12    1    1    2    0    0 -0.31375643766E+01 -0.17548257697E+02 -0.26437353366E+02  0.31886036308E+02  0.00000000000E+00 0.  1.
         11    1    3    3    0    0  0.42039878812E+01  0.10200601919E+02 -0.94034889204E+00  0.11072942243E+02  0.51100000000E-03 0. -1.
        -11    1    3    3    0    0  0.12408788104E+02 -0.10811105103E+02  0.15844363480E+02  0.22845171702E+02  0.51100000000E-03 0.  1.
        -12    1    3    3    0    0 -0.13475211608E+02  0.18158760881E+02  0.11533338779E+02  0.25383849748E+02  0.00000000000E+00 0.  1.
</event>
<event>
 7    1  0.5755468E-013  0.5930195E+02  0.7816164E-02  0.1266605E+00
        -11   -1    0    0    0    0  0.00000000000E+00  0.00000000000E+00  0.45593999997E+02  0.45594000000E+02  0.51100000000E-03 0.  1.
         11   -1    0    0    0    0 -0.00000000000E+00 -0.00000000000E+00 -0.45593999997E+02  0.45594000000E+02  0.51100000000E-03 0. -1.
    9900012    2    1    2    0    0  0.27649476226E+02  0.14387485830E+02 -0.67251155315E+01  0.59301945634E+02  0.50000002930E+02 0.  0.
        -12    1    1    2    0    0 -0.27649476226E+02 -0.14387485830E+02  0.67251155315E+01  0.31886054366E+02  0.00000000000E+00 0.  1.
         11    1    3    3    0    0  0.16918913543E+02  0.15313399147E+01 -0.26227286833E+02  0.31248443357E+02  0.51100000000E-03 0. -1.
        -11    1    3    3    0    0  0.20093111678E+01 -0.11592609500E+01  0.69177879279E+01  0.72963694667E+01  0.51100000000E-03 0.  1.
         12    1    3    3    0    0  0.87212515159E+01  0.14015406865E+02  0.12584383373E+02  0.20757132810E+02  0.00000000000E+00 0. -1.
</event>
<event>
 7    1  0.5755468E-013  0.5930192E+02  0.7816164E-02  0.1266605E+00
        -11   -1    0    0    0    0  0.00000000000E+00  0.00000000000E+00  0.45593999997E+02  0.45594000000E+02  0.51100000000E-03 0.  1.
         11   -1    0    0    0    0 -0.00000000000E+00 -0.00000000000E+00 -0.45593999997E+02  0.45594000000E+02  0.51100000000E-03 0. -1.
    9900012    2    1    2    0    0  0.13299486885E+02 -0.58132010975E+01 -0.28391062051E+02  0.59301920549E+02  0.49999957180E+02 0.  0.
        -12    1    1    2    0    0 -0.13299486885E+02  0.58132010975E+01  0.28391062051E+02  0.31886079451E+02  0.00000000000E+00 0.  1.
         11    1    3    3    0    0  0.27227703610E+02  0.26288664383E+01 -0.15622116771E+02  0.31500941499E+02  0.51100000000E-03 0. -1.
        -11    1    3    3    0    0  0.87557577282E+00 -0.96374216918E+00  0.40053545357E+01  0.42116857813E+01  0.51100000000E-03 0.  1.
         12    1    3    3    0    0 -0.14803792498E+02 -0.74783253666E+01 -0.16774299815E+02  0.23589293268E+02  0.00000000000E+00 0. -1.
</event>
<event>
 7    1  0.5755468E-013  0.5930196E+02  0.7816164E-02  0.1266605E+00
        -11   -1    0    0    0    0  0.00000000000E+00  0.00000000000E+00  0.45593999997E+02  0.45594000000E+02  0.51100000000E-03 0.  1.
         11   -1    0    0    0    0 -0.00000000000E+00 -0.00000000000E+00 -0.45593999997E+02  0.45594000000E+02  0.51100000000E-03 0. -1.
    9900012    2    1    2    0    0 -0.22678940255E+02  0.22357480694E+02 -0.15901410305E+01  0.59301955676E+02  0.50000021244E+02 0.  0.
        -12    1    1    2    0    0  0.22678940255E+02 -0.22357480694E+02  0.15901410305E+01  0.31886044324E+02  0.00000000000E+00 0.  1.
         11    1    3    3    0    0  0.30984273873E+01  0.17547514191E+02  0.92935868961E+00  0.17843183975E+02  0.51100000000E-03 0.  1.
        -11    1    3    3    0    0 -0.25786764949E+02  0.10066659956E+02 -0.12349264262E+02  0.30311700996E+02  0.51100000000E-03 0. -1.
         12    1    3    3    0    0  0.93973062007E-02 -0.52566934519E+01  0.98297645417E+01  0.11147070705E+02  0.00000000000E+00 0. -1.
</event>
<event>
 7    1  0.5755468E-013  0.5930196E+02  0.7816164E-02  0.1266605E+00
        -11   -1    0    0    0    0  0.00000000000E+00  0.00000000000E+00  0.45593999997E+02  0.45594000000E+02  0.51100000000E-03 0. -1.
         11   -1    0    0    0    0 -0.00000000000E+00 -0.00000000000E+00 -0.45593999997E+02  0.45594000000E+02  0.51100000000E-03 0.  1.
    9900012    2    1    2    0    0 -0.29858325293E+02  0.51247733893E+01  0.99466845764E+01  0.59301961901E+02  0.50000032596E+02 0.  0.
        -12    1    1    2    0    0  0.29858325293E+02 -0.51247733893E+01 -0.99466845764E+01  0.31886038099E+02  0.00000000000E+00 0.  1.
         11    1    3    3    0    0 -0.11966405738E+02 -0.10278236973E+02 -0.10608923313E+02  0.19010162431E+02  0.51100000000E-03 0.  1.
        -11    1    3    3    0    0 -0.20312979572E+02  0.47411701176E+01  0.20659107421E+02  0.29358040685E+02  0.51100000000E-03 0. -1.
         12    1    3    3    0    0  0.24210600173E+01  0.10661840244E+02 -0.10349953165E+00  0.10933758784E+02  0.00000000000E+00 0. -1.
</event>
<event>
 7    1  0.5755468E-013  0.5930205E+02  0.7816164E-02  0.1266604E+00
        -11   -1    0    0    0    0  0.00000000000E+00  0.00000000000E+00  0.45593999997E+02  0.45594000000E+02  0.51100000000E-03 0.  1.
         11   -1    0    0    0    0 -0.00000000000E+00 -0.00000000000E+00 -0.45593999997E+02  0.45594000000E+02  0.51100000000E-03 0. -1.
    9900012    2    1    2    0    0 -0.27122883473E+02  0.12013572623E+02 -0.11693449498E+02  0.59302054879E+02  0.50000202166E+02 0.  0.
        -12    1    1    2    0    0  0.27122883473E+02 -0.12013572623E+02  0.11693449498E+02  0.31885945121E+02  0.00000000000E+00 0.  1.
         11    1    3    3    0    0 -0.17607924063E+02  0.15582213629E+02  0.65860188445E+01  0.24417616917E+02  0.51100000000E-03 0. -1.
        -11    1    3    3    0    0  0.98575001640E+01 -0.22688861946E+01 -0.81189826541E+01  0.12970583397E+02  0.51100000000E-03 0.  1.
         12    1    3    3    0    0 -0.19372459574E+02 -0.12997548117E+01 -0.10160485688E+02  0.21913854566E+02  0.00000000000E+00 0. -1.
</event>
<event>
 7    1  0.5755468E-013  0.5930198E+02  0.7816164E-02  0.1266605E+00
        -11   -1    0    0    0    0  0.00000000000E+00  0.00000000000E+00  0.45593999997E+02  0.45594000000E+02  0.51100000000E-03 0.  1.
         11   -1    0    0    0    0 -0.00000000000E+00 -0.00000000000E+00 -0.45593999997E+02  0.45594000000E+02  0.51100000000E-03 0. -1.
    9900012    2    1    2    0    0  0.10116716420E+02 -0.20611629936E+01 -0.30168226871E+02  0.59301980234E+02  0.50000066031E+02 0.  0.
        -12    1    1    2    0    0 -0.10116716420E+02  0.20611629936E+01  0.30168226871E+02  0.31886019766E+02  0.00000000000E+00 0.  1.
         11    1    3    3    0    0  0.11653793806E+02 -0.11086777184E+02 -0.31819093045E+02  0.35653642463E+02  0.51100000000E-03 0. -1.
        -11    1    3    3    0    0 -0.10811192010E+02  0.51041293232E+01  0.51097698956E+01  0.13001682870E+02  0.51100000000E-03 0.  1.
        -12    1    3    3    0    0  0.92741146231E+01  0.39214848675E+01 -0.34589037211E+01  0.10646654900E+02  0.00000000000E+00 0.  1.
</event>
<event>
 7    1  0.5755468E-013  0.5930205E+02  0.7816164E-02  0.1266604E+00
        -11   -1    0    0    0    0  0.00000000000E+00  0.00000000000E+00  0.45593999997E+02  0.45594000000E+02  0.51100000000E-03 0.  1.
         11   -1    0    0    0    0 -0.00000000000E+00 -0.00000000000E+00 -0.45593999997E+02  0.45594000000E+02  0.51100000000E-03 0. -1.
    9900012    2    1    2    0    0 -0.31141858077E+02 -0.65342198913E+01 -0.20500116591E+01  0.59302048519E+02  0.50000190566E+02 0.  0.
        -12    1    1    2    0    0  0.31141858077E+02  0.65342198913E+01  0.20500116591E+01  0.31885951481E+02  0.00000000000E+00 0.  1.
         11    1    3    3    0    0 -0.17608974620E+02  0.10604891823E+02  0.37001586673E+01  0.20886141151E+02  0.51100000000E-03 0. -1.
        -11    1    3    3    0    0  0.49016039425E+01 -0.12755517157E+02  0.72185493875E+01  0.15454332554E+02  0.51100000000E-03 0.  1.
        -12    1    3    3    0    0 -0.18434487400E+02 -0.43835945572E+01 -0.12968719714E+02  0.22961574814E+02  0.00000000000E+00 0.  1.
</event>
<event>
 7    1  0.5755468E-013  0.5930195E+02  0.7816164E-02  0.1266605E+00
        -11   -1    0    0    0    0  0.00000000000E+00  0.00000000000E+00  0.45593999997E+02  0.45594000000E+02  0.51100000000E-03 0.  1.
         11   -1    0    0    0    0 -0.00000000000E+00 -0.00000000000E+00 -0.45593999997E+02  0.45594000000E+02  0.51100000000E-03 0. -1.
    9900012    2    1    2    0    0 -0.68942623733E+01 -0.17505984927E+02 -0.25743544982E+02  0.59301945522E+02  0.50000002726E+02 0.  0.
        -12    1    1    2    0    0  0.68942623733E+01  0.17505984927E+02  0.25743544982E+02  0.31886054478E+02  0.00000000000E+00 0.  1.
         11    1    3    3    0    0  0.74982750683E+01 -0.29365972134E+02 -0.16930976261E+02  0.34716601299E+02  0.51100000000E-03 0. -1.
        -11    1    3    3    0    0 -0.69350233794E+01 -0.18293456834E+01 -0.42744485758E+01  0.83493691851E+01  0.51100000000E-03 0.  1.
         12    1    3    3    0    0 -0.74575140623E+01  0.13689332890E+02 -0.45381201452E+01  0.16235975038E+02  0.00000000000E+00 0. -1.
</event>
<event>
 7    1  0.5755468E-013  0.5930195E+02  0.7816164E-02  0.1266605E+00
        -11   -1    0    0    0    0  0.00000000000E+00  0.00000000000E+00  0.45593999997E+02  0.45594000000E+02  0.51100000000E-03 0.  1.
         11   -1    0    0    0    0 -0.00000000000E+00 -0.00000000000E+00 -0.45593999997E+02  0.45594000000E+02  0.51100000000E-03 0. -1.
    9900012    2    1    2    0    0  0.22047020088E+02 -0.19781162660E+02 -0.11804869351E+02  0.59301946131E+02  0.50000003836E+02 0.  0.
        -12    1    1    2    0    0 -0.22047020088E+02  0.19781162660E+02  0.11804869351E+02  0.31886053869E+02  0.00000000000E+00 0.  1.
         11    1    3    3    0    0  0.12606470688E+02  0.11645930475E+02  0.36320680840E+01  0.17542597261E+02  0.51100000000E-03 0. -1.
        -11    1    3    3    0    0  0.61495747413E+01 -0.33831327781E+02 -0.15416940368E+02  0.37683657724E+02  0.51100000000E-03 0.  1.
        -12    1    3    3    0    0  0.32909746584E+01  0.24042346453E+01 -0.19997066661E-01  0.40756911457E+01  0.00000000000E+00 0.  1.
</event>
<event>
 7    1  0.5755468E-013  0.5930201E+02  0.7816164E-02  0.1266605E+00
        -11   -1    0    0    0    0  0.00000000000E+00  0.00000000000E+00  0.45593999997E+02  0.45594000000E+02  0.51100000000E-03 0.  1.
         11   -1    0    0    0    0 -0.00000000000E+00 -0.00000000000E+00 -0.45593999997E+02  0.45594000000E+02  0.51100000000E-03 0. -1.
    9900012    2    1    2    0    0 -0.14886268712E+02  0.21020294488E+02 -0.18795285675E+02  0.59302007148E+02  0.50000115117E+02 0.  0.
        -12    1    1    2    0    0  0.14886268712E+02 -0.21020294488E+02  0.18795285675E+02  0.31885992852E+02  0.00000000000E+00 0.  1.
         11    1    3    3    0    0 -0.19104698881E+02 -0.94790296749E+01 -0.22728846209E+01  0.21447786079E+02  0.51100000000E-03 0. -1.
        -11    1    3    3    0    0  0.39538612263E+01  0.40280760325E+01  0.14864715213E+01  0.58367810449E+01  0.51100000000E-03 0.  1.
         12    1    3    3    0    0  0.26456894257E+00  0.26471248130E+02 -0.18008872576E+02  0.32017440025E+02  0.00000000000E+00 0. -1.
</event>
<event>
 7    1  0.5755468E-013  0.5930196E+02  0.7816164E-02  0.1266605E+00
        -11   -1    0    0    0    0  0.00000000000E+00  0.00000000000E+00  0.45593999997E+02  0.45594000000E+02  0.51100000000E-03 0. -1.
         11   -1    0    0    0    0 -0.00000000000E+00 -0.00000000000E+00 -0.45593999997E+02  0.45594000000E+02  0.51100000000E-03 0.  1.
    9900012    2    1    2    0    0 -0.18278109049E+02  0.25744708830E+02 -0.44542305885E+01  0.59301961155E+02  0.50000031235E+02 0.  0.
        -12    1    1    2    0    0  0.18278109049E+02 -0.25744708830E+02  0.44542305885E+01  0.31886038845E+02  0.00000000000E+00 0.  1.
         11    1    3    3    0    0 -0.26584243255E+02  0.14631698089E+02  0.15666618453E+02  0.34150424777E+02  0.51100000000E-03 0. -1.
        -11    1    3    3    0    0  0.30543331049E+01  0.26473177155E+01 -0.10708804568E+02  0.11446210610E+02  0.51100000000E-03 0.  1.
         12    1    3    3    0    0  0.52518011018E+01  0.84656930249E+01 -0.94120444740E+01  0.13705325767E+02  0.00000000000E+00 0. -1.
</event>
<event>
 7    1  0.5755468E-013  0.5930195E+02  0.7816164E-02  0.1266605E+00
        -11   -1    0    0    0    0  0.00000000000E+00  0.00000000000E+00  0.45593999997E+02  0.45594000000E+02  0.51100000000E-03 0. -1.
         11   -1    0    0    0    0 -0.00000000000E+00 -0.00000000000E+00 -0.45593999997E+02  0.45594000000E+02  0.51100000000E-03 0.  1.
    9900012    2    1    2    0    0 -0.96347650640E+00 -0.66196968902E+01  0.31176453043E+02  0.59301954490E+02  0.50000019081E+02 0.  0.
        -12    1    1    2    0    0  0.96347650640E+00  0.66196968902E+01 -0.31176453043E+02  0.31886045510E+02  0.00000000000E+00 0.  1.
         11    1    3    3    0    0 -0.14323535483E+01 -0.21232313679E+02  0.20797768509E+02  0.29755839024E+02  0.51100000000E-03 0. -1.
        -11    1    3    3    0    0  0.57406515778E+01  0.12823111291E+02  0.16232186002E+02  0.21467909222E+02  0.51100000000E-03 0.  1.
         12    1    3    3    0    0 -0.52717745359E+01  0.17895054977E+01 -0.58535014669E+01  0.80782062432E+01  0.00000000000E+00 0. -1.
</event>
<event>
 7    1  0.5755468E-013  0.5930196E+02  0.7816164E-02  0.1266605E+00
        -11   -1    0    0    0    0  0.00000000000E+00  0.00000000000E+00  0.45593999997E+02  0.45594000000E+02  0.51100000000E-03 0.  1.
         11   -1    0    0    0    0 -0.00000000000E+00 -0.00000000000E+00 -0.45593999997E+02  0.45594000000E+02  0.51100000000E-03 0. -1.
    9900012    2    1    2    0    0 -0.26665063068E+02  0.11435643012E+02 -0.13225744863E+02  0.59301955298E+02  0.50000020555E+02 0.  0.
        -12    1    1    2    0    0  0.26665063068E+02 -0.11435643012E+02  0.13225744863E+02  0.31886044702E+02  0.00000000000E+00 0.  1.
         11    1    3    3    0    0 -0.26237946578E+02  0.20626091643E+02 -0.21141022076E+02  0.39507066606E+02  0.51100000000E-03 0. -1.
        -11    1    3    3    0    0  0.10018636388E+01  0.65313127059E+00  0.96277888174E+01  0.97017848348E+01  0.51100000000E-03 0.  1.
        -12    1    3    3    0    0 -0.14289801288E+01 -0.98435799017E+01 -0.17125116043E+01  0.10093103858E+02  0.00000000000E+00 0.  1.
</event>
<event>
 7    1  0.5755468E-013  0.5930197E+02  0.7816164E-02  0.1266605E+00
        -11   -1    0    0    0    0  0.00000000000E+00  0.00000000000E+00  0.45593999997E+02  0.45594000000E+02  0.51100000000E-03 0. -1.
         11   -1    0    0    0    0 -0.00000000000E+00 -0.00000000000E+00 -0.45593999997E+02  0.45594000000E+02  0.51100000000E-03 0.  1.
    9900012    2    1    2    0    0 -0.64073281524E+01 -0.30949371402E+02  0.42191438893E+01  0.59301974544E+02  0.50000055653E+02 0.  0.
        -12    1    1    2    0    0  0.64073281524E+01  0.30949371402E+02 -0.42191438893E+01  0.31886025456E+02  0.00000000000E+00 0.  1.
         11    1    3    3    0    0  0.56752832514E-01  0.12387305211E+01  0.13108975973E+02  0.13167495036E+02  0.51100000000E-03 0. -1.
        -11    1    3    3    0    0 -0.13894178205E+02 -0.34696265917E+02 -0.81870424258E+01  0.38261033971E+02  0.51100000000E-03 0.  1.
        -12    1    3    3    0    0  0.74300972196E+01  0.25081639940E+01 -0.70278965816E+00  0.78734455366E+01  0.00000000000E+00 0.  1.
</event>
<event>
 7    1  0.5755468E-013  0.5930195E+02  0.7816164E-02  0.1266605E+00
        -11   -1    0    0    0    0  0.00000000000E+00  0.00000000000E+00  0.45593999997E+02  0.45594000000E+02  0.51100000000E-03 0.  1.
         11   -1    0    0    0    0 -0.00000000000E+00 -0.00000000000E+00 -0.45593999997E+02  0.45594000000E+02  0.51100000000E-03 0. -1.
    9900012    2    1    2    0    0  0.24977665191E+02 -0.48794161416E+01 -0.19210095022E+02  0.59301949586E+02  0.50000010136E+02 0.  0.
        -12    1    1    2    0    0 -0.24977665191E+02  0.48794161416E+01  0.19210095022E+02  0.31886050414E+02  0.00000000000E+00 0.  1.
         11    1    3    3    0    0  0.92031092874E+01 -0.21642728802E+02  0.12284791996E+01  0.23550246113E+02  0.51100000000E-03 0. -1.
        -11    1    3    3    0    0  0.60545597071E+01  0.18341269056E+02 -0.11671960129E+02  0.22567554084E+02  0.51100000000E-03 0.  1.
         12    1    3    3    0    0  0.97199961968E+01 -0.15779563955E+01 -0.87666140927E+01  0.13184149389E+02  0.00000000000E+00 0. -1.
</event>
<event>
 7    1  0.5755468E-013  0.5930203E+02  0.7816164E-02  0.1266604E+00
        -11   -1    0    0    0    0  0.00000000000E+00  0.00000000000E+00  0.45593999997E+02  0.45594000000E+02  0.51100000000E-03 0.  1.
         11   -1    0    0    0    0 -0.00000000000E+00 -0.00000000000E+00 -0.45593999997E+02  0.45594000000E+02  0.51100000000E-03 0. -1.
    9900012    2    1    2    0    0  0.15987786391E+02 -0.16494955415E+02 -0.22113848102E+02  0.59302029014E+02  0.50000154995E+02 0.  0.
        -12    1    1    2    0    0 -0.15987786391E+02  0.16494955415E+02  0.22113848102E+02  0.31885970986E+02  0.00000000000E+00 0.  1.
         11    1    3    3    0    0  0.63459689383E+01 -0.26353682478E+02 -0.10876340895E+02  0.29207579383E+02  0.51100000000E-03 0. -1.
        -11    1    3    3    0    0  0.11046565487E+01  0.13026015373E+02 -0.15299366869E+02  0.20123815977E+02  0.51100000000E-03 0.  1.
         12    1    3    3    0    0  0.85371609043E+01 -0.31672883112E+01  0.40618596626E+01  0.99706336544E+01  0.00000000000E+00 0. -1.
</event>
<event>
 7    1  0.5755468E-013  0.5930202E+02  0.7816164E-02  0.1266605E+00
        -11   -1    0    0    0    0  0.00000000000E+00  0.00000000000E+00  0.45593999997E+02  0.45594000000E+02  0.51100000000E-03 0.  1.
         11   -1    0    0    0    0 -0.00000000000E+00 -0.00000000000E+00 -0.45593999997E+02  0.45594000000E+02  0.51100000000E-03 0. -1.
    9900012    2    1    2    0    0  0.30850873248E+02  0.88581772336E+00 -0.80096697827E+01  0.59302017763E+02  0.50000134475E+02 0.  0.
        -12    1    1    2    0    0 -0.30850873248E+02 -0.88581772336E+00  0.80096697827E+01  0.31885982237E+02  0.00000000000E+00 0.  1.
         11    1    3    3    0    0  0.19547620848E+02 -0.17841637408E+02 -0.20326012601E+02  0.33370350533E+02  0.51100000000E-03 0. -1.
        -11    1    3    3    0    0  0.69037628937E+01  0.56288159580E+01  0.59916037561E+01  0.10735214344E+02  0.51100000000E-03 0.  1.
         12    1    3    3    0    0  0.43994895060E+01  0.13098639173E+02  0.63247390622E+01  0.15196452886E+02  0.00000000000E+00 0. -1.
</event>
<event>
 7    1  0.5755468E-013  0.5930194E+02  0.7816164E-02  0.1266605E+00
        -11   -1    0    0    0    0  0.00000000000E+00  0.00000000000E+00  0.45593999997E+02  0.45594000000E+02  0.51100000000E-03 0. -1.
         11   -1    0    0    0    0 -0.00000000000E+00 -0.00000000000E+00 -0.45593999997E+02  0.45594000000E+02  0.51100000000E-03 0.  1.
    9900012    2    1    2    0    0 -0.23751541399E+02  0.20423787931E+02 -0.59543515970E+01  0.59301935094E+02  0.49999983707E+02 0.  0.
        -12    1    1    2    0    0  0.23751541399E+02 -0.20423787931E+02  0.59543515970E+01  0.31886064906E+02  0.00000000000E+00 0.  1.
         11    1    3    3    0    0 -0.19792723231E+02  0.60647961101E+01  0.13048088861E+02  0.24470109684E+02  0.51100000000E-03 0. -1.
        -11    1    3    3    0    0  0.23391864954E+01  0.45134049703E+01 -0.22151559138E+02  0.22727388552E+02  0.51100000000E-03 0.  1.
         12    1    3    3    0    0 -0.62980046629E+01  0.98455868508E+01  0.31491186801E+01  0.12104436857E+02  0.00000000000E+00 0. -1.
</event>
<event>
 7    1  0.5755468E-013  0.5930172E+02  0.7816164E-02  0.1266606E+00
        -11   -1    0    0    0    0  0.00000000000E+00  0.00000000000E+00  0.45593999997E+02  0.45594000000E+02  0.51100000000E-03 0.  1.
         11   -1    0    0    0    0 -0.00000000000E+00 -0.00000000000E+00 -0.45593999997E+02  0.45594000000E+02  0.51100000000E-03 0. -1.
    9900012    2    1    2    0    0  0.87410901200E+01  0.92287742894E+00 -0.30650883611E+02  0.59301717286E+02  0.49999586475E+02 0.  0.
        -12    1    1    2    0    0 -0.87410901200E+01 -0.92287742894E+00  0.30650883611E+02  0.31886282714E+02  0.00000000000E+00 0.  1.
         11    1    3    3    0    0 -0.34649905751E+01 -0.63175018039E+01  0.75288967958E+01  0.10421193595E+02  0.51100000000E-03 0. -1.
        -11    1    3    3    0    0  0.19178959354E+02  0.56542500433E+01 -0.16098877940E+02  0.25670545312E+02  0.51100000000E-03 0.  1.
        -12    1    3    3    0    0 -0.69728786584E+01  0.15861291895E+01 -0.22080902466E+02  0.23209978378E+02  0.00000000000E+00 0.  1.
</event>
<event>
 7    1  0.6083397E-013  0.5930194E+02  0.7816164E-02  0.1266605E+00
        -11   -1    0    0    0    0  0.00000000000E+00  0.00000000000E+00  0.45593999997E+02  0.45594000000E+02  0.51100000000E-03 0. -1.
         11   -1    0    0    0    0 -0.00000000000E+00 -0.00000000000E+00 -0.45593999997E+02  0.45594000000E+02  0.51100000000E-03 0.  1.
    9900012    2    1    2    0    0  0.22525389969E+01 -0.16899908761E+02  0.26945134135E+02  0.59301935620E+02  0.49999984666E+02 0.  0.
        -12    1    1    2    0    0 -0.22525389969E+01  0.16899908761E+02 -0.26945134135E+02  0.31886064380E+02  0.00000000000E+00 0.  1.
         11    1    3    3    0    0  0.17331188617E+02 -0.30763040574E+01  0.68455993912E+01  0.18886396607E+02  0.51100000000E-03 0.  1.
        -11    1    3    3    0    0 -0.14592724355E+02 -0.62844784164E+01 -0.29495780655E+01  0.16159897404E+02  0.51100000000E-03 0. -1.
         12    1    3    3    0    0 -0.48592526417E+00 -0.75391262877E+01  0.23049112810E+02  0.24255641609E+02  0.00000000000E+00 0. -1.
</event>
<event>
 7    1  0.5755468E-013  0.5930194E+02  0.7816164E-02  0.1266605E+00
        -11   -1    0    0    0    0  0.00000000000E+00  0.00000000000E+00  0.45593999997E+02  0.45594000000E+02  0.51100000000E-03 0.  1.
         11   -1    0    0    0    0 -0.00000000000E+00 -0.00000000000E+00 -0.45593999997E+02  0.45594000000E+02  0.51100000000E-03 0. -1.
    9900012    2    1    2    0    0  0.28515739678E+01  0.26139997494E+02  0.18035786180E+02  0.59301944643E+02  0.50000001122E+02 0.  0.
        -12    1    1    2    0    0 -0.28515739678E+01 -0.26139997494E+02 -0.18035786180E+02  0.31886055357E+02  0.00000000000E+00 0.  1.
         11    1    3    3    0    0  0.73858106504E+01  0.12742185656E+02 -0.66748214802E+01  0.16169933095E+02  0.51100000000E-03 0. -1.
        -11    1    3    3    0    0 -0.11202571225E+02  0.21816902426E+02  0.15769661417E+02  0.29157452821E+02  0.51100000000E-03 0.  1.
        -12    1    3    3    0    0  0.66683345421E+01 -0.84190905881E+01  0.89409462426E+01  0.13974558727E+02  0.00000000000E+00 0.  1.
</event>
<event>
 7    1  0.5755468E-013  0.5930194E+02  0.7816164E-02  0.1266605E+00
        -11   -1    0    0    0    0  0.00000000000E+00  0.00000000000E+00  0.45593999997E+02  0.45594000000E+02  0.51100000000E-03 0.  1.
         11   -1    0    0    0    0 -0.00000000000E+00 -0.00000000000E+00 -0.45593999997E+02  0.45594000000E+02  0.51100000000E-03 0. -1.
    9900012    2    1    2    0    0  0.64230801883E+01 -0.31196833539E+02 -0.14907540147E+01  0.59301941456E+02  0.49999995309E+02 0.  0.
        -12    1    1    2    0    0 -0.64230801883E+01  0.31196833539E+02  0.14907540147E+01  0.31886058544E+02  0.00000000000E+00 0.  1.
         11    1    3    3    0    0  0.14668867275E+02 -0.23871215325E+02  0.17650260691E+02  0.33114079950E+02  0.51100000000E-03 0. -1.
        -11    1    3    3    0    0 -0.11495823090E+02 -0.85827395957E+01 -0.14665488172E+02  0.20515699137E+02  0.51100000000E-03 0.  1.
         12    1    3    3    0    0  0.32500360036E+01  0.12571213816E+01 -0.44755265330E+01  0.56721623690E+01  0.00000000000E+00 0. -1.
</event>
<event>
 7    1  0.5755468E-013  0.5930194E+02  0.7816164E-02  0.1266605E+00
        -11   -1    0    0    0    0  0.00000000000E+00  0.00000000000E+00  0.45593999997E+02  0.45594000000E+02  0.51100000000E-03 0.  1.
         11   -1    0    0    0    0 -0.00000000000E+00 -0.00000000000E+00 -0.45593999997E+02  0.45594000000E+02  0.51100000000E-03 0. -1.
    9900012    2    1    2    0    0  0.17913046861E+02 -0.25509925825E+02 -0.67147132070E+01  0.59301938204E+02  0.49999989378E+02 0.  0.
        -12    1    1    2    0    0 -0.17913046861E+02  0.25509925825E+02  0.67147132070E+01  0.31886061796E+02  0.00000000000E+00 0.  1.
         11    1    3    3    0    0  0.10837988138E+02 -0.35783920776E+02 -0.13108747344E+02  0.39620578368E+02  0.51100000000E-03 0. -1.
        -11    1    3    3    0    0  0.30079122836E+00  0.99917955013E+01 -0.50406488118E+00  0.10009022648E+02  0.51100000000E-03 0.  1.
        -12    1    3    3    0    0  0.67742674942E+01  0.28219945007E+00  0.68980990183E+01  0.96723371881E+01  0.00000000000E+00 0.  1.
</event>
<event>
 7    1  0.5755468E-013  0.5930204E+02  0.7816164E-02  0.1266604E+00
        -11   -1    0    0    0    0  0.00000000000E+00  0.00000000000E+00  0.45593999997E+02  0.45594000000E+02  0.51100000000E-03 0. -1.
         11   -1    0    0    0    0 -0.00000000000E+00 -0.00000000000E+00 -0.45593999997E+02  0.45594000000E+02  0.51100000000E-03 0.  1.
    9900012    2    1    2    0    0 -0.23921140748E+02  0.14610609574E+02 -0.15199466037E+02  0.59302036715E+02  0.50000169038E+02 0.  0.
        -12    1    1    2    0    0  0.23921140748E+02 -0.14610609574E+02  0.15199466037E+02  0.31885963285E+02  0.00000000000E+00 0.  1.
         11    1    3    3    0    0 -0.16784990985E+02 -0.11025591343E+02  0.11228853043E+01  0.20113688337E+02  0.51100000000E-03 0. -1.
        -11    1    3    3    0    0  0.73176848590E+01  0.14884167172E+01 -0.29370960763E+01  0.80243647501E+01  0.51100000000E-03 0.  1.
         12    1    3    3    0    0 -0.14453834622E+02  0.24147784200E+02 -0.13385255265E+02  0.31163983628E+02  0.00000000000E+00 0. -1.
</event>
<event>
 7    1  0.5755468E-013  0.5930194E+02  0.7816164E-02  0.1266605E+00
        -11   -1    0    0    0    0  0.00000000000E+00  0.00000000000E+00  0.45593999997E+02  0.45594000000E+02  0.51100000000E-03 0. -1.
         11   -1    0    0    0    0 -0.00000000000E+00 -0.00000000000E+00 -0.45593999997E+02  0.45594000000E+02  0.51100000000E-03 0.  1.
    9900012    2    1    2    0    0 -0.11106458460E+01  0.28334432668E+02  0.14582435844E+02  0.59301936524E+02  0.49999986316E+02 0.  0.
        -12    1    1    2    0    0  0.11106458460E+01 -0.28334432668E+02 -0.14582435844E+02  0.31886063476E+02  0.00000000000E+00 0.  1.
         11    1    3    3    0    0  0.43763260563E+01  0.24819363165E+02  0.16009996811E+02  0.29857545374E+02  0.51100000000E-03 0. -1.
        -11    1    3    3    0    0 -0.13352581344E+02 -0.71617799914E+01  0.30338191251E+01  0.15452720794E+02  0.51100000000E-03 0.  1.
        -12    1    3    3    0    0  0.78656094417E+01  0.10676849495E+02 -0.44613800917E+01  0.13991670356E+02  0.00000000000E+00 0.  1.
</event>
<event>
 7    1  0.5755468E-013  0.5930194E+02  0.7816164E-02  0.1266605E+00
        -11   -1    0    0    0    0  0.00000000000E+00  0.00000000000E+00  0.45593999997E+02  0.45594000000E+02  0.51100000000E-03 0. -1.
         11   -1    0    0    0    0 -0.00000000000E+00 -0.00000000000E+00 -0.45593999997E+02  0.45594000000E+02  0.51100000000E-03 0.  1.
    9900012    2    1    2    0    0  0.32667015841E+01 -0.65450415817E+01  0.31035657790E+02  0.59301937794E+02  0.49999988631E+02 0.  0.
        -12    1    1    2    0    0 -0.32667015841E+01  0.65450415817E+01 -0.31035657790E+02  0.31886062206E+02  0.00000000000E+00 0.  1.
         11    1    3    3    0    0  0.16881939630E+01 -0.15036931636E+02  0.27960434951E+02  0.31792219721E+02  0.51100000000E-03 0. -1.
        -11    1    3    3    0    0 -0.97492491110E+01  0.11140114739E+02 -0.17673834529E+01  0.14908844997E+02  0.51100000000E-03 0.  1.
         12    1    3    3    0    0  0.11327756732E+02 -0.26482246844E+01  0.48426062921E+01  0.12600873075E+02  0.00000000000E+00 0. -1.
</event>
<event>
 7    1  0.5755468E-013  0.5930200E+02  0.7816164E-02  0.1266605E+00
        -11   -1    0    0    0    0  0.00000000000E+00  0.00000000000E+00  0.45593999997E+02  0.45594000000E+02  0.51100000000E-03 0. -1.
         11   -1    0    0    0    0 -0.00000000000E+00 -0.00000000000E+00 -0.45593999997E+02  0.45594000000E+02  0.51100000000E-03 0.  1.
    9900012    2    1    2    0    0 -0.14491638344E+02 -0.14468390237E+01  0.28365750469E+02  0.59302004254E+02  0.50000109839E+02 0.  0.
        -12    1    1    2    0    0  0.14491638344E+02  0.14468390237E+01 -0.28365750469E+02  0.31885995746E+02  0.00000000000E+00 0.  1.
         11    1    3    3    0    0 -0.43334720383E+01 -0.13083803075E+02  0.20321124459E+02  0.24554286435E+02  0.51100000000E-03 0. -1.
        -11    1    3    3    0    0  0.30204735929E+01  0.84614279301E+00 -0.96740530730E+01  0.10169883061E+02  0.51100000000E-03 0.  1.
        -12    1    3    3    0    0 -0.13178639898E+02  0.10790821258E+02  0.17718679083E+02  0.24577834758E+02  0.00000000000E+00 0.  1.
</event>
<event>
 7    1  0.5755468E-013  0.5930198E+02  0.7816164E-02  0.1266605E+00
        -11   -1    0    0    0    0  0.00000000000E+00  0.00000000000E+00  0.45593999997E+02  0.45594000000E+02  0.51100000000E-03 0.  1.
         11   -1    0    0    0    0 -0.00000000000E+00 -0.00000000000E+00 -0.45593999997E+02  0.45594000000E+02  0.51100000000E-03 0. -1.
    9900012    2    1    2    0    0  0.23653972290E+02  0.75137391580E+01 -0.20018787752E+02  0.59301975721E+02  0.50000057802E+02 0.  0.
        -12    1    1    2    0    0 -0.23653972290E+02 -0.75137391580E+01  0.20018787752E+02  0.31886024279E+02  0.00000000000E+00 0.  1.
         11    1    3    3    0    0 -0.21784945295E+01 -0.57371925142E+01 -0.23026445342E+02  0.23830199364E+02  0.51100000000E-03 0. -1.
        -11    1    3    3    0    0  0.19530459210E+02  0.14083341638E+02 -0.56484931185E+01  0.24732262805E+02  0.51100000000E-03 0.  1.
        -12    1    3    3    0    0  0.63020076093E+01 -0.83240996598E+00  0.86561507089E+01  0.10739513553E+02  0.00000000000E+00 0.  1.
</event>
<event>
 7    1  0.5755468E-013  0.5930193E+02  0.7816164E-02  0.1266605E+00
        -11   -1    0    0    0    0  0.00000000000E+00  0.00000000000E+00  0.45593999997E+02  0.45594000000E+02  0.51100000000E-03 0. -1.
         11   -1    0    0    0    0 -0.00000000000E+00 -0.00000000000E+00 -0.45593999997E+02  0.45594000000E+02  0.51100000000E-03 0.  1.
    9900012    2    1    2    0    0  0.30513646017E+02  0.90905401827E+01  0.17323560307E+01  0.59301928252E+02  0.49999971229E+02 0.  0.
        -12    1    1    2    0    0 -0.30513646017E+02 -0.90905401827E+01 -0.17323560307E+01  0.31886071748E+02  0.00000000000E+00 0.  1.
         11    1    3    3    0    0  0.10990374208E+02  0.37953711094E+01 -0.16212930550E+02  0.19951247690E+02  0.51100000000E-03 0. -1.
        -11    1    3    3    0    0 -0.39884700512E+01  0.77491919210E+01  0.12251476854E+02  0.15035177223E+02  0.51100000000E-03 0.  1.
         12    1    3    3    0    0  0.23511741860E+02 -0.24540228477E+01  0.56938097273E+01  0.24315503340E+02  0.00000000000E+00 0. -1.
</event>
<event>
 7    1  0.5755468E-013  0.5930174E+02  0.7816164E-02  0.1266605E+00
        -11   -1    0    0    0    0  0.00000000000E+00  0.00000000000E+00  0.45593999997E+02  0.45594000000E+02  0.51100000000E-03 0.  1.
         11   -1    0    0    0    0 -0.00000000000E+00 -0.00000000000E+00 -0.45593999997E+02  0.45594000000E+02  0.51100000000E-03 0. -1.
    9900012    2    1    2    0    0 -0.45868902668E+01  0.21407305591E+02 -0.23182342569E+02  0.59301744309E+02  0.49999635760E+02 0.  0.
        -12    1    1    2    0    0  0.45868902668E+01 -0.21407305591E+02  0.23182342569E+02  0.31886255691E+02  0.00000000000E+00 0.  1.
         11    1    3    3    0    0  0.32479885860E+01  0.87793071367E+01 -0.96114205167E+01  0.13416596747E+02  0.51100000000E-03 0. -1.
        -11    1    3    3    0    0 -0.20305422638E+02  0.25424434491E+01 -0.19992394617E+02  0.28608915568E+02  0.51100000000E-03 0.  1.
        -12    1    3    3    0    0  0.12470543785E+02  0.10085555005E+02  0.64214725641E+01  0.17276231995E+02  0.00000000000E+00 0.  1.
</event>
<event>
 7    1  0.5755468E-013  0.5930195E+02  0.7816164E-02  0.1266605E+00
        -11   -1    0    0    0    0  0.00000000000E+00  0.00000000000E+00  0.45593999997E+02  0.45594000000E+02  0.51100000000E-03 0.  1.
         11   -1    0    0    0    0 -0.00000000000E+00 -0.00000000000E+00 -0.45593999997E+02  0.45594000000E+02  0.51100000000E-03 0. -1.
    9900012    2    1    2    0    0  0.73735289512E+01  0.26704155235E+02 -0.15787307758E+02  0.59301954114E+02  0.50000018395E+02 0.  0.
        -12    1    1    2    0    0 -0.73735289512E+01 -0.26704155235E+02  0.15787307758E+02  0.31886045886E+02  0.00000000000E+00 0.  1.
         11    1    3    3    0    0  0.22448242707E+02  0.31436236359E+02 -0.14982093385E+02  0.41432157554E+02  0.51100000000E-03 0. -1.
        -11    1    3    3    0    0 -0.10844910873E+02 -0.94549440063E+00 -0.36994886941E+01  0.11497489655E+02  0.51100000000E-03 0.  1.
         12    1    3    3    0    0 -0.42298028832E+01 -0.37865867239E+01  0.28942743211E+01  0.63723069052E+01  0.00000000000E+00 0. -1.
</event>
<event>
 7    1  0.5755468E-013  0.5930194E+02  0.7816164E-02  0.1266605E+00
        -11   -1    0    0    0    0  0.00000000000E+00  0.00000000000E+00  0.45593999997E+02  0.45594000000E+02  0.51100000000E-03 0. -1.
         11   -1    0    0    0    0 -0.00000000000E+00 -0.00000000000E+00 -0.45593999997E+02  0.45594000000E+02  0.51100000000E-03 0.  1.
    9900012    2    1    2    0    0 -0.25886766990E+02  0.15032505229E+02 -0.10982698204E+02  0.59301943824E+02  0.49999999628E+02 0.  0.
        -12    1    1    2    0    0  0.25886766990E+02 -0.15032505229E+02  0.10982698204E+02  0.31886056176E+02  0.00000000000E+00 0.  1.
         11    1    3    3    0    0 -0.17027853613E+02  0.18332082764E+01 -0.17225437890E+02  0.24290412965E+02  0.51100000000E-03 0. -1.
        -11    1    3    3    0    0 -0.14471000681E+02  0.14285650256E+02  0.14495679770E+02  0.24972272548E+02  0.51100000000E-03 0.  1.
        -12    1    3    3    0    0  0.56120873042E+01 -0.10863533036E+01 -0.82529400840E+01  0.10039258311E+02  0.00000000000E+00 0.  1.
</event>
<event>
 7    1  0.5755468E-013  0.5930194E+02  0.7816164E-02  0.1266605E+00
        -11   -1    0    0    0    0  0.00000000000E+00  0.00000000000E+00  0.45593999997E+02  0.45594000000E+02  0.51100000000E-03 0.  1.
         11   -1    0    0    0    0 -0.00000000000E+00 -0.00000000000E+00 -0.45593999997E+02  0.45594000000E+02  0.51100000000E-03 0. -1.
    9900012    2    1    2    0    0  0.27385361956E+02  0.12888166280E+02 -0.10032839513E+02  0.59301941162E+02  0.49999994774E+02 0.  0.
        -12    1    1    2    0    0 -0.27385361956E+02 -0.12888166280E+02  0.10032839513E+02  0.31886058838E+02  0.00000000000E+00 0.  1.
         11    1    3    3    0    0 -0.71693438679E+01  0.56379044321E+01 -0.14477214587E+02  0.17110675041E+02  0.51100000000E-03 0. -1.
        -11    1    3    3    0    0  0.32811741747E+02  0.13381550709E+02  0.24843289284E+01  0.35522502535E+02  0.51100000000E-03 0.  1.
         12    1    3    3    0    0  0.17429640765E+01 -0.61312888616E+01  0.19600461461E+01  0.66687635864E+01  0.00000000000E+00 0. -1.
</event>
<event>
 7    1  0.5755468E-013  0.5930197E+02  0.7816164E-02  0.1266605E+00
        -11   -1    0    0    0    0  0.00000000000E+00  0.00000000000E+00  0.45593999997E+02  0.45594000000E+02  0.51100000000E-03 0. -1.
         11   -1    0    0    0    0 -0.00000000000E+00 -0.00000000000E+00 -0.45593999997E+02  0.45594000000E+02  0.51100000000E-03 0.  1.
    9900012    2    1    2    0    0 -0.52570237994E+00 -0.31866025001E+02  0.99964522991E+00  0.59301965394E+02  0.50000038966E+02 0.  0.
        -12    1    1    2    0    0  0.52570237994E+00  0.31866025001E+02 -0.99964522991E+00  0.31886034606E+02  0.00000000000E+00 0.  1.
         11    1    3    3    0    0 -0.20432969523E+02 -0.48309559721E+01 -0.10317310563E+02  0.23394257343E+02  0.51100000000E-03 0. -1.
        -11    1    3    3    0    0  0.18545409597E+02 -0.26944871052E+02  0.10775059548E+02  0.34439224754E+02  0.51100000000E-03 0.  1.
         12    1    3    3    0    0  0.13618575461E+01 -0.90197976841E-01  0.54189624553E+00  0.14684832964E+01  0.00000000000E+00 0. -1.
</event>
<event>
 7    1  0.5755468E-013  0.5930192E+02  0.7816164E-02  0.1266605E+00
        -11   -1    0    0    0    0  0.00000000000E+00  0.00000000000E+00  0.45593999997E+02  0.45594000000E+02  0.51100000000E-03 0.  1.
         11   -1    0    0    0    0 -0.00000000000E+00 -0.00000000000E+00 -0.45593999997E+02  0.45594000000E+02  0.51100000000E-03 0. -1.
    9900012    2    1    2    0    0  0.33881338397E+01  0.17924472028E+02 -0.26152551911E+02  0.59301919654E+02  0.49999955549E+02 0.  0.
        -12    1    1    2    0    0 -0.33881338397E+01 -0.17924472028E+02  0.26152551911E+02  0.31886080346E+02  0.00000000000E+00 0.  1.
         11    1    3    3    0    0 -0.19462775652E+02  0.79455193740E+01 -0.88886451399E+01  0.22824086551E+02  0.51100000000E-03 0. -1.
        -11    1    3    3    0    0  0.16982446048E+02  0.62733061971E+01 -0.25335559209E+00  0.18105856338E+02  0.51100000000E-03 0.  1.
        -12    1    3    3    0    0  0.58684634442E+01  0.37056464564E+01 -0.17010551179E+02  0.18371976765E+02  0.00000000000E+00 0.  1.
</event>
<event>
 7    1  0.5755468E-013  0.5930195E+02  0.7816164E-02  0.1266605E+00
        -11   -1    0    0    0    0  0.00000000000E+00  0.00000000000E+00  0.45593999997E+02  0.45594000000E+02  0.51100000000E-03 0. -1.
         11   -1    0    0    0    0 -0.00000000000E+00 -0.00000000000E+00 -0.45593999997E+02  0.45594000000E+02  0.51100000000E-03 0.  1.
    9900012    2    1    2    0    0 -0.47233817739E+01  0.16158641719E+02  0.27079666145E+02  0.59301947311E+02  0.50000005987E+02 0.  0.
        -12    1    1    2    0    0  0.47233817739E+01 -0.16158641719E+02 -0.27079666145E+02  0.31886052689E+02  0.00000000000E+00 0.  1.
         11    1    3    3    0    0 -0.19341216150E+02  0.60901101208E+01  0.83276697520E+01  0.21920815843E+02  0.51100000000E-03 0. -1.
        -11    1    3    3    0    0  0.15445295308E+02  0.17136758201E+02  0.78636144567E+01  0.24373388385E+02  0.51100000000E-03 0.  1.
        -12    1    3    3    0    0 -0.82746093184E+00 -0.70682266035E+01  0.10888381937E+02  0.13007743083E+02  0.00000000000E+00 0.  1.
</event>
<event>
 7    1  0.5755468E-013  0.5930195E+02  0.7816164E-02  0.1266605E+00
        -11   -1    0    0    0    0  0.00000000000E+00  0.00000000000E+00  0.45593999997E+02  0.45594000000E+02  0.51100000000E-03 0.  1.
         11   -1    0    0    0    0 -0.00000000000E+00 -0.00000000000E+00 -0.45593999997E+02  0.45594000000E+02  0.51100000000E-03 0. -1.
    9900012    2    1    2    0    0  0.16682753331E+02 -0.10668857069E+02 -0.24991626462E+02  0.59301950337E+02  0.50000011507E+02 0.  0.
        -12    1    1    2    0    0 -0.16682753331E+02  0.10668857069E+02  0.24991626462E+02  0.31886049663E+02  0.00000000000E+00 0.  1.
         11    1    3    3    0    0 -0.80003838760E+00  0.87123595737E+01  0.92276927601E+01  0.12715957876E+02  0.51100000000E-03 0.  1.
        -11    1    3    3    0    0  0.17246963144E+02 -0.62944906833E+01 -0.17618101008E+02  0.25445546448E+02  0.51100000000E-03 0. -1.
        -12    1    3    3    0    0  0.23582857486E+00 -0.13086725959E+02 -0.16601218215E+02  0.21140446014E+02  0.00000000000E+00 0.  1.
</event>
<event>
 7    1  0.5755468E-013  0.5930198E+02  0.7816164E-02  0.1266605E+00
        -11   -1    0    0    0    0  0.00000000000E+00  0.00000000000E+00  0.45593999997E+02  0.45594000000E+02  0.51100000000E-03 0.  1.
         11   -1    0    0    0    0 -0.00000000000E+00 -0.00000000000E+00 -0.45593999997E+02  0.45594000000E+02  0.51100000000E-03 0. -1.
    9900012    2    1    2    0    0 -0.18478286251E+02  0.18018710360E+02 -0.18724250407E+02  0.59301975802E+02  0.50000057949E+02 0.  0.
        -12    1    1    2    0    0  0.18478286251E+02 -0.18018710360E+02  0.18724250407E+02  0.31886024198E+02  0.00000000000E+00 0.  1.
         11    1    3    3    0    0 -0.23326230012E+02 -0.10400433957E+01 -0.23717395215E+02  0.33282270549E+02  0.51100000000E-03 0. -1.
        -11    1    3    3    0    0  0.88529763220E+00  0.20459575187E+02  0.14629894001E+01  0.20530911012E+02  0.51100000000E-03 0.  1.
        -12    1    3    3    0    0  0.39626461285E+01 -0.14008214313E+01  0.35301554081E+01  0.54887942417E+01  0.00000000000E+00 0.  1.
</event>
<event>
 7    1  0.5755468E-013  0.5930195E+02  0.7816164E-02  0.1266605E+00
        -11   -1    0    0    0    0  0.00000000000E+00  0.00000000000E+00  0.45593999997E+02  0.45594000000E+02  0.51100000000E-03 0. -1.
         11   -1    0    0    0    0 -0.00000000000E+00 -0.00000000000E+00 -0.45593999997E+02  0.45594000000E+02  0.51100000000E-03 0.  1.
    9900012    2    1    2    0    0  0.83016340129E+01  0.12980035484E+02  0.27916335165E+02  0.59301949484E+02  0.50000009951E+02 0.  0.
        -12    1    1    2    0    0 -0.83016340129E+01 -0.12980035484E+02 -0.27916335165E+02  0.31886050516E+02  0.00000000000E+00 0.  1.
         11    1    3    3    0    0  0.50339838823E+01 -0.13500662331E+02  0.14478790169E+02  0.20426557275E+02  0.51100000000E-03 0.  1.
        -11    1    3    3    0    0 -0.75651735808E+01  0.93575358996E+01  0.14182719575E+02  0.18599593120E+02  0.51100000000E-03 0. -1.
         12    1    3    3    0    0  0.10832823711E+02  0.17123161915E+02 -0.74517457898E+00  0.20275799089E+02  0.00000000000E+00 0. -1.
</event>
<event>
 7    1  0.5755468E-013  0.5930194E+02  0.7816164E-02  0.1266605E+00
        -11   -1    0    0    0    0  0.00000000000E+00  0.00000000000E+00  0.45593999997E+02  0.45594000000E+02  0.51100000000E-03 0.  1.
         11   -1    0    0    0    0 -0.00000000000E+00 -0.00000000000E+00 -0.45593999997E+02  0.45594000000E+02  0.51100000000E-03 0. -1.
    9900012    2    1    2    0    0  0.23377928645E+02  0.20335568118E+02  0.75271544704E+01  0.59301938267E+02  0.49999989494E+02 0.  0.
        -12    1    1    2    0    0 -0.23377928645E+02 -0.20335568118E+02 -0.75271544704E+01  0.31886061733E+02  0.00000000000E+00 0.  1.
         11    1    3    3    0    0  0.87509861913E+01  0.10400621450E+02 -0.66053672400E+01  0.15112364557E+02  0.51100000000E-03 0. -1.
        -11    1    3    3    0    0  0.93595053542E+01 -0.12409876431E+02  0.14460469552E+02  0.21229944734E+02  0.51100000000E-03 0.  1.
        -12    1    3    3    0    0  0.52674370994E+01  0.22344823099E+02 -0.32794784150E+00  0.22959628976E+02  0.00000000000E+00 0.  1.
</event>
<event>
 7    1  0.5755468E-013  0.5930194E+02  0.7816164E-02  0.1266605E+00
        -11   -1    0    0    0    0  0.00000000000E+00  0.00000000000E+00  0.45593999997E+02  0.45594000000E+02  0.51100000000E-03 0. -1.
         11   -1    0    0    0    0 -0.00000000000E+00 -0.00000000000E+00 -0.45593999997E+02  0.45594000000E+02  0.51100000000E-03 0.  1.
    9900012    2    1    2    0    0 -0.34519068965E+01  0.22606974449E+02  0.22220035185E+02  0.59301938490E+02  0.49999989901E+02 0.  0.
        -12    1    1    2    0    0  0.34519068965E+01 -0.22606974449E+02 -0.22220035185E+02  0.31886061510E+02  0.00000000000E+00 0.  1.
         11    1    3    3    0    0 -0.47189085569E+01  0.39375827913E+01  0.17187464865E+02  0.18253262858E+02  0.51100000000E-03 0. -1.
        -11    1    3    3    0    0  0.13703996358E+02 -0.37633573097E+01 -0.22425527872E+01  0.14387196311E+02  0.51100000000E-03 0.  1.
        -12    1    3    3    0    0 -0.12436994698E+02  0.22432748968E+02  0.72751231074E+01  0.26661479321E+02  0.00000000000E+00 0.  1.
</event>
<event>
 7    1  0.5755468E-013  0.5930196E+02  0.7816164E-02  0.1266605E+00
        -11   -1    0    0    0    0  0.00000000000E+00  0.00000000000E+00  0.45593999997E+02  0.45594000000E+02  0.51100000000E-03 0.  1.
         11   -1    0    0    0    0 -0.00000000000E+00 -0.00000000000E+00 -0.45593999997E+02  0.45594000000E+02  0.51100000000E-03 0. -1.
    9900012    2    1    2    0    0 -0.25729440769E+02  0.18481114094E+01 -0.18742993868E+02  0.59301961406E+02  0.50000031694E+02 0.  0.
        -12    1    1    2    0    0  0.25729440769E+02 -0.18481114094E+01  0.18742993868E+02  0.31886038594E+02  0.00000000000E+00 0.  1.
         11    1    3    3    0    0 -0.78124164653E+01  0.71728087431E+01  0.38785162810E+00  0.10612891474E+02  0.51100000000E-03 0. -1.
        -11    1    3    3    0    0  0.19978363641E+01 -0.85189688854E+01 -0.25959911254E+02  0.27394911455E+02  0.51100000000E-03 0.  1.
        -12    1    3    3    0    0 -0.19914860667E+02  0.31942715517E+01  0.68290657578E+01  0.21294158478E+02  0.00000000000E+00 0.  1.
</event>
<event>
 7    1  0.5755468E-013  0.5930195E+02  0.7816164E-02  0.1266605E+00
        -11   -1    0    0    0    0  0.00000000000E+00  0.00000000000E+00  0.45593999997E+02  0.45594000000E+02  0.51100000000E-03 0.  1.
         11   -1    0    0    0    0 -0.00000000000E+00 -0.00000000000E+00 -0.45593999997E+02  0.45594000000E+02  0.51100000000E-03 0. -1.
    9900012    2    1    2    0    0  0.17685280973E+02 -0.15649189357E+02 -0.21425549985E+02  0.59301945324E+02  0.50000002365E+02 0.  0.
        -12    1    1    2    0    0 -0.17685280973E+02  0.15649189357E+02  0.21425549985E+02  0.31886054676E+02  0.00000000000E+00 0.  1.
         11    1    3    3    0    0 -0.12207249285E+01 -0.71410377722E+01 -0.26716622950E+01  0.77215522724E+01  0.51100000000E-03 0. -1.
        -11    1    3    3    0    0  0.57481478416E+01  0.78985611793E+01 -0.27211883720E+02  0.28912196184E+02  0.51100000000E-03 0.  1.
        -12    1    3    3    0    0  0.13157858059E+02 -0.16406712764E+02  0.84579960296E+01  0.22668196868E+02  0.00000000000E+00 0.  1.
</event>
<event>
 7    1  0.5755468E-013  0.5930193E+02  0.7816164E-02  0.1266605E+00
        -11   -1    0    0    0    0  0.00000000000E+00  0.00000000000E+00  0.45593999997E+02  0.45594000000E+02  0.51100000000E-03 0.  1.
         11   -1    0    0    0    0 -0.00000000000E+00 -0.00000000000E+00 -0.45593999997E+02  0.45594000000E+02  0.51100000000E-03 0. -1.
    9900012    2    1    2    0    0  0.27517670729E+02  0.96591482643E+01  0.12891857753E+02  0.59301931822E+02  0.49999977739E+02 0.  0.
        -12    1    1    2    0    0 -0.27517670729E+02 -0.96591482643E+01 -0.12891857753E+02  0.31886068178E+02  0.00000000000E+00 0.  1.
         11    1    3    3    0    0 -0.23678865428E+01  0.15949412860E+02 -0.29281903657E+01  0.16387951560E+02  0.51100000000E-03 0. -1.
        -11    1    3    3    0    0  0.15990010666E+02 -0.11405879497E+01  0.21693085221E+02  0.26973530148E+02  0.51100000000E-03 0.  1.
        -12    1    3    3    0    0  0.13895546606E+02 -0.51496766457E+01 -0.58730371021E+01  0.15940450114E+02  0.00000000000E+00 0.  1.
</event>
<event>
 7    1  0.5755468E-013  0.5930194E+02  0.7816164E-02  0.1266605E+00
        -11   -1    0    0    0    0  0.00000000000E+00  0.00000000000E+00  0.45593999997E+02  0.45594000000E+02  0.51100000000E-03 0. -1.
         11   -1    0    0    0    0 -0.00000000000E+00 -0.00000000000E+00 -0.45593999997E+02  0.45594000000E+02  0.51100000000E-03 0.  1.
    9900012    2    1    2    0    0  0.16758618970E+02 -0.13159201266E+02  0.23721402952E+02  0.59301939633E+02  0.49999991985E+02 0.  0.
        -12    1    1    2    0    0 -0.16758618970E+02  0.13159201266E+02 -0.23721402952E+02  0.31886060367E+02  0.00000000000E+00 0.  1.
         11    1    3    3    0    0 -0.14696718876E+02  0.91067151832E+00 -0.14192719616E+00  0.14725590376E+02  0.51100000000E-03 0.  1.
        -11    1    3    3    0    0  0.24786804537E+02 -0.17202442503E+02  0.20503262299E+02  0.36478671472E+02  0.51100000000E-03 0. -1.
         12    1    3    3    0    0  0.66685333096E+01  0.31325697191E+01  0.33600678487E+01  0.80976777840E+01  0.00000000000E+00 0. -1.
</event>
<event>
 7    1  0.5755468E-013  0.5930196E+02  0.7816164E-02  0.1266605E+00
        -11   -1    0    0    0    0  0.00000000000E+00  0.00000000000E+00  0.45593999997E+02  0.45594000000E+02  0.51100000000E-03 0. -1.
         11   -1    0    0    0    0 -0.00000000000E+00 -0.00000000000E+00 -0.45593999997E+02  0.45594000000E+02  0.51100000000E-03 0.  1.
    9900012    2    1    2    0    0  0.11243130037E+02 -0.26076055266E+02 -0.14503478390E+02  0.59301960474E+02  0.50000029994E+02 0.  0.
        -12    1    1    2    0    0 -0.11243130037E+02  0.26076055266E+02  0.14503478390E+02  0.31886039526E+02  0.00000000000E+00 0.  1.
         11    1    3    3    0    0 -0.87385069071E+01 -0.91283685206E+01  0.10522434791E+02  0.16444155466E+02  0.51100000000E-03 0. -1.
        -11    1    3    3    0    0  0.63370437810E+01 -0.72090995468E+01 -0.24245324768E+02  0.26076138777E+02  0.51100000000E-03 0.  1.
         12    1    3    3    0    0  0.13644593163E+02 -0.97385871981E+01 -0.78058841271E+00  0.16781666231E+02  0.00000000000E+00 0. -1.
</event>
<event>
 7    1  0.5755468E-013  0.5930194E+02  0.7816164E-02  0.1266605E+00
        -11   -1    0    0    0    0  0.00000000000E+00  0.00000000000E+00  0.45593999997E+02  0.45594000000E+02  0.51100000000E-03 0. -1.
         11   -1    0    0    0    0 -0.00000000000E+00 -0.00000000000E+00 -0.45593999997E+02  0.45594000000E+02  0.51100000000E-03 0.  1.
    9900012    2    1    2    0    0 -0.18883595400E+01 -0.14619671581E+02  0.28274018658E+02  0.59301939880E+02  0.49999992436E+02 0.  0.
        -12    1    1    2    0    0  0.18883595400E+01  0.14619671581E+02 -0.28274018658E+02  0.31886060120E+02  0.00000000000E+00 0.  1.
         11    1    3    3    0    0  0.37768897737E+01 -0.93744925732E+01  0.27287433824E+02  0.29098969953E+02  0.51100000000E-03 0. -1.
        -11    1    3    3    0    0 -0.49477816515E+01  0.84549772941E+01 -0.89455593834E+01  0.13266130455E+02  0.51100000000E-03 0.  1.
         12    1    3    3    0    0 -0.71746766219E+00 -0.13700156302E+02  0.99321442168E+01  0.16936839472E+02  0.00000000000E+00 0. -1.
</event>
<event>
 7    1  0.5755468E-013  0.5930193E+02  0.7816164E-02  0.1266605E+00
        -11   -1    0    0    0    0  0.00000000000E+00  0.00000000000E+00  0.45593999997E+02  0.45594000000E+02  0.51100000000E-03 0. -1.
         11   -1    0    0    0    0 -0.00000000000E+00 -0.00000000000E+00 -0.45593999997E+02  0.45594000000E+02  0.51100000000E-03 0.  1.
    9900012    2    1    2    0    0  0.28752018636E+02  0.62656050704E+01  0.12279446741E+02  0.59301934160E+02  0.49999982003E+02 0.  0.
        -12    1    1    2    0    0 -0.28752018636E+02 -0.62656050704E+01 -0.12279446741E+02  0.31886065840E+02  0.00000000000E+00 0.  1.
         11    1    3    3    0    0 -0.40205674190E+00  0.16472081770E+02  0.12337462491E+02  0.20584074146E+02  0.51100000000E-03 0. -1.
        -11    1    3    3    0    0  0.16816053219E+02 -0.13308710159E+02  0.88368863306E+01  0.23194653959E+02  0.51100000000E-03 0.  1.
        -12    1    3    3    0    0  0.12338022158E+02  0.31022334595E+01 -0.88949020806E+01  0.15523206055E+02  0.00000000000E+00 0.  1.
</event>
<event>
 7    1  0.5755468E-013  0.5930194E+02  0.7816164E-02  0.1266605E+00
        -11   -1    0    0    0    0  0.00000000000E+00  0.00000000000E+00  0.45593999997E+02  0.45594000000E+02  0.51100000000E-03 0.  1.
         11   -1    0    0    0    0 -0.00000000000E+00 -0.00000000000E+00 -0.45593999997E+02  0.45594000000E+02  0.51100000000E-03 0. -1.
    9900012    2    1    2    0    0 -0.16242907004E+02  0.13940799700E+02 -0.23633513714E+02  0.59301938865E+02  0.49999990585E+02 0.  0.
        -12    1    1    2    0    0  0.16242907004E+02 -0.13940799700E+02  0.23633513714E+02  0.31886061135E+02  0.00000000000E+00 0.  1.
         11    1    3    3    0    0 -0.13895175933E+01 -0.20496535861E+01 -0.12134133164E+02  0.12384224920E+02  0.51100000000E-03 0. -1.
        -11    1    3    3    0    0 -0.53520197660E+01  0.20697003227E+02  0.94997182047E+01  0.23393475680E+02  0.51100000000E-03 0.  1.
        -12    1    3    3    0    0 -0.95013696444E+01 -0.47065499405E+01 -0.20999098755E+02  0.23524238266E+02  0.00000000000E+00 0.  1.
</event>
<event>
 7    1  0.5755468E-013  0.5930196E+02  0.7816164E-02  0.1266605E+00
        -11   -1    0    0    0    0  0.00000000000E+00  0.00000000000E+00  0.45593999997E+02  0.45594000000E+02  0.51100000000E-03 0.  1.
         11   -1    0    0    0    0 -0.00000000000E+00 -0.00000000000E+00 -0.45593999997E+02  0.45594000000E+02  0.51100000000E-03 0. -1.
    9900012    2    1    2    0    0  0.23933338295E+02 -0.15167024321E+02 -0.14624509336E+02  0.59301959449E+02  0.50000028125E+02 0.  0.
        -12    1    1    2    0    0 -0.23933338295E+02  0.15167024321E+02  0.14624509336E+02  0.31886040551E+02  0.00000000000E+00 0.  1.
         11    1    3    3    0    0  0.86847529129E+01 -0.23985199409E+02 -0.76888471390E+01  0.26642693077E+02  0.51100000000E-03 0. -1.
        -11    1    3    3    0    0  0.20331740454E+02  0.48463242894E+01  0.26880601236E+01  0.21073495118E+02  0.51100000000E-03 0.  1.
        -12    1    3    3    0    0 -0.50831550716E+01  0.39718507980E+01 -0.96237223206E+01  0.11585771254E+02  0.00000000000E+00 0.  1.
</event>
<event>
 7    1  0.5755468E-013  0.5930204E+02  0.7816164E-02  0.1266604E+00
        -11   -1    0    0    0    0  0.00000000000E+00  0.00000000000E+00  0.45593999997E+02  0.45594000000E+02  0.51100000000E-03 0. -1.
         11   -1    0    0    0    0 -0.00000000000E+00 -0.00000000000E+00 -0.45593999997E+02  0.45594000000E+02  0.51100000000E-03 0.  1.
    9900012    2    1    2    0    0 -0.42354088289E+01  0.74529643513E+01  0.30712034002E+02  0.59302040737E+02  0.50000176374E+02 0.  0.
        -12    1    1    2    0    0  0.42354088289E+01 -0.74529643513E+01 -0.30712034002E+02  0.31885959263E+02  0.00000000000E+00 0.  1.
         11    1    3    3    0    0 -0.17573519318E+02  0.11364105202E+02 -0.92288568106E+00  0.20948106991E+02  0.51100000000E-03 0. -1.
        -11    1    3    3    0    0 -0.12168409368E+01 -0.65670490241E+01  0.74786878683E+01  0.10026844331E+02  0.51100000000E-03 0.  1.
         12    1    3    3    0    0  0.14554951426E+02  0.26559081733E+01  0.24156231815E+02  0.28327089415E+02  0.00000000000E+00 0. -1.
</event>
<event>
 7    1  0.5755468E-013  0.5930196E+02  0.7816164E-02  0.1266605E+00
        -11   -1    0    0    0    0  0.00000000000E+00  0.00000000000E+00  0.45593999997E+02  0.45594000000E+02  0.51100000000E-03 0.  1.
         11   -1    0    0    0    0 -0.00000000000E+00 -0.00000000000E+00 -0.45593999997E+02  0.45594000000E+02  0.51100000000E-03 0. -1.
    9900012    2    1    2    0    0  0.19092227023E+02 -0.17840993359E+02 -0.18273074806E+02  0.59301961682E+02  0.50000032198E+02 0.  0.
        -12    1    1    2    0    0 -0.19092227023E+02  0.17840993359E+02  0.18273074806E+02  0.31886038318E+02  0.00000000000E+00 0.  1.
         11    1    3    3    0    0  0.36661277240E+01 -0.95510215832E+01 -0.30681366348E+02  0.32342058485E+02  0.51100000000E-03 0. -1.
        -11    1    3    3    0    0  0.15198819690E+02 -0.60208815343E+01  0.15889922005E+02  0.22797911220E+02  0.51100000000E-03 0.  1.
        -12    1    3    3    0    0  0.22727960947E+00 -0.22690902412E+01 -0.34816304627E+01  0.41619919777E+01  0.00000000000E+00 0.  1.
</event>
<event>
 7    1  0.5755468E-013  0.5930195E+02  0.7816164E-02  0.1266605E+00
        -11   -1    0    0    0    0  0.00000000000E+00  0.00000000000E+00  0.45593999997E+02  0.45594000000E+02  0.51100000000E-03 0.  1.
         11   -1    0    0    0    0 -0.00000000000E+00 -0.00000000000E+00 -0.45593999997E+02  0.45594000000E+02  0.51100000000E-03 0. -1.
    9900012    2    1    2    0    0  0.25119310869E+02 -0.13231941408E+02 -0.14513992612E+02  0.59301952369E+02  0.50000015213E+02 0.  0.
        -12    1    1    2    0    0 -0.25119310869E+02  0.13231941408E+02  0.14513992612E+02  0.31886047631E+02  0.00000000000E+00 0.  1.
         11    1    3    3    0    0  0.27752245266E+02 -0.12975623033E+02 -0.58467355238E+01  0.31188751609E+02  0.51100000000E-03 0. -1.
        -11    1    3    3    0    0 -0.52427818728E+01  0.11186239614E+01  0.88512460752E+01  0.10348074153E+02  0.51100000000E-03 0.  1.
        -12    1    3    3    0    0  0.26098474757E+01 -0.13749423367E+01 -0.17518503164E+02  0.17765126607E+02  0.00000000000E+00 0.  1.
</event>
<event>
 7    1  0.5755468E-013  0.5930195E+02  0.7816164E-02  0.1266605E+00
        -11   -1    0    0    0    0  0.00000000000E+00  0.00000000000E+00  0.45593999997E+02  0.45594000000E+02  0.51100000000E-03 0.  1.
         11   -1    0    0    0    0 -0.00000000000E+00 -0.00000000000E+00 -0.45593999997E+02  0.45594000000E+02  0.51100000000E-03 0. -1.
    9900012    2    1    2    0    0  0.14704573448E+02 -0.28158706540E+02 -0.27537648230E+01  0.59301945760E+02  0.50000003159E+02 0.  0.
        -12    1    1    2    0    0 -0.14704573448E+02  0.28158706540E+02  0.27537648230E+01  0.31886054240E+02  0.00000000000E+00 0.  1.
         11    1    3    3    0    0 -0.29611878633E+01 -0.24262461964E+02 -0.15499823861E+02  0.28942706060E+02  0.51100000000E-03 0. -1.
        -11    1    3    3    0    0  0.28550141857E+01  0.64949046473E+01  0.96914809725E+01  0.12010815796E+02  0.51100000000E-03 0.  1.
         12    1    3    3    0    0  0.14810747125E+02 -0.10391149224E+02  0.30545780651E+01  0.18348423904E+02  0.00000000000E+00 0. -1.
</event>
