<event>
 7    1  0.1284645E-011  0.5930195E+02  0.7816164E-02  0.1266605E+00
        -11   -1    0    0    0    0  0.00000000000E+00  0.00000000000E+00  0.45593999997E+02  0.45594000000E+02  0.51100000000E-03 0.  1.
         11   -1    0    0    0    0 -0.00000000000E+00 -0.00000000000E+00 -0.45593999997E+02  0.45594000000E+02  0.51100000000E-03 0. -1.
    9900012    2    1    2    0    0 -0.24016946997E+02  0.13930416220E+02  0.15679599552E+02  0.59301951620E+02  0.50000013847E+02 0.  0.
         12    1    1    2    0    0  0.24016946997E+02 -0.13930416220E+02 -0.15679599552E+02  0.31886048380E+02  0.00000000000E+00 0. -1.
         11    1    3    3    0    0 -0.20669566567E+02  0.38296742707E+01  0.12846506884E+01  0.21060572517E+02  0.51100000000E-03 0. -1.
        -11    1    3    3    0    0 -0.14028227710E+02  0.15461389161E+02  0.15836935650E+02  0.26204088584E+02  0.51100000000E-03 0.  1.
         12    1    3    3    0    0  0.10680847280E+02 -0.53606472117E+01 -0.14419867861E+01  0.12037290519E+02  0.00000000000E+00 0. -1.
</event>
<event>
 7    1  0.1284645E-011  0.5930194E+02  0.7816164E-02  0.1266605E+00
        -11   -1    0    0    0    0  0.00000000000E+00  0.00000000000E+00  0.45593999997E+02  0.45594000000E+02  0.51100000000E-03 0.  1.
         11   -1    0    0    0    0 -0.00000000000E+00 -0.00000000000E+00 -0.45593999997E+02  0.45594000000E+02  0.51100000000E-03 0. -1.
    9900012    2    1    2    0    0  0.59663941077E+01 -0.11444858561E+02  0.29157127858E+02  0.59301941117E+02  0.49999994692E+02 0.  0.
         12    1    1    2    0    0 -0.59663941077E+01  0.11444858561E+02 -0.29157127858E+02  0.31886058883E+02  0.00000000000E+00 0. -1.
         11    1    3    3    0    0 -0.13080786726E+01  0.40357860017E+01 -0.15544826825E+01  0.45183022405E+01  0.51100000000E-03 0.  1.
        -11    1    3    3    0    0  0.10413158587E+02  0.62216030626E+01 -0.48016510340E+01  0.13045998212E+02  0.51100000000E-03 0. -1.
         12    1    3    3    0    0 -0.31386858068E+01 -0.21702247625E+02  0.35513261575E+02  0.41737640665E+02  0.00000000000E+00 0. -1.
</event>
<event>
 7    1  0.1284645E-011  0.5930195E+02  0.7816164E-02  0.1266605E+00
        -11   -1    0    0    0    0  0.00000000000E+00  0.00000000000E+00  0.45593999997E+02  0.45594000000E+02  0.51100000000E-03 0.  1.
         11   -1    0    0    0    0 -0.00000000000E+00 -0.00000000000E+00 -0.45593999997E+02  0.45594000000E+02  0.51100000000E-03 0. -1.
    9900012    2    1    2    0    0 -0.26590391929E+02  0.49822139972E+01  0.16877456174E+02  0.59301954053E+02  0.50000018284E+02 0.  0.
         12    1    1    2    0    0  0.26590391929E+02 -0.49822139972E+01 -0.16877456174E+02  0.31886045947E+02  0.00000000000E+00 0. -1.
         11    1    3    3    0    0 -0.16679468617E+02  0.87284290393E+01 -0.11324669330E+01  0.18859284941E+02  0.51100000000E-03 0. -1.
        -11    1    3    3    0    0  0.29587408639E+01 -0.92368667276E+01 -0.68786030762E+01  0.11890712131E+02  0.51100000000E-03 0.  1.
        -12    1    3    3    0    0 -0.12869664175E+02  0.54906516856E+01  0.24888526183E+02  0.28551956981E+02  0.00000000000E+00 0.  1.
</event>
<event>
 7    1  0.1284645E-011  0.5930195E+02  0.7816164E-02  0.1266605E+00
        -11   -1    0    0    0    0  0.00000000000E+00  0.00000000000E+00  0.45593999997E+02  0.45594000000E+02  0.51100000000E-03 0.  1.
         11   -1    0    0    0    0 -0.00000000000E+00 -0.00000000000E+00 -0.45593999997E+02  0.45594000000E+02  0.51100000000E-03 0. -1.
    9900012    2    1    2    0    0  0.88051194395E+01  0.16950495062E+02  0.25531765011E+02  0.59301946062E+02  0.50000003709E+02 0.  0.
         12    1    1    2    0    0 -0.88051194395E+01 -0.16950495062E+02 -0.25531765011E+02  0.31886053938E+02  0.00000000000E+00 0. -1.
         11    1    3    3    0    0 -0.47184469989E+00 -0.10354438814E+02  0.15470459873E-01  0.10365195616E+02  0.51100000000E-03 0. -1.
        -11    1    3    3    0    0 -0.38652626626E+01 -0.21174747834E+01  0.14063451298E+02  0.14737863399E+02  0.51100000000E-03 0.  1.
        -12    1    3    3    0    0  0.13142226802E+02  0.29422408659E+02  0.11452843253E+02  0.34198887046E+02  0.00000000000E+00 0.  1.
</event>
<event>
 7    1  0.1284645E-011  0.5930195E+02  0.7816164E-02  0.1266605E+00
        -11   -1    0    0    0    0  0.00000000000E+00  0.00000000000E+00  0.45593999997E+02  0.45594000000E+02  0.51100000000E-03 0. -1.
         11   -1    0    0    0    0 -0.00000000000E+00 -0.00000000000E+00 -0.45593999997E+02  0.45594000000E+02  0.51100000000E-03 0.  1.
    9900012    2    1    2    0    0 -0.20014432289E+02 -0.20509044901E+02 -0.13982920370E+02  0.59301945295E+02  0.50000002311E+02 0.  0.
         12    1    1    2    0    0  0.20014432289E+02  0.20509044901E+02  0.13982920370E+02  0.31886054705E+02  0.00000000000E+00 0. -1.
         11    1    3    3    0    0 -0.24887319257E+01  0.27127836175E+01  0.11266233915E+02  0.11852468453E+02  0.51100000000E-03 0. -1.
        -11    1    3    3    0    0 -0.15805677139E+02 -0.12972070979E+02 -0.33018607636E+00  0.20450014142E+02  0.51100000000E-03 0.  1.
        -12    1    3    3    0    0 -0.17200232242E+01 -0.10249757539E+02 -0.24918968208E+02  0.26999462699E+02  0.00000000000E+00 0.  1.
</event>
<event>
 7    1  0.1284645E-011  0.5930193E+02  0.7816164E-02  0.1266605E+00
        -11   -1    0    0    0    0  0.00000000000E+00  0.00000000000E+00  0.45593999997E+02  0.45594000000E+02  0.51100000000E-03 0.  1.
         11   -1    0    0    0    0 -0.00000000000E+00 -0.00000000000E+00 -0.45593999997E+02  0.45594000000E+02  0.51100000000E-03 0. -1.
    9900012    2    1    2    0    0  0.55142302899E+01 -0.10430079814E+02  0.29623097583E+02  0.59301933905E+02  0.49999981539E+02 0.  0.
         12    1    1    2    0    0 -0.55142302899E+01  0.10430079814E+02 -0.29623097583E+02  0.31886066095E+02  0.00000000000E+00 0. -1.
         11    1    3    3    0    0  0.18428808107E+02  0.21851150377E+01  0.60242612445E+01  0.19511212668E+02  0.51100000000E-03 0. -1.
        -11    1    3    3    0    0  0.55612599587E+01  0.41805212288E+01  0.65575130057E+01  0.95606143712E+01  0.51100000000E-03 0.  1.
        -12    1    3    3    0    0 -0.18475837776E+02 -0.16795716081E+02  0.17041323332E+02  0.30230106866E+02  0.00000000000E+00 0.  1.
</event>
<event>
 7    1  0.1284645E-011  0.5930195E+02  0.7816164E-02  0.1266605E+00
        -11   -1    0    0    0    0  0.00000000000E+00  0.00000000000E+00  0.45593999997E+02  0.45594000000E+02  0.51100000000E-03 0. -1.
         11   -1    0    0    0    0 -0.00000000000E+00 -0.00000000000E+00 -0.45593999997E+02  0.45594000000E+02  0.51100000000E-03 0.  1.
    9900012    2    1    2    0    0 -0.25714617832E+01 -0.14602230424E+02 -0.28229114362E+02  0.59301945890E+02  0.50000003396E+02 0.  0.
         12    1    1    2    0    0  0.25714617832E+01  0.14602230424E+02  0.28229114362E+02  0.31886054110E+02  0.00000000000E+00 0. -1.
         11    1    3    3    0    0  0.68444369896E+00 -0.58565675654E+01  0.73090147053E+01  0.93909287639E+01  0.51100000000E-03 0. -1.
        -11    1    3    3    0    0 -0.18563392456E+02 -0.52310120351E+01 -0.18218945962E+02  0.26530982240E+02  0.51100000000E-03 0.  1.
        -12    1    3    3    0    0  0.15307486974E+02 -0.35146508234E+01 -0.17319183105E+02  0.23380034886E+02  0.00000000000E+00 0.  1.
</event>
<event>
 7    1  0.1284645E-011  0.5930193E+02  0.7816164E-02  0.1266605E+00
        -11   -1    0    0    0    0  0.00000000000E+00  0.00000000000E+00  0.45593999997E+02  0.45594000000E+02  0.51100000000E-03 0. -1.
         11   -1    0    0    0    0 -0.00000000000E+00 -0.00000000000E+00 -0.45593999997E+02  0.45594000000E+02  0.51100000000E-03 0.  1.
    9900012    2    1    2    0    0  0.30782009795E+02  0.83179332904E+01  0.37109809152E-01  0.59301929085E+02  0.49999972748E+02 0.  0.
         12    1    1    2    0    0 -0.30782009795E+02 -0.83179332904E+01 -0.37109809152E-01  0.31886070915E+02  0.00000000000E+00 0. -1.
         11    1    3    3    0    0  0.79747049661E+01 -0.81879995088E+00  0.44317724738E+01  0.91600742452E+01  0.51100000000E-03 0. -1.
        -11    1    3    3    0    0  0.13148772000E+02 -0.17153589999E+02 -0.47592647243E+01  0.22131119627E+02  0.51100000000E-03 0.  1.
        -12    1    3    3    0    0  0.96585328288E+01  0.26290323240E+02  0.36460205964E+00  0.28010735213E+02  0.00000000000E+00 0.  1.
</event>
<event>
 7    1  0.1284645E-011  0.5930194E+02  0.7816164E-02  0.1266605E+00
        -11   -1    0    0    0    0  0.00000000000E+00  0.00000000000E+00  0.45593999997E+02  0.45594000000E+02  0.51100000000E-03 0.  1.
         11   -1    0    0    0    0 -0.00000000000E+00 -0.00000000000E+00 -0.45593999997E+02  0.45594000000E+02  0.51100000000E-03 0. -1.
    9900012    2    1    2    0    0 -0.31003954673E+02  0.66346092682E+01 -0.33849033409E+01  0.59301940097E+02  0.49999992831E+02 0.  0.
         12    1    1    2    0    0  0.31003954673E+02 -0.66346092682E+01  0.33849033409E+01  0.31886059903E+02  0.00000000000E+00 0. -1.
         11    1    3    3    0    0 -0.11508044772E+01 -0.66128057703E+01 -0.96310255305E+01  0.11739259096E+02  0.51100000000E-03 0. -1.
        -11    1    3    3    0    0 -0.73441208438E+01 -0.10477676081E+02 -0.38053655619E+01  0.13349105376E+02  0.51100000000E-03 0.  1.
        -12    1    3    3    0    0 -0.22509029352E+02  0.23725091120E+02  0.10051487751E+02  0.34213575625E+02  0.00000000000E+00 0.  1.
</event>
<event>
 7    1  0.1284645E-011  0.5930189E+02  0.7816164E-02  0.1266605E+00
        -11   -1    0    0    0    0  0.00000000000E+00  0.00000000000E+00  0.45593999997E+02  0.45594000000E+02  0.51100000000E-03 0.  1.
         11   -1    0    0    0    0 -0.00000000000E+00 -0.00000000000E+00 -0.45593999997E+02  0.45594000000E+02  0.51100000000E-03 0. -1.
    9900012    2    1    2    0    0  0.19724958240E+01 -0.36993890348E+01  0.31609296504E+02  0.59301892610E+02  0.49999906226E+02 0.  0.
         12    1    1    2    0    0 -0.19724958240E+01  0.36993890348E+01 -0.31609296504E+02  0.31886107390E+02  0.00000000000E+00 0. -1.
         11    1    3    3    0    0  0.82347420077E+01 -0.75246488225E+01 -0.52284540780E+01  0.12319417524E+02  0.51100000000E-03 0. -1.
        -11    1    3    3    0    0  0.51411735659E+01 -0.92566847245E+01  0.77900301336E+01  0.13145434472E+02  0.51100000000E-03 0.  1.
         12    1    3    3    0    0 -0.11403419750E+02  0.13081944512E+02  0.29047720448E+02  0.33837040613E+02  0.00000000000E+00 0. -1.
</event>
<event>
 7    1  0.1284645E-011  0.5930194E+02  0.7816164E-02  0.1266605E+00
        -11   -1    0    0    0    0  0.00000000000E+00  0.00000000000E+00  0.45593999997E+02  0.45594000000E+02  0.51100000000E-03 0.  1.
         11   -1    0    0    0    0 -0.00000000000E+00 -0.00000000000E+00 -0.45593999997E+02  0.45594000000E+02  0.51100000000E-03 0. -1.
    9900012    2    1    2    0    0  0.24584182174E+02  0.52858428761E+01  0.19606084218E+02  0.59301942131E+02  0.49999996541E+02 0.  0.
         12    1    1    2    0    0 -0.24584182174E+02 -0.52858428761E+01 -0.19606084218E+02  0.31886057869E+02  0.00000000000E+00 0. -1.
         11    1    3    3    0    0  0.30985760332E+02  0.81913370117E+01  0.14181442809E+02  0.35047520109E+02  0.51100000000E-03 0. -1.
        -11    1    3    3    0    0  0.65137255647E+01  0.87701511344E+00  0.82045646284E+01  0.10512500047E+02  0.51100000000E-03 0.  1.
         12    1    3    3    0    0 -0.12915303723E+02 -0.37825092490E+01 -0.27799232193E+01  0.13741921975E+02  0.00000000000E+00 0. -1.
</event>
<event>
 7    1  0.1284645E-011  0.5930193E+02  0.7816164E-02  0.1266605E+00
        -11   -1    0    0    0    0  0.00000000000E+00  0.00000000000E+00  0.45593999997E+02  0.45594000000E+02  0.51100000000E-03 0.  1.
         11   -1    0    0    0    0 -0.00000000000E+00 -0.00000000000E+00 -0.45593999997E+02  0.45594000000E+02  0.51100000000E-03 0. -1.
    9900012    2    1    2    0    0 -0.24037159170E+02 -0.14927819259E+02 -0.14700223748E+02  0.59301931145E+02  0.49999976504E+02 0.  0.
         12    1    1    2    0    0  0.24037159170E+02  0.14927819259E+02  0.14700223748E+02  0.31886068855E+02  0.00000000000E+00 0. -1.
         11    1    3    3    0    0 -0.28603537210E+01  0.65647297228E+01  0.86617557352E+01  0.11238474648E+02  0.51100000000E-03 0. -1.
        -11    1    3    3    0    0 -0.20480268687E+01 -0.14070007622E+02  0.31261095503E+01  0.14557887543E+02  0.51100000000E-03 0.  1.
         12    1    3    3    0    0 -0.19128778581E+02 -0.74225413597E+01 -0.26488089033E+02  0.33505568953E+02  0.00000000000E+00 0. -1.
</event>
<event>
 7    1  0.1284645E-011  0.5930195E+02  0.7816164E-02  0.1266605E+00
        -11   -1    0    0    0    0  0.00000000000E+00  0.00000000000E+00  0.45593999997E+02  0.45594000000E+02  0.51100000000E-03 0. -1.
         11   -1    0    0    0    0 -0.00000000000E+00 -0.00000000000E+00 -0.45593999997E+02  0.45594000000E+02  0.51100000000E-03 0.  1.
    9900012    2    1    2    0    0 -0.28341687646E+02  0.89171050512E+01 -0.11573858687E+02  0.59301949351E+02  0.50000009708E+02 0.  0.
         12    1    1    2    0    0  0.28341687646E+02 -0.89171050512E+01  0.11573858687E+02  0.31886050649E+02  0.00000000000E+00 0. -1.
         11    1    3    3    0    0 -0.91492915276E+01 -0.16407205212E+02  0.25503191994E+01  0.18958112949E+02  0.51100000000E-03 0. -1.
        -11    1    3    3    0    0 -0.70373870586E+01  0.50705994915E+01  0.49465103872E+01  0.99851770684E+01  0.51100000000E-03 0.  1.
         12    1    3    3    0    0 -0.12155009060E+02  0.20253710772E+02 -0.19070688274E+02  0.30358659333E+02  0.00000000000E+00 0. -1.
</event>
<event>
 7    1  0.1284645E-011  0.5930190E+02  0.7816164E-02  0.1266605E+00
        -11   -1    0    0    0    0  0.00000000000E+00  0.00000000000E+00  0.45593999997E+02  0.45594000000E+02  0.51100000000E-03 0. -1.
         11   -1    0    0    0    0 -0.00000000000E+00 -0.00000000000E+00 -0.45593999997E+02  0.45594000000E+02  0.51100000000E-03 0.  1.
    9900012    2    1    2    0    0  0.20331007895E+02 -0.48272773394E+01 -0.24084657284E+02  0.59301902637E+02  0.49999924514E+02 0.  0.
         12    1    1    2    0    0 -0.20331007895E+02  0.48272773394E+01  0.24084657284E+02  0.31886097363E+02  0.00000000000E+00 0. -1.
         11    1    3    3    0    0  0.10855770129E+02 -0.19447457891E+01  0.11709087178E+02  0.16085164099E+02  0.51100000000E-03 0. -1.
        -11    1    3    3    0    0 -0.49157643290E+01 -0.43519239490E+00 -0.23851036112E+02  0.24356232369E+02  0.51100000000E-03 0.  1.
         12    1    3    3    0    0  0.14391002094E+02 -0.24473391555E+01 -0.11942708350E+02  0.18860506169E+02  0.00000000000E+00 0. -1.
</event>
<event>
 7    1  0.1284645E-011  0.5930190E+02  0.7816164E-02  0.1266605E+00
        -11   -1    0    0    0    0  0.00000000000E+00  0.00000000000E+00  0.45593999997E+02  0.45594000000E+02  0.51100000000E-03 0.  1.
         11   -1    0    0    0    0 -0.00000000000E+00 -0.00000000000E+00 -0.45593999997E+02  0.45594000000E+02  0.51100000000E-03 0. -1.
    9900012    2    1    2    0    0 -0.12288504690E+01  0.11071871695E+02  0.29876867652E+02  0.59301895863E+02  0.49999912160E+02 0.  0.
         12    1    1    2    0    0  0.12288504690E+01 -0.11071871695E+02 -0.29876867652E+02  0.31886104137E+02  0.00000000000E+00 0. -1.
         11    1    3    3    0    0 -0.11366143238E+02 -0.22143964669E+01  0.10528338392E+02  0.15650516712E+02  0.51100000000E-03 0. -1.
        -11    1    3    3    0    0  0.35457433247E+01  0.12272941644E+02  0.29132692563E+02  0.31810551214E+02  0.51100000000E-03 0.  1.
         12    1    3    3    0    0  0.65915494438E+01  0.10133265170E+01 -0.97841633025E+01  0.11840827937E+02  0.00000000000E+00 0. -1.
</event>
<event>
 7    1  0.1284645E-011  0.5930191E+02  0.7816164E-02  0.1266605E+00
        -11   -1    0    0    0    0  0.00000000000E+00  0.00000000000E+00  0.45593999997E+02  0.45594000000E+02  0.51100000000E-03 0. -1.
         11   -1    0    0    0    0 -0.00000000000E+00 -0.00000000000E+00 -0.45593999997E+02  0.45594000000E+02  0.51100000000E-03 0.  1.
    9900012    2    1    2    0    0  0.16143309665E+02 -0.23562116118E+02  0.14175424300E+02  0.59301914994E+02  0.49999947049E+02 0.  0.
         12    1    1    2    0    0 -0.16143309665E+02  0.23562116118E+02 -0.14175424300E+02  0.31886085006E+02  0.00000000000E+00 0. -1.
         11    1    3    3    0    0  0.11255029836E+02 -0.39635234933E+01  0.20684020901E+02  0.23879152748E+02  0.51100000000E-03 0. -1.
        -11    1    3    3    0    0  0.88515581744E+01  0.43520834080E+01 -0.51036579312E+01  0.11105765919E+02  0.51100000000E-03 0.  1.
         12    1    3    3    0    0 -0.39632783454E+01 -0.23950676033E+02 -0.14049386693E+01  0.24316996327E+02  0.00000000000E+00 0. -1.
</event>
<event>
 7    1  0.1284645E-011  0.5930194E+02  0.7816164E-02  0.1266605E+00
        -11   -1    0    0    0    0  0.00000000000E+00  0.00000000000E+00  0.45593999997E+02  0.45594000000E+02  0.51100000000E-03 0. -1.
         11   -1    0    0    0    0 -0.00000000000E+00 -0.00000000000E+00 -0.45593999997E+02  0.45594000000E+02  0.51100000000E-03 0.  1.
    9900012    2    1    2    0    0 -0.15316687361E+02 -0.15158614305E+02  0.23501835896E+02  0.59301940509E+02  0.49999993583E+02 0.  0.
         12    1    1    2    0    0  0.15316687361E+02  0.15158614305E+02 -0.23501835896E+02  0.31886059491E+02  0.00000000000E+00 0. -1.
         11    1    3    3    0    0  0.82648873266E+01 -0.16905956021E+01  0.16803619347E+02  0.18802342924E+02  0.51100000000E-03 0. -1.
        -11    1    3    3    0    0 -0.65761110863E+01 -0.95519885430E+01  0.16741188227E+02  0.20365488102E+02  0.51100000000E-03 0.  1.
        -12    1    3    3    0    0 -0.17005463602E+02 -0.39160301604E+01 -0.10042971678E+02  0.20134109482E+02  0.00000000000E+00 0.  1.
</event>
<event>
 7    1  0.1284645E-011  0.5930191E+02  0.7816164E-02  0.1266605E+00
        -11   -1    0    0    0    0  0.00000000000E+00  0.00000000000E+00  0.45593999997E+02  0.45594000000E+02  0.51100000000E-03 0. -1.
         11   -1    0    0    0    0 -0.00000000000E+00 -0.00000000000E+00 -0.45593999997E+02  0.45594000000E+02  0.51100000000E-03 0.  1.
    9900012    2    1    2    0    0  0.22630582851E+02 -0.16194818782E+02 -0.15566217466E+02  0.59301912724E+02  0.49999942910E+02 0.  0.
         12    1    1    2    0    0 -0.22630582851E+02  0.16194818782E+02  0.15566217466E+02  0.31886087276E+02  0.00000000000E+00 0. -1.
         11    1    3    3    0    0  0.14410116062E+02 -0.12165515373E+02 -0.32954694988E+01  0.19144485595E+02  0.51100000000E-03 0. -1.
        -11    1    3    3    0    0  0.16001180471E+02  0.16241373875E+01 -0.21485063386E+02  0.26838098809E+02  0.51100000000E-03 0.  1.
        -12    1    3    3    0    0 -0.77807136824E+01 -0.56534407967E+01  0.92143154194E+01  0.13319328320E+02  0.00000000000E+00 0.  1.
</event>
<event>
 7    1  0.1284645E-011  0.5930193E+02  0.7816164E-02  0.1266605E+00
        -11   -1    0    0    0    0  0.00000000000E+00  0.00000000000E+00  0.45593999997E+02  0.45594000000E+02  0.51100000000E-03 0.  1.
         11   -1    0    0    0    0 -0.00000000000E+00 -0.00000000000E+00 -0.45593999997E+02  0.45594000000E+02  0.51100000000E-03 0. -1.
    9900012    2    1    2    0    0  0.28975687305E+02  0.66069999056E+01  0.11553278985E+02  0.59301934738E+02  0.49999983058E+02 0.  0.
         12    1    1    2    0    0 -0.28975687305E+02 -0.66069999056E+01 -0.11553278985E+02  0.31886065262E+02  0.00000000000E+00 0. -1.
         11    1    3    3    0    0  0.13768653551E+01 -0.52650127521E+01 -0.27327900399E+01  0.60896846510E+01  0.51100000000E-03 0. -1.
        -11    1    3    3    0    0  0.35248429300E+02 -0.21199466739E+01  0.98124504156E+01  0.36650104030E+02  0.51100000000E-03 0.  1.
        -12    1    3    3    0    0 -0.76496073500E+01  0.13991959332E+02  0.44736186097E+01  0.16562146057E+02  0.00000000000E+00 0.  1.
</event>
<event>
 7    1  0.1284645E-011  0.5930194E+02  0.7816164E-02  0.1266605E+00
        -11   -1    0    0    0    0  0.00000000000E+00  0.00000000000E+00  0.45593999997E+02  0.45594000000E+02  0.51100000000E-03 0.  1.
         11   -1    0    0    0    0 -0.00000000000E+00 -0.00000000000E+00 -0.45593999997E+02  0.45594000000E+02  0.51100000000E-03 0. -1.
    9900012    2    1    2    0    0 -0.24953484205E+02  0.61406973500E+01  0.18876877812E+02  0.59301936369E+02  0.49999986033E+02 0.  0.
         12    1    1    2    0    0  0.24953484205E+02 -0.61406973500E+01 -0.18876877812E+02  0.31886063631E+02  0.00000000000E+00 0. -1.
         11    1    3    3    0    0  0.22923471772E+01 -0.88708223804E+01  0.96351860826E+01  0.13295982716E+02  0.51100000000E-03 0. -1.
        -11    1    3    3    0    0  0.20055425054E+01  0.26262914349E+01  0.13552406637E+02  0.13949456382E+02  0.51100000000E-03 0.  1.
        -12    1    3    3    0    0 -0.29251373888E+02  0.12385228295E+02 -0.43107149074E+01  0.32056497271E+02  0.00000000000E+00 0.  1.
</event>
<event>
 7    1  0.1284645E-011  0.5930199E+02  0.7816164E-02  0.1266605E+00
        -11   -1    0    0    0    0  0.00000000000E+00  0.00000000000E+00  0.45593999997E+02  0.45594000000E+02  0.51100000000E-03 0.  1.
         11   -1    0    0    0    0 -0.00000000000E+00 -0.00000000000E+00 -0.45593999997E+02  0.45594000000E+02  0.51100000000E-03 0. -1.
    9900012    2    1    2    0    0 -0.26220435532E+01 -0.11755420304E+02  0.29523764085E+02  0.59301989515E+02  0.50000082957E+02 0.  0.
         12    1    1    2    0    0  0.26220435532E+01  0.11755420304E+02 -0.29523764085E+02  0.31886010485E+02  0.00000000000E+00 0. -1.
         11    1    3    3    0    0  0.96348123324E+00  0.11935079480E+02  0.41912002162E+01  0.12686235761E+02  0.51100000000E-03 0. -1.
        -11    1    3    3    0    0 -0.42577570903E+01 -0.42965340582E+01 -0.67856618078E+01  0.90903193995E+01  0.51100000000E-03 0.  1.
        -12    1    3    3    0    0  0.67223230386E+00 -0.19393965726E+02  0.32118225677E+02  0.37525434354E+02  0.00000000000E+00 0.  1.
</event>
<event>
 7    1  0.1284645E-011  0.5930191E+02  0.7816164E-02  0.1266605E+00
        -11   -1    0    0    0    0  0.00000000000E+00  0.00000000000E+00  0.45593999997E+02  0.45594000000E+02  0.51100000000E-03 0.  1.
         11   -1    0    0    0    0 -0.00000000000E+00 -0.00000000000E+00 -0.45593999997E+02  0.45594000000E+02  0.51100000000E-03 0. -1.
    9900012    2    1    2    0    0 -0.20836183886E+02  0.68614006585E+01  0.23140820004E+02  0.59301906975E+02  0.49999932426E+02 0.  0.
         12    1    1    2    0    0  0.20836183886E+02 -0.68614006585E+01 -0.23140820004E+02  0.31886093025E+02  0.00000000000E+00 0. -1.
         11    1    3    3    0    0 -0.76515986788E+01 -0.10713342639E+02  0.16969430830E+02  0.21477529089E+02  0.51100000000E-03 0. -1.
        -11    1    3    3    0    0 -0.20746201122E+02  0.59876673355E+01  0.95048589081E+01  0.23592358175E+02  0.51100000000E-03 0.  1.
         12    1    3    3    0    0  0.75616159150E+01  0.11587075962E+02 -0.33334697339E+01  0.14232019711E+02  0.00000000000E+00 0. -1.
</event>
<event>
 7    1  0.1284645E-011  0.5930195E+02  0.7816164E-02  0.1266605E+00
        -11   -1    0    0    0    0  0.00000000000E+00  0.00000000000E+00  0.45593999997E+02  0.45594000000E+02  0.51100000000E-03 0. -1.
         11   -1    0    0    0    0 -0.00000000000E+00 -0.00000000000E+00 -0.45593999997E+02  0.45594000000E+02  0.51100000000E-03 0.  1.
    9900012    2    1    2    0    0  0.99124696610E+01  0.29558946850E+02 -0.66881735462E+01  0.59301951968E+02  0.50000014482E+02 0.  0.
         12    1    1    2    0    0 -0.99124696610E+01 -0.29558946850E+02  0.66881735462E+01  0.31886048032E+02  0.00000000000E+00 0. -1.
         11    1    3    3    0    0 -0.31631487730E+01  0.12839841832E+02  0.13115976985E+02  0.18625141636E+02  0.51100000000E-03 0. -1.
        -11    1    3    3    0    0 -0.47307597203E+01 -0.31144815158E+01 -0.11399529077E+02  0.12729074832E+02  0.51100000000E-03 0.  1.
        -12    1    3    3    0    0  0.17806378154E+02  0.19833586534E+02 -0.84046214544E+01  0.27947735500E+02  0.00000000000E+00 0.  1.
</event>
<event>
 7    1  0.1284645E-011  0.5930202E+02  0.7816164E-02  0.1266604E+00
        -11   -1    0    0    0    0  0.00000000000E+00  0.00000000000E+00  0.45593999997E+02  0.45594000000E+02  0.51100000000E-03 0.  1.
         11   -1    0    0    0    0 -0.00000000000E+00 -0.00000000000E+00 -0.45593999997E+02  0.45594000000E+02  0.51100000000E-03 0. -1.
    9900012    2    1    2    0    0  0.24205774583E+02 -0.30316785620E+01  0.20533022473E+02  0.59302021734E+02  0.50000141718E+02 0.  0.
         12    1    1    2    0    0 -0.24205774583E+02  0.30316785620E+01 -0.20533022473E+02  0.31885978266E+02  0.00000000000E+00 0. -1.
         11    1    3    3    0    0  0.28226488413E+01 -0.21985495485E+02  0.50223426695E+01  0.22727808613E+02  0.51100000000E-03 0. -1.
        -11    1    3    3    0    0  0.12070304856E+02  0.11991768083E+01  0.17453111967E+01  0.12254647925E+02  0.51100000000E-03 0.  1.
        -12    1    3    3    0    0  0.93128208861E+01  0.17754640115E+02  0.13765368607E+02  0.24319565196E+02  0.00000000000E+00 0.  1.
</event>
<event>
 7    1  0.1284645E-011  0.5930194E+02  0.7816164E-02  0.1266605E+00
        -11   -1    0    0    0    0  0.00000000000E+00  0.00000000000E+00  0.45593999997E+02  0.45594000000E+02  0.51100000000E-03 0.  1.
         11   -1    0    0    0    0 -0.00000000000E+00 -0.00000000000E+00 -0.45593999997E+02  0.45594000000E+02  0.51100000000E-03 0. -1.
    9900012    2    1    2    0    0  0.10297420694E+02  0.11838695248E+02  0.27758413010E+02  0.59301936101E+02  0.49999985544E+02 0.  0.
         12    1    1    2    0    0 -0.10297420694E+02 -0.11838695248E+02 -0.27758413010E+02  0.31886063899E+02  0.00000000000E+00 0. -1.
         11    1    3    3    0    0 -0.10045509485E+02 -0.98558862021E+01  0.49853618745E+01  0.14929989515E+02  0.51100000000E-03 0. -1.
        -11    1    3    3    0    0  0.29320975967E+01  0.19289576622E+02  0.69182594183E+01  0.20701383437E+02  0.51100000000E-03 0.  1.
        -12    1    3    3    0    0  0.17410832582E+02  0.24050048281E+01  0.15854791717E+02  0.23670563150E+02  0.00000000000E+00 0.  1.
</event>
<event>
 7    1  0.1284645E-011  0.5930193E+02  0.7816164E-02  0.1266605E+00
        -11   -1    0    0    0    0  0.00000000000E+00  0.00000000000E+00  0.45593999997E+02  0.45594000000E+02  0.51100000000E-03 0. -1.
         11   -1    0    0    0    0 -0.00000000000E+00 -0.00000000000E+00 -0.45593999997E+02  0.45594000000E+02  0.51100000000E-03 0.  1.
    9900012    2    1    2    0    0 -0.80012373109E+01  0.86081843122E+01 -0.29641200001E+02  0.59301931363E+02  0.49999976902E+02 0.  0.
         12    1    1    2    0    0  0.80012373109E+01 -0.86081843122E+01  0.29641200001E+02  0.31886068637E+02  0.00000000000E+00 0. -1.
         11    1    3    3    0    0  0.94975575219E+01 -0.42160542940E+01  0.11392820571E+00  0.10391905147E+02  0.51100000000E-03 0. -1.
        -11    1    3    3    0    0  0.83198181161E+01  0.34782285322E+01 -0.15598054580E+02  0.18017123915E+02  0.51100000000E-03 0.  1.
         12    1    3    3    0    0 -0.25818612949E+02  0.93460100740E+01 -0.14157073626E+02  0.30892902301E+02  0.00000000000E+00 0. -1.
</event>
<event>
 7    1  0.1284645E-011  0.5930191E+02  0.7816164E-02  0.1266605E+00
        -11   -1    0    0    0    0  0.00000000000E+00  0.00000000000E+00  0.45593999997E+02  0.45594000000E+02  0.51100000000E-03 0. -1.
         11   -1    0    0    0    0 -0.00000000000E+00 -0.00000000000E+00 -0.45593999997E+02  0.45594000000E+02  0.51100000000E-03 0.  1.
    9900012    2    1    2    0    0  0.80579817357E+01 -0.66589547976E+01 -0.30123906096E+02  0.59301914208E+02  0.49999945616E+02 0.  0.
         12    1    1    2    0    0 -0.80579817357E+01  0.66589547976E+01  0.30123906096E+02  0.31886085792E+02  0.00000000000E+00 0. -1.
         11    1    3    3    0    0  0.73965688787E+01 -0.10198939071E+01  0.21035548485E+01  0.77572132896E+01  0.51100000000E-03 0. -1.
        -11    1    3    3    0    0 -0.19040653210E+01 -0.14416691892E+02  0.32558502481E+01  0.14901913668E+02  0.51100000000E-03 0.  1.
        -12    1    3    3    0    0  0.25654781780E+01  0.87776310021E+01 -0.35483311193E+02  0.36642787250E+02  0.00000000000E+00 0.  1.
</event>
<event>
 7    1  0.1284645E-011  0.5930194E+02  0.7816164E-02  0.1266605E+00
        -11   -1    0    0    0    0  0.00000000000E+00  0.00000000000E+00  0.45593999997E+02  0.45594000000E+02  0.51100000000E-03 0. -1.
         11   -1    0    0    0    0 -0.00000000000E+00 -0.00000000000E+00 -0.45593999997E+02  0.45594000000E+02  0.51100000000E-03 0.  1.
    9900012    2    1    2    0    0  0.26512122375E+02  0.14518544810E+02  0.10150861837E+02  0.59301940785E+02  0.49999994087E+02 0.  0.
         12    1    1    2    0    0 -0.26512122375E+02 -0.14518544810E+02 -0.10150861837E+02  0.31886059215E+02  0.00000000000E+00 0. -1.
         11    1    3    3    0    0 -0.62044334774E+01 -0.45499534723E+01  0.29115594018E+01  0.82264360319E+01  0.51100000000E-03 0. -1.
        -11    1    3    3    0    0  0.12471131038E+02 -0.69199082009E+01 -0.61282597556E+01  0.15523202207E+02  0.51100000000E-03 0.  1.
        -12    1    3    3    0    0  0.20245424814E+02  0.25988406483E+02  0.13367562191E+02  0.35552302546E+02  0.00000000000E+00 0.  1.
</event>
<event>
 7    1  0.1284645E-011  0.5930193E+02  0.7816164E-02  0.1266605E+00
        -11   -1    0    0    0    0  0.00000000000E+00  0.00000000000E+00  0.45593999997E+02  0.45594000000E+02  0.51100000000E-03 0. -1.
         11   -1    0    0    0    0 -0.00000000000E+00 -0.00000000000E+00 -0.45593999997E+02  0.45594000000E+02  0.51100000000E-03 0.  1.
    9900012    2    1    2    0    0 -0.23186573161E+02  0.17770632952E+02 -0.12779236641E+02  0.59301930007E+02  0.49999974429E+02 0.  0.
         12    1    1    2    0    0  0.23186573161E+02 -0.17770632952E+02  0.12779236641E+02  0.31886069993E+02  0.00000000000E+00 0. -1.
         11    1    3    3    0    0 -0.62889773782E+01 -0.94343775195E+01  0.70655647202E+01  0.13359675173E+02  0.51100000000E-03 0. -1.
        -11    1    3    3    0    0 -0.63088830285E+01  0.23598380631E+02 -0.15217046364E+01  0.24474500173E+02  0.51100000000E-03 0.  1.
        -12    1    3    3    0    0 -0.10588712755E+02  0.36066298410E+01 -0.18323096725E+02  0.21467754661E+02  0.00000000000E+00 0.  1.
</event>
<event>
 7    1  0.1284645E-011  0.5930213E+02  0.7816164E-02  0.1266604E+00
        -11   -1    0    0    0    0  0.00000000000E+00  0.00000000000E+00  0.45593999997E+02  0.45594000000E+02  0.51100000000E-03 0.  1.
         11   -1    0    0    0    0 -0.00000000000E+00 -0.00000000000E+00 -0.45593999997E+02  0.45594000000E+02  0.51100000000E-03 0. -1.
    9900012    2    1    2    0    0  0.14434188576E+02  0.28389916909E+02  0.15413654964E+01  0.59302125548E+02  0.50000331049E+02 0.  0.
         12    1    1    2    0    0 -0.14434188576E+02 -0.28389916909E+02 -0.15413654964E+01  0.31885874452E+02  0.00000000000E+00 0. -1.
         11    1    3    3    0    0 -0.10581037944E+02 -0.51451723179E+01  0.65157476490E+01  0.13449391430E+02  0.51100000000E-03 0. -1.
        -11    1    3    3    0    0  0.54118009204E+01  0.17759247251E+02  0.42616028589E+01  0.19048351931E+02  0.51100000000E-03 0.  1.
        -12    1    3    3    0    0  0.19603425600E+02  0.15775841977E+02 -0.92359850114E+01  0.26804382187E+02  0.00000000000E+00 0.  1.
</event>
<event>
 7    1  0.1284645E-011  0.5930194E+02  0.7816164E-02  0.1266605E+00
        -11   -1    0    0    0    0  0.00000000000E+00  0.00000000000E+00  0.45593999997E+02  0.45594000000E+02  0.51100000000E-03 0. -1.
         11   -1    0    0    0    0 -0.00000000000E+00 -0.00000000000E+00 -0.45593999997E+02  0.45594000000E+02  0.51100000000E-03 0.  1.
    9900012    2    1    2    0    0 -0.10587100079E+02 -0.25452840474E+02  0.16024576754E+02  0.59301939779E+02  0.49999992251E+02 0.  0.
         12    1    1    2    0    0  0.10587100079E+02  0.25452840474E+02 -0.16024576754E+02  0.31886060221E+02  0.00000000000E+00 0. -1.
         11    1    3    3    0    0  0.45352083728E+01 -0.19692574808E+02  0.96428879125E+01  0.22390866555E+02  0.51100000000E-03 0. -1.
        -11    1    3    3    0    0 -0.15195048903E+02 -0.14112453102E+02  0.14467769915E+02  0.25285711583E+02  0.51100000000E-03 0.  1.
         12    1    3    3    0    0  0.72740450528E-01  0.83521874355E+01 -0.80860810738E+01  0.11625361640E+02  0.00000000000E+00 0. -1.
</event>
<event>
 7    1  0.1284645E-011  0.5930197E+02  0.7816164E-02  0.1266605E+00
        -11   -1    0    0    0    0  0.00000000000E+00  0.00000000000E+00  0.45593999997E+02  0.45594000000E+02  0.51100000000E-03 0. -1.
         11   -1    0    0    0    0 -0.00000000000E+00 -0.00000000000E+00 -0.45593999997E+02  0.45594000000E+02  0.51100000000E-03 0.  1.
    9900012    2    1    2    0    0 -0.43770479426E+00 -0.25703959036E+01 -0.31779249113E+02  0.59301965521E+02  0.50000039199E+02 0.  0.
         12    1    1    2    0    0  0.43770479426E+00  0.25703959036E+01  0.31779249113E+02  0.31886034479E+02  0.00000000000E+00 0. -1.
         11    1    3    3    0    0 -0.53005746995E+01 -0.12338334963E+02  0.34664205527E+01  0.13868910321E+02  0.51100000000E-03 0. -1.
        -11    1    3    3    0    0 -0.56462003035E+01  0.67379573505E+00 -0.30070078082E+02  0.30602992904E+02  0.51100000000E-03 0.  1.
        -12    1    3    3    0    0  0.10509070209E+02  0.90941433239E+01 -0.51755915834E+01  0.14830062295E+02  0.00000000000E+00 0.  1.
</event>
<event>
 7    1  0.1284645E-011  0.5930197E+02  0.7816164E-02  0.1266605E+00
        -11   -1    0    0    0    0  0.00000000000E+00  0.00000000000E+00  0.45593999997E+02  0.45594000000E+02  0.51100000000E-03 0.  1.
         11   -1    0    0    0    0 -0.00000000000E+00 -0.00000000000E+00 -0.45593999997E+02  0.45594000000E+02  0.51100000000E-03 0. -1.
    9900012    2    1    2    0    0  0.13598089598E+02 -0.26189848370E+02 -0.12079012292E+02  0.59301972710E+02  0.50000052310E+02 0.  0.
         12    1    1    2    0    0 -0.13598089598E+02  0.26189848370E+02  0.12079012292E+02  0.31886027290E+02  0.00000000000E+00 0. -1.
         11    1    3    3    0    0  0.15677086569E+02 -0.10401740462E+02  0.14366910098E+02  0.23672248603E+02  0.51100000000E-03 0. -1.
        -11    1    3    3    0    0  0.90248975895E+00 -0.35676995320E+00  0.25057591175E+01  0.26871177087E+01  0.51100000000E-03 0.  1.
         12    1    3    3    0    0 -0.29814867299E+01 -0.15431337956E+02 -0.28951681507E+02  0.32942606398E+02  0.00000000000E+00 0. -1.
</event>
<event>
 7    1  0.1284645E-011  0.5930205E+02  0.7816164E-02  0.1266604E+00
        -11   -1    0    0    0    0  0.00000000000E+00  0.00000000000E+00  0.45593999997E+02  0.45594000000E+02  0.51100000000E-03 0.  1.
         11   -1    0    0    0    0 -0.00000000000E+00 -0.00000000000E+00 -0.45593999997E+02  0.45594000000E+02  0.51100000000E-03 0. -1.
    9900012    2    1    2    0    0 -0.28983099639E+02  0.12700432228E+02 -0.39233940327E+01  0.59302045973E+02  0.50000185924E+02 0.  0.
         12    1    1    2    0    0  0.28983099639E+02 -0.12700432228E+02  0.39233940327E+01  0.31885954027E+02  0.00000000000E+00 0. -1.
         11    1    3    3    0    0  0.41213719065E+01  0.23269752826E+01 -0.99250439386E+01  0.10995772724E+02  0.51100000000E-03 0. -1.
        -11    1    3    3    0    0 -0.10735998732E+02 -0.33595213904E+01 -0.12023326852E+02  0.16465370983E+02  0.51100000000E-03 0.  1.
        -12    1    3    3    0    0 -0.22368472813E+02  0.13732978336E+02  0.18024976758E+02  0.31840902266E+02  0.00000000000E+00 0.  1.
</event>
<event>
 7    1  0.1284645E-011  0.5930194E+02  0.7816164E-02  0.1266605E+00
        -11   -1    0    0    0    0  0.00000000000E+00  0.00000000000E+00  0.45593999997E+02  0.45594000000E+02  0.51100000000E-03 0. -1.
         11   -1    0    0    0    0 -0.00000000000E+00 -0.00000000000E+00 -0.45593999997E+02  0.45594000000E+02  0.51100000000E-03 0.  1.
    9900012    2    1    2    0    0 -0.29181955095E+02  0.11348265449E+02  0.60291732856E+01  0.59301944077E+02  0.50000000089E+02 0.  0.
         12    1    1    2    0    0  0.29181955095E+02 -0.11348265449E+02 -0.60291732856E+01  0.31886055923E+02  0.00000000000E+00 0. -1.
         11    1    3    3    0    0 -0.91694714457E+01  0.25562474275E-01 -0.13207921828E+02  0.16078838867E+02  0.51100000000E-03 0. -1.
        -11    1    3    3    0    0 -0.26725051230E+02  0.45643578910E+01  0.75455252364E+01  0.28142435530E+02  0.51100000000E-03 0.  1.
        -12    1    3    3    0    0  0.67125675814E+01  0.67583450835E+01  0.11691569877E+02  0.15080669680E+02  0.00000000000E+00 0.  1.
</event>
<event>
 7    1  0.1284645E-011  0.5930190E+02  0.7816164E-02  0.1266605E+00
        -11   -1    0    0    0    0  0.00000000000E+00  0.00000000000E+00  0.45593999997E+02  0.45594000000E+02  0.51100000000E-03 0. -1.
         11   -1    0    0    0    0 -0.00000000000E+00 -0.00000000000E+00 -0.45593999997E+02  0.45594000000E+02  0.51100000000E-03 0.  1.
    9900012    2    1    2    0    0  0.27422796395E+02 -0.16185927179E+02  0.16520849527E+01  0.59301899808E+02  0.49999919354E+02 0.  0.
         12    1    1    2    0    0 -0.27422796395E+02  0.16185927179E+02 -0.16520849527E+01  0.31886100192E+02  0.00000000000E+00 0. -1.
         11    1    3    3    0    0  0.17161774060E+02  0.34469939126E+01  0.32177997667E+01  0.17797822662E+02  0.51100000000E-03 0. -1.
        -11    1    3    3    0    0  0.11229927579E+02  0.56040954821E+01 -0.86869521849E+01  0.15263692153E+02  0.51100000000E-03 0.  1.
        -12    1    3    3    0    0 -0.96890524437E+00 -0.25237016574E+02  0.71212373709E+01  0.26240384993E+02  0.00000000000E+00 0.  1.
</event>
<event>
 7    1  0.1284645E-011  0.5930194E+02  0.7816164E-02  0.1266605E+00
        -11   -1    0    0    0    0  0.00000000000E+00  0.00000000000E+00  0.45593999997E+02  0.45594000000E+02  0.51100000000E-03 0.  1.
         11   -1    0    0    0    0 -0.00000000000E+00 -0.00000000000E+00 -0.45593999997E+02  0.45594000000E+02  0.51100000000E-03 0. -1.
    9900012    2    1    2    0    0  0.97356849063E+01  0.28553469971E+02  0.10326507112E+02  0.59301937887E+02  0.49999988800E+02 0.  0.
         12    1    1    2    0    0 -0.97356849063E+01 -0.28553469971E+02 -0.10326507112E+02  0.31886062113E+02  0.00000000000E+00 0. -1.
         11    1    3    3    0    0  0.16091087388E+02  0.10019199813E+02 -0.16195248839E+02  0.24931777783E+02  0.51100000000E-03 0. -1.
        -11    1    3    3    0    0 -0.37915421233E+00  0.34139782789E+01  0.21118595154E+00  0.34414539621E+01  0.51100000000E-03 0.  1.
        -12    1    3    3    0    0 -0.59762482694E+01  0.15120291879E+02  0.26310569999E+02  0.30928706141E+02  0.00000000000E+00 0.  1.
</event>
<event>
 7    1  0.1284645E-011  0.5930191E+02  0.7816164E-02  0.1266605E+00
        -11   -1    0    0    0    0  0.00000000000E+00  0.00000000000E+00  0.45593999997E+02  0.45594000000E+02  0.51100000000E-03 0.  1.
         11   -1    0    0    0    0 -0.00000000000E+00 -0.00000000000E+00 -0.45593999997E+02  0.45594000000E+02  0.51100000000E-03 0. -1.
    9900012    2    1    2    0    0 -0.15099156162E+02  0.24757587066E+02  0.13258962110E+02  0.59301910394E+02  0.49999938659E+02 0.  0.
         12    1    1    2    0    0  0.15099156162E+02 -0.24757587066E+02 -0.13258962110E+02  0.31886089606E+02  0.00000000000E+00 0. -1.
         11    1    3    3    0    0  0.13285560926E+02 -0.27932511755E+00  0.66385985424E+01  0.14854465407E+02  0.51100000000E-03 0. -1.
        -11    1    3    3    0    0 -0.41127845187E+01 -0.12755737523E+01 -0.51974709242E+01  0.67495028827E+01  0.51100000000E-03 0.  1.
        -12    1    3    3    0    0 -0.24271932570E+02  0.26312485936E+02  0.11817834492E+02  0.37697942104E+02  0.00000000000E+00 0.  1.
</event>
<event>
 7    1  0.1284645E-011  0.5930194E+02  0.7816164E-02  0.1266605E+00
        -11   -1    0    0    0    0  0.00000000000E+00  0.00000000000E+00  0.45593999997E+02  0.45594000000E+02  0.51100000000E-03 0.  1.
         11   -1    0    0    0    0 -0.00000000000E+00 -0.00000000000E+00 -0.45593999997E+02  0.45594000000E+02  0.51100000000E-03 0. -1.
    9900012    2    1    2    0    0  0.23187590929E+02  0.20382382735E+02 -0.79758777694E+01  0.59301944659E+02  0.50000001151E+02 0.  0.
         12    1    1    2    0    0 -0.23187590929E+02 -0.20382382735E+02  0.79758777694E+01  0.31886055341E+02  0.00000000000E+00 0. -1.
         11    1    3    3    0    0  0.10983091312E+01 -0.87617872653E+01 -0.55141062117E+01  0.10410598763E+02  0.51100000000E-03 0. -1.
        -11    1    3    3    0    0 -0.21995184989E+01 -0.96132224430E+00 -0.93042948403E+01  0.96089502456E+01  0.51100000000E-03 0.  1.
        -12    1    3    3    0    0  0.24288800296E+02  0.30105492245E+02  0.68425232827E+01  0.39282395650E+02  0.00000000000E+00 0.  1.
</event>
<event>
 7    1  0.1284645E-011  0.5930198E+02  0.7816164E-02  0.1266605E+00
        -11   -1    0    0    0    0  0.00000000000E+00  0.00000000000E+00  0.45593999997E+02  0.45594000000E+02  0.51100000000E-03 0.  1.
         11   -1    0    0    0    0 -0.00000000000E+00 -0.00000000000E+00 -0.45593999997E+02  0.45594000000E+02  0.51100000000E-03 0. -1.
    9900012    2    1    2    0    0 -0.29226929452E+02  0.11790319754E+02  0.48469819530E+01  0.59301979879E+02  0.50000065384E+02 0.  0.
         12    1    1    2    0    0  0.29226929452E+02 -0.11790319754E+02 -0.48469819530E+01  0.31886020121E+02  0.00000000000E+00 0. -1.
         11    1    3    3    0    0 -0.19444588339E+02 -0.41855931591E+01  0.93863712587E+01  0.21993525671E+02  0.51100000000E-03 0.  1.
        -11    1    3    3    0    0 -0.18276331289E+02 -0.59974228163E+00 -0.37484536269E+01  0.18666410503E+02  0.51100000000E-03 0. -1.
         12    1    3    3    0    0  0.84939901767E+01  0.16575655195E+02 -0.79093567879E+00  0.18642043705E+02  0.00000000000E+00 0. -1.
</event>
<event>
 7    1  0.1284645E-011  0.5930184E+02  0.7816164E-02  0.1266605E+00
        -11   -1    0    0    0    0  0.00000000000E+00  0.00000000000E+00  0.45593999997E+02  0.45594000000E+02  0.51100000000E-03 0.  1.
         11   -1    0    0    0    0 -0.00000000000E+00 -0.00000000000E+00 -0.45593999997E+02  0.45594000000E+02  0.51100000000E-03 0. -1.
    9900012    2    1    2    0    0 -0.11438951844E+02 -0.17977909429E+02  0.23720713749E+02  0.59301841444E+02  0.49999812911E+02 0.  0.
         12    1    1    2    0    0  0.11438951844E+02  0.17977909429E+02 -0.23720713749E+02  0.31886158556E+02  0.00000000000E+00 0. -1.
         11    1    3    3    0    0  0.91762444794E+01  0.50707476463E+01 -0.10786370637E+01  0.10539421360E+02  0.51100000000E-03 0. -1.
        -11    1    3    3    0    0 -0.10524507292E+02 -0.23229153579E+02  0.42299908027E+01  0.25850563866E+02  0.51100000000E-03 0.  1.
        -12    1    3    3    0    0 -0.10090689030E+02  0.18049650401E+00  0.20569360010E+02  0.22911856217E+02  0.00000000000E+00 0.  1.
</event>
<event>
 7    1  0.1284645E-011  0.5930192E+02  0.7816164E-02  0.1266605E+00
        -11   -1    0    0    0    0  0.00000000000E+00  0.00000000000E+00  0.45593999997E+02  0.45594000000E+02  0.51100000000E-03 0.  1.
         11   -1    0    0    0    0 -0.00000000000E+00 -0.00000000000E+00 -0.45593999997E+02  0.45594000000E+02  0.51100000000E-03 0. -1.
    9900012    2    1    2    0    0 -0.23922379259E+02 -0.65383811995E+01  0.20042236465E+02  0.59301923091E+02  0.49999961816E+02 0.  0.
         12    1    1    2    0    0  0.23922379259E+02  0.65383811995E+01 -0.20042236465E+02  0.31886076909E+02  0.00000000000E+00 0. -1.
         11    1    3    3    0    0  0.84177278133E+01  0.57179145040E+00 -0.12401282458E+01  0.85277784522E+01  0.51100000000E-03 0. -1.
        -11    1    3    3    0    0 -0.18624721417E+02  0.12079245916E+02  0.13273614203E+02  0.25864594797E+02  0.51100000000E-03 0.  1.
        -12    1    3    3    0    0 -0.13715385656E+02 -0.19189418566E+02  0.80087505084E+01  0.24909549841E+02  0.00000000000E+00 0.  1.
</event>
<event>
 7    1  0.1284645E-011  0.5930191E+02  0.7816164E-02  0.1266605E+00
        -11   -1    0    0    0    0  0.00000000000E+00  0.00000000000E+00  0.45593999997E+02  0.45594000000E+02  0.51100000000E-03 0. -1.
         11   -1    0    0    0    0 -0.00000000000E+00 -0.00000000000E+00 -0.45593999997E+02  0.45594000000E+02  0.51100000000E-03 0.  1.
    9900012    2    1    2    0    0  0.85691885839E+01  0.16657123683E+02 -0.25803715486E+02  0.59301913767E+02  0.49999944811E+02 0.  0.
         12    1    1    2    0    0 -0.85691885839E+01 -0.16657123683E+02  0.25803715486E+02  0.31886086233E+02  0.00000000000E+00 0. -1.
         11    1    3    3    0    0  0.74249080787E+00 -0.61928248493E+01 -0.57035298720E+01  0.84517823845E+01  0.51100000000E-03 0. -1.
        -11    1    3    3    0    0 -0.43853012667E+01 -0.75548560497E+01 -0.15460525699E+02  0.17757662354E+02  0.51100000000E-03 0.  1.
         12    1    3    3    0    0  0.12211999043E+02  0.30404804582E+02 -0.46396599159E+01  0.33092469029E+02  0.00000000000E+00 0. -1.
</event>
<event>
 7    1  0.1284645E-011  0.5930197E+02  0.7816164E-02  0.1266605E+00
        -11   -1    0    0    0    0  0.00000000000E+00  0.00000000000E+00  0.45593999997E+02  0.45594000000E+02  0.51100000000E-03 0.  1.
         11   -1    0    0    0    0 -0.00000000000E+00 -0.00000000000E+00 -0.45593999997E+02  0.45594000000E+02  0.51100000000E-03 0. -1.
    9900012    2    1    2    0    0  0.30868606079E+02  0.74210387869E+01  0.29625085851E+01  0.59301966772E+02  0.50000041480E+02 0.  0.
         12    1    1    2    0    0 -0.30868606079E+02 -0.74210387869E+01 -0.29625085851E+01  0.31886033228E+02  0.00000000000E+00 0. -1.
         11    1    3    3    0    0 -0.59289931869E+01 -0.50417548851E+00 -0.88084397800E+00  0.60152339530E+01  0.51100000000E-03 0. -1.
        -11    1    3    3    0    0  0.10824700392E+02 -0.12014284330E+02 -0.85294299334E+01  0.18283006914E+02  0.51100000000E-03 0.  1.
        -12    1    3    3    0    0  0.25972898873E+02  0.19939498606E+02  0.12372782497E+02  0.35003725905E+02  0.00000000000E+00 0.  1.
</event>
<event>
 7    1  0.1284645E-011  0.5930197E+02  0.7816164E-02  0.1266605E+00
        -11   -1    0    0    0    0  0.00000000000E+00  0.00000000000E+00  0.45593999997E+02  0.45594000000E+02  0.51100000000E-03 0.  1.
         11   -1    0    0    0    0 -0.00000000000E+00 -0.00000000000E+00 -0.45593999997E+02  0.45594000000E+02  0.51100000000E-03 0. -1.
    9900012    2    1    2    0    0  0.15673368985E+02  0.34856268013E+01  0.27548410066E+02  0.59301968784E+02  0.50000045150E+02 0.  0.
         12    1    1    2    0    0 -0.15673368985E+02 -0.34856268013E+01 -0.27548410066E+02  0.31886031216E+02  0.00000000000E+00 0. -1.
         11    1    3    3    0    0 -0.67669041368E+01  0.25214357889E+01 -0.52617588348E+00  0.72405449627E+01  0.51100000000E-03 0. -1.
        -11    1    3    3    0    0  0.24502988511E+01  0.10844930691E+02  0.27602742443E+02  0.29757820431E+02  0.51100000000E-03 0.  1.
        -12    1    3    3    0    0  0.19989974270E+02 -0.98807396783E+01  0.47184350599E+00  0.22303603391E+02  0.00000000000E+00 0.  1.
</event>
<event>
 7    1  0.1284645E-011  0.5930192E+02  0.7816164E-02  0.1266605E+00
        -11   -1    0    0    0    0  0.00000000000E+00  0.00000000000E+00  0.45593999997E+02  0.45594000000E+02  0.51100000000E-03 0. -1.
         11   -1    0    0    0    0 -0.00000000000E+00 -0.00000000000E+00 -0.45593999997E+02  0.45594000000E+02  0.51100000000E-03 0.  1.
    9900012    2    1    2    0    0  0.25838017557E+02  0.62634952590E+01 -0.17603628341E+02  0.59301917536E+02  0.49999951685E+02 0.  0.
         12    1    1    2    0    0 -0.25838017557E+02 -0.62634952590E+01  0.17603628341E+02  0.31886082464E+02  0.00000000000E+00 0. -1.
         11    1    3    3    0    0  0.19793633368E+02  0.51499486632E+01  0.93881105945E+01  0.22504366553E+02  0.51100000000E-03 0. -1.
        -11    1    3    3    0    0  0.37714772234E+01 -0.23698805713E+01  0.37212823909E+01  0.58041637867E+01  0.51100000000E-03 0.  1.
        -12    1    3    3    0    0  0.22729069657E+01  0.34834271671E+01 -0.30713021326E+02  0.30993387196E+02  0.00000000000E+00 0.  1.
</event>
<event>
 7    1  0.1284645E-011  0.5930194E+02  0.7816164E-02  0.1266605E+00
        -11   -1    0    0    0    0  0.00000000000E+00  0.00000000000E+00  0.45593999997E+02  0.45594000000E+02  0.51100000000E-03 0.  1.
         11   -1    0    0    0    0 -0.00000000000E+00 -0.00000000000E+00 -0.45593999997E+02  0.45594000000E+02  0.51100000000E-03 0. -1.
    9900012    2    1    2    0    0  0.31402554953E+02 -0.13678000739E+01 -0.53599870032E+01  0.59301940424E+02  0.49999993428E+02 0.  0.
         12    1    1    2    0    0 -0.31402554953E+02  0.13678000739E+01  0.53599870032E+01  0.31886059576E+02  0.00000000000E+00 0. -1.
         11    1    3    3    0    0  0.88337385233E+01 -0.60966622972E+01 -0.78503454682E+01  0.13297825074E+02  0.51100000000E-03 0. -1.
        -11    1    3    3    0    0  0.21117742505E+02 -0.14705670932E+02  0.54154159800E+01  0.26297196363E+02  0.51100000000E-03 0.  1.
         12    1    3    3    0    0  0.14510739248E+01  0.19434533155E+02 -0.29250575149E+01  0.19706918987E+02  0.00000000000E+00 0. -1.
</event>
<event>
 7    1  0.1284645E-011  0.5930201E+02  0.7816164E-02  0.1266605E+00
        -11   -1    0    0    0    0  0.00000000000E+00  0.00000000000E+00  0.45593999997E+02  0.45594000000E+02  0.51100000000E-03 0.  1.
         11   -1    0    0    0    0 -0.00000000000E+00 -0.00000000000E+00 -0.45593999997E+02  0.45594000000E+02  0.51100000000E-03 0. -1.
    9900012    2    1    2    0    0  0.26959428939E+01  0.30740935662E+02  0.80276636987E+01  0.59302005928E+02  0.50000112892E+02 0.  0.
         12    1    1    2    0    0 -0.26959428939E+01 -0.30740935662E+02 -0.80276636987E+01  0.31885994072E+02  0.00000000000E+00 0. -1.
         11    1    3    3    0    0  0.85891717425E+01  0.48341967334E+01 -0.13634282022E+02  0.16823702797E+02  0.51100000000E-03 0. -1.
        -11    1    3    3    0    0  0.59420222014E+01  0.18791573312E+02  0.40885051783E+01  0.20128257010E+02  0.51100000000E-03 0.  1.
        -12    1    3    3    0    0 -0.11835251050E+02  0.71151656164E+01  0.17573440542E+02  0.22350046122E+02  0.00000000000E+00 0.  1.
</event>
<event>
 7    1  0.1284645E-011  0.5930194E+02  0.7816164E-02  0.1266605E+00
        -11   -1    0    0    0    0  0.00000000000E+00  0.00000000000E+00  0.45593999997E+02  0.45594000000E+02  0.51100000000E-03 0.  1.
         11   -1    0    0    0    0 -0.00000000000E+00 -0.00000000000E+00 -0.45593999997E+02  0.45594000000E+02  0.51100000000E-03 0. -1.
    9900012    2    1    2    0    0 -0.68464780667E+01  0.27980597070E+02  0.13672334976E+02  0.59301940068E+02  0.49999992778E+02 0.  0.
         12    1    1    2    0    0  0.68464780667E+01 -0.27980597070E+02 -0.13672334976E+02  0.31886059932E+02  0.00000000000E+00 0. -1.
         11    1    3    3    0    0 -0.78497426804E+01  0.28809474151E+01 -0.40648216595E+01  0.92973702487E+01  0.51100000000E-03 0. -1.
        -11    1    3    3    0    0 -0.14800050021E+02  0.23373416114E+02  0.19734213856E+02  0.33982308018E+02  0.51100000000E-03 0.  1.
        -12    1    3    3    0    0  0.15803314634E+02  0.17262335406E+01 -0.19970572210E+01  0.16022261801E+02  0.00000000000E+00 0.  1.
</event>
<event>
 7    1  0.1284645E-011  0.5930195E+02  0.7816164E-02  0.1266605E+00
        -11   -1    0    0    0    0  0.00000000000E+00  0.00000000000E+00  0.45593999997E+02  0.45594000000E+02  0.51100000000E-03 0.  1.
         11   -1    0    0    0    0 -0.00000000000E+00 -0.00000000000E+00 -0.45593999997E+02  0.45594000000E+02  0.51100000000E-03 0. -1.
    9900012    2    1    2    0    0  0.31119363149E+02 -0.65589554890E+00 -0.69191889542E+01  0.59301950738E+02  0.50000012237E+02 0.  0.
         12    1    1    2    0    0 -0.31119363149E+02  0.65589554890E+00  0.69191889542E+01  0.31886049262E+02  0.00000000000E+00 0. -1.
         11    1    3    3    0    0 -0.73690061382E+01 -0.70107068754E+00 -0.14955347405E+01  0.75518458667E+01  0.51100000000E-03 0. -1.
        -11    1    3    3    0    0  0.88314274675E+01  0.12139189994E+02 -0.11798896968E+02  0.19093664257E+02  0.51100000000E-03 0.  1.
         12    1    3    3    0    0  0.29656941820E+02 -0.12094014855E+02  0.63752427542E+01  0.32656440614E+02  0.00000000000E+00 0. -1.
</event>
<event>
 7    1  0.1284645E-011  0.5930189E+02  0.7816164E-02  0.1266605E+00
        -11   -1    0    0    0    0  0.00000000000E+00  0.00000000000E+00  0.45593999997E+02  0.45594000000E+02  0.51100000000E-03 0.  1.
         11   -1    0    0    0    0 -0.00000000000E+00 -0.00000000000E+00 -0.45593999997E+02  0.45594000000E+02  0.51100000000E-03 0. -1.
    9900012    2    1    2    0    0  0.21480025594E+02  0.39565351124E+01  0.23230976149E+02  0.59301891388E+02  0.49999903997E+02 0.  0.
         12    1    1    2    0    0 -0.21480025594E+02 -0.39565351124E+01 -0.23230976149E+02  0.31886108612E+02  0.00000000000E+00 0. -1.
         11    1    3    3    0    0 -0.14043628427E+01 -0.48966970471E+01 -0.50274980353E+01  0.71572071174E+01  0.51100000000E-03 0. -1.
        -11    1    3    3    0    0  0.17931624892E+02 -0.45436886319E+01 -0.20772968630E+01  0.18614602874E+02  0.51100000000E-03 0.  1.
        -12    1    3    3    0    0  0.49527635448E+01  0.13396920791E+02  0.30335771047E+02  0.33530081396E+02  0.00000000000E+00 0.  1.
</event>
<event>
 7    1  0.1284645E-011  0.5930190E+02  0.7816164E-02  0.1266605E+00
        -11   -1    0    0    0    0  0.00000000000E+00  0.00000000000E+00  0.45593999997E+02  0.45594000000E+02  0.51100000000E-03 0.  1.
         11   -1    0    0    0    0 -0.00000000000E+00 -0.00000000000E+00 -0.45593999997E+02  0.45594000000E+02  0.51100000000E-03 0. -1.
    9900012    2    1    2    0    0 -0.29978708192E+02  0.91798886447E+00 -0.10823951140E+02  0.59301896966E+02  0.49999914170E+02 0.  0.
         12    1    1    2    0    0  0.29978708192E+02 -0.91798886447E+00  0.10823951140E+02  0.31886103034E+02  0.00000000000E+00 0. -1.
         11    1    3    3    0    0  0.31108993405E+01  0.55240115838E+01 -0.33497146083E+01  0.71702849945E+01  0.51100000000E-03 0. -1.
        -11    1    3    3    0    0 -0.28052140191E+02  0.14653539556E+02 -0.55446834790E+01  0.32130862204E+02  0.51100000000E-03 0.  1.
         12    1    3    3    0    0 -0.50374673412E+01 -0.19259562276E+02 -0.19295530530E+01  0.20000749767E+02  0.00000000000E+00 0. -1.
</event>
<event>
 7    1  0.1284645E-011  0.5930190E+02  0.7816164E-02  0.1266605E+00
        -11   -1    0    0    0    0  0.00000000000E+00  0.00000000000E+00  0.45593999997E+02  0.45594000000E+02  0.51100000000E-03 0.  1.
         11   -1    0    0    0    0 -0.00000000000E+00 -0.00000000000E+00 -0.45593999997E+02  0.45594000000E+02  0.51100000000E-03 0. -1.
    9900012    2    1    2    0    0  0.46567368620E+01  0.22019760487E+02  0.22586907088E+02  0.59301899236E+02  0.49999918311E+02 0.  0.
         12    1    1    2    0    0 -0.46567368620E+01 -0.22019760487E+02 -0.22586907088E+02  0.31886100764E+02  0.00000000000E+00 0. -1.
         11    1    3    3    0    0  0.32745311823E+01  0.30937821547E+01 -0.81979646546E+01  0.93541791315E+01  0.51100000000E-03 0. -1.
        -11    1    3    3    0    0  0.16430681158E+02  0.11557510461E+02  0.79031358384E+01  0.21587100030E+02  0.51100000000E-03 0.  1.
        -12    1    3    3    0    0 -0.15048475478E+02  0.73684678720E+01  0.22881735904E+02  0.28360620074E+02  0.00000000000E+00 0.  1.
</event>
<event>
 7    1  0.1284645E-011  0.5930195E+02  0.7816164E-02  0.1266605E+00
        -11   -1    0    0    0    0  0.00000000000E+00  0.00000000000E+00  0.45593999997E+02  0.45594000000E+02  0.51100000000E-03 0. -1.
         11   -1    0    0    0    0 -0.00000000000E+00 -0.00000000000E+00 -0.45593999997E+02  0.45594000000E+02  0.51100000000E-03 0.  1.
    9900012    2    1    2    0    0 -0.22096929910E+02 -0.10574767506E+02 -0.20411281407E+02  0.59301946185E+02  0.50000003934E+02 0.  0.
         12    1    1    2    0    0  0.22096929910E+02  0.10574767506E+02  0.20411281407E+02  0.31886053815E+02  0.00000000000E+00 0. -1.
         11    1    3    3    0    0 -0.27213819620E+01  0.11022826175E+02 -0.12484536672E+01  0.11422226293E+02  0.51100000000E-03 0. -1.
        -11    1    3    3    0    0 -0.22052935304E+02 -0.29568710749E+00 -0.12739775129E+02  0.25470007008E+02  0.51100000000E-03 0.  1.
        -12    1    3    3    0    0  0.26773873555E+01 -0.21301906573E+02 -0.64230526101E+01  0.22409712884E+02  0.00000000000E+00 0.  1.
</event>
<event>
 7    1  0.1284645E-011  0.5930189E+02  0.7816164E-02  0.1266605E+00
        -11   -1    0    0    0    0  0.00000000000E+00  0.00000000000E+00  0.45593999997E+02  0.45594000000E+02  0.51100000000E-03 0.  1.
         11   -1    0    0    0    0 -0.00000000000E+00 -0.00000000000E+00 -0.45593999997E+02  0.45594000000E+02  0.51100000000E-03 0. -1.
    9900012    2    1    2    0    0 -0.75813402338E+01 -0.87909001876E+01  0.29697933774E+02  0.59301891484E+02  0.49999904172E+02 0.  0.
         12    1    1    2    0    0  0.75813402338E+01  0.87909001876E+01 -0.29697933774E+02  0.31886108516E+02  0.00000000000E+00 0. -1.
         11    1    3    3    0    0  0.35212869573E+01  0.34580378372E+01  0.56374047277E+01  0.74925175905E+01  0.51100000000E-03 0. -1.
        -11    1    3    3    0    0  0.26189097533E+01 -0.24835978754E+02  0.21616026832E+02  0.33029337644E+02  0.51100000000E-03 0.  1.
         12    1    3    3    0    0 -0.13721536944E+02  0.12587040729E+02  0.24445022148E+01  0.18780036249E+02  0.00000000000E+00 0. -1.
</event>
<event>
 7    1  0.1284645E-011  0.5930195E+02  0.7816164E-02  0.1266605E+00
        -11   -1    0    0    0    0  0.00000000000E+00  0.00000000000E+00  0.45593999997E+02  0.45594000000E+02  0.51100000000E-03 0. -1.
         11   -1    0    0    0    0 -0.00000000000E+00 -0.00000000000E+00 -0.45593999997E+02  0.45594000000E+02  0.51100000000E-03 0.  1.
    9900012    2    1    2    0    0 -0.24181259325E+02  0.12541913409E+02 -0.16573683447E+02  0.59301954816E+02  0.50000019674E+02 0.  0.
         12    1    1    2    0    0  0.24181259325E+02 -0.12541913409E+02  0.16573683447E+02  0.31886045184E+02  0.00000000000E+00 0. -1.
         11    1    3    3    0    0 -0.13369928684E+02 -0.58970548934E+01  0.58598143073E+01  0.15743813814E+02  0.51100000000E-03 0. -1.
        -11    1    3    3    0    0  0.92082090693E+01 -0.91295155966E+00 -0.35305175343E+01  0.99039966243E+01  0.51100000000E-03 0.  1.
        -12    1    3    3    0    0 -0.20019539709E+02  0.19351919862E+02 -0.18902980220E+02  0.33654144377E+02  0.00000000000E+00 0.  1.
</event>
<event>
 7    1  0.1284645E-011  0.5930192E+02  0.7816164E-02  0.1266605E+00
        -11   -1    0    0    0    0  0.00000000000E+00  0.00000000000E+00  0.45593999997E+02  0.45594000000E+02  0.51100000000E-03 0. -1.
         11   -1    0    0    0    0 -0.00000000000E+00 -0.00000000000E+00 -0.45593999997E+02  0.45594000000E+02  0.51100000000E-03 0.  1.
    9900012    2    1    2    0    0  0.79978696126E+01 -0.27469199159E+02 -0.14078317176E+02  0.59301924116E+02  0.49999963687E+02 0.  0.
         12    1    1    2    0    0 -0.79978696126E+01  0.27469199159E+02  0.14078317176E+02  0.31886075884E+02  0.00000000000E+00 0. -1.
         11    1    3    3    0    0  0.87681023083E+01 -0.12900766270E+02 -0.61681907382E+01  0.16773668820E+02  0.51100000000E-03 0.  1.
        -11    1    3    3    0    0 -0.75496349324E+01  0.10676499661E+02 -0.97698247442E+01  0.16322809452E+02  0.51100000000E-03 0. -1.
         12    1    3    3    0    0  0.67794022367E+01 -0.25244932549E+02  0.18596983067E+01  0.26205445844E+02  0.00000000000E+00 0. -1.
</event>
<event>
 7    1  0.1284645E-011  0.5930194E+02  0.7816164E-02  0.1266605E+00
        -11   -1    0    0    0    0  0.00000000000E+00  0.00000000000E+00  0.45593999997E+02  0.45594000000E+02  0.51100000000E-03 0.  1.
         11   -1    0    0    0    0 -0.00000000000E+00 -0.00000000000E+00 -0.45593999997E+02  0.45594000000E+02  0.51100000000E-03 0. -1.
    9900012    2    1    2    0    0 -0.17044913221E+02 -0.14624592784E+02  0.22634326917E+02  0.59301944493E+02  0.50000000849E+02 0.  0.
         12    1    1    2    0    0  0.17044913221E+02  0.14624592784E+02 -0.22634326917E+02  0.31886055507E+02  0.00000000000E+00 0. -1.
         11    1    3    3    0    0 -0.17239237932E+02 -0.11034373221E+02 -0.14023214194E+01  0.20516218523E+02  0.51100000000E-03 0. -1.
        -11    1    3    3    0    0 -0.41622097396E+01 -0.15687701608E+02  0.76122088383E+01  0.17926898653E+02  0.51100000000E-03 0.  1.
        -12    1    3    3    0    0  0.43565344504E+01  0.12097482045E+02  0.16424439498E+02  0.20858827317E+02  0.00000000000E+00 0.  1.
</event>
<event>
 7    1  0.1284645E-011  0.5930194E+02  0.7816164E-02  0.1266605E+00
        -11   -1    0    0    0    0  0.00000000000E+00  0.00000000000E+00  0.45593999997E+02  0.45594000000E+02  0.51100000000E-03 0.  1.
         11   -1    0    0    0    0 -0.00000000000E+00 -0.00000000000E+00 -0.45593999997E+02  0.45594000000E+02  0.51100000000E-03 0. -1.
    9900012    2    1    2    0    0 -0.18911798547E+02  0.24325447966E+02  0.82059125072E+01  0.59301944379E+02  0.50000000640E+02 0.  0.
         12    1    1    2    0    0  0.18911798547E+02 -0.24325447966E+02 -0.82059125072E+01  0.31886055621E+02  0.00000000000E+00 0. -1.
         11    1    3    3    0    0  0.46982884207E+01  0.17236457057E+01 -0.10644137255E+02  0.11761909996E+02  0.51100000000E-03 0. -1.
        -11    1    3    3    0    0 -0.13182466713E+02 -0.27334841189E+01 -0.13075004123E+01  0.13526230874E+02  0.51100000000E-03 0.  1.
        -12    1    3    3    0    0 -0.10427620255E+02  0.25335286379E+02  0.20157550174E+02  0.34013803509E+02  0.00000000000E+00 0.  1.
</event>
<event>
 7    1  0.1284645E-011  0.5930196E+02  0.7816164E-02  0.1266605E+00
        -11   -1    0    0    0    0  0.00000000000E+00  0.00000000000E+00  0.45593999997E+02  0.45594000000E+02  0.51100000000E-03 0.  1.
         11   -1    0    0    0    0 -0.00000000000E+00 -0.00000000000E+00 -0.45593999997E+02  0.45594000000E+02  0.51100000000E-03 0. -1.
    9900012    2    1    2    0    0  0.27169825355E+02 -0.71340680319E+00  0.16673669642E+02  0.59301958879E+02  0.50000027084E+02 0.  0.
         12    1    1    2    0    0 -0.27169825355E+02  0.71340680319E+00 -0.16673669642E+02  0.31886041121E+02  0.00000000000E+00 0. -1.
         11    1    3    3    0    0  0.15857780446E+02 -0.56908287373E+01 -0.10795915444E+02  0.20010160493E+02  0.51100000000E-03 0. -1.
        -11    1    3    3    0    0  0.12691561942E+02 -0.78166595517E+01  0.11770059399E+02  0.18992372405E+02  0.51100000000E-03 0.  1.
         12    1    3    3    0    0 -0.13795170337E+01  0.12794081486E+02  0.15699525687E+02  0.20299425980E+02  0.00000000000E+00 0. -1.
</event>
<event>
 7    1  0.1284645E-011  0.5930193E+02  0.7816164E-02  0.1266605E+00
        -11   -1    0    0    0    0  0.00000000000E+00  0.00000000000E+00  0.45593999997E+02  0.45594000000E+02  0.51100000000E-03 0.  1.
         11   -1    0    0    0    0 -0.00000000000E+00 -0.00000000000E+00 -0.45593999997E+02  0.45594000000E+02  0.51100000000E-03 0. -1.
    9900012    2    1    2    0    0  0.23287147017E+02  0.17540384928E+02  0.12913769814E+02  0.59301925133E+02  0.49999965541E+02 0.  0.
         12    1    1    2    0    0 -0.23287147017E+02 -0.17540384928E+02 -0.12913769814E+02  0.31886074867E+02  0.00000000000E+00 0. -1.
         11    1    3    3    0    0  0.95345850642E+00 -0.79544459643E+01  0.48523436967E+01  0.93662977389E+01  0.51100000000E-03 0. -1.
        -11    1    3    3    0    0  0.12151230277E+02 -0.78161417573E+01  0.24160197940E+01  0.14648604750E+02  0.51100000000E-03 0.  1.
         12    1    3    3    0    0  0.10182458234E+02  0.33310972650E+02  0.56454063230E+01  0.35287022644E+02  0.00000000000E+00 0. -1.
</event>
<event>
 7    1  0.1303122E-011  0.5930194E+02  0.7816164E-02  0.1266605E+00
        -11   -1    0    0    0    0  0.00000000000E+00  0.00000000000E+00  0.45593999997E+02  0.45594000000E+02  0.51100000000E-03 0. -1.
         11   -1    0    0    0    0 -0.00000000000E+00 -0.00000000000E+00 -0.45593999997E+02  0.45594000000E+02  0.51100000000E-03 0.  1.
    9900012    2    1    2    0    0 -0.37421837852E+01 -0.12057554581E+02 -0.29280232190E+02  0.59301944128E+02  0.50000000182E+02 0.  0.
         12    1    1    2    0    0  0.37421837852E+01  0.12057554581E+02  0.29280232190E+02  0.31886055872E+02  0.00000000000E+00 0. -1.
         11    1    3    3    0    0  0.12804749302E+02 -0.14971424250E+01  0.32260428911E+01  0.13289484307E+02  0.51100000000E-03 0. -1.
        -11    1    3    3    0    0 -0.15919473288E+01  0.59757311292E+01  0.47477538770E+00  0.62023439727E+01  0.51100000000E-03 0.  1.
        -12    1    3    3    0    0 -0.14954985759E+02 -0.16536143285E+02 -0.32981050469E+02  0.39810115848E+02  0.00000000000E+00 0.  1.
</event>
<event>
 7    1  0.1284645E-011  0.5930196E+02  0.7816164E-02  0.1266605E+00
        -11   -1    0    0    0    0  0.00000000000E+00  0.00000000000E+00  0.45593999997E+02  0.45594000000E+02  0.51100000000E-03 0.  1.
         11   -1    0    0    0    0 -0.00000000000E+00 -0.00000000000E+00 -0.45593999997E+02  0.45594000000E+02  0.51100000000E-03 0. -1.
    9900012    2    1    2    0    0 -0.23340204771E+02 -0.30697316213E+01  0.21506541230E+02  0.59301957181E+02  0.50000023989E+02 0.  0.
         12    1    1    2    0    0  0.23340204771E+02  0.30697316213E+01 -0.21506541230E+02  0.31886042819E+02  0.00000000000E+00 0. -1.
         11    1    3    3    0    0  0.45718632854E+01 -0.90346379100E+01  0.69189679665E+01  0.12263716160E+02  0.51100000000E-03 0. -1.
        -11    1    3    3    0    0 -0.11568458370E+02 -0.13498999240E+02  0.89306705254E-01  0.17778081603E+02  0.51100000000E-03 0.  1.
        -12    1    3    3    0    0 -0.16343609686E+02  0.19463905529E+02  0.14498266558E+02  0.29260159418E+02  0.00000000000E+00 0.  1.
</event>
<event>
 7    1  0.1284645E-011  0.5930198E+02  0.7816164E-02  0.1266605E+00
        -11   -1    0    0    0    0  0.00000000000E+00  0.00000000000E+00  0.45593999997E+02  0.45594000000E+02  0.51100000000E-03 0. -1.
         11   -1    0    0    0    0 -0.00000000000E+00 -0.00000000000E+00 -0.45593999997E+02  0.45594000000E+02  0.51100000000E-03 0.  1.
    9900012    2    1    2    0    0 -0.25126164590E+02 -0.10908967475E+02 -0.16321422180E+02  0.59301975783E+02  0.50000057915E+02 0.  0.
         12    1    1    2    0    0  0.25126164590E+02  0.10908967475E+02  0.16321422180E+02  0.31886024217E+02  0.00000000000E+00 0. -1.
         11    1    3    3    0    0 -0.23473897342E+02  0.14339240944E+01 -0.92512715288E+01  0.25271842432E+02  0.51100000000E-03 0. -1.
        -11    1    3    3    0    0 -0.13976015567E+02 -0.11840128709E+02  0.24083168304E+01  0.18474784145E+02  0.51100000000E-03 0.  1.
        -12    1    3    3    0    0  0.12323748320E+02 -0.50276286070E+00 -0.94784674817E+01  0.15555349207E+02  0.00000000000E+00 0.  1.
</event>
<event>
 7    1  0.1284645E-011  0.5930194E+02  0.7816164E-02  0.1266605E+00
        -11   -1    0    0    0    0  0.00000000000E+00  0.00000000000E+00  0.45593999997E+02  0.45594000000E+02  0.51100000000E-03 0.  1.
         11   -1    0    0    0    0 -0.00000000000E+00 -0.00000000000E+00 -0.45593999997E+02  0.45594000000E+02  0.51100000000E-03 0. -1.
    9900012    2    1    2    0    0  0.35573149792E+01 -0.28541084995E+02  0.13764902360E+02  0.59301944121E+02  0.50000000169E+02 0.  0.
         12    1    1    2    0    0 -0.35573149792E+01  0.28541084995E+02 -0.13764902360E+02  0.31886055879E+02  0.00000000000E+00 0. -1.
         11    1    3    3    0    0 -0.12998279483E+02 -0.64891109385E+01 -0.27073225542E+01  0.14778140139E+02  0.51100000000E-03 0.  1.
        -11    1    3    3    0    0 -0.41073016922E+00  0.65213054550E+01 -0.15570027117E+01  0.67171706704E+01  0.51100000000E-03 0. -1.
        -12    1    3    3    0    0  0.16966324631E+02 -0.28573279512E+02  0.18029227626E+02  0.37806633311E+02  0.00000000000E+00 0.  1.
</event>
<event>
 7    1  0.1284645E-011  0.5930194E+02  0.7816164E-02  0.1266605E+00
        -11   -1    0    0    0    0  0.00000000000E+00  0.00000000000E+00  0.45593999997E+02  0.45594000000E+02  0.51100000000E-03 0. -1.
         11   -1    0    0    0    0 -0.00000000000E+00 -0.00000000000E+00 -0.45593999997E+02  0.45594000000E+02  0.51100000000E-03 0.  1.
    9900012    2    1    2    0    0 -0.24503973276E+02  0.10001584505E+02  0.17783257479E+02  0.59301942773E+02  0.49999997712E+02 0.  0.
         12    1    1    2    0    0  0.24503973276E+02 -0.10001584505E+02 -0.17783257479E+02  0.31886057227E+02  0.00000000000E+00 0. -1.
         11    1    3    3    0    0 -0.45363827265E+01  0.28106165816E+01  0.15850424966E+02  0.16724661601E+02  0.51100000000E-03 0. -1.
        -11    1    3    3    0    0 -0.67949714025E+01 -0.63949198148E+01  0.16324473699E+02  0.18803060326E+02  0.51100000000E-03 0.  1.
        -12    1    3    3    0    0 -0.13172619147E+02  0.13585887738E+02 -0.14391641186E+02  0.23774220846E+02  0.00000000000E+00 0.  1.
</event>
<event>
 7    1  0.1284645E-011  0.5930196E+02  0.7816164E-02  0.1266605E+00
        -11   -1    0    0    0    0  0.00000000000E+00  0.00000000000E+00  0.45593999997E+02  0.45594000000E+02  0.51100000000E-03 0. -1.
         11   -1    0    0    0    0 -0.00000000000E+00 -0.00000000000E+00 -0.45593999997E+02  0.45594000000E+02  0.51100000000E-03 0.  1.
    9900012    2    1    2    0    0 -0.24231217427E+02 -0.85177404363E+01 -0.18894855030E+02  0.59301963138E+02  0.50000034853E+02 0.  0.
         12    1    1    2    0    0  0.24231217427E+02  0.85177404363E+01  0.18894855030E+02  0.31886036862E+02  0.00000000000E+00 0. -1.
         11    1    3    3    0    0 -0.84731080205E+01 -0.84324263770E+01 -0.16703436718E+02  0.20540306049E+02  0.51100000000E-03 0. -1.
        -11    1    3    3    0    0  0.57135003960E+01 -0.73796462005E+01 -0.11007421843E+02  0.14431444859E+02  0.51100000000E-03 0.  1.
         12    1    3    3    0    0 -0.21471609803E+02  0.72943321411E+01  0.88160035318E+01  0.24330212230E+02  0.00000000000E+00 0. -1.
</event>
<event>
 7    1  0.1284645E-011  0.5930196E+02  0.7816164E-02  0.1266605E+00
        -11   -1    0    0    0    0  0.00000000000E+00  0.00000000000E+00  0.45593999997E+02  0.45594000000E+02  0.51100000000E-03 0.  1.
         11   -1    0    0    0    0 -0.00000000000E+00 -0.00000000000E+00 -0.45593999997E+02  0.45594000000E+02  0.51100000000E-03 0. -1.
    9900012    2    1    2    0    0  0.17442935683E+02  0.34027903440E+01  0.26474219751E+02  0.59301963890E+02  0.50000036225E+02 0.  0.
         12    1    1    2    0    0 -0.17442935683E+02 -0.34027903440E+01 -0.26474219751E+02  0.31886036110E+02  0.00000000000E+00 0. -1.
         11    1    3    3    0    0  0.10810094766E+01 -0.11756084904E+02 -0.29396079793E+01  0.12166158353E+02  0.51100000000E-03 0. -1.
        -11    1    3    3    0    0  0.75591181440E+01 -0.43257027883E+01  0.23335527651E+02  0.24907806462E+02  0.51100000000E-03 0.  1.
        -12    1    3    3    0    0  0.88028080628E+01  0.19484578036E+02  0.60783000785E+01  0.22227999075E+02  0.00000000000E+00 0.  1.
</event>
<event>
 7    1  0.1284645E-011  0.5930194E+02  0.7816164E-02  0.1266605E+00
        -11   -1    0    0    0    0  0.00000000000E+00  0.00000000000E+00  0.45593999997E+02  0.45594000000E+02  0.51100000000E-03 0. -1.
         11   -1    0    0    0    0 -0.00000000000E+00 -0.00000000000E+00 -0.45593999997E+02  0.45594000000E+02  0.51100000000E-03 0.  1.
    9900012    2    1    2    0    0  0.18803917132E+02 -0.10019775047E+02  0.23722093900E+02  0.59301938304E+02  0.49999989561E+02 0.  0.
         12    1    1    2    0    0 -0.18803917132E+02  0.10019775047E+02 -0.23722093900E+02  0.31886061696E+02  0.00000000000E+00 0. -1.
         11    1    3    3    0    0  0.60504173698E+01  0.90660138778E+01 -0.10295615674E+01  0.10948066280E+02  0.51100000000E-03 0. -1.
        -11    1    3    3    0    0 -0.36889620732E+01  0.54920341106E+01 -0.34757772979E+01  0.74734134059E+01  0.51100000000E-03 0.  1.
         12    1    3    3    0    0  0.16442461835E+02 -0.24577823035E+02  0.28227432765E+02  0.40880458619E+02  0.00000000000E+00 0. -1.
</event>
<event>
 7    1  0.1284645E-011  0.5930194E+02  0.7816164E-02  0.1266605E+00
        -11   -1    0    0    0    0  0.00000000000E+00  0.00000000000E+00  0.45593999997E+02  0.45594000000E+02  0.51100000000E-03 0.  1.
         11   -1    0    0    0    0 -0.00000000000E+00 -0.00000000000E+00 -0.45593999997E+02  0.45594000000E+02  0.51100000000E-03 0. -1.
    9900012    2    1    2    0    0 -0.12306875302E+02 -0.29404038195E+02  0.81492881343E+00  0.59301941121E+02  0.49999994699E+02 0.  0.
         12    1    1    2    0    0  0.12306875302E+02  0.29404038195E+02 -0.81492881343E+00  0.31886058879E+02  0.00000000000E+00 0. -1.
         11    1    3    3    0    0 -0.75276172843E+00  0.84191247120E+00  0.93056564108E+01  0.93739377172E+01  0.51100000000E-03 0. -1.
        -11    1    3    3    0    0 -0.17034384446E+02 -0.24781935423E+02  0.85066342076E+01  0.31251838387E+02  0.51100000000E-03 0.  1.
         12    1    3    3    0    0  0.54802708720E+01 -0.54640152433E+01 -0.16997361805E+02  0.18676165017E+02  0.00000000000E+00 0. -1.
</event>
<event>
 7    1  0.1284645E-011  0.5930193E+02  0.7816164E-02  0.1266605E+00
        -11   -1    0    0    0    0  0.00000000000E+00  0.00000000000E+00  0.45593999997E+02  0.45594000000E+02  0.51100000000E-03 0.  1.
         11   -1    0    0    0    0 -0.00000000000E+00 -0.00000000000E+00 -0.45593999997E+02  0.45594000000E+02  0.51100000000E-03 0. -1.
    9900012    2    1    2    0    0  0.77590157941E+01 -0.77834151847E+01  0.29932213372E+02  0.59301932895E+02  0.49999979697E+02 0.  0.
         12    1    1    2    0    0 -0.77590157941E+01  0.77834151847E+01 -0.29932213372E+02  0.31886067105E+02  0.00000000000E+00 0. -1.
         11    1    3    3    0    0 -0.86673520469E+01 -0.14076532125E+02  0.87401648138E+01  0.18699257456E+02  0.51100000000E-03 0. -1.
        -11    1    3    3    0    0  0.95574609884E+01 -0.90014369383E+01  0.19828545123E+02  0.23781129693E+02  0.51100000000E-03 0.  1.
         12    1    3    3    0    0  0.68689068525E+01  0.15294553879E+02  0.13635034354E+01  0.16821545747E+02  0.00000000000E+00 0. -1.
</event>
<event>
 7    1  0.1284645E-011  0.5930196E+02  0.7816164E-02  0.1266605E+00
        -11   -1    0    0    0    0  0.00000000000E+00  0.00000000000E+00  0.45593999997E+02  0.45594000000E+02  0.51100000000E-03 0.  1.
         11   -1    0    0    0    0 -0.00000000000E+00 -0.00000000000E+00 -0.45593999997E+02  0.45594000000E+02  0.51100000000E-03 0. -1.
    9900012    2    1    2    0    0  0.58866811605E+01  0.31004727290E+02 -0.45577935699E+01  0.59301958985E+02  0.50000027278E+02 0.  0.
         12    1    1    2    0    0 -0.58866811605E+01 -0.31004727290E+02  0.45577935699E+01  0.31886041015E+02  0.00000000000E+00 0. -1.
         11    1    3    3    0    0 -0.88208216901E+01  0.38993094643E+01  0.89125643012E+01  0.13131843445E+02  0.51100000000E-03 0. -1.
        -11    1    3    3    0    0  0.17290488948E+01 -0.72087816574E+01 -0.13643400678E+01  0.75377428416E+01  0.51100000000E-03 0.  1.
         12    1    3    3    0    0  0.12978453956E+02  0.34314199483E+02 -0.12106017803E+02  0.38632372698E+02  0.00000000000E+00 0. -1.
</event>
<event>
 7    1  0.1284645E-011  0.5930193E+02  0.7816164E-02  0.1266605E+00
        -11   -1    0    0    0    0  0.00000000000E+00  0.00000000000E+00  0.45593999997E+02  0.45594000000E+02  0.51100000000E-03 0.  1.
         11   -1    0    0    0    0 -0.00000000000E+00 -0.00000000000E+00 -0.45593999997E+02  0.45594000000E+02  0.51100000000E-03 0. -1.
    9900012    2    1    2    0    0 -0.68779713949E+01 -0.27700829093E+02  0.14215440247E+02  0.59301934636E+02  0.49999982872E+02 0.  0.
         12    1    1    2    0    0  0.68779713949E+01  0.27700829093E+02 -0.14215440247E+02  0.31886065364E+02  0.00000000000E+00 0. -1.
         11    1    3    3    0    0  0.14413076523E+02 -0.20254889425E+02  0.63590286209E+01  0.25659979846E+02  0.51100000000E-03 0. -1.
        -11    1    3    3    0    0 -0.55585740183E+01 -0.89298043200E+01  0.13274434325E+02  0.16936639490E+02  0.51100000000E-03 0.  1.
         12    1    3    3    0    0 -0.15732473899E+02  0.14838646512E+01 -0.54180226989E+01  0.16705315300E+02  0.00000000000E+00 0. -1.
</event>
<event>
 7    1  0.1284645E-011  0.5930192E+02  0.7816164E-02  0.1266605E+00
        -11   -1    0    0    0    0  0.00000000000E+00  0.00000000000E+00  0.45593999997E+02  0.45594000000E+02  0.51100000000E-03 0.  1.
         11   -1    0    0    0    0 -0.00000000000E+00 -0.00000000000E+00 -0.45593999997E+02  0.45594000000E+02  0.51100000000E-03 0. -1.
    9900012    2    1    2    0    0 -0.28010570513E+02 -0.13927644769E+02  0.61766190061E+01  0.59301921978E+02  0.49999959786E+02 0.  0.
         12    1    1    2    0    0  0.28010570513E+02  0.13927644769E+02 -0.61766190061E+01  0.31886078022E+02  0.00000000000E+00 0. -1.
         11    1    3    3    0    0 -0.37945503205E+01  0.19587081159E+01  0.68270401480E+00  0.43244924154E+01  0.51100000000E-03 0. -1.
        -11    1    3    3    0    0 -0.95416920422E+01  0.13716594092E+02 -0.89073258437E+01  0.18934869803E+02  0.51100000000E-03 0.  1.
        -12    1    3    3    0    0 -0.14674328151E+02 -0.29602946977E+02  0.14401240835E+02  0.36042559759E+02  0.00000000000E+00 0.  1.
</event>
<event>
 7    1  0.1284645E-011  0.5930195E+02  0.7816164E-02  0.1266605E+00
        -11   -1    0    0    0    0  0.00000000000E+00  0.00000000000E+00  0.45593999997E+02  0.45594000000E+02  0.51100000000E-03 0.  1.
         11   -1    0    0    0    0 -0.00000000000E+00 -0.00000000000E+00 -0.45593999997E+02  0.45594000000E+02  0.51100000000E-03 0. -1.
    9900012    2    1    2    0    0  0.19237839909E+02  0.22763925939E+02 -0.11332665422E+02  0.59301951105E+02  0.50000012908E+02 0.  0.
         12    1    1    2    0    0 -0.19237839909E+02 -0.22763925939E+02  0.11332665422E+02  0.31886048895E+02  0.00000000000E+00 0. -1.
         11    1    3    3    0    0  0.89994984623E+01  0.49673178172E+01 -0.14469209597E+02  0.17748894205E+02  0.51100000000E-03 0. -1.
        -11    1    3    3    0    0  0.22613448433E+02  0.11785913535E+02 -0.43831892160E+01  0.25874469190E+02  0.51100000000E-03 0.  1.
        -12    1    3    3    0    0 -0.12375106986E+02  0.60106945876E+01  0.75197333911E+01  0.15678587711E+02  0.00000000000E+00 0.  1.
</event>
<event>
 7    1  0.1284645E-011  0.5930166E+02  0.7816164E-02  0.1266606E+00
        -11   -1    0    0    0    0  0.00000000000E+00  0.00000000000E+00  0.45593999997E+02  0.45594000000E+02  0.51100000000E-03 0.  1.
         11   -1    0    0    0    0 -0.00000000000E+00 -0.00000000000E+00 -0.45593999997E+02  0.45594000000E+02  0.51100000000E-03 0. -1.
    9900012    2    1    2    0    0 -0.28901165248E+01  0.83379464697E+01  0.30640892014E+02  0.59301664553E+02  0.49999490302E+02 0.  0.
         12    1    1    2    0    0  0.28901165248E+01 -0.83379464697E+01 -0.30640892014E+02  0.31886335447E+02  0.00000000000E+00 0. -1.
         11    1    3    3    0    0  0.90943545902E+01 -0.41115669240E+01  0.19225912607E+01  0.10164085074E+02  0.51100000000E-03 0. -1.
        -11    1    3    3    0    0  0.80718600054E+01 -0.58366003426E+01  0.48262659138E+00  0.99726504097E+01  0.51100000000E-03 0.  1.
        -12    1    3    3    0    0 -0.20056331120E+02  0.18286113736E+02  0.28235674162E+02  0.39164929069E+02  0.00000000000E+00 0.  1.
</event>
<event>
 7    1  0.1284645E-011  0.5930194E+02  0.7816164E-02  0.1266605E+00
        -11   -1    0    0    0    0  0.00000000000E+00  0.00000000000E+00  0.45593999997E+02  0.45594000000E+02  0.51100000000E-03 0. -1.
         11   -1    0    0    0    0 -0.00000000000E+00 -0.00000000000E+00 -0.45593999997E+02  0.45594000000E+02  0.51100000000E-03 0.  1.
    9900012    2    1    2    0    0 -0.30942387535E+01  0.14915350796E+02 -0.28012118233E+02  0.59301940809E+02  0.49999994130E+02 0.  0.
         12    1    1    2    0    0  0.30942387535E+01 -0.14915350796E+02  0.28012118233E+02  0.31886059191E+02  0.00000000000E+00 0. -1.
         11    1    3    3    0    0 -0.54490785854E+00  0.88848004663E+01 -0.30366622817E+01  0.94052071734E+01  0.51100000000E-03 0.  1.
        -11    1    3    3    0    0  0.10386004653E+02  0.18382454154E+02 -0.26329002692E+01  0.21277120986E+02  0.51100000000E-03 0. -1.
         12    1    3    3    0    0 -0.12935335548E+02 -0.12351903824E+02 -0.22342555682E+02  0.28619612649E+02  0.00000000000E+00 0. -1.
</event>
<event>
 7    1  0.1284645E-011  0.5930196E+02  0.7816164E-02  0.1266605E+00
        -11   -1    0    0    0    0  0.00000000000E+00  0.00000000000E+00  0.45593999997E+02  0.45594000000E+02  0.51100000000E-03 0. -1.
         11   -1    0    0    0    0 -0.00000000000E+00 -0.00000000000E+00 -0.45593999997E+02  0.45594000000E+02  0.51100000000E-03 0.  1.
    9900012    2    1    2    0    0 -0.27956611359E+02 -0.41939276956E+01 -0.14749869376E+02  0.59301956113E+02  0.50000022040E+02 0.  0.
         12    1    1    2    0    0  0.27956611359E+02  0.41939276956E+01  0.14749869376E+02  0.31886043887E+02  0.00000000000E+00 0. -1.
         11    1    3    3    0    0 -0.27930608540E+02 -0.39648192853E+01  0.85031265712E+00  0.28223424974E+02  0.51100000000E-03 0. -1.
        -11    1    3    3    0    0  0.46221256842E+01 -0.98873654075E+00  0.67483874902E+01  0.82390763904E+01  0.51100000000E-03 0.  1.
        -12    1    3    3    0    0 -0.46481285031E+01  0.75962813040E+00 -0.22348569523E+02  0.22839454748E+02  0.00000000000E+00 0.  1.
</event>
<event>
 7    1  0.1284645E-011  0.5930193E+02  0.7816164E-02  0.1266605E+00
        -11   -1    0    0    0    0  0.00000000000E+00  0.00000000000E+00  0.45593999997E+02  0.45594000000E+02  0.51100000000E-03 0. -1.
         11   -1    0    0    0    0 -0.00000000000E+00 -0.00000000000E+00 -0.45593999997E+02  0.45594000000E+02  0.51100000000E-03 0.  1.
    9900012    2    1    2    0    0 -0.10846627013E+02  0.16114768495E+02 -0.25286095098E+02  0.59301926449E+02  0.49999967941E+02 0.  0.
         12    1    1    2    0    0  0.10846627013E+02 -0.16114768495E+02  0.25286095098E+02  0.31886073551E+02  0.00000000000E+00 0. -1.
         11    1    3    3    0    0 -0.91909771451E+01 -0.10061093359E+02 -0.23009608314E+02  0.26742134086E+02  0.51100000000E-03 0. -1.
        -11    1    3    3    0    0 -0.31360487949E+01 -0.23481351362E+01 -0.27927984789E+00  0.39276631928E+01  0.51100000000E-03 0.  1.
        -12    1    3    3    0    0  0.14803989269E+01  0.28523996990E+02 -0.19972069358E+01  0.28632129170E+02  0.00000000000E+00 0.  1.
</event>
<event>
 7    1  0.1284645E-011  0.5930195E+02  0.7816164E-02  0.1266605E+00
        -11   -1    0    0    0    0  0.00000000000E+00  0.00000000000E+00  0.45593999997E+02  0.45594000000E+02  0.51100000000E-03 0.  1.
         11   -1    0    0    0    0 -0.00000000000E+00 -0.00000000000E+00 -0.45593999997E+02  0.45594000000E+02  0.51100000000E-03 0. -1.
    9900012    2    1    2    0    0 -0.18510269399E+02  0.14567407308E+02  0.21491417684E+02  0.59301945635E+02  0.50000002931E+02 0.  0.
         12    1    1    2    0    0  0.18510269399E+02 -0.14567407308E+02 -0.21491417684E+02  0.31886054365E+02  0.00000000000E+00 0. -1.
         11    1    3    3    0    0 -0.19584498150E+02 -0.28774791465E+01  0.20313674885E+02  0.28363318593E+02  0.51100000000E-03 0. -1.
        -11    1    3    3    0    0 -0.11408456588E+02  0.10583707752E+02 -0.34918410091E+01  0.15948689771E+02  0.51100000000E-03 0.  1.
         12    1    3    3    0    0  0.12482685339E+02  0.68611787027E+01  0.46695838084E+01  0.14989937272E+02  0.00000000000E+00 0. -1.
</event>
<event>
 7    1  0.1284645E-011  0.5930195E+02  0.7816164E-02  0.1266605E+00
        -11   -1    0    0    0    0  0.00000000000E+00  0.00000000000E+00  0.45593999997E+02  0.45594000000E+02  0.51100000000E-03 0.  1.
         11   -1    0    0    0    0 -0.00000000000E+00 -0.00000000000E+00 -0.45593999997E+02  0.45594000000E+02  0.51100000000E-03 0. -1.
    9900012    2    1    2    0    0 -0.28620123844E+01  0.18458058184E+02  0.25842389426E+02  0.59301951043E+02  0.50000012794E+02 0.  0.
         12    1    1    2    0    0  0.28620123844E+01 -0.18458058184E+02 -0.25842389426E+02  0.31886048957E+02  0.00000000000E+00 0. -1.
         11    1    3    3    0    0 -0.91439280387E+00 -0.58144370024E+01  0.13351009778E+01  0.60354193505E+01  0.51100000000E-03 0. -1.
        -11    1    3    3    0    0  0.19099984228E+02  0.83014988558E+01  0.96293320353E+01  0.22944461564E+02  0.51100000000E-03 0.  1.
         12    1    3    3    0    0 -0.21047603808E+02  0.15970996331E+02  0.14877956413E+02  0.30322070129E+02  0.00000000000E+00 0. -1.
</event>
<event>
 7    1  0.1284645E-011  0.5930196E+02  0.7816164E-02  0.1266605E+00
        -11   -1    0    0    0    0  0.00000000000E+00  0.00000000000E+00  0.45593999997E+02  0.45594000000E+02  0.51100000000E-03 0.  1.
         11   -1    0    0    0    0 -0.00000000000E+00 -0.00000000000E+00 -0.45593999997E+02  0.45594000000E+02  0.51100000000E-03 0. -1.
    9900012    2    1    2    0    0 -0.44947461682E+01  0.17272762299E+02  0.26422883741E+02  0.59301955314E+02  0.50000020583E+02 0.  0.
         12    1    1    2    0    0  0.44947461682E+01 -0.17272762299E+02 -0.26422883741E+02  0.31886044686E+02  0.00000000000E+00 0. -1.
         11    1    3    3    0    0 -0.14269044236E+02 -0.59972227578E+01  0.13708643509E+02  0.20676054056E+02  0.51100000000E-03 0. -1.
        -11    1    3    3    0    0  0.49416909237E+01 -0.14269327201E+01  0.12437468747E+02  0.13459088946E+02  0.51100000000E-03 0.  1.
         12    1    3    3    0    0  0.48326071438E+01  0.24696917777E+02  0.27677148556E+00  0.25166812312E+02  0.00000000000E+00 0. -1.
</event>
<event>
 7    1  0.1284645E-011  0.5930190E+02  0.7816164E-02  0.1266605E+00
        -11   -1    0    0    0    0  0.00000000000E+00  0.00000000000E+00  0.45593999997E+02  0.45594000000E+02  0.51100000000E-03 0. -1.
         11   -1    0    0    0    0 -0.00000000000E+00 -0.00000000000E+00 -0.45593999997E+02  0.45594000000E+02  0.51100000000E-03 0.  1.
    9900012    2    1    2    0    0  0.27719096939E+01 -0.27433689348E+02  0.16013506810E+02  0.59301902795E+02  0.49999924802E+02 0.  0.
         12    1    1    2    0    0 -0.27719096939E+01  0.27433689348E+02 -0.16013506810E+02  0.31886097205E+02  0.00000000000E+00 0. -1.
         11    1    3    3    0    0  0.69272242817E+01 -0.74363650210E+01  0.28320361429E+02  0.30088682802E+02  0.51100000000E-03 0. -1.
        -11    1    3    3    0    0  0.10255349927E+01  0.35990502014E+00 -0.76115119555E+01  0.76887169381E+01  0.51100000000E-03 0.  1.
        -12    1    3    3    0    0 -0.51808495806E+01 -0.20357229347E+02 -0.46953426637E+01  0.21524503056E+02  0.00000000000E+00 0.  1.
</event>
<event>
 7    1  0.1284645E-011  0.5930193E+02  0.7816164E-02  0.1266605E+00
        -11   -1    0    0    0    0  0.00000000000E+00  0.00000000000E+00  0.45593999997E+02  0.45594000000E+02  0.51100000000E-03 0.  1.
         11   -1    0    0    0    0 -0.00000000000E+00 -0.00000000000E+00 -0.45593999997E+02  0.45594000000E+02  0.51100000000E-03 0. -1.
    9900012    2    1    2    0    0  0.16627825970E+02 -0.57637097995E+01  0.26589783899E+02  0.59301928512E+02  0.49999971703E+02 0.  0.
         12    1    1    2    0    0 -0.16627825970E+02  0.57637097995E+01 -0.26589783899E+02  0.31886071488E+02  0.00000000000E+00 0. -1.
         11    1    3    3    0    0 -0.97076095387E+01 -0.31945491306E+01 -0.40411152570E+01  0.10989696988E+02  0.51100000000E-03 0. -1.
        -11    1    3    3    0    0 -0.36066077610E+01  0.55300605073E+00 -0.17948306882E+01  0.40663070094E+01  0.51100000000E-03 0.  1.
        -12    1    3    3    0    0  0.29942043270E+02 -0.31221667196E+01  0.32425729844E+02  0.44245924515E+02  0.00000000000E+00 0.  1.
</event>
<event>
 7    1  0.1284645E-011  0.5930195E+02  0.7816164E-02  0.1266605E+00
        -11   -1    0    0    0    0  0.00000000000E+00  0.00000000000E+00  0.45593999997E+02  0.45594000000E+02  0.51100000000E-03 0.  1.
         11   -1    0    0    0    0 -0.00000000000E+00 -0.00000000000E+00 -0.45593999997E+02  0.45594000000E+02  0.51100000000E-03 0. -1.
    9900012    2    1    2    0    0  0.39791377011E+01 -0.21654499598E+02  0.23064462464E+02  0.59301947901E+02  0.50000007064E+02 0.  0.
         12    1    1    2    0    0 -0.39791377011E+01  0.21654499598E+02 -0.23064462464E+02  0.31886052099E+02  0.00000000000E+00 0. -1.
         11    1    3    3    0    0  0.71954669606E+00 -0.53239627253E+01  0.35784462730E+00  0.53842715001E+01  0.51100000000E-03 0. -1.
        -11    1    3    3    0    0  0.57273955317E+01 -0.29636025388E+02  0.34489128472E+01  0.30380784395E+02  0.51100000000E-03 0.  1.
         12    1    3    3    0    0 -0.24678045266E+01  0.13305488516E+02  0.19257704990E+02  0.23536892006E+02  0.00000000000E+00 0. -1.
</event>
<event>
 7    1  0.1284645E-011  0.5930198E+02  0.7816164E-02  0.1266605E+00
        -11   -1    0    0    0    0  0.00000000000E+00  0.00000000000E+00  0.45593999997E+02  0.45594000000E+02  0.51100000000E-03 0. -1.
         11   -1    0    0    0    0 -0.00000000000E+00 -0.00000000000E+00 -0.45593999997E+02  0.45594000000E+02  0.51100000000E-03 0.  1.
    9900012    2    1    2    0    0  0.17406241367E+01 -0.27612856129E+02 -0.15849888803E+02  0.59301975302E+02  0.50000057037E+02 0.  0.
         12    1    1    2    0    0 -0.17406241367E+01  0.27612856129E+02  0.15849888803E+02  0.31886024698E+02  0.00000000000E+00 0. -1.
         11    1    3    3    0    0 -0.52854896382E+01 -0.13729867901E+02  0.83214848854E+00  0.14735608052E+02  0.51100000000E-03 0. -1.
        -11    1    3    3    0    0 -0.74621400910E+01 -0.12571198029E+02  0.74352383187E+01  0.16401259822E+02  0.51100000000E-03 0.  1.
        -12    1    3    3    0    0  0.14488253866E+02 -0.13117901989E+01 -0.24117275610E+02  0.28165107429E+02  0.00000000000E+00 0.  1.
</event>
<event>
 7    1  0.1284645E-011  0.5930193E+02  0.7816164E-02  0.1266605E+00
        -11   -1    0    0    0    0  0.00000000000E+00  0.00000000000E+00  0.45593999997E+02  0.45594000000E+02  0.51100000000E-03 0. -1.
         11   -1    0    0    0    0 -0.00000000000E+00 -0.00000000000E+00 -0.45593999997E+02  0.45594000000E+02  0.51100000000E-03 0.  1.
    9900012    2    1    2    0    0 -0.24329795496E+02  0.18879066702E+02  0.82682053436E+01  0.59301932070E+02  0.49999978193E+02 0.  0.
         12    1    1    2    0    0  0.24329795496E+02 -0.18879066702E+02 -0.82682053436E+01  0.31886067930E+02  0.00000000000E+00 0. -1.
         11    1    3    3    0    0 -0.15576899324E+02 -0.99868859017E+01 -0.36771435650E+01  0.18865287372E+02  0.51100000000E-03 0. -1.
        -11    1    3    3    0    0 -0.64850683518E+01  0.15348507495E+02 -0.61283237306E+01  0.17753567131E+02  0.51100000000E-03 0.  1.
         12    1    3    3    0    0 -0.22678278203E+01  0.13517445108E+02  0.18073672639E+02  0.22683077568E+02  0.00000000000E+00 0. -1.
</event>
<event>
 7    1  0.1284645E-011  0.5930193E+02  0.7816164E-02  0.1266605E+00
        -11   -1    0    0    0    0  0.00000000000E+00  0.00000000000E+00  0.45593999997E+02  0.45594000000E+02  0.51100000000E-03 0.  1.
         11   -1    0    0    0    0 -0.00000000000E+00 -0.00000000000E+00 -0.45593999997E+02  0.45594000000E+02  0.51100000000E-03 0. -1.
    9900012    2    1    2    0    0 -0.25587171523E+02  0.71578731629E+01  0.17629045774E+02  0.59301925459E+02  0.49999966135E+02 0.  0.
         12    1    1    2    0    0  0.25587171523E+02 -0.71578731629E+01 -0.17629045774E+02  0.31886074541E+02  0.00000000000E+00 0. -1.
         11    1    3    3    0    0 -0.12096029998E+02  0.69692682848E+01 -0.91634903205E+01  0.16698928027E+02  0.51100000000E-03 0. -1.
        -11    1    3    3    0    0 -0.11871448408E+02 -0.11830161640E+02  0.47089378547E+01  0.17408564206E+02  0.51100000000E-03 0.  1.
        -12    1    3    3    0    0 -0.16196931172E+01  0.12018766518E+02  0.22083598240E+02  0.25194433227E+02  0.00000000000E+00 0.  1.
</event>
<event>
 7    1  0.1284645E-011  0.5930226E+02  0.7816164E-02  0.1266604E+00
        -11   -1    0    0    0    0  0.00000000000E+00  0.00000000000E+00  0.45593999997E+02  0.45594000000E+02  0.51100000000E-03 0.  1.
         11   -1    0    0    0    0 -0.00000000000E+00 -0.00000000000E+00 -0.45593999997E+02  0.45594000000E+02  0.51100000000E-03 0. -1.
    9900012    2    1    2    0    0 -0.26304957674E+02  0.21101784901E+00  0.18019576429E+02  0.59302259277E+02  0.50000574936E+02 0.  0.
         12    1    1    2    0    0  0.26304957674E+02 -0.21101784901E+00 -0.18019576429E+02  0.31885740723E+02  0.00000000000E+00 0. -1.
         11    1    3    3    0    0 -0.17650102283E+02 -0.13047302656E+02 -0.10393845648E+02  0.24285597477E+02  0.51100000000E-03 0. -1.
        -11    1    3    3    0    0 -0.69139952178E+00 -0.21307631021E+01  0.76591034219E+01  0.79799780817E+01  0.51100000000E-03 0.  1.
        -12    1    3    3    0    0 -0.79634558689E+01  0.15389083607E+02  0.20754318656E+02  0.27036683719E+02  0.00000000000E+00 0.  1.
</event>
<event>
 7    1  0.1284645E-011  0.5930194E+02  0.7816164E-02  0.1266605E+00
        -11   -1    0    0    0    0  0.00000000000E+00  0.00000000000E+00  0.45593999997E+02  0.45594000000E+02  0.51100000000E-03 0. -1.
         11   -1    0    0    0    0 -0.00000000000E+00 -0.00000000000E+00 -0.45593999997E+02  0.45594000000E+02  0.51100000000E-03 0.  1.
    9900012    2    1    2    0    0 -0.25173730133E+02 -0.17061903219E+02 -0.95862283517E+01  0.59301937146E+02  0.49999987450E+02 0.  0.
         12    1    1    2    0    0  0.25173730133E+02  0.17061903219E+02  0.95862283517E+01  0.31886062854E+02  0.00000000000E+00 0. -1.
         11    1    3    3    0    0 -0.19994948486E+00  0.96203735531E+01  0.31350428459E+01  0.10120279690E+02  0.51100000000E-03 0. -1.
        -11    1    3    3    0    0 -0.71140282344E+01 -0.14953361872E-01 -0.15410954540E+02  0.16973719139E+02  0.51100000000E-03 0.  1.
        -12    1    3    3    0    0 -0.17859752414E+02 -0.26667323411E+02  0.26896833423E+01  0.32207938317E+02  0.00000000000E+00 0.  1.
</event>
<event>
 7    1  0.1284645E-011  0.5930179E+02  0.7816164E-02  0.1266605E+00
        -11   -1    0    0    0    0  0.00000000000E+00  0.00000000000E+00  0.45593999997E+02  0.45594000000E+02  0.51100000000E-03 0.  1.
         11   -1    0    0    0    0 -0.00000000000E+00 -0.00000000000E+00 -0.45593999997E+02  0.45594000000E+02  0.51100000000E-03 0. -1.
    9900012    2    1    2    0    0  0.11004948016E+02 -0.18802044882E+02 -0.23283144884E+02  0.59301786549E+02  0.49999712796E+02 0.  0.
         12    1    1    2    0    0 -0.11004948016E+02  0.18802044882E+02  0.23283144884E+02  0.31886213451E+02  0.00000000000E+00 0. -1.
         11    1    3    3    0    0  0.15723686827E+02 -0.36606005670E+01 -0.24419559784E+02  0.29273695091E+02  0.51100000000E-03 0. -1.
        -11    1    3    3    0    0  0.32505073675E+01  0.42712518974E+01 -0.58229917124E+01  0.79193827828E+01  0.51100000000E-03 0.  1.
        -12    1    3    3    0    0 -0.79692461788E+01 -0.19412696213E+02  0.69594066131E+01  0.22108708676E+02  0.00000000000E+00 0.  1.
</event>
<event>
 7    1  0.1284645E-011  0.5930193E+02  0.7816164E-02  0.1266605E+00
        -11   -1    0    0    0    0  0.00000000000E+00  0.00000000000E+00  0.45593999997E+02  0.45594000000E+02  0.51100000000E-03 0. -1.
         11   -1    0    0    0    0 -0.00000000000E+00 -0.00000000000E+00 -0.45593999997E+02  0.45594000000E+02  0.51100000000E-03 0.  1.
    9900012    2    1    2    0    0  0.19235455319E+02  0.30402363234E+01 -0.25248285512E+02  0.59301926245E+02  0.49999967568E+02 0.  0.
         12    1    1    2    0    0 -0.19235455319E+02 -0.30402363234E+01  0.25248285512E+02  0.31886073755E+02  0.00000000000E+00 0. -1.
         11    1    3    3    0    0 -0.74235229281E+01 -0.33715450928E+01  0.45917095297E+01  0.93573396670E+01  0.51100000000E-03 0. -1.
        -11    1    3    3    0    0  0.13138042758E+02 -0.11183417238E+02 -0.88109734251E+01  0.19372925479E+02  0.51100000000E-03 0.  1.
         12    1    3    3    0    0  0.13520935489E+02  0.17595198655E+02 -0.21029021616E+02  0.30571661099E+02  0.00000000000E+00 0. -1.
</event>
<event>
 7    1  0.1284645E-011  0.5930202E+02  0.7816164E-02  0.1266604E+00
        -11   -1    0    0    0    0  0.00000000000E+00  0.00000000000E+00  0.45593999997E+02  0.45594000000E+02  0.51100000000E-03 0.  1.
         11   -1    0    0    0    0 -0.00000000000E+00 -0.00000000000E+00 -0.45593999997E+02  0.45594000000E+02  0.51100000000E-03 0. -1.
    9900012    2    1    2    0    0 -0.16775326462E+02  0.26936120752E+02  0.31224057265E+01  0.59302021944E+02  0.50000142100E+02 0.  0.
         12    1    1    2    0    0  0.16775326462E+02 -0.26936120752E+02 -0.31224057265E+01  0.31885978056E+02  0.00000000000E+00 0. -1.
         11    1    3    3    0    0  0.70481035873E+01  0.30523842275E+01 -0.11082761683E+02  0.13484080259E+02  0.51100000000E-03 0. -1.
        -11    1    3    3    0    0  0.96502708681E-01 -0.54831740916E+01  0.33129619844E+01  0.64070452053E+01  0.51100000000E-03 0.  1.
         12    1    3    3    0    0 -0.23919932758E+02  0.29366910616E+02  0.10892205425E+02  0.39410896479E+02  0.00000000000E+00 0. -1.
</event>
<event>
 7    1  0.1284645E-011  0.5930170E+02  0.7816164E-02  0.1266606E+00
        -11   -1    0    0    0    0  0.00000000000E+00  0.00000000000E+00  0.45593999997E+02  0.45594000000E+02  0.51100000000E-03 0.  1.
         11   -1    0    0    0    0 -0.00000000000E+00 -0.00000000000E+00 -0.45593999997E+02  0.45594000000E+02  0.51100000000E-03 0. -1.
    9900012    2    1    2    0    0 -0.13203825827E+02 -0.17170318447E+02  0.23400326558E+02  0.59301699885E+02  0.49999554740E+02 0.  0.
         12    1    1    2    0    0  0.13203825827E+02  0.17170318447E+02 -0.23400326558E+02  0.31886300115E+02  0.00000000000E+00 0. -1.
         11    1    3    3    0    0  0.27485681045E+01  0.85365912310E+01 -0.57032164024E+01  0.10628014587E+02  0.51100000000E-03 0. -1.
        -11    1    3    3    0    0  0.18565673838E+01 -0.49783652625E+01 -0.33232560705E+01  0.62669764886E+01  0.51100000000E-03 0.  1.
        -12    1    3    3    0    0 -0.17808961315E+02 -0.20728544415E+02  0.32426799031E+02  0.42406708809E+02  0.00000000000E+00 0.  1.
</event>
<event>
 7    1  0.1284645E-011  0.5930197E+02  0.7816164E-02  0.1266605E+00
        -11   -1    0    0    0    0  0.00000000000E+00  0.00000000000E+00  0.45593999997E+02  0.45594000000E+02  0.51100000000E-03 0.  1.
         11   -1    0    0    0    0 -0.00000000000E+00 -0.00000000000E+00 -0.45593999997E+02  0.45594000000E+02  0.51100000000E-03 0. -1.
    9900012    2    1    2    0    0 -0.22618133800E+02 -0.11417037890E+02 -0.19359501310E+02  0.59301968235E+02  0.50000044147E+02 0.  0.
         12    1    1    2    0    0  0.22618133800E+02  0.11417037890E+02  0.19359501310E+02  0.31886031765E+02  0.00000000000E+00 0. -1.
         11    1    3    3    0    0  0.44050462061E+01  0.38613173620E+01 -0.68720427183E+01  0.90299044973E+01  0.51100000000E-03 0. -1.
        -11    1    3    3    0    0 -0.32936475095E+00 -0.27648700028E+01 -0.19720774275E+02  0.19916373303E+02  0.51100000000E-03 0.  1.
        -12    1    3    3    0    0 -0.26693815255E+02 -0.12513485250E+02  0.72333156836E+01  0.30355690434E+02  0.00000000000E+00 0.  1.
</event>
<event>
 7    1  0.1284645E-011  0.5930194E+02  0.7816164E-02  0.1266605E+00
        -11   -1    0    0    0    0  0.00000000000E+00  0.00000000000E+00  0.45593999997E+02  0.45594000000E+02  0.51100000000E-03 0. -1.
         11   -1    0    0    0    0 -0.00000000000E+00 -0.00000000000E+00 -0.45593999997E+02  0.45594000000E+02  0.51100000000E-03 0.  1.
    9900012    2    1    2    0    0  0.31857451074E+02 -0.16670666797E+00 -0.13400325113E+01  0.59301942433E+02  0.49999997092E+02 0.  0.
         12    1    1    2    0    0 -0.31857451074E+02  0.16670666797E+00  0.13400325113E+01  0.31886057567E+02  0.00000000000E+00 0. -1.
         11    1    3    3    0    0  0.19751543091E+02 -0.18502616762E+02  0.89223209364E+01  0.28496983922E+02  0.51100000000E-03 0. -1.
        -11    1    3    3    0    0  0.48258617987E+00  0.22621377591E+01 -0.10716957261E+02  0.10963727918E+02  0.51100000000E-03 0.  1.
         12    1    3    3    0    0  0.11623321803E+02  0.16073772335E+02  0.45460381350E+00  0.19841230593E+02  0.00000000000E+00 0. -1.
</event>
<event>
 7    1  0.1284645E-011  0.5930191E+02  0.7816164E-02  0.1266605E+00
        -11   -1    0    0    0    0  0.00000000000E+00  0.00000000000E+00  0.45593999997E+02  0.45594000000E+02  0.51100000000E-03 0.  1.
         11   -1    0    0    0    0 -0.00000000000E+00 -0.00000000000E+00 -0.45593999997E+02  0.45594000000E+02  0.51100000000E-03 0. -1.
    9900012    2    1    2    0    0  0.26637208845E+02 -0.10252567487E+02  0.14215010098E+02  0.59301912952E+02  0.49999943326E+02 0.  0.
         12    1    1    2    0    0 -0.26637208845E+02  0.10252567487E+02 -0.14215010098E+02  0.31886087048E+02  0.00000000000E+00 0. -1.
         11    1    3    3    0    0  0.84242500294E+01  0.87971993426E+01  0.32150634599E+01  0.12597433792E+02  0.51100000000E-03 0. -1.
        -11    1    3    3    0    0  0.28092541287E+02 -0.11142006588E+02  0.14578039280E+02  0.33553754131E+02  0.51100000000E-03 0.  1.
         12    1    3    3    0    0 -0.98795824714E+01 -0.79077602415E+01 -0.35780926422E+01  0.13150725030E+02  0.00000000000E+00 0. -1.
</event>
<event>
 7    1  0.1284645E-011  0.5930194E+02  0.7816164E-02  0.1266605E+00
        -11   -1    0    0    0    0  0.00000000000E+00  0.00000000000E+00  0.45593999997E+02  0.45594000000E+02  0.51100000000E-03 0. -1.
         11   -1    0    0    0    0 -0.00000000000E+00 -0.00000000000E+00 -0.45593999997E+02  0.45594000000E+02  0.51100000000E-03 0.  1.
    9900012    2    1    2    0    0  0.20036238630E+02 -0.12700335618E+02 -0.21306605367E+02  0.59301940106E+02  0.49999992848E+02 0.  0.
         12    1    1    2    0    0 -0.20036238630E+02  0.12700335618E+02  0.21306605367E+02  0.31886059894E+02  0.00000000000E+00 0. -1.
         11    1    3    3    0    0  0.14773268539E+02 -0.15742611170E+02  0.74621999758E+01  0.22842147415E+02  0.51100000000E-03 0. -1.
        -11    1    3    3    0    0 -0.70591602840E+01 -0.40385750467E+01 -0.92772003428E+01  0.12337271934E+02  0.51100000000E-03 0.  1.
        -12    1    3    3    0    0  0.12322130375E+02  0.70808505987E+01 -0.19491605000E+02  0.24122520757E+02  0.00000000000E+00 0.  1.
</event>
<event>
 7    1  0.1284645E-011  0.5930195E+02  0.7816164E-02  0.1266605E+00
        -11   -1    0    0    0    0  0.00000000000E+00  0.00000000000E+00  0.45593999997E+02  0.45594000000E+02  0.51100000000E-03 0. -1.
         11   -1    0    0    0    0 -0.00000000000E+00 -0.00000000000E+00 -0.45593999997E+02  0.45594000000E+02  0.51100000000E-03 0.  1.
    9900012    2    1    2    0    0 -0.28637738193E+02 -0.78142082620E+01 -0.11642104702E+02  0.59301945031E+02  0.50000001830E+02 0.  0.
         12    1    1    2    0    0  0.28637738193E+02  0.78142082620E+01  0.11642104702E+02  0.31886054969E+02  0.00000000000E+00 0. -1.
         11    1    3    3    0    0  0.62737937061E+01 -0.10542511027E+02  0.10051731792E+01  0.12309159175E+02  0.51100000000E-03 0. -1.
        -11    1    3    3    0    0 -0.16633014747E+01  0.23527205567E+01  0.75553264972E+01  0.80860883345E+01  0.51100000000E-03 0.  1.
        -12    1    3    3    0    0 -0.33248230425E+02  0.37558220835E+00 -0.20202604378E+02  0.38906697521E+02  0.00000000000E+00 0.  1.
</event>
<event>
 7    1  0.1284645E-011  0.5930199E+02  0.7816164E-02  0.1266605E+00
        -11   -1    0    0    0    0  0.00000000000E+00  0.00000000000E+00  0.45593999997E+02  0.45594000000E+02  0.51100000000E-03 0.  1.
         11   -1    0    0    0    0 -0.00000000000E+00 -0.00000000000E+00 -0.45593999997E+02  0.45594000000E+02  0.51100000000E-03 0. -1.
    9900012    2    1    2    0    0 -0.78994775028E+01 -0.30221264796E+02 -0.64024369206E+01  0.59301987562E+02  0.50000079396E+02 0.  0.
         12    1    1    2    0    0  0.78994775028E+01  0.30221264796E+02  0.64024369206E+01  0.31886012438E+02  0.00000000000E+00 0. -1.
         11    1    3    3    0    0  0.52039414309E+01 -0.15870321313E+02 -0.17545382651E+02  0.24223718906E+02  0.51100000000E-03 0. -1.
        -11    1    3    3    0    0  0.45354063604E+01 -0.15240102424E+00 -0.53866624520E+01  0.70433848084E+01  0.51100000000E-03 0.  1.
        -12    1    3    3    0    0 -0.17638825294E+02 -0.14198542458E+02  0.16529608182E+02  0.28034883848E+02  0.00000000000E+00 0.  1.
</event>
<event>
 7    1  0.1284645E-011  0.5930194E+02  0.7816164E-02  0.1266605E+00
        -11   -1    0    0    0    0  0.00000000000E+00  0.00000000000E+00  0.45593999997E+02  0.45594000000E+02  0.51100000000E-03 0.  1.
         11   -1    0    0    0    0 -0.00000000000E+00 -0.00000000000E+00 -0.45593999997E+02  0.45594000000E+02  0.51100000000E-03 0. -1.
    9900012    2    1    2    0    0 -0.15893333080E+02 -0.25391129578E+02  0.10927637504E+02  0.59301940992E+02  0.49999994463E+02 0.  0.
         12    1    1    2    0    0  0.15893333080E+02  0.25391129578E+02 -0.10927637504E+02  0.31886059008E+02  0.00000000000E+00 0. -1.
         11    1    3    3    0    0  0.14855692476E+00 -0.71697276954E+01  0.10564567086E+02  0.12768599859E+02  0.51100000000E-03 0. -1.
        -11    1    3    3    0    0 -0.25107330055E+01 -0.77040960677E+00  0.18050578991E+02  0.18240633579E+02  0.51100000000E-03 0.  1.
         12    1    3    3    0    0 -0.13531157000E+02 -0.17450992276E+02 -0.17687508574E+02  0.28292707553E+02  0.00000000000E+00 0. -1.
</event>
<event>
 7    1  0.1284645E-011  0.5930196E+02  0.7816164E-02  0.1266605E+00
        -11   -1    0    0    0    0  0.00000000000E+00  0.00000000000E+00  0.45593999997E+02  0.45594000000E+02  0.51100000000E-03 0.  1.
         11   -1    0    0    0    0 -0.00000000000E+00 -0.00000000000E+00 -0.45593999997E+02  0.45594000000E+02  0.51100000000E-03 0. -1.
    9900012    2    1    2    0    0 -0.13200376493E+02 -0.13183236566E+02  0.25858694445E+02  0.59301956904E+02  0.50000023483E+02 0.  0.
         12    1    1    2    0    0  0.13200376493E+02  0.13183236566E+02 -0.25858694445E+02  0.31886043096E+02  0.00000000000E+00 0. -1.
         11    1    3    3    0    0 -0.72965835244E+01 -0.11864474484E+02  0.22342068973E+02  0.26328196523E+02  0.51100000000E-03 0.  1.
        -11    1    3    3    0    0  0.10261721254E+01 -0.16216012872E+02  0.41757621613E+00  0.16253814101E+02  0.51100000000E-03 0. -1.
         12    1    3    3    0    0 -0.69299650944E+01  0.14897250790E+02  0.30990492561E+01  0.16719946280E+02  0.00000000000E+00 0. -1.
</event>
<event>
 7    1  0.1284645E-011  0.5930192E+02  0.7816164E-02  0.1266605E+00
        -11   -1    0    0    0    0  0.00000000000E+00  0.00000000000E+00  0.45593999997E+02  0.45594000000E+02  0.51100000000E-03 0. -1.
         11   -1    0    0    0    0 -0.00000000000E+00 -0.00000000000E+00 -0.45593999997E+02  0.45594000000E+02  0.51100000000E-03 0.  1.
    9900012    2    1    2    0    0 -0.25285687162E+02  0.10878074837E+02 -0.16094202124E+02  0.59301924208E+02  0.49999963854E+02 0.  0.
         12    1    1    2    0    0  0.25285687162E+02 -0.10878074837E+02  0.16094202124E+02  0.31886075792E+02  0.00000000000E+00 0. -1.
         11    1    3    3    0    0  0.30862873803E+01  0.25905964920E+01  0.50837019409E+01  0.64869396223E+01  0.51100000000E-03 0. -1.
        -11    1    3    3    0    0 -0.20026897870E+01 -0.12574431492E+02 -0.13029423356E+02  0.18217929822E+02  0.51100000000E-03 0.  1.
         12    1    3    3    0    0 -0.26369284755E+02  0.20861909837E+02 -0.81484807088E+01  0.34597054764E+02  0.00000000000E+00 0. -1.
</event>
<event>
 7    1  0.1284645E-011  0.5930193E+02  0.7816164E-02  0.1266605E+00
        -11   -1    0    0    0    0  0.00000000000E+00  0.00000000000E+00  0.45593999997E+02  0.45594000000E+02  0.51100000000E-03 0.  1.
         11   -1    0    0    0    0 -0.00000000000E+00 -0.00000000000E+00 -0.45593999997E+02  0.45594000000E+02  0.51100000000E-03 0. -1.
    9900012    2    1    2    0    0  0.25652277553E+02 -0.11720718370E+02  0.14876376205E+02  0.59301934834E+02  0.49999983233E+02 0.  0.
         12    1    1    2    0    0 -0.25652277553E+02  0.11720718370E+02 -0.14876376205E+02  0.31886065166E+02  0.00000000000E+00 0. -1.
         11    1    3    3    0    0  0.34906685054E+01  0.94403913724E+01  0.29260932558E+01  0.10481783144E+02  0.51100000000E-03 0. -1.
        -11    1    3    3    0    0  0.22354507736E+02  0.35399207043E+01  0.56593400169E+01  0.23329877505E+02  0.51100000000E-03 0.  1.
         12    1    3    3    0    0 -0.19289868863E+00 -0.24701030447E+02  0.62909429319E+01  0.25490274185E+02  0.00000000000E+00 0. -1.
</event>
<event>
 7    1  0.1284645E-011  0.5930193E+02  0.7816164E-02  0.1266605E+00
        -11   -1    0    0    0    0  0.00000000000E+00  0.00000000000E+00  0.45593999997E+02  0.45594000000E+02  0.51100000000E-03 0.  1.
         11   -1    0    0    0    0 -0.00000000000E+00 -0.00000000000E+00 -0.45593999997E+02  0.45594000000E+02  0.51100000000E-03 0. -1.
    9900012    2    1    2    0    0 -0.24772211267E+01 -0.56775272604E+01  0.31278591519E+02  0.59301933643E+02  0.49999981060E+02 0.  0.
         12    1    1    2    0    0  0.24772211267E+01  0.56775272604E+01 -0.31278591519E+02  0.31886066357E+02  0.00000000000E+00 0. -1.
         11    1    3    3    0    0 -0.99884755708E+01 -0.11207691740E+02  0.33851985062E+01  0.15389657812E+02  0.51100000000E-03 0. -1.
        -11    1    3    3    0    0 -0.11113631366E+02 -0.38584470794E+01  0.16135989257E+02  0.19969240485E+02  0.51100000000E-03 0.  1.
        -12    1    3    3    0    0  0.18624885810E+02  0.93886115595E+01  0.11757403757E+02  0.23943035346E+02  0.00000000000E+00 0.  1.
</event>
<event>
 7    1  0.1284645E-011  0.5930195E+02  0.7816164E-02  0.1266605E+00
        -11   -1    0    0    0    0  0.00000000000E+00  0.00000000000E+00  0.45593999997E+02  0.45594000000E+02  0.51100000000E-03 0. -1.
         11   -1    0    0    0    0 -0.00000000000E+00 -0.00000000000E+00 -0.45593999997E+02  0.45594000000E+02  0.51100000000E-03 0.  1.
    9900012    2    1    2    0    0  0.14419832176E+02 -0.28210220974E+02 -0.36016814599E+01  0.59301949182E+02  0.50000009401E+02 0.  0.
         12    1    1    2    0    0 -0.14419832176E+02  0.28210220974E+02  0.36016814599E+01  0.31886050818E+02  0.00000000000E+00 0. -1.
         11    1    3    3    0    0  0.11356329832E+02 -0.28766137426E+02 -0.10295222096E+02  0.32595221857E+02  0.51100000000E-03 0. -1.
        -11    1    3    3    0    0  0.10670546502E+01 -0.10470058864E+02 -0.39606123772E+01  0.11244873895E+02  0.51100000000E-03 0.  1.
         12    1    3    3    0    0  0.19964476939E+01  0.11025975316E+02  0.10654153013E+02  0.15461853430E+02  0.00000000000E+00 0. -1.
</event>
<event>
 7    1  0.1284645E-011  0.5930197E+02  0.7816164E-02  0.1266605E+00
        -11   -1    0    0    0    0  0.00000000000E+00  0.00000000000E+00  0.45593999997E+02  0.45594000000E+02  0.51100000000E-03 0. -1.
         11   -1    0    0    0    0 -0.00000000000E+00 -0.00000000000E+00 -0.45593999997E+02  0.45594000000E+02  0.51100000000E-03 0.  1.
    9900012    2    1    2    0    0  0.42538590436E+01  0.28362651007E+02  0.13934987440E+02  0.59301966006E+02  0.50000040084E+02 0.  0.
         12    1    1    2    0    0 -0.42538590436E+01 -0.28362651007E+02 -0.13934987440E+02  0.31886033994E+02  0.00000000000E+00 0. -1.
         11    1    3    3    0    0 -0.18200976927E+01  0.24414782508E+02 -0.91179080137E+01  0.26125286742E+02  0.51100000000E-03 0.  1.
        -11    1    3    3    0    0  0.26565634631E+01 -0.69450273150E+01 -0.17851126098E-01  0.74357953686E+01  0.51100000000E-03 0. -1.
        -12    1    3    3    0    0  0.34173932731E+01  0.10892895813E+02  0.23070746580E+02  0.25740883896E+02  0.00000000000E+00 0.  1.
</event>
<event>
 7    1  0.1284645E-011  0.5930193E+02  0.7816164E-02  0.1266605E+00
        -11   -1    0    0    0    0  0.00000000000E+00  0.00000000000E+00  0.45593999997E+02  0.45594000000E+02  0.51100000000E-03 0.  1.
         11   -1    0    0    0    0 -0.00000000000E+00 -0.00000000000E+00 -0.45593999997E+02  0.45594000000E+02  0.51100000000E-03 0. -1.
    9900012    2    1    2    0    0 -0.12222080576E+02  0.19271547591E+02  0.22269934348E+02  0.59301925045E+02  0.49999965381E+02 0.  0.
         12    1    1    2    0    0  0.12222080576E+02 -0.19271547591E+02 -0.22269934348E+02  0.31886074955E+02  0.00000000000E+00 0. -1.
         11    1    3    3    0    0 -0.17735769901E+02  0.40342068225E+01  0.30234474633E+01  0.18438372853E+02  0.51100000000E-03 0. -1.
        -11    1    3    3    0    0 -0.73956293646E+01  0.20232145869E+02  0.78278672422E+01  0.22919654579E+02  0.51100000000E-03 0.  1.
         12    1    3    3    0    0  0.12909318689E+02 -0.49948051011E+01  0.11418619643E+02  0.17943897614E+02  0.00000000000E+00 0. -1.
</event>
<event>
 7    1  0.1284645E-011  0.5930196E+02  0.7816164E-02  0.1266605E+00
        -11   -1    0    0    0    0  0.00000000000E+00  0.00000000000E+00  0.45593999997E+02  0.45594000000E+02  0.51100000000E-03 0.  1.
         11   -1    0    0    0    0 -0.00000000000E+00 -0.00000000000E+00 -0.45593999997E+02  0.45594000000E+02  0.51100000000E-03 0. -1.
    9900012    2    1    2    0    0 -0.71819064288E+01  0.24462830343E+02  0.19149672819E+02  0.59301955758E+02  0.50000021392E+02 0.  0.
         12    1    1    2    0    0  0.71819064288E+01 -0.24462830343E+02 -0.19149672819E+02  0.31886044242E+02  0.00000000000E+00 0. -1.
         11    1    3    3    0    0  0.16210345347E+02 -0.24869227166E+01  0.36475982871E+01  0.16800745649E+02  0.51100000000E-03 0. -1.
        -11    1    3    3    0    0 -0.89982562408E+01  0.14956462393E+02  0.16113992672E+02  0.23755528678E+02  0.51100000000E-03 0.  1.
        -12    1    3    3    0    0 -0.14393995535E+02  0.11993290666E+02 -0.61191813981E+00  0.18745681430E+02  0.00000000000E+00 0.  1.
</event>
<event>
 7    1  0.1284645E-011  0.5930182E+02  0.7816164E-02  0.1266605E+00
        -11   -1    0    0    0    0  0.00000000000E+00  0.00000000000E+00  0.45593999997E+02  0.45594000000E+02  0.51100000000E-03 0. -1.
         11   -1    0    0    0    0 -0.00000000000E+00 -0.00000000000E+00 -0.45593999997E+02  0.45594000000E+02  0.51100000000E-03 0.  1.
    9900012    2    1    2    0    0  0.10463301512E+02  0.29588471412E+02 -0.56364790436E+01  0.59301824077E+02  0.49999781238E+02 0.  0.
         12    1    1    2    0    0 -0.10463301512E+02 -0.29588471412E+02  0.56364790436E+01  0.31886175923E+02  0.00000000000E+00 0. -1.
         11    1    3    3    0    0 -0.88031854496E+01  0.21550613457E+02 -0.12507881851E+02  0.26426731222E+02  0.51100000000E-03 0. -1.
        -11    1    3    3    0    0 -0.32639231648E+01 -0.17645400051E+01  0.74227892795E+01  0.82984695459E+01  0.51100000000E-03 0.  1.
        -12    1    3    3    0    0  0.22530410126E+02  0.98023979592E+01 -0.55138647256E+00  0.24576623308E+02  0.00000000000E+00 0.  1.
</event>
<event>
 7    1  0.1284645E-011  0.5930196E+02  0.7816164E-02  0.1266605E+00
        -11   -1    0    0    0    0  0.00000000000E+00  0.00000000000E+00  0.45593999997E+02  0.45594000000E+02  0.51100000000E-03 0.  1.
         11   -1    0    0    0    0 -0.00000000000E+00 -0.00000000000E+00 -0.45593999997E+02  0.45594000000E+02  0.51100000000E-03 0. -1.
    9900012    2    1    2    0    0  0.91007678853E+01 -0.14533852244E+02  0.26882383198E+02  0.59301962875E+02  0.50000034372E+02 0.  0.
         12    1    1    2    0    0 -0.91007678853E+01  0.14533852244E+02 -0.26882383198E+02  0.31886037125E+02  0.00000000000E+00 0. -1.
         11    1    3    3    0    0  0.94081978108E+01 -0.20010973202E+02  0.10099554456E+02  0.24309550284E+02  0.51100000000E-03 0. -1.
        -11    1    3    3    0    0 -0.25463321930E+01 -0.12414896534E+02  0.68578442410E+01  0.14409840092E+02  0.51100000000E-03 0.  1.
         12    1    3    3    0    0  0.22389022675E+01  0.17892017492E+02  0.99249845007E+01  0.20582572498E+02  0.00000000000E+00 0. -1.
</event>
<event>
 7    1  0.1284645E-011  0.5930192E+02  0.7816164E-02  0.1266605E+00
        -11   -1    0    0    0    0  0.00000000000E+00  0.00000000000E+00  0.45593999997E+02  0.45594000000E+02  0.51100000000E-03 0.  1.
         11   -1    0    0    0    0 -0.00000000000E+00 -0.00000000000E+00 -0.45593999997E+02  0.45594000000E+02  0.51100000000E-03 0. -1.
    9900012    2    1    2    0    0 -0.19322281220E+02  0.23820134990E+01  0.25252676393E+02  0.59301918321E+02  0.49999953116E+02 0.  0.
         12    1    1    2    0    0  0.19322281220E+02 -0.23820134990E+01 -0.25252676393E+02  0.31886081679E+02  0.00000000000E+00 0. -1.
         11    1    3    3    0    0 -0.11123723855E+01  0.57662627515E+01 -0.40046315064E+01  0.71080399694E+01  0.51100000000E-03 0. -1.
        -11    1    3    3    0    0 -0.11087163788E+00  0.15574467586E+02  0.17616890484E+02  0.23514488378E+02  0.51100000000E-03 0.  1.
         12    1    3    3    0    0 -0.18099037197E+02 -0.18958716839E+02  0.11640417415E+02  0.28679389973E+02  0.00000000000E+00 0. -1.
</event>
<event>
 7    1  0.1284645E-011  0.5930194E+02  0.7816164E-02  0.1266605E+00
        -11   -1    0    0    0    0  0.00000000000E+00  0.00000000000E+00  0.45593999997E+02  0.45594000000E+02  0.51100000000E-03 0.  1.
         11   -1    0    0    0    0 -0.00000000000E+00 -0.00000000000E+00 -0.45593999997E+02  0.45594000000E+02  0.51100000000E-03 0. -1.
    9900012    2    1    2    0    0  0.20929355953E+01  0.21990954596E+02  0.22994309449E+02  0.59301941440E+02  0.49999995281E+02 0.  0.
         12    1    1    2    0    0 -0.20929355953E+01 -0.21990954596E+02 -0.22994309449E+02  0.31886058560E+02  0.00000000000E+00 0. -1.
         11    1    3    3    0    0  0.46603444567E+01  0.24198948373E+02  0.99709487281E+01  0.26584351254E+02  0.51100000000E-03 0. -1.
        -11    1    3    3    0    0  0.29723553386E+01  0.13257211747E+02  0.58587827141E+01  0.14795739073E+02  0.51100000000E-03 0.  1.
        -12    1    3    3    0    0 -0.55397642000E+01 -0.15465205524E+02  0.71645780066E+01  0.17921851113E+02  0.00000000000E+00 0.  1.
</event>
<event>
 7    1  0.1284645E-011  0.5930193E+02  0.7816164E-02  0.1266605E+00
        -11   -1    0    0    0    0  0.00000000000E+00  0.00000000000E+00  0.45593999997E+02  0.45594000000E+02  0.51100000000E-03 0. -1.
         11   -1    0    0    0    0 -0.00000000000E+00 -0.00000000000E+00 -0.45593999997E+02  0.45594000000E+02  0.51100000000E-03 0.  1.
    9900012    2    1    2    0    0 -0.93498061007E+01  0.19970972045E+01 -0.30418975285E+02  0.59301932058E+02  0.49999978171E+02 0.  0.
         12    1    1    2    0    0  0.93498061007E+01 -0.19970972045E+01  0.30418975285E+02  0.31886067942E+02  0.00000000000E+00 0. -1.
         11    1    3    3    0    0 -0.59068190306E+00 -0.20779620324E+02 -0.53707147352E+01  0.21470586926E+02  0.51100000000E-03 0. -1.
        -11    1    3    3    0    0  0.13951161517E+01 -0.11943437155E+01 -0.38264762186E+01  0.42443758670E+01  0.51100000000E-03 0.  1.
         12    1    3    3    0    0 -0.10154240349E+02  0.23971061244E+02 -0.21221784332E+02  0.33586969266E+02  0.00000000000E+00 0. -1.
</event>
<event>
 7    1  0.1284645E-011  0.5930194E+02  0.7816164E-02  0.1266605E+00
        -11   -1    0    0    0    0  0.00000000000E+00  0.00000000000E+00  0.45593999997E+02  0.45594000000E+02  0.51100000000E-03 0.  1.
         11   -1    0    0    0    0 -0.00000000000E+00 -0.00000000000E+00 -0.45593999997E+02  0.45594000000E+02  0.51100000000E-03 0. -1.
    9900012    2    1    2    0    0  0.27834925268E+02  0.65163763405E+00  0.15540693743E+02  0.59301939436E+02  0.49999991626E+02 0.  0.
         12    1    1    2    0    0 -0.27834925268E+02 -0.65163763405E+00 -0.15540693743E+02  0.31886060564E+02  0.00000000000E+00 0. -1.
         11    1    3    3    0    0  0.73598417517E+01  0.54401570580E+01 -0.82754367832E+00  0.91895270948E+01  0.51100000000E-03 0. -1.
        -11    1    3    3    0    0  0.23318638274E+02 -0.80251923883E+01 -0.75644461741E+01  0.25795027621E+02  0.51100000000E-03 0.  1.
        -12    1    3    3    0    0 -0.28435547577E+01  0.32366729643E+01  0.23932683596E+02  0.24317384720E+02  0.00000000000E+00 0.  1.
</event>
<event>
 7    1  0.1284645E-011  0.5930197E+02  0.7816164E-02  0.1266605E+00
        -11   -1    0    0    0    0  0.00000000000E+00  0.00000000000E+00  0.45593999997E+02  0.45594000000E+02  0.51100000000E-03 0.  1.
         11   -1    0    0    0    0 -0.00000000000E+00 -0.00000000000E+00 -0.45593999997E+02  0.45594000000E+02  0.51100000000E-03 0. -1.
    9900012    2    1    2    0    0 -0.12236478651E+02 -0.47173753887E+01  0.29064305915E+02  0.59301969852E+02  0.50000047097E+02 0.  0.
         12    1    1    2    0    0  0.12236478651E+02  0.47173753887E+01 -0.29064305915E+02  0.31886030148E+02  0.00000000000E+00 0. -1.
         11    1    3    3    0    0 -0.96447843698E+01  0.16410061245E+02  0.70575154863E+01  0.20300751235E+02  0.51100000000E-03 0. -1.
        -11    1    3    3    0    0 -0.83428076940E+00  0.54106021543E+01  0.25001570492E+01  0.60184238473E+01  0.51100000000E-03 0.  1.
        -12    1    3    3    0    0 -0.17574135118E+01 -0.26538038788E+02  0.19506633379E+02  0.32982794769E+02  0.00000000000E+00 0.  1.
</event>
<event>
 7    1  0.1284645E-011  0.5930192E+02  0.7816164E-02  0.1266605E+00
        -11   -1    0    0    0    0  0.00000000000E+00  0.00000000000E+00  0.45593999997E+02  0.45594000000E+02  0.51100000000E-03 0.  1.
         11   -1    0    0    0    0 -0.00000000000E+00 -0.00000000000E+00 -0.45593999997E+02  0.45594000000E+02  0.51100000000E-03 0. -1.
    9900012    2    1    2    0    0  0.24408859369E+02  0.15934634311E+02  0.12923503885E+02  0.59301922489E+02  0.49999960719E+02 0.  0.
         12    1    1    2    0    0 -0.24408859369E+02 -0.15934634311E+02 -0.12923503885E+02  0.31886077511E+02  0.00000000000E+00 0. -1.
         11    1    3    3    0    0  0.22307945202E+02 -0.41132483389E+01  0.20555097781E+01  0.22776925863E+02  0.51100000000E-03 0. -1.
        -11    1    3    3    0    0 -0.36154796410E+01 -0.64090875567E+01  0.36595584515E-02  0.73585399366E+01  0.51100000000E-03 0.  1.
        -12    1    3    3    0    0  0.57163938084E+01  0.26456970207E+02  0.10864334548E+02  0.29166456690E+02  0.00000000000E+00 0.  1.
</event>
<event>
 7    1  0.1284645E-011  0.5930192E+02  0.7816164E-02  0.1266605E+00
        -11   -1    0    0    0    0  0.00000000000E+00  0.00000000000E+00  0.45593999997E+02  0.45594000000E+02  0.51100000000E-03 0.  1.
         11   -1    0    0    0    0 -0.00000000000E+00 -0.00000000000E+00 -0.45593999997E+02  0.45594000000E+02  0.51100000000E-03 0. -1.
    9900012    2    1    2    0    0  0.84406119619E+01 -0.13381121009E+02  0.27684354737E+02  0.59301924247E+02  0.49999963924E+02 0.  0.
         12    1    1    2    0    0 -0.84406119619E+01  0.13381121009E+02 -0.27684354737E+02  0.31886075753E+02  0.00000000000E+00 0. -1.
         11    1    3    3    0    0  0.81707516688E+00 -0.45022808043E+01 -0.13555442206E+02  0.14306926922E+02  0.51100000000E-03 0. -1.
        -11    1    3    3    0    0  0.81272392930E+01  0.91733230235E+00  0.19390199883E+02  0.21044556751E+02  0.51100000000E-03 0.  1.
        -12    1    3    3    0    0 -0.50370249803E+00 -0.97961725066E+01  0.21849597061E+02  0.23950440574E+02  0.00000000000E+00 0.  1.
</event>
<event>
 7    1  0.1284645E-011  0.5930198E+02  0.7816164E-02  0.1266605E+00
        -11   -1    0    0    0    0  0.00000000000E+00  0.00000000000E+00  0.45593999997E+02  0.45594000000E+02  0.51100000000E-03 0.  1.
         11   -1    0    0    0    0 -0.00000000000E+00 -0.00000000000E+00 -0.45593999997E+02  0.45594000000E+02  0.51100000000E-03 0. -1.
    9900012    2    1    2    0    0 -0.11342513680E+02  0.25195327726E+00  0.29799364395E+02  0.59301980879E+02  0.50000067208E+02 0.  0.
         12    1    1    2    0    0  0.11342513680E+02 -0.25195327726E+00 -0.29799364395E+02  0.31886019121E+02  0.00000000000E+00 0. -1.
         11    1    3    3    0    0  0.13689851030E+02  0.13138437597E+02  0.19842181418E+02  0.27454375378E+02  0.51100000000E-03 0. -1.
        -11    1    3    3    0    0 -0.29130672336E+01  0.28982854797E+00 -0.19125035720E+01  0.34968030355E+01  0.51100000000E-03 0.  1.
        -12    1    3    3    0    0 -0.22119297477E+02 -0.13176312868E+02  0.11869686549E+02  0.28350802466E+02  0.00000000000E+00 0.  1.
</event>
<event>
 7    1  0.1284645E-011  0.5930197E+02  0.7816164E-02  0.1266605E+00
        -11   -1    0    0    0    0  0.00000000000E+00  0.00000000000E+00  0.45593999997E+02  0.45594000000E+02  0.51100000000E-03 0. -1.
         11   -1    0    0    0    0 -0.00000000000E+00 -0.00000000000E+00 -0.45593999997E+02  0.45594000000E+02  0.51100000000E-03 0.  1.
    9900012    2    1    2    0    0 -0.24813841473E+02 -0.48923745868E+01 -0.19417953188E+02  0.59301969144E+02  0.50000045806E+02 0.  0.
         12    1    1    2    0    0  0.24813841473E+02  0.48923745868E+01  0.19417953188E+02  0.31886030856E+02  0.00000000000E+00 0. -1.
         11    1    3    3    0    0 -0.18226614110E+02 -0.18074061049E+02 -0.94896308860E+01  0.27366662919E+02  0.51100000000E-03 0. -1.
        -11    1    3    3    0    0  0.38367156464E+01 -0.28321327559E+01 -0.11808829404E+02  0.12735376517E+02  0.51100000000E-03 0.  1.
        -12    1    3    3    0    0 -0.10423943009E+02  0.16013819218E+02  0.18805071016E+01  0.19199929707E+02  0.00000000000E+00 0.  1.
</event>
<event>
 7    1  0.1284645E-011  0.5930193E+02  0.7816164E-02  0.1266605E+00
        -11   -1    0    0    0    0  0.00000000000E+00  0.00000000000E+00  0.45593999997E+02  0.45594000000E+02  0.51100000000E-03 0. -1.
         11   -1    0    0    0    0 -0.00000000000E+00 -0.00000000000E+00 -0.45593999997E+02  0.45594000000E+02  0.51100000000E-03 0.  1.
    9900012    2    1    2    0    0 -0.34523772048E+01  0.31350911259E+02  0.46821921139E+01  0.59301929873E+02  0.49999974185E+02 0.  0.
         12    1    1    2    0    0  0.34523772048E+01 -0.31350911259E+02 -0.46821921139E+01  0.31886070127E+02  0.00000000000E+00 0. -1.
         11    1    3    3    0    0 -0.59199762374E+01  0.64828751327E+01  0.32423897366E+01  0.93587862516E+01  0.51100000000E-03 0.  1.
        -11    1    3    3    0    0  0.17341708770E+02  0.11015313710E+02 -0.13617515244E+02  0.24647691999E+02  0.51100000000E-03 0. -1.
         12    1    3    3    0    0 -0.14874109738E+02  0.13852722416E+02  0.15057317621E+02  0.25295451622E+02  0.00000000000E+00 0. -1.
</event>
<event>
 7    1  0.1284645E-011  0.5930194E+02  0.7816164E-02  0.1266605E+00
        -11   -1    0    0    0    0  0.00000000000E+00  0.00000000000E+00  0.45593999997E+02  0.45594000000E+02  0.51100000000E-03 0. -1.
         11   -1    0    0    0    0 -0.00000000000E+00 -0.00000000000E+00 -0.45593999997E+02  0.45594000000E+02  0.51100000000E-03 0.  1.
    9900012    2    1    2    0    0 -0.27505731953E+02  0.15670268027E+02 -0.38207338073E+01  0.59301943531E+02  0.49999999094E+02 0.  0.
         12    1    1    2    0    0  0.27505731953E+02 -0.15670268027E+02  0.38207338073E+01  0.31886056469E+02  0.00000000000E+00 0. -1.
         11    1    3    3    0    0 -0.11893480574E+02 -0.16039062964E+01  0.51719107731E+01  0.13068131346E+02  0.51100000000E-03 0. -1.
        -11    1    3    3    0    0 -0.25140689128E+02  0.10641517109E+02 -0.16972713782E+02  0.32146059628E+02  0.51100000000E-03 0.  1.
         12    1    3    3    0    0  0.95284377483E+01  0.66326572141E+01  0.79800692017E+01  0.14087752557E+02  0.00000000000E+00 0. -1.
</event>
<event>
 7    1  0.1284645E-011  0.5930165E+02  0.7816164E-02  0.1266606E+00
        -11   -1    0    0    0    0  0.00000000000E+00  0.00000000000E+00  0.45593999997E+02  0.45594000000E+02  0.51100000000E-03 0. -1.
         11   -1    0    0    0    0 -0.00000000000E+00 -0.00000000000E+00 -0.45593999997E+02  0.45594000000E+02  0.51100000000E-03 0.  1.
    9900012    2    1    2    0    0  0.32248966882E+01 -0.29343803373E+02 -0.12053247822E+02  0.59301646523E+02  0.49999457419E+02 0.  0.
         12    1    1    2    0    0 -0.32248966882E+01  0.29343803373E+02  0.12053247822E+02  0.31886353477E+02  0.00000000000E+00 0. -1.
         11    1    3    3    0    0  0.43881827688E+00 -0.53511658538E+01  0.12927507980E+02  0.13998142745E+02  0.51100000000E-03 0. -1.
        -11    1    3    3    0    0  0.37757881242E+01 -0.28417138276E+02 -0.11167632117E+02  0.30765343020E+02  0.51100000000E-03 0.  1.
         12    1    3    3    0    0 -0.98970971288E+00  0.44245007574E+01 -0.13813123685E+02  0.14538160757E+02  0.00000000000E+00 0. -1.
</event>
<event>
 7    1  0.1284645E-011  0.5930196E+02  0.7816164E-02  0.1266605E+00
        -11   -1    0    0    0    0  0.00000000000E+00  0.00000000000E+00  0.45593999997E+02  0.45594000000E+02  0.51100000000E-03 0. -1.
         11   -1    0    0    0    0 -0.00000000000E+00 -0.00000000000E+00 -0.45593999997E+02  0.45594000000E+02  0.51100000000E-03 0.  1.
    9900012    2    1    2    0    0 -0.85260860155E+01  0.30473309078E+02 -0.39246598282E+01  0.59301958168E+02  0.50000025789E+02 0.  0.
         12    1    1    2    0    0  0.85260860155E+01 -0.30473309078E+02  0.39246598282E+01  0.31886041832E+02  0.00000000000E+00 0. -1.
         11    1    3    3    0    0 -0.49106153710E+01  0.27325770137E+01  0.92762446333E+01  0.10845728893E+02  0.51100000000E-03 0. -1.
        -11    1    3    3    0    0 -0.20377867265E+02  0.15728746261E+02 -0.98581559770E+01  0.27565089746E+02  0.51100000000E-03 0.  1.
        -12    1    3    3    0    0  0.16762396620E+02  0.12011985804E+02 -0.33427484845E+01  0.20891139529E+02  0.00000000000E+00 0.  1.
</event>
<event>
 7    1  0.1284645E-011  0.5930175E+02  0.7816164E-02  0.1266605E+00
        -11   -1    0    0    0    0  0.00000000000E+00  0.00000000000E+00  0.45593999997E+02  0.45594000000E+02  0.51100000000E-03 0. -1.
         11   -1    0    0    0    0 -0.00000000000E+00 -0.00000000000E+00 -0.45593999997E+02  0.45594000000E+02  0.51100000000E-03 0.  1.
    9900012    2    1    2    0    0  0.21539890199E+01 -0.10970915252E+02 -0.29861886029E+02  0.59301750811E+02  0.49999647617E+02 0.  0.
         12    1    1    2    0    0 -0.21539890199E+01  0.10970915252E+02  0.29861886029E+02  0.31886249189E+02  0.00000000000E+00 0. -1.
         11    1    3    3    0    0  0.29137622521E+01 -0.70849758724E+01 -0.33614502065E+01  0.83657779869E+01  0.51100000000E-03 0. -1.
        -11    1    3    3    0    0 -0.33073818725E+01 -0.23151606841E+02 -0.99705709913E+01  0.25423374291E+02  0.51100000000E-03 0.  1.
         12    1    3    3    0    0  0.25476086404E+01  0.19265667462E+02 -0.16529864831E+02  0.25512598533E+02  0.00000000000E+00 0. -1.
</event>
<event>
 7    1  0.1284645E-011  0.5930194E+02  0.7816164E-02  0.1266605E+00
        -11   -1    0    0    0    0  0.00000000000E+00  0.00000000000E+00  0.45593999997E+02  0.45594000000E+02  0.51100000000E-03 0. -1.
         11   -1    0    0    0    0 -0.00000000000E+00 -0.00000000000E+00 -0.45593999997E+02  0.45594000000E+02  0.51100000000E-03 0.  1.
    9900012    2    1    2    0    0  0.16148555753E+02 -0.14475455436E+02 -0.23375329585E+02  0.59301941978E+02  0.49999996263E+02 0.  0.
         12    1    1    2    0    0 -0.16148555753E+02  0.14475455436E+02  0.23375329585E+02  0.31886058022E+02  0.00000000000E+00 0. -1.
         11    1    3    3    0    0  0.93310839454E+01 -0.10577430539E+02 -0.34099966853E+01  0.14511348733E+02  0.51100000000E-03 0. -1.
        -11    1    3    3    0    0  0.10611607400E+02 -0.19761601915E+02 -0.57533142074E+01  0.23156591859E+02  0.51100000000E-03 0.  1.
        -12    1    3    3    0    0 -0.37941355928E+01  0.15863577018E+02 -0.14212018692E+02  0.21634001387E+02  0.00000000000E+00 0.  1.
</event>
<event>
 7    1  0.1284645E-011  0.5930196E+02  0.7816164E-02  0.1266605E+00
        -11   -1    0    0    0    0  0.00000000000E+00  0.00000000000E+00  0.45593999997E+02  0.45594000000E+02  0.51100000000E-03 0.  1.
         11   -1    0    0    0    0 -0.00000000000E+00 -0.00000000000E+00 -0.45593999997E+02  0.45594000000E+02  0.51100000000E-03 0. -1.
    9900012    2    1    2    0    0  0.11195237227E+02  0.10697633476E+02  0.27873768431E+02  0.59301958147E+02  0.50000025750E+02 0.  0.
         12    1    1    2    0    0 -0.11195237227E+02 -0.10697633476E+02 -0.27873768431E+02  0.31886041853E+02  0.00000000000E+00 0. -1.
         11    1    3    3    0    0 -0.77025682451E+01  0.10514660168E+02  0.53752857748E+01  0.14098983419E+02  0.51100000000E-03 0. -1.
        -11    1    3    3    0    0  0.22479459336E+02  0.56456850577E+01  0.28220909946E+02  0.36518756965E+02  0.51100000000E-03 0.  1.
         12    1    3    3    0    0 -0.35816538645E+01 -0.54627117502E+01 -0.57224272897E+01  0.86842177631E+01  0.00000000000E+00 0. -1.
</event>
<event>
 7    1  0.1284645E-011  0.5930195E+02  0.7816164E-02  0.1266605E+00
        -11   -1    0    0    0    0  0.00000000000E+00  0.00000000000E+00  0.45593999997E+02  0.45594000000E+02  0.51100000000E-03 0.  1.
         11   -1    0    0    0    0 -0.00000000000E+00 -0.00000000000E+00 -0.45593999997E+02  0.45594000000E+02  0.51100000000E-03 0. -1.
    9900012    2    1    2    0    0 -0.93903836121E+01 -0.90192482782E+01  0.29106594837E+02  0.59301952787E+02  0.50000015974E+02 0.  0.
         12    1    1    2    0    0  0.93903836121E+01  0.90192482782E+01 -0.29106594837E+02  0.31886047213E+02  0.00000000000E+00 0. -1.
         11    1    3    3    0    0  0.94247245929E+01 -0.38284292696E+01  0.20276857334E+02  0.22685529483E+02  0.51100000000E-03 0. -1.
        -11    1    3    3    0    0 -0.59713493683E+01  0.66210878263E+01  0.15544150894E+02  0.17919722223E+02  0.51100000000E-03 0.  1.
         12    1    3    3    0    0 -0.12843758837E+02 -0.11811906835E+02 -0.67144133904E+01  0.18696701081E+02  0.00000000000E+00 0. -1.
</event>
<event>
 7    1  0.1284645E-011  0.5930196E+02  0.7816164E-02  0.1266605E+00
        -11   -1    0    0    0    0  0.00000000000E+00  0.00000000000E+00  0.45593999997E+02  0.45594000000E+02  0.51100000000E-03 0.  1.
         11   -1    0    0    0    0 -0.00000000000E+00 -0.00000000000E+00 -0.45593999997E+02  0.45594000000E+02  0.51100000000E-03 0. -1.
    9900012    2    1    2    0    0 -0.21484884797E+02 -0.13576332963E+02  0.19256230631E+02  0.59301960585E+02  0.50000030196E+02 0.  0.
         12    1    1    2    0    0  0.21484884797E+02  0.13576332963E+02 -0.19256230631E+02  0.31886039415E+02  0.00000000000E+00 0. -1.
         11    1    3    3    0    0 -0.24220009931E+00 -0.61724378792E+01  0.38108860497E+00  0.61889319795E+01  0.51100000000E-03 0. -1.
        -11    1    3    3    0    0 -0.27188439290E+02 -0.21295343547E+02  0.13160909207E+02  0.36958252383E+02  0.51100000000E-03 0.  1.
         12    1    3    3    0    0  0.59457545919E+01  0.13891448464E+02  0.57142328195E+01  0.16154776223E+02  0.00000000000E+00 0. -1.
</event>
<event>
 7    1  0.1284645E-011  0.5930195E+02  0.7816164E-02  0.1266605E+00
        -11   -1    0    0    0    0  0.00000000000E+00  0.00000000000E+00  0.45593999997E+02  0.45594000000E+02  0.51100000000E-03 0.  1.
         11   -1    0    0    0    0 -0.00000000000E+00 -0.00000000000E+00 -0.45593999997E+02  0.45594000000E+02  0.51100000000E-03 0. -1.
    9900012    2    1    2    0    0  0.26434394337E+02 -0.34667764206E+01 -0.17490694735E+02  0.59301950620E+02  0.50000012023E+02 0.  0.
         12    1    1    2    0    0 -0.26434394337E+02  0.34667764206E+01  0.17490694735E+02  0.31886049380E+02  0.00000000000E+00 0. -1.
         11    1    3    3    0    0  0.23338083911E+02  0.12791154146E+02 -0.27350673284E+01  0.26753698409E+02  0.51100000000E-03 0. -1.
        -11    1    3    3    0    0  0.96781465688E+01 -0.19279555049E+02 -0.93523631666E+01  0.23512432051E+02  0.51100000000E-03 0.  1.
         12    1    3    3    0    0 -0.65818361425E+01  0.30216244822E+01 -0.54032642402E+01  0.90358201602E+01  0.00000000000E+00 0. -1.
</event>
<event>
 7    1  0.1284645E-011  0.5930195E+02  0.7816164E-02  0.1266605E+00
        -11   -1    0    0    0    0  0.00000000000E+00  0.00000000000E+00  0.45593999997E+02  0.45594000000E+02  0.51100000000E-03 0. -1.
         11   -1    0    0    0    0 -0.00000000000E+00 -0.00000000000E+00 -0.45593999997E+02  0.45594000000E+02  0.51100000000E-03 0.  1.
    9900012    2    1    2    0    0  0.30490925865E+02  0.12678088715E+01  0.92420784054E+01  0.59301954264E+02  0.50000018669E+02 0.  0.
         12    1    1    2    0    0 -0.30490925865E+02 -0.12678088715E+01 -0.92420784054E+01  0.31886045736E+02  0.00000000000E+00 0. -1.
         11    1    3    3    0    0  0.85401583443E+01  0.70320714408E+01  0.16672941706E+02  0.20009280813E+02  0.51100000000E-03 0. -1.
        -11    1    3    3    0    0 -0.54938807309E+01  0.87139821012E+00  0.58650304378E+01  0.80833559011E+01  0.51100000000E-03 0.  1.
        -12    1    3    3    0    0  0.27444648251E+02 -0.66356607794E+01 -0.13295893738E+02  0.31209317550E+02  0.00000000000E+00 0.  1.
</event>
<event>
 7    1  0.1284645E-011  0.5930194E+02  0.7816164E-02  0.1266605E+00
        -11   -1    0    0    0    0  0.00000000000E+00  0.00000000000E+00  0.45593999997E+02  0.45594000000E+02  0.51100000000E-03 0.  1.
         11   -1    0    0    0    0 -0.00000000000E+00 -0.00000000000E+00 -0.45593999997E+02  0.45594000000E+02  0.51100000000E-03 0. -1.
    9900012    2    1    2    0    0 -0.18423973482E+02 -0.23750900723E+02 -0.10638255159E+02  0.59301944163E+02  0.50000000247E+02 0.  0.
         12    1    1    2    0    0  0.18423973482E+02  0.23750900723E+02  0.10638255159E+02  0.31886055837E+02  0.00000000000E+00 0. -1.
         11    1    3    3    0    0 -0.16981089734E+02 -0.20939124144E+02 -0.25416455379E+02  0.37051322956E+02  0.51100000000E-03 0. -1.
        -11    1    3    3    0    0 -0.40473250280E+01  0.60780152688E+01  0.55204194948E+01  0.91541324629E+01  0.51100000000E-03 0.  1.
        -12    1    3    3    0    0  0.26044412803E+01 -0.88897918473E+01  0.92577807252E+01  0.13096488744E+02  0.00000000000E+00 0.  1.
</event>
<event>
 7    1  0.1284645E-011  0.5930196E+02  0.7816164E-02  0.1266605E+00
        -11   -1    0    0    0    0  0.00000000000E+00  0.00000000000E+00  0.45593999997E+02  0.45594000000E+02  0.51100000000E-03 0.  1.
         11   -1    0    0    0    0 -0.00000000000E+00 -0.00000000000E+00 -0.45593999997E+02  0.45594000000E+02  0.51100000000E-03 0. -1.
    9900012    2    1    2    0    0 -0.11301677498E+02 -0.21724381501E+02  0.20421620786E+02  0.59301964477E+02  0.50000037294E+02 0.  0.
         12    1    1    2    0    0  0.11301677498E+02  0.21724381501E+02 -0.20421620786E+02  0.31886035523E+02  0.00000000000E+00 0. -1.
         11    1    3    3    0    0 -0.10743260931E+02 -0.72560457760E+01  0.53375564487E+01  0.14019891756E+02  0.51100000000E-03 0.  1.
        -11    1    3    3    0    0  0.56735731293E+01 -0.61369680480E+01 -0.12931321375E+02  0.15397106275E+02  0.51100000000E-03 0. -1.
         12    1    3    3    0    0 -0.62319896958E+01 -0.83313676771E+01  0.28015385712E+02  0.29884966447E+02  0.00000000000E+00 0. -1.
</event>
<event>
 7    1  0.1284645E-011  0.5930208E+02  0.7816164E-02  0.1266604E+00
        -11   -1    0    0    0    0  0.00000000000E+00  0.00000000000E+00  0.45593999997E+02  0.45594000000E+02  0.51100000000E-03 0.  1.
         11   -1    0    0    0    0 -0.00000000000E+00 -0.00000000000E+00 -0.45593999997E+02  0.45594000000E+02  0.51100000000E-03 0. -1.
    9900012    2    1    2    0    0  0.29584580578E+02  0.99674036900E+01 -0.64896491641E+01  0.59302076921E+02  0.50000242365E+02 0.  0.
         12    1    1    2    0    0 -0.29584580578E+02 -0.99674036900E+01  0.64896491641E+01  0.31885923079E+02  0.00000000000E+00 0. -1.
         11    1    3    3    0    0 -0.11499050830E+00  0.36843640750E+01 -0.98106097204E+01  0.10480258814E+02  0.51100000000E-03 0. -1.
        -11    1    3    3    0    0  0.27169634278E+02  0.20488247393E+02  0.45919866886E+01  0.34337205041E+02  0.51100000000E-03 0.  1.
         12    1    3    3    0    0  0.25299368085E+01 -0.14205207778E+02 -0.12710261324E+01  0.14484613067E+02  0.00000000000E+00 0. -1.
</event>
<event>
 7    1  0.1284645E-011  0.5930190E+02  0.7816164E-02  0.1266605E+00
        -11   -1    0    0    0    0  0.00000000000E+00  0.00000000000E+00  0.45593999997E+02  0.45594000000E+02  0.51100000000E-03 0. -1.
         11   -1    0    0    0    0 -0.00000000000E+00 -0.00000000000E+00 -0.45593999997E+02  0.45594000000E+02  0.51100000000E-03 0.  1.
    9900012    2    1    2    0    0  0.51796776068E+01 -0.11522405884E+02 -0.29276759501E+02  0.59301897317E+02  0.49999914810E+02 0.  0.
         12    1    1    2    0    0 -0.51796776068E+01  0.11522405884E+02  0.29276759501E+02  0.31886102683E+02  0.00000000000E+00 0. -1.
         11    1    3    3    0    0  0.81908746794E+01 -0.79948897699E+01 -0.26506826416E+00  0.11448971652E+02  0.51100000000E-03 0. -1.
        -11    1    3    3    0    0  0.85518184372E+01  0.13275089703E+02 -0.20185270698E+02  0.25628241427E+02  0.51100000000E-03 0.  1.
         12    1    3    3    0    0 -0.11563015510E+02 -0.16802605817E+02 -0.88264205385E+01  0.22224684237E+02  0.00000000000E+00 0. -1.
</event>
<event>
 7    1  0.1284645E-011  0.5930196E+02  0.7816164E-02  0.1266605E+00
        -11   -1    0    0    0    0  0.00000000000E+00  0.00000000000E+00  0.45593999997E+02  0.45594000000E+02  0.51100000000E-03 0. -1.
         11   -1    0    0    0    0 -0.00000000000E+00 -0.00000000000E+00 -0.45593999997E+02  0.45594000000E+02  0.51100000000E-03 0.  1.
    9900012    2    1    2    0    0 -0.15394996232E+02  0.17040400655E+02 -0.22121001352E+02  0.59301955023E+02  0.50000020053E+02 0.  0.
         12    1    1    2    0    0  0.15394996232E+02 -0.17040400655E+02  0.22121001352E+02  0.31886044977E+02  0.00000000000E+00 0. -1.
         11    1    3    3    0    0  0.47394096410E+01  0.56046311833E+01 -0.14631887377E+02  0.16369667771E+02  0.51100000000E-03 0. -1.
        -11    1    3    3    0    0  0.69099665663E+01  0.11694967612E+02 -0.82190999594E+01  0.15876823038E+02  0.51100000000E-03 0.  1.
         12    1    3    3    0    0 -0.27044372439E+02 -0.25919813963E+00  0.72998598495E+00  0.27055464214E+02  0.00000000000E+00 0. -1.
</event>
<event>
 7    1  0.1284645E-011  0.5930210E+02  0.7816164E-02  0.1266604E+00
        -11   -1    0    0    0    0  0.00000000000E+00  0.00000000000E+00  0.45593999997E+02  0.45594000000E+02  0.51100000000E-03 0. -1.
         11   -1    0    0    0    0 -0.00000000000E+00 -0.00000000000E+00 -0.45593999997E+02  0.45594000000E+02  0.51100000000E-03 0.  1.
    9900012    2    1    2    0    0 -0.74455067876E+01  0.24550003397E+02 -0.18936007517E+02  0.59302100000E+02  0.50000284456E+02 0.  0.
         12    1    1    2    0    0  0.74455067876E+01 -0.24550003397E+02  0.18936007517E+02  0.31885900000E+02  0.00000000000E+00 0. -1.
         11    1    3    3    0    0 -0.13948206145E+02  0.55116210039E+01 -0.26572547110E+02  0.30512795364E+02  0.51100000000E-03 0. -1.
        -11    1    3    3    0    0 -0.19109085043E+01 -0.23773135288E+01 -0.22051148742E+01  0.37637378755E+01  0.51100000000E-03 0.  1.
         12    1    3    3    0    0  0.84136078618E+01  0.21415695921E+02  0.98416544666E+01  0.25025566761E+02  0.00000000000E+00 0. -1.
</event>
<event>
 7    1  0.1284645E-011  0.5930194E+02  0.7816164E-02  0.1266605E+00
        -11   -1    0    0    0    0  0.00000000000E+00  0.00000000000E+00  0.45593999997E+02  0.45594000000E+02  0.51100000000E-03 0.  1.
         11   -1    0    0    0    0 -0.00000000000E+00 -0.00000000000E+00 -0.45593999997E+02  0.45594000000E+02  0.51100000000E-03 0. -1.
    9900012    2    1    2    0    0  0.21577785032E+02 -0.16385191424E+02  0.16812057911E+02  0.59301943547E+02  0.49999999124E+02 0.  0.
         12    1    1    2    0    0 -0.21577785032E+02  0.16385191424E+02 -0.16812057911E+02  0.31886056453E+02  0.00000000000E+00 0. -1.
         11    1    3    3    0    0  0.35300871342E+01 -0.90482271544E+01  0.10974449170E+02  0.14655049118E+02  0.51100000000E-03 0. -1.
        -11    1    3    3    0    0  0.30042687175E+02 -0.91354859960E+01  0.78121488227E+01  0.32358149307E+02  0.51100000000E-03 0.  1.
         12    1    3    3    0    0 -0.11994989277E+02  0.17985217269E+01 -0.19745400815E+01  0.12288745122E+02  0.00000000000E+00 0. -1.
</event>
<event>
 7    1  0.1284645E-011  0.5930194E+02  0.7816164E-02  0.1266605E+00
        -11   -1    0    0    0    0  0.00000000000E+00  0.00000000000E+00  0.45593999997E+02  0.45594000000E+02  0.51100000000E-03 0.  1.
         11   -1    0    0    0    0 -0.00000000000E+00 -0.00000000000E+00 -0.45593999997E+02  0.45594000000E+02  0.51100000000E-03 0. -1.
    9900012    2    1    2    0    0  0.17704301246E+02 -0.10403078758E+02  0.24393737049E+02  0.59301941330E+02  0.49999995081E+02 0.  0.
         12    1    1    2    0    0 -0.17704301246E+02  0.10403078758E+02 -0.24393737049E+02  0.31886058670E+02  0.00000000000E+00 0. -1.
         11    1    3    3    0    0  0.50130367373E+00  0.71374784681E+01  0.69957354056E+01  0.10006758635E+02  0.51100000000E-03 0. -1.
        -11    1    3    3    0    0  0.26602661551E+02 -0.58309714722E+00  0.11851764397E+02  0.29129125003E+02  0.51100000000E-03 0.  1.
         12    1    3    3    0    0 -0.93996639784E+01 -0.16957460079E+02  0.55462372465E+01  0.20166057692E+02  0.00000000000E+00 0. -1.
</event>
<event>
 7    1  0.1284645E-011  0.5930195E+02  0.7816164E-02  0.1266605E+00
        -11   -1    0    0    0    0  0.00000000000E+00  0.00000000000E+00  0.45593999997E+02  0.45594000000E+02  0.51100000000E-03 0.  1.
         11   -1    0    0    0    0 -0.00000000000E+00 -0.00000000000E+00 -0.45593999997E+02  0.45594000000E+02  0.51100000000E-03 0. -1.
    9900012    2    1    2    0    0  0.12809964998E+02  0.11141583512E+02  0.26990560402E+02  0.59301946039E+02  0.50000003667E+02 0.  0.
         12    1    1    2    0    0 -0.12809964998E+02 -0.11141583512E+02 -0.26990560402E+02  0.31886053961E+02  0.00000000000E+00 0. -1.
         11    1    3    3    0    0  0.25640232436E+02  0.50928017792E+01  0.27135144185E+02  0.37678564192E+02  0.51100000000E-03 0. -1.
        -11    1    3    3    0    0  0.22095866452E+01 -0.11726568548E+01  0.37342824722E+01  0.44946927687E+01  0.51100000000E-03 0.  1.
         12    1    3    3    0    0 -0.15039854083E+02  0.72214385873E+01 -0.38788662550E+01  0.17128689078E+02  0.00000000000E+00 0. -1.
</event>
<event>
 7    1  0.1284645E-011  0.5930196E+02  0.7816164E-02  0.1266605E+00
        -11   -1    0    0    0    0  0.00000000000E+00  0.00000000000E+00  0.45593999997E+02  0.45594000000E+02  0.51100000000E-03 0. -1.
         11   -1    0    0    0    0 -0.00000000000E+00 -0.00000000000E+00 -0.45593999997E+02  0.45594000000E+02  0.51100000000E-03 0.  1.
    9900012    2    1    2    0    0 -0.24032252303E+02 -0.12091419072E+02  0.17116313653E+02  0.59301956674E+02  0.50000023064E+02 0.  0.
         12    1    1    2    0    0  0.24032252303E+02  0.12091419072E+02 -0.17116313653E+02  0.31886043326E+02  0.00000000000E+00 0. -1.
         11    1    3    3    0    0  0.76704317258E+01 -0.13107639349E+01 -0.76119648042E+01  0.10885569962E+02  0.51100000000E-03 0. -1.
        -11    1    3    3    0    0 -0.17192660568E+01 -0.85179110161E+01  0.14026371090E+02  0.16499993032E+02  0.51100000000E-03 0.  1.
        -12    1    3    3    0    0 -0.29983417972E+02 -0.22627441207E+01  0.10701907367E+02  0.31916393680E+02  0.00000000000E+00 0.  1.
</event>
<event>
 7    1  0.1284645E-011  0.5930193E+02  0.7816164E-02  0.1266605E+00
        -11   -1    0    0    0    0  0.00000000000E+00  0.00000000000E+00  0.45593999997E+02  0.45594000000E+02  0.51100000000E-03 0.  1.
         11   -1    0    0    0    0 -0.00000000000E+00 -0.00000000000E+00 -0.45593999997E+02  0.45594000000E+02  0.51100000000E-03 0. -1.
    9900012    2    1    2    0    0 -0.11795118391E+02  0.22194076627E+02  0.19621911592E+02  0.59301932984E+02  0.49999979860E+02 0.  0.
         12    1    1    2    0    0  0.11795118391E+02 -0.22194076627E+02 -0.19621911592E+02  0.31886067016E+02  0.00000000000E+00 0. -1.
         11    1    3    3    0    0 -0.13513084839E+02 -0.55896421418E+01 -0.67141877584E+01  0.16091236082E+02  0.51100000000E-03 0. -1.
        -11    1    3    3    0    0 -0.15256013598E+00 -0.26180178143E+01 -0.43561825436E+00  0.26583933861E+01  0.51100000000E-03 0.  1.
        -12    1    3    3    0    0  0.18705265834E+01  0.30401736583E+02  0.26771717605E+02  0.40552303516E+02  0.00000000000E+00 0.  1.
</event>
<event>
 7    1  0.1284645E-011  0.5930203E+02  0.7816164E-02  0.1266604E+00
        -11   -1    0    0    0    0  0.00000000000E+00  0.00000000000E+00  0.45593999997E+02  0.45594000000E+02  0.51100000000E-03 0. -1.
         11   -1    0    0    0    0 -0.00000000000E+00 -0.00000000000E+00 -0.45593999997E+02  0.45594000000E+02  0.51100000000E-03 0.  1.
    9900012    2    1    2    0    0  0.16908923402E+02 -0.26912467727E+02 -0.25538951481E+01  0.59302031452E+02  0.50000159441E+02 0.  0.
         12    1    1    2    0    0 -0.16908923402E+02  0.26912467727E+02  0.25538951481E+01  0.31885968548E+02  0.00000000000E+00 0. -1.
         11    1    3    3    0    0 -0.91978161544E+01 -0.12188955508E+02  0.12152803294E+02  0.19515662596E+02  0.51100000000E-03 0.  1.
        -11    1    3    3    0    0  0.36612746047E+01  0.17443569119E+01 -0.10972986007E+02  0.11698467205E+02  0.51100000000E-03 0. -1.
        -12    1    3    3    0    0  0.22445464952E+02 -0.16467869131E+02 -0.37337124344E+01  0.28087901652E+02  0.00000000000E+00 0.  1.
</event>
<event>
 7    1  0.1284645E-011  0.5930189E+02  0.7816164E-02  0.1266605E+00
        -11   -1    0    0    0    0  0.00000000000E+00  0.00000000000E+00  0.45593999997E+02  0.45594000000E+02  0.51100000000E-03 0.  1.
         11   -1    0    0    0    0 -0.00000000000E+00 -0.00000000000E+00 -0.45593999997E+02  0.45594000000E+02  0.51100000000E-03 0. -1.
    9900012    2    1    2    0    0 -0.15480652903E+02 -0.27774706692E+02  0.23746257301E+01  0.59301893409E+02  0.49999907684E+02 0.  0.
         12    1    1    2    0    0  0.15480652903E+02  0.27774706692E+02 -0.23746257301E+01  0.31886106591E+02  0.00000000000E+00 0. -1.
         11    1    3    3    0    0  0.64880642677E+01 -0.15152025961E+02  0.10474804429E+02  0.19529475076E+02  0.51100000000E-03 0. -1.
        -11    1    3    3    0    0  0.31167347611E+01 -0.10092287526E+00  0.71899991112E+01  0.78371109778E+01  0.51100000000E-03 0.  1.
         12    1    3    3    0    0 -0.25085451932E+02 -0.12521757857E+02 -0.15290177810E+02  0.31935307356E+02  0.00000000000E+00 0. -1.
</event>
<event>
 7    1  0.1284645E-011  0.5930194E+02  0.7816164E-02  0.1266605E+00
        -11   -1    0    0    0    0  0.00000000000E+00  0.00000000000E+00  0.45593999997E+02  0.45594000000E+02  0.51100000000E-03 0. -1.
         11   -1    0    0    0    0 -0.00000000000E+00 -0.00000000000E+00 -0.45593999997E+02  0.45594000000E+02  0.51100000000E-03 0.  1.
    9900012    2    1    2    0    0  0.18289878494E+02  0.18553763867E+02 -0.18383665382E+02  0.59301937812E+02  0.49999988664E+02 0.  0.
         12    1    1    2    0    0 -0.18289878494E+02 -0.18553763867E+02  0.18383665382E+02  0.31886062188E+02  0.00000000000E+00 0. -1.
         11    1    3    3    0    0  0.32838115958E+01  0.40184767735E+01  0.25011376289E+01  0.57608388170E+01  0.51100000000E-03 0. -1.
        -11    1    3    3    0    0  0.28533287155E+02  0.34525065894E+01 -0.21732708359E+02  0.36033024998E+02  0.51100000000E-03 0.  1.
         12    1    3    3    0    0 -0.13527220257E+02  0.11082780505E+02  0.84790534788E+00  0.17508073997E+02  0.00000000000E+00 0. -1.
</event>
<event>
 7    1  0.1284645E-011  0.5930209E+02  0.7816164E-02  0.1266604E+00
        -11   -1    0    0    0    0  0.00000000000E+00  0.00000000000E+00  0.45593999997E+02  0.45594000000E+02  0.51100000000E-03 0.  1.
         11   -1    0    0    0    0 -0.00000000000E+00 -0.00000000000E+00 -0.45593999997E+02  0.45594000000E+02  0.51100000000E-03 0. -1.
    9900012    2    1    2    0    0  0.44569613646E+01 -0.31509336914E+02  0.20020504755E+01  0.59302093655E+02  0.50000272883E+02 0.  0.
         12    1    1    2    0    0 -0.44569613646E+01  0.31509336914E+02 -0.20020504755E+01  0.31885906345E+02  0.00000000000E+00 0. -1.
         11    1    3    3    0    0 -0.41946008754E+01 -0.62159018432E+01  0.66156128929E+01  0.99999223216E+01  0.51100000000E-03 0. -1.
        -11    1    3    3    0    0  0.21519117365E+02 -0.20769368315E+02  0.77477855329E+01  0.30894453439E+02  0.51100000000E-03 0.  1.
         12    1    3    3    0    0 -0.12867555125E+02 -0.45240667556E+01 -0.12361347950E+02  0.18407717894E+02  0.00000000000E+00 0. -1.
</event>
<event>
 7    1  0.1284645E-011  0.5930191E+02  0.7816164E-02  0.1266605E+00
        -11   -1    0    0    0    0  0.00000000000E+00  0.00000000000E+00  0.45593999997E+02  0.45594000000E+02  0.51100000000E-03 0.  1.
         11   -1    0    0    0    0 -0.00000000000E+00 -0.00000000000E+00 -0.45593999997E+02  0.45594000000E+02  0.51100000000E-03 0. -1.
    9900012    2    1    2    0    0  0.21498009625E+02  0.23537147075E+02  0.74902755403E+00  0.59301909732E+02  0.49999937453E+02 0.  0.
         12    1    1    2    0    0 -0.21498009625E+02 -0.23537147075E+02 -0.74902755403E+00  0.31886090268E+02  0.00000000000E+00 0. -1.
         11    1    3    3    0    0  0.16464247010E+02  0.20001126865E+01 -0.63456243339E+01  0.17757782204E+02  0.51100000000E-03 0. -1.
        -11    1    3    3    0    0  0.71106706515E+01  0.12475785123E+00  0.16574070248E+02  0.18035437519E+02  0.51100000000E-03 0.  1.
         12    1    3    3    0    0 -0.20769080356E+01  0.21412276538E+02 -0.94794183602E+01  0.23508690009E+02  0.00000000000E+00 0. -1.
</event>
<event>
 7    1  0.1284645E-011  0.5930191E+02  0.7816164E-02  0.1266605E+00
        -11   -1    0    0    0    0  0.00000000000E+00  0.00000000000E+00  0.45593999997E+02  0.45594000000E+02  0.51100000000E-03 0.  1.
         11   -1    0    0    0    0 -0.00000000000E+00 -0.00000000000E+00 -0.45593999997E+02  0.45594000000E+02  0.51100000000E-03 0. -1.
    9900012    2    1    2    0    0 -0.19485020743E+02  0.18849804637E+02  0.16785166203E+02  0.59301906281E+02  0.49999931158E+02 0.  0.
         12    1    1    2    0    0  0.19485020743E+02 -0.18849804637E+02 -0.16785166203E+02  0.31886093719E+02  0.00000000000E+00 0. -1.
         11    1    3    3    0    0 -0.16842065057E+02 -0.13718827501E+02  0.12220884725E+02  0.24924112965E+02  0.51100000000E-03 0. -1.
        -11    1    3    3    0    0 -0.23646735087E+01  0.12507145058E+01 -0.26635822992E+00  0.26882921243E+01  0.51100000000E-03 0.  1.
         12    1    3    3    0    0 -0.27828217757E+00  0.31317917632E+02  0.48306397080E+01  0.31689501191E+02  0.00000000000E+00 0. -1.
</event>
<event>
 7    1  0.1284645E-011  0.5930192E+02  0.7816164E-02  0.1266605E+00
        -11   -1    0    0    0    0  0.00000000000E+00  0.00000000000E+00  0.45593999997E+02  0.45594000000E+02  0.51100000000E-03 0.  1.
         11   -1    0    0    0    0 -0.00000000000E+00 -0.00000000000E+00 -0.45593999997E+02  0.45594000000E+02  0.51100000000E-03 0. -1.
    9900012    2    1    2    0    0 -0.27259854775E+02 -0.93908472081E-02  0.16541539363E+02  0.59301916907E+02  0.49999950537E+02 0.  0.
         12    1    1    2    0    0  0.27259854775E+02  0.93908472081E-02 -0.16541539363E+02  0.31886083093E+02  0.00000000000E+00 0. -1.
         11    1    3    3    0    0 -0.60487119729E+01 -0.38697613920E+01 -0.78060283675E+01  0.10606415459E+02  0.51100000000E-03 0. -1.
        -11    1    3    3    0    0 -0.15492901396E+02 -0.15477830222E+02  0.14397652640E+02  0.26208502892E+02  0.51100000000E-03 0.  1.
         12    1    3    3    0    0 -0.57182414064E+01  0.19338200767E+02  0.99499150904E+01  0.22486998555E+02  0.00000000000E+00 0. -1.
</event>
<event>
 7    1  0.1284645E-011  0.5930194E+02  0.7816164E-02  0.1266605E+00
        -11   -1    0    0    0    0  0.00000000000E+00  0.00000000000E+00  0.45593999997E+02  0.45594000000E+02  0.51100000000E-03 0. -1.
         11   -1    0    0    0    0 -0.00000000000E+00 -0.00000000000E+00 -0.45593999997E+02  0.45594000000E+02  0.51100000000E-03 0.  1.
    9900012    2    1    2    0    0  0.13484579252E+01 -0.26279860931E+02 -0.18007539518E+02  0.59301938643E+02  0.49999990180E+02 0.  0.
         12    1    1    2    0    0 -0.13484579252E+01  0.26279860931E+02  0.18007539518E+02  0.31886061357E+02  0.00000000000E+00 0. -1.
         11    1    3    3    0    0  0.65110866874E+01 -0.18161586656E+02 -0.42335491640E+01  0.19752478793E+02  0.51100000000E-03 0. -1.
        -11    1    3    3    0    0  0.93844618757E+01  0.26514692000E+01 -0.18438249882E+02  0.20858271083E+02  0.51100000000E-03 0.  1.
        -12    1    3    3    0    0 -0.14547090638E+02 -0.10769743476E+02  0.46642595283E+01  0.18691188767E+02  0.00000000000E+00 0.  1.
</event>
<event>
 7    1  0.1284645E-011  0.5930191E+02  0.7816164E-02  0.1266605E+00
        -11   -1    0    0    0    0  0.00000000000E+00  0.00000000000E+00  0.45593999997E+02  0.45594000000E+02  0.51100000000E-03 0. -1.
         11   -1    0    0    0    0 -0.00000000000E+00 -0.00000000000E+00 -0.45593999997E+02  0.45594000000E+02  0.51100000000E-03 0.  1.
    9900012    2    1    2    0    0  0.16699780216E+02  0.10743525746E+02 -0.24948283894E+02  0.59301907828E+02  0.49999933980E+02 0.  0.
         12    1    1    2    0    0 -0.16699780216E+02 -0.10743525746E+02  0.24948283894E+02  0.31886092172E+02  0.00000000000E+00 0. -1.
         11    1    3    3    0    0  0.94109971726E+01 -0.12822443007E+02 -0.23468555114E+02  0.28350573043E+02  0.51100000000E-03 0. -1.
        -11    1    3    3    0    0  0.16542053139E+01  0.17992903758E+01 -0.73231616998E+01  0.77202680407E+01  0.51100000000E-03 0.  1.
         12    1    3    3    0    0  0.56345777299E+01  0.21766678378E+02  0.58434329194E+01  0.23231066744E+02  0.00000000000E+00 0. -1.
</event>
<event>
 7    1  0.1284645E-011  0.5930196E+02  0.7816164E-02  0.1266605E+00
        -11   -1    0    0    0    0  0.00000000000E+00  0.00000000000E+00  0.45593999997E+02  0.45594000000E+02  0.51100000000E-03 0.  1.
         11   -1    0    0    0    0 -0.00000000000E+00 -0.00000000000E+00 -0.45593999997E+02  0.45594000000E+02  0.51100000000E-03 0. -1.
    9900012    2    1    2    0    0 -0.22308462835E+02  0.17056138460E+02  0.15104301450E+02  0.59301963942E+02  0.50000036318E+02 0.  0.
         12    1    1    2    0    0  0.22308462835E+02 -0.17056138460E+02 -0.15104301450E+02  0.31886036058E+02  0.00000000000E+00 0. -1.
         11    1    3    3    0    0 -0.11178163322E+02  0.70984265320E+01  0.66383793734E+01  0.14812396006E+02  0.51100000000E-03 0. -1.
        -11    1    3    3    0    0 -0.26201307037E+02  0.80834445979E+01  0.10086533152E+02  0.29216240660E+02  0.51100000000E-03 0.  1.
        -12    1    3    3    0    0  0.15071007524E+02  0.18742673305E+01 -0.16206110754E+01  0.15273327275E+02  0.00000000000E+00 0.  1.
</event>
<event>
 7    1  0.1284645E-011  0.5930235E+02  0.7816164E-02  0.1266603E+00
        -11   -1    0    0    0    0  0.00000000000E+00  0.00000000000E+00  0.45593999997E+02  0.45594000000E+02  0.51100000000E-03 0.  1.
         11   -1    0    0    0    0 -0.00000000000E+00 -0.00000000000E+00 -0.45593999997E+02  0.45594000000E+02  0.51100000000E-03 0. -1.
    9900012    2    1    2    0    0 -0.17939893681E+02  0.20153624178E+01  0.26282944855E+02  0.59302350231E+02  0.50000740812E+02 0.  0.
         12    1    1    2    0    0  0.17939893681E+02 -0.20153624178E+01 -0.26282944855E+02  0.31885649769E+02  0.00000000000E+00 0. -1.
         11    1    3    3    0    0 -0.13885466404E+02  0.46881226357E+01  0.46043961222E+01  0.15361807674E+02  0.51100000000E-03 0. -1.
        -11    1    3    3    0    0 -0.22435332483E+01 -0.57210616169E+01 -0.10176907038E+02  0.11888373505E+02  0.51100000000E-03 0.  1.
        -12    1    3    3    0    0 -0.18108940283E+01  0.30483013990E+01  0.31855455771E+02  0.32052169052E+02  0.00000000000E+00 0.  1.
</event>
<event>
 7    1  0.1284645E-011  0.5930192E+02  0.7816164E-02  0.1266605E+00
        -11   -1    0    0    0    0  0.00000000000E+00  0.00000000000E+00  0.45593999997E+02  0.45594000000E+02  0.51100000000E-03 0.  1.
         11   -1    0    0    0    0 -0.00000000000E+00 -0.00000000000E+00 -0.45593999997E+02  0.45594000000E+02  0.51100000000E-03 0. -1.
    9900012    2    1    2    0    0  0.82927680254E+01  0.31202532070E+01  0.30630310254E+02  0.59301923292E+02  0.49999962183E+02 0.  0.
         12    1    1    2    0    0 -0.82927680254E+01 -0.31202532070E+01 -0.30630310254E+02  0.31886076708E+02  0.00000000000E+00 0. -1.
         11    1    3    3    0    0 -0.68682628682E+01  0.69719673823E+01  0.29628632035E+02  0.31203160105E+02  0.51100000000E-03 0. -1.
        -11    1    3    3    0    0  0.84609126763E+01 -0.59241491183E+00  0.12072557212E+02  0.14754139644E+02  0.51100000000E-03 0.  1.
         12    1    3    3    0    0  0.67001182173E+01 -0.32592992635E+01 -0.11070878993E+02  0.13344623543E+02  0.00000000000E+00 0. -1.
</event>
<event>
 7    1  0.1284645E-011  0.5930193E+02  0.7816164E-02  0.1266605E+00
        -11   -1    0    0    0    0  0.00000000000E+00  0.00000000000E+00  0.45593999997E+02  0.45594000000E+02  0.51100000000E-03 0. -1.
         11   -1    0    0    0    0 -0.00000000000E+00 -0.00000000000E+00 -0.45593999997E+02  0.45594000000E+02  0.51100000000E-03 0.  1.
    9900012    2    1    2    0    0  0.23616368209E+01 -0.68799889246E+01 -0.31045287469E+02  0.59301930156E+02  0.49999974700E+02 0.  0.
         12    1    1    2    0    0 -0.23616368209E+01  0.68799889246E+01  0.31045287469E+02  0.31886069844E+02  0.00000000000E+00 0. -1.
         11    1    3    3    0    0  0.18873769883E+02 -0.50272931873E+01 -0.15943701671E+02  0.25212982561E+02  0.51100000000E-03 0. -1.
        -11    1    3    3    0    0  0.65217871190E+01  0.25737905243E+01 -0.23703256860E+01  0.74011180917E+01  0.51100000000E-03 0.  1.
         12    1    3    3    0    0 -0.23033920181E+02 -0.44264862616E+01 -0.12731260112E+02  0.26687829503E+02  0.00000000000E+00 0. -1.
</event>
<event>
 7    1  0.1284645E-011  0.5930195E+02  0.7816164E-02  0.1266605E+00
        -11   -1    0    0    0    0  0.00000000000E+00  0.00000000000E+00  0.45593999997E+02  0.45594000000E+02  0.51100000000E-03 0. -1.
         11   -1    0    0    0    0 -0.00000000000E+00 -0.00000000000E+00 -0.45593999997E+02  0.45594000000E+02  0.51100000000E-03 0.  1.
    9900012    2    1    2    0    0 -0.33280334957E+01 -0.24830698115E+02 -0.19725127049E+02  0.59301952692E+02  0.50000015802E+02 0.  0.
         12    1    1    2    0    0  0.33280334957E+01  0.24830698115E+02  0.19725127049E+02  0.31886047308E+02  0.00000000000E+00 0. -1.
         11    1    3    3    0    0 -0.14584003942E+02 -0.22457220320E+02 -0.32079653189E+01  0.26968703292E+02  0.51100000000E-03 0. -1.
        -11    1    3    3    0    0 -0.63405765486E+01 -0.58338027333E+00 -0.12746559477E+02  0.14248439293E+02  0.51100000000E-03 0.  1.
        -12    1    3    3    0    0  0.17596546995E+02 -0.17900975213E+01 -0.37706022525E+01  0.18084810108E+02  0.00000000000E+00 0.  1.
</event>
<event>
 7    1  0.1284645E-011  0.5930189E+02  0.7816164E-02  0.1266605E+00
        -11   -1    0    0    0    0  0.00000000000E+00  0.00000000000E+00  0.45593999997E+02  0.45594000000E+02  0.51100000000E-03 0.  1.
         11   -1    0    0    0    0 -0.00000000000E+00 -0.00000000000E+00 -0.45593999997E+02  0.45594000000E+02  0.51100000000E-03 0. -1.
    9900012    2    1    2    0    0 -0.13739159060E+02 -0.15059220250E+02  0.24518957114E+02  0.59301892302E+02  0.49999905665E+02 0.  0.
         12    1    1    2    0    0  0.13739159060E+02  0.15059220250E+02 -0.24518957114E+02  0.31886107698E+02  0.00000000000E+00 0. -1.
         11    1    3    3    0    0 -0.34018875982E+01 -0.34364793440E+01  0.53108151997E+01  0.71824082214E+01  0.51100000000E-03 0. -1.
        -11    1    3    3    0    0 -0.19489088448E+02 -0.25050493655E+02  0.92427147039E+01  0.33057216704E+02  0.51100000000E-03 0.  1.
         12    1    3    3    0    0  0.91518169860E+01  0.13427752749E+02  0.99654272099E+01  0.19062267376E+02  0.00000000000E+00 0. -1.
</event>
<event>
 7    1  0.1284645E-011  0.5930193E+02  0.7816164E-02  0.1266605E+00
        -11   -1    0    0    0    0  0.00000000000E+00  0.00000000000E+00  0.45593999997E+02  0.45594000000E+02  0.51100000000E-03 0.  1.
         11   -1    0    0    0    0 -0.00000000000E+00 -0.00000000000E+00 -0.45593999997E+02  0.45594000000E+02  0.51100000000E-03 0. -1.
    9900012    2    1    2    0    0  0.14481103374E+02 -0.15554025190E+02  0.23771645736E+02  0.59301934148E+02  0.49999981982E+02 0.  0.
         12    1    1    2    0    0 -0.14481103374E+02  0.15554025190E+02 -0.23771645736E+02  0.31886065852E+02  0.00000000000E+00 0. -1.
         11    1    3    3    0    0  0.62378406528E+01  0.97696853572E+01  0.19739031654E+02  0.22890757499E+02  0.51100000000E-03 0. -1.
        -11    1    3    3    0    0  0.13818959611E+02 -0.89868143106E+01  0.85473894041E+01  0.18568369397E+02  0.51100000000E-03 0.  1.
         12    1    3    3    0    0 -0.55756968900E+01 -0.16336896236E+02 -0.45147753220E+01  0.17842807252E+02  0.00000000000E+00 0. -1.
</event>
<event>
 7    1  0.1284645E-011  0.5930196E+02  0.7816164E-02  0.1266605E+00
        -11   -1    0    0    0    0  0.00000000000E+00  0.00000000000E+00  0.45593999997E+02  0.45594000000E+02  0.51100000000E-03 0. -1.
         11   -1    0    0    0    0 -0.00000000000E+00 -0.00000000000E+00 -0.45593999997E+02  0.45594000000E+02  0.51100000000E-03 0.  1.
    9900012    2    1    2    0    0 -0.30766031779E+02  0.45214751986E+01  0.70517515806E+01  0.59301958387E+02  0.50000026187E+02 0.  0.
         12    1    1    2    0    0  0.30766031779E+02 -0.45214751986E+01 -0.70517515806E+01  0.31886041613E+02  0.00000000000E+00 0. -1.
         11    1    3    3    0    0 -0.12107545671E+02  0.66734847341E+01 -0.50640908190E+01  0.14723215571E+02  0.51100000000E-03 0. -1.
        -11    1    3    3    0    0 -0.29532218879E+02 -0.31586306985E+00  0.19793539242E+01  0.29600161547E+02  0.51100000000E-03 0.  1.
         12    1    3    3    0    0  0.10873732771E+02 -0.18361464657E+01  0.10136488475E+02  0.14978581269E+02  0.00000000000E+00 0. -1.
</event>
<event>
 7    1  0.1284645E-011  0.5930193E+02  0.7816164E-02  0.1266605E+00
        -11   -1    0    0    0    0  0.00000000000E+00  0.00000000000E+00  0.45593999997E+02  0.45594000000E+02  0.51100000000E-03 0. -1.
         11   -1    0    0    0    0 -0.00000000000E+00 -0.00000000000E+00 -0.45593999997E+02  0.45594000000E+02  0.51100000000E-03 0.  1.
    9900012    2    1    2    0    0  0.25362165346E+02  0.17692463983E+02  0.77755341444E+01  0.59301927115E+02  0.49999969155E+02 0.  0.
         12    1    1    2    0    0 -0.25362165346E+02 -0.17692463983E+02 -0.77755341444E+01  0.31886072885E+02  0.00000000000E+00 0. -1.
         11    1    3    3    0    0  0.17422589976E+02  0.59207226764E+01 -0.72511364308E+01  0.19778285524E+02  0.51100000000E-03 0. -1.
        -11    1    3    3    0    0 -0.46258068223E+01  0.13463049261E+02 -0.56118571169E+01  0.15301788285E+02  0.51100000000E-03 0.  1.
         12    1    3    3    0    0  0.12565382192E+02 -0.16913079552E+01  0.20638527692E+02  0.24221853305E+02  0.00000000000E+00 0. -1.
</event>
<event>
 7    1  0.1284645E-011  0.5930194E+02  0.7816164E-02  0.1266605E+00
        -11   -1    0    0    0    0  0.00000000000E+00  0.00000000000E+00  0.45593999997E+02  0.45594000000E+02  0.51100000000E-03 0. -1.
         11   -1    0    0    0    0 -0.00000000000E+00 -0.00000000000E+00 -0.45593999997E+02  0.45594000000E+02  0.51100000000E-03 0.  1.
    9900012    2    1    2    0    0  0.33643475296E+00 -0.19971276102E+02 -0.24854688553E+02  0.59301943477E+02  0.49999998996E+02 0.  0.
         12    1    1    2    0    0 -0.33643475296E+00  0.19971276102E+02  0.24854688553E+02  0.31886056523E+02  0.00000000000E+00 0. -1.
         11    1    3    3    0    0 -0.67997586617E+01 -0.21619346820E+02 -0.50465672205E+01  0.23218542499E+02  0.51100000000E-03 0. -1.
        -11    1    3    3    0    0  0.22276419593E+00 -0.13064549874E+02 -0.46861497385E+01  0.13881357532E+02  0.51100000000E-03 0.  1.
         12    1    3    3    0    0  0.69134292187E+01  0.14712620593E+02 -0.15121971594E+02  0.22202043446E+02  0.00000000000E+00 0. -1.
</event>
<event>
 7    1  0.1284645E-011  0.5930193E+02  0.7816164E-02  0.1266605E+00
        -11   -1    0    0    0    0  0.00000000000E+00  0.00000000000E+00  0.45593999997E+02  0.45594000000E+02  0.51100000000E-03 0.  1.
         11   -1    0    0    0    0 -0.00000000000E+00 -0.00000000000E+00 -0.45593999997E+02  0.45594000000E+02  0.51100000000E-03 0. -1.
    9900012    2    1    2    0    0 -0.14931026381E+02 -0.50190621353E+01  0.27723547762E+02  0.59301927272E+02  0.49999969441E+02 0.  0.
         12    1    1    2    0    0  0.14931026381E+02  0.50190621353E+01 -0.27723547762E+02  0.31886072728E+02  0.00000000000E+00 0. -1.
         11    1    3    3    0    0 -0.86203781537E+00  0.51391723378E+01  0.93529278783E+00  0.52942397351E+01  0.51100000000E-03 0. -1.
        -11    1    3    3    0    0 -0.98174235808E+01  0.56932059194E+01 -0.90988804442E+01  0.14545928125E+02  0.51100000000E-03 0.  1.
        -12    1    3    3    0    0 -0.42515649844E+01 -0.15851440393E+02  0.35887135419E+02  0.39461759412E+02  0.00000000000E+00 0.  1.
</event>
<event>
 7    1  0.1284645E-011  0.5930190E+02  0.7816164E-02  0.1266605E+00
        -11   -1    0    0    0    0  0.00000000000E+00  0.00000000000E+00  0.45593999997E+02  0.45594000000E+02  0.51100000000E-03 0.  1.
         11   -1    0    0    0    0 -0.00000000000E+00 -0.00000000000E+00 -0.45593999997E+02  0.45594000000E+02  0.51100000000E-03 0. -1.
    9900012    2    1    2    0    0  0.15112029299E+02 -0.47706056477E+01  0.27669318245E+02  0.59301901463E+02  0.49999922372E+02 0.  0.
         12    1    1    2    0    0 -0.15112029299E+02  0.47706056477E+01 -0.27669318245E+02  0.31886098537E+02  0.00000000000E+00 0. -1.
         11    1    3    3    0    0 -0.94497406203E+01  0.10755477653E+02  0.10129676628E+02  0.17538193926E+02  0.51100000000E-03 0. -1.
        -11    1    3    3    0    0  0.10610032688E+02  0.60399075488E+01  0.60503845456E+01  0.13625726779E+02  0.51100000000E-03 0.  1.
         12    1    3    3    0    0  0.13951737231E+02 -0.21565990849E+02  0.11489257071E+02  0.28137980758E+02  0.00000000000E+00 0. -1.
</event>
<event>
 7    1  0.1284645E-011  0.5930194E+02  0.7816164E-02  0.1266605E+00
        -11   -1    0    0    0    0  0.00000000000E+00  0.00000000000E+00  0.45593999997E+02  0.45594000000E+02  0.51100000000E-03 0.  1.
         11   -1    0    0    0    0 -0.00000000000E+00 -0.00000000000E+00 -0.45593999997E+02  0.45594000000E+02  0.51100000000E-03 0. -1.
    9900012    2    1    2    0    0  0.14463010119E+02 -0.26136400596E+02 -0.11154845323E+02  0.59301942357E+02  0.49999996954E+02 0.  0.
         12    1    1    2    0    0 -0.14463010119E+02  0.26136400596E+02  0.11154845323E+02  0.31886057643E+02  0.00000000000E+00 0. -1.
         11    1    3    3    0    0  0.23873337168E+01 -0.11571579717E+02  0.11225798301E+00  0.11815812352E+02  0.51100000000E-03 0. -1.
        -11    1    3    3    0    0  0.10857717798E+01 -0.28422679697E+02 -0.69342229367E+01  0.29276459306E+02  0.51100000000E-03 0.  1.
         12    1    3    3    0    0  0.10989904623E+02  0.13857858819E+02 -0.43328803694E+01  0.18209670699E+02  0.00000000000E+00 0. -1.
</event>
<event>
 7    1  0.1284645E-011  0.5930194E+02  0.7816164E-02  0.1266605E+00
        -11   -1    0    0    0    0  0.00000000000E+00  0.00000000000E+00  0.45593999997E+02  0.45594000000E+02  0.51100000000E-03 0. -1.
         11   -1    0    0    0    0 -0.00000000000E+00 -0.00000000000E+00 -0.45593999997E+02  0.45594000000E+02  0.51100000000E-03 0.  1.
    9900012    2    1    2    0    0  0.21518597025E+02  0.16295716236E+02  0.16974119247E+02  0.59301935492E+02  0.49999984434E+02 0.  0.
         12    1    1    2    0    0 -0.21518597025E+02 -0.16295716236E+02 -0.16974119247E+02  0.31886064508E+02  0.00000000000E+00 0. -1.
         11    1    3    3    0    0  0.25286078899E+02  0.27875808813E+01  0.16683685149E+02  0.30422060148E+02  0.51100000000E-03 0. -1.
        -11    1    3    3    0    0  0.69651512103E+01 -0.27790153099E+01  0.47424757098E+01  0.88728424755E+01  0.51100000000E-03 0.  1.
        -12    1    3    3    0    0 -0.10732633085E+02  0.16287150665E+02 -0.44520416113E+01  0.20007032869E+02  0.00000000000E+00 0.  1.
</event>
<event>
 7    1  0.1284645E-011  0.5930189E+02  0.7816164E-02  0.1266605E+00
        -11   -1    0    0    0    0  0.00000000000E+00  0.00000000000E+00  0.45593999997E+02  0.45594000000E+02  0.51100000000E-03 0.  1.
         11   -1    0    0    0    0 -0.00000000000E+00 -0.00000000000E+00 -0.45593999997E+02  0.45594000000E+02  0.51100000000E-03 0. -1.
    9900012    2    1    2    0    0 -0.10531155444E+02 -0.13636954295E+02  0.26830064830E+02  0.59301888035E+02  0.49999897883E+02 0.  0.
         12    1    1    2    0    0  0.10531155444E+02  0.13636954295E+02 -0.26830064830E+02  0.31886111965E+02  0.00000000000E+00 0. -1.
         11    1    3    3    0    0  0.22943364638E+01  0.15905989666E+02  0.49836379032E+01  0.16825609471E+02  0.51100000000E-03 0. -1.
        -11    1    3    3    0    0  0.26342106190E+01  0.45076137785E+00  0.13299508577E+01  0.29851333220E+01  0.51100000000E-03 0.  1.
        -12    1    3    3    0    0 -0.15459702527E+02 -0.29993705340E+02  0.20516476069E+02  0.39491145242E+02  0.00000000000E+00 0.  1.
</event>
<event>
 7    1  0.1284645E-011  0.5930194E+02  0.7816164E-02  0.1266605E+00
        -11   -1    0    0    0    0  0.00000000000E+00  0.00000000000E+00  0.45593999997E+02  0.45594000000E+02  0.51100000000E-03 0.  1.
         11   -1    0    0    0    0 -0.00000000000E+00 -0.00000000000E+00 -0.45593999997E+02  0.45594000000E+02  0.51100000000E-03 0. -1.
    9900012    2    1    2    0    0  0.14384911271E+02 -0.18343600839E+02  0.21755630197E+02  0.59301940205E+02  0.49999993027E+02 0.  0.
         12    1    1    2    0    0 -0.14384911271E+02  0.18343600839E+02 -0.21755630197E+02  0.31886059795E+02  0.00000000000E+00 0. -1.
         11    1    3    3    0    0 -0.13451778581E+02 -0.12552434877E+02 -0.26180372517E+01  0.18584081566E+02  0.51100000000E-03 0. -1.
        -11    1    3    3    0    0 -0.53129742039E+00 -0.37802007016E+01  0.11092759413E+01  0.39752594467E+01  0.51100000000E-03 0.  1.
        -12    1    3    3    0    0  0.28367987273E+02 -0.20109652602E+01  0.23264391507E+02  0.36742599192E+02  0.00000000000E+00 0.  1.
</event>
<event>
 7    1  0.1284645E-011  0.5930192E+02  0.7816164E-02  0.1266605E+00
        -11   -1    0    0    0    0  0.00000000000E+00  0.00000000000E+00  0.45593999997E+02  0.45594000000E+02  0.51100000000E-03 0.  1.
         11   -1    0    0    0    0 -0.00000000000E+00 -0.00000000000E+00 -0.45593999997E+02  0.45594000000E+02  0.51100000000E-03 0. -1.
    9900012    2    1    2    0    0 -0.38809186323E+01  0.15759150107E+02  0.27446485390E+02  0.59301923073E+02  0.49999961784E+02 0.  0.
         12    1    1    2    0    0  0.38809186323E+01 -0.15759150107E+02 -0.27446485390E+02  0.31886076927E+02  0.00000000000E+00 0. -1.
         11    1    3    3    0    0  0.13787389088E+02  0.99296352693E+01 -0.57455132442E+01  0.17936016200E+02  0.51100000000E-03 0. -1.
        -11    1    3    3    0    0 -0.25966074471E+01 -0.42375040732E-01  0.20872760432E+02  0.21033694260E+02  0.51100000000E-03 0.  1.
        -12    1    3    3    0    0 -0.15071700273E+02  0.58718898787E+01  0.12319238202E+02  0.20332212613E+02  0.00000000000E+00 0.  1.
</event>
<event>
 7    1  0.1284645E-011  0.5930193E+02  0.7816164E-02  0.1266605E+00
        -11   -1    0    0    0    0  0.00000000000E+00  0.00000000000E+00  0.45593999997E+02  0.45594000000E+02  0.51100000000E-03 0.  1.
         11   -1    0    0    0    0 -0.00000000000E+00 -0.00000000000E+00 -0.45593999997E+02  0.45594000000E+02  0.51100000000E-03 0. -1.
    9900012    2    1    2    0    0  0.43689543793E+01 -0.22667433634E+01  0.31503894713E+02  0.59301932981E+02  0.49999979853E+02 0.  0.
         12    1    1    2    0    0 -0.43689543793E+01  0.22667433634E+01 -0.31503894713E+02  0.31886067019E+02  0.00000000000E+00 0. -1.
         11    1    3    3    0    0  0.64878928905E+01  0.28890546795E+01  0.52371551767E+00  0.71213530529E+01  0.51100000000E-03 0. -1.
        -11    1    3    3    0    0  0.13878560963E+02  0.12046036287E+02  0.15569260768E+02  0.24085749433E+02  0.51100000000E-03 0.  1.
        -12    1    3    3    0    0 -0.15997499474E+02 -0.17201834330E+02  0.15410918428E+02  0.28094830495E+02  0.00000000000E+00 0.  1.
</event>
<event>
 7    1  0.1284645E-011  0.5930194E+02  0.7816164E-02  0.1266605E+00
        -11   -1    0    0    0    0  0.00000000000E+00  0.00000000000E+00  0.45593999997E+02  0.45594000000E+02  0.51100000000E-03 0.  1.
         11   -1    0    0    0    0 -0.00000000000E+00 -0.00000000000E+00 -0.45593999997E+02  0.45594000000E+02  0.51100000000E-03 0. -1.
    9900012    2    1    2    0    0  0.78639996879E+01  0.24750027842E+02  0.18501747691E+02  0.59301936636E+02  0.49999986519E+02 0.  0.
         12    1    1    2    0    0 -0.78639996879E+01 -0.24750027842E+02 -0.18501747691E+02  0.31886063364E+02  0.00000000000E+00 0. -1.
         11    1    3    3    0    0  0.15149701244E+02  0.11176214913E+02 -0.58701039038E+01  0.19720024028E+02  0.51100000000E-03 0. -1.
        -11    1    3    3    0    0  0.56352335931E+01  0.16071717656E+02  0.87229035701E+01  0.19134916070E+02  0.51100000000E-03 0.  1.
        -12    1    3    3    0    0 -0.12920935149E+02 -0.24979047273E+01  0.15648948024E+02  0.20446996538E+02  0.00000000000E+00 0.  1.
</event>
<event>
 7    1  0.1284645E-011  0.5930195E+02  0.7816164E-02  0.1266605E+00
        -11   -1    0    0    0    0  0.00000000000E+00  0.00000000000E+00  0.45593999997E+02  0.45594000000E+02  0.51100000000E-03 0.  1.
         11   -1    0    0    0    0 -0.00000000000E+00 -0.00000000000E+00 -0.45593999997E+02  0.45594000000E+02  0.51100000000E-03 0. -1.
    9900012    2    1    2    0    0  0.13440250998E+01  0.28559981630E+02  0.14115294389E+02  0.59301945214E+02  0.50000002163E+02 0.  0.
         12    1    1    2    0    0 -0.13440250998E+01 -0.28559981630E+02 -0.14115294389E+02  0.31886054786E+02  0.00000000000E+00 0. -1.
         11    1    3    3    0    0  0.13510010325E+02 -0.62022212874E+01 -0.31709952551E+01  0.15200103258E+02  0.51100000000E-03 0. -1.
        -11    1    3    3    0    0  0.60310025656E+00 -0.10770681924E+01  0.33726272585E+01  0.35914371352E+01  0.51100000000E-03 0.  1.
        -12    1    3    3    0    0 -0.12769085482E+02  0.35839271109E+02  0.13913662386E+02  0.40510404820E+02  0.00000000000E+00 0.  1.
</event>
<event>
 7    1  0.1284645E-011  0.5930194E+02  0.7816164E-02  0.1266605E+00
        -11   -1    0    0    0    0  0.00000000000E+00  0.00000000000E+00  0.45593999997E+02  0.45594000000E+02  0.51100000000E-03 0. -1.
         11   -1    0    0    0    0 -0.00000000000E+00 -0.00000000000E+00 -0.45593999997E+02  0.45594000000E+02  0.51100000000E-03 0.  1.
    9900012    2    1    2    0    0 -0.24548690443E+02  0.14116224420E+01 -0.20299996675E+02  0.59301941207E+02  0.49999994855E+02 0.  0.
         12    1    1    2    0    0  0.24548690443E+02 -0.14116224420E+01  0.20299996675E+02  0.31886058793E+02  0.00000000000E+00 0. -1.
         11    1    3    3    0    0 -0.31032167483E+01  0.30246772811E+01 -0.11560537927E+02  0.12346038404E+02  0.51100000000E-03 0. -1.
        -11    1    3    3    0    0 -0.28448936004E+02 -0.11837238958E+02 -0.13551476459E+02  0.33661620585E+02  0.51100000000E-03 0.  1.
         12    1    3    3    0    0  0.70034623099E+01  0.10224184119E+02  0.48120177123E+01  0.13294282218E+02  0.00000000000E+00 0. -1.
</event>
<event>
 7    1  0.1284645E-011  0.5930195E+02  0.7816164E-02  0.1266605E+00
        -11   -1    0    0    0    0  0.00000000000E+00  0.00000000000E+00  0.45593999997E+02  0.45594000000E+02  0.51100000000E-03 0.  1.
         11   -1    0    0    0    0 -0.00000000000E+00 -0.00000000000E+00 -0.45593999997E+02  0.45594000000E+02  0.51100000000E-03 0. -1.
    9900012    2    1    2    0    0  0.29817534110E+02  0.37693069112E+01 -0.10650209919E+02  0.59301953109E+02  0.50000016562E+02 0.  0.
         12    1    1    2    0    0 -0.29817534110E+02 -0.37693069112E+01  0.10650209919E+02  0.31886046891E+02  0.00000000000E+00 0. -1.
         11    1    3    3    0    0  0.19489126509E+02  0.22088924718E+02 -0.10855169225E+02  0.31393969906E+02  0.51100000000E-03 0. -1.
        -11    1    3    3    0    0  0.53841645394E+01 -0.28790523491E+01  0.78813580969E+01  0.99696527486E+01  0.51100000000E-03 0.  1.
        -12    1    3    3    0    0  0.49442430619E+01 -0.15440565457E+02 -0.76763987911E+01  0.17938330455E+02  0.00000000000E+00 0.  1.
</event>
<event>
 7    1  0.1284645E-011  0.5930193E+02  0.7816164E-02  0.1266605E+00
        -11   -1    0    0    0    0  0.00000000000E+00  0.00000000000E+00  0.45593999997E+02  0.45594000000E+02  0.51100000000E-03 0.  1.
         11   -1    0    0    0    0 -0.00000000000E+00 -0.00000000000E+00 -0.45593999997E+02  0.45594000000E+02  0.51100000000E-03 0. -1.
    9900012    2    1    2    0    0  0.76661343283E+00  0.13643449827E+02  0.28809547561E+02  0.59301930157E+02  0.49999974704E+02 0.  0.
         12    1    1    2    0    0 -0.76661343283E+00 -0.13643449827E+02 -0.28809547561E+02  0.31886069843E+02  0.00000000000E+00 0. -1.
         11    1    3    3    0    0  0.22707919118E+01  0.61146210767E+01 -0.66642350627E+01  0.93250799487E+01  0.51100000000E-03 0. -1.
        -11    1    3    3    0    0 -0.16460261870E+02 -0.20561242529E+01  0.22618757939E+02  0.28049529029E+02  0.51100000000E-03 0.  1.
         12    1    3    3    0    0  0.14956083391E+02  0.95849530028E+01  0.12855024685E+02  0.21927321180E+02  0.00000000000E+00 0. -1.
</event>
<event>
 7    1  0.1284645E-011  0.5930193E+02  0.7816164E-02  0.1266605E+00
        -11   -1    0    0    0    0  0.00000000000E+00  0.00000000000E+00  0.45593999997E+02  0.45594000000E+02  0.51100000000E-03 0. -1.
         11   -1    0    0    0    0 -0.00000000000E+00 -0.00000000000E+00 -0.45593999997E+02  0.45594000000E+02  0.51100000000E-03 0.  1.
    9900012    2    1    2    0    0 -0.13813069248E+02 -0.20148216983E+02 -0.20493160796E+02  0.59301934564E+02  0.49999982740E+02 0.  0.
         12    1    1    2    0    0  0.13813069248E+02  0.20148216983E+02  0.20493160796E+02  0.31886065436E+02  0.00000000000E+00 0. -1.
         11    1    3    3    0    0 -0.60988670563E+01 -0.56736040646E+01  0.10621632455E+02  0.13498334665E+02  0.51100000000E-03 0. -1.
        -11    1    3    3    0    0 -0.17598908547E+02 -0.36303408278E+01 -0.11602212154E+02  0.21389536781E+02  0.51100000000E-03 0.  1.
         12    1    3    3    0    0  0.98847063555E+01 -0.10844272090E+02 -0.19512581096E+02  0.24414063118E+02  0.00000000000E+00 0. -1.
</event>
<event>
 7    1  0.1284645E-011  0.5930201E+02  0.7816164E-02  0.1266605E+00
        -11   -1    0    0    0    0  0.00000000000E+00  0.00000000000E+00  0.45593999997E+02  0.45594000000E+02  0.51100000000E-03 0.  1.
         11   -1    0    0    0    0 -0.00000000000E+00 -0.00000000000E+00 -0.45593999997E+02  0.45594000000E+02  0.51100000000E-03 0. -1.
    9900012    2    1    2    0    0  0.17688424165E+02 -0.25601616080E+02 -0.69565083571E+01  0.59302013990E+02  0.50000127594E+02 0.  0.
         12    1    1    2    0    0 -0.17688424165E+02  0.25601616080E+02  0.69565083571E+01  0.31885986010E+02  0.00000000000E+00 0. -1.
         11    1    3    3    0    0 -0.77959421947E+01 -0.18020019470E+02 -0.11817259201E+02  0.22916051835E+02  0.51100000000E-03 0. -1.
        -11    1    3    3    0    0 -0.26710195018E+01 -0.17161262377E+01 -0.50511052707E+01  0.59659952363E+01  0.51100000000E-03 0.  1.
        -12    1    3    3    0    0  0.28155385861E+02 -0.58654703721E+01  0.99118561150E+01  0.30419966919E+02  0.00000000000E+00 0.  1.
</event>
<event>
 7    1  0.1284645E-011  0.5930198E+02  0.7816164E-02  0.1266605E+00
        -11   -1    0    0    0    0  0.00000000000E+00  0.00000000000E+00  0.45593999997E+02  0.45594000000E+02  0.51100000000E-03 0. -1.
         11   -1    0    0    0    0 -0.00000000000E+00 -0.00000000000E+00 -0.45593999997E+02  0.45594000000E+02  0.51100000000E-03 0.  1.
    9900012    2    1    2    0    0  0.12412007857E+02  0.24258420361E+02 -0.16558667477E+02  0.59301978517E+02  0.50000062899E+02 0.  0.
         12    1    1    2    0    0 -0.12412007857E+02 -0.24258420361E+02  0.16558667477E+02  0.31886021483E+02  0.00000000000E+00 0. -1.
         11    1    3    3    0    0 -0.26925017253E+00  0.10492881705E+02  0.13971763875E+02  0.17475218115E+02  0.51100000000E-03 0. -1.
        -11    1    3    3    0    0  0.68695403548E+01  0.74565605131E+01 -0.25361869445E-01  0.10138615431E+02  0.51100000000E-03 0.  1.
         12    1    3    3    0    0  0.58117176751E+01  0.63089781430E+01 -0.30505069482E+02  0.31688144970E+02  0.00000000000E+00 0. -1.
</event>
<event>
 7    1  0.1284645E-011  0.5930190E+02  0.7816164E-02  0.1266605E+00
        -11   -1    0    0    0    0  0.00000000000E+00  0.00000000000E+00  0.45593999997E+02  0.45594000000E+02  0.51100000000E-03 0.  1.
         11   -1    0    0    0    0 -0.00000000000E+00 -0.00000000000E+00 -0.45593999997E+02  0.45594000000E+02  0.51100000000E-03 0. -1.
    9900012    2    1    2    0    0  0.17190159828E+02  0.20571644843E+02  0.17263514339E+02  0.59301904381E+02  0.49999927694E+02 0.  0.
         12    1    1    2    0    0 -0.17190159828E+02 -0.20571644843E+02 -0.17263514339E+02  0.31886095619E+02  0.00000000000E+00 0. -1.
         11    1    3    3    0    0 -0.26490581698E-01 -0.95994758077E+01  0.15416957033E+02  0.18161310579E+02  0.51100000000E-03 0. -1.
        -11    1    3    3    0    0  0.19107263314E-01  0.37821128253E+00  0.64258069783E+01  0.64369561475E+01  0.51100000000E-03 0.  1.
         12    1    3    3    0    0  0.17197543146E+02  0.29792909368E+02 -0.45792496719E+01  0.34703637654E+02  0.00000000000E+00 0. -1.
</event>
<event>
 7    1  0.1284645E-011  0.5930192E+02  0.7816164E-02  0.1266605E+00
        -11   -1    0    0    0    0  0.00000000000E+00  0.00000000000E+00  0.45593999997E+02  0.45594000000E+02  0.51100000000E-03 0.  1.
         11   -1    0    0    0    0 -0.00000000000E+00 -0.00000000000E+00 -0.45593999997E+02  0.45594000000E+02  0.51100000000E-03 0. -1.
    9900012    2    1    2    0    0 -0.19266372664E+02 -0.12836778544E+02  0.21925916238E+02  0.59301924639E+02  0.49999964640E+02 0.  0.
         12    1    1    2    0    0  0.19266372664E+02  0.12836778544E+02 -0.21925916238E+02  0.31886075361E+02  0.00000000000E+00 0. -1.
         11    1    3    3    0    0 -0.14156841549E+02  0.93091445024E+01 -0.70794980351E+00  0.16958110956E+02  0.51100000000E-03 0. -1.
        -11    1    3    3    0    0  0.68108007682E+01 -0.38488932455E+01 -0.32563611189E+01  0.84737756825E+01  0.51100000000E-03 0.  1.
        -12    1    3    3    0    0 -0.11920331883E+02 -0.18297029801E+02  0.25890227161E+02  0.33870038001E+02  0.00000000000E+00 0.  1.
</event>
<event>
 7    1  0.1284645E-011  0.5930194E+02  0.7816164E-02  0.1266605E+00
        -11   -1    0    0    0    0  0.00000000000E+00  0.00000000000E+00  0.45593999997E+02  0.45594000000E+02  0.51100000000E-03 0.  1.
         11   -1    0    0    0    0 -0.00000000000E+00 -0.00000000000E+00 -0.45593999997E+02  0.45594000000E+02  0.51100000000E-03 0. -1.
    9900012    2    1    2    0    0 -0.19960918225E+02 -0.88596709403E+01  0.23233358944E+02  0.59301937318E+02  0.49999987763E+02 0.  0.
         12    1    1    2    0    0  0.19960918225E+02  0.88596709403E+01 -0.23233358944E+02  0.31886062682E+02  0.00000000000E+00 0. -1.
         11    1    3    3    0    0  0.70759457937E+01  0.63438539737E+00 -0.51476918794E+01  0.87732653929E+01  0.51100000000E-03 0.  1.
        -11    1    3    3    0    0  0.38024285147E+01  0.18409460514E+01  0.14070502435E+02  0.14691037540E+02  0.51100000000E-03 0. -1.
        -12    1    3    3    0    0 -0.30839292533E+02 -0.11335002389E+02  0.14310548388E+02  0.35837634385E+02  0.00000000000E+00 0.  1.
</event>
<event>
 7    1  0.1284645E-011  0.5930195E+02  0.7816164E-02  0.1266605E+00
        -11   -1    0    0    0    0  0.00000000000E+00  0.00000000000E+00  0.45593999997E+02  0.45594000000E+02  0.51100000000E-03 0.  1.
         11   -1    0    0    0    0 -0.00000000000E+00 -0.00000000000E+00 -0.45593999997E+02  0.45594000000E+02  0.51100000000E-03 0. -1.
    9900012    2    1    2    0    0  0.29855952395E+02 -0.58174270737E+01  0.95655533926E+01  0.59301950340E+02  0.50000011513E+02 0.  0.
         12    1    1    2    0    0 -0.29855952395E+02  0.58174270737E+01 -0.95655533926E+01  0.31886049660E+02  0.00000000000E+00 0. -1.
         11    1    3    3    0    0  0.15089931354E+02  0.11747439447E+02 -0.54879650865E+01  0.19895379435E+02  0.51100000000E-03 0. -1.
        -11    1    3    3    0    0 -0.27188921745E+01 -0.96579217377E+01 -0.53718691430E+01  0.11380896507E+02  0.51100000000E-03 0.  1.
        -12    1    3    3    0    0  0.17484913216E+02 -0.79069447826E+01  0.20425387622E+02  0.28025674398E+02  0.00000000000E+00 0.  1.
</event>
<event>
 7    1  0.1284645E-011  0.5930194E+02  0.7816164E-02  0.1266605E+00
        -11   -1    0    0    0    0  0.00000000000E+00  0.00000000000E+00  0.45593999997E+02  0.45594000000E+02  0.51100000000E-03 0.  1.
         11   -1    0    0    0    0 -0.00000000000E+00 -0.00000000000E+00 -0.45593999997E+02  0.45594000000E+02  0.51100000000E-03 0. -1.
    9900012    2    1    2    0    0  0.51745511725E+01  0.14354365966E+02  0.27998165754E+02  0.59301935838E+02  0.49999985065E+02 0.  0.
         12    1    1    2    0    0 -0.51745511725E+01 -0.14354365966E+02 -0.27998165754E+02  0.31886064162E+02  0.00000000000E+00 0. -1.
         11    1    3    3    0    0 -0.79335392765E+00  0.24949966586E+02  0.27830937515E+02  0.37385710189E+02  0.51100000000E-03 0. -1.
        -11    1    3    3    0    0  0.26401631216E+01  0.47515858939E+01  0.25990925889E+01  0.60252230135E+01  0.51100000000E-03 0.  1.
         12    1    3    3    0    0  0.33277419785E+01 -0.15347186514E+02 -0.24318643495E+01  0.15891002636E+02  0.00000000000E+00 0. -1.
</event>
<event>
 7    1  0.1284645E-011  0.5930193E+02  0.7816164E-02  0.1266605E+00
        -11   -1    0    0    0    0  0.00000000000E+00  0.00000000000E+00  0.45593999997E+02  0.45594000000E+02  0.51100000000E-03 0. -1.
         11   -1    0    0    0    0 -0.00000000000E+00 -0.00000000000E+00 -0.45593999997E+02  0.45594000000E+02  0.51100000000E-03 0.  1.
    9900012    2    1    2    0    0  0.28033066535E+02 -0.94687546768E+01 -0.11883228657E+02  0.59301933171E+02  0.49999980200E+02 0.  0.
         12    1    1    2    0    0 -0.28033066535E+02  0.94687546768E+01  0.11883228657E+02  0.31886066829E+02  0.00000000000E+00 0. -1.
         11    1    3    3    0    0  0.27777699721E+02  0.33954222207E+01  0.95893698791E+01  0.29581844242E+02  0.51100000000E-03 0. -1.
        -11    1    3    3    0    0  0.80864553318E+01 -0.54163507126E+01 -0.10582518896E+02  0.14377667450E+02  0.51100000000E-03 0.  1.
        -12    1    3    3    0    0 -0.78310885174E+01 -0.74478261849E+01 -0.10890079641E+02  0.15342421479E+02  0.00000000000E+00 0.  1.
</event>
<event>
 7    1  0.1284645E-011  0.5930197E+02  0.7816164E-02  0.1266605E+00
        -11   -1    0    0    0    0  0.00000000000E+00  0.00000000000E+00  0.45593999997E+02  0.45594000000E+02  0.51100000000E-03 0. -1.
         11   -1    0    0    0    0 -0.00000000000E+00 -0.00000000000E+00 -0.45593999997E+02  0.45594000000E+02  0.51100000000E-03 0.  1.
    9900012    2    1    2    0    0 -0.17864149849E+01  0.21111938034E+02 -0.23828846450E+02  0.59301966550E+02  0.50000041075E+02 0.  0.
         12    1    1    2    0    0  0.17864149849E+01 -0.21111938034E+02  0.23828846450E+02  0.31886033450E+02  0.00000000000E+00 0. -1.
         11    1    3    3    0    0  0.79870183493E+01 -0.65266226455E+01 -0.61274096768E+01  0.11997266975E+02  0.51100000000E-03 0.  1.
        -11    1    3    3    0    0  0.10841105588E+02  0.21050591498E+01 -0.40694446668E+01  0.11769504006E+02  0.51100000000E-03 0. -1.
        -12    1    3    3    0    0 -0.20614538922E+02  0.25533501530E+02 -0.13631992107E+02  0.35535195569E+02  0.00000000000E+00 0.  1.
</event>
<event>
 7    1  0.1284645E-011  0.5930193E+02  0.7816164E-02  0.1266605E+00
        -11   -1    0    0    0    0  0.00000000000E+00  0.00000000000E+00  0.45593999997E+02  0.45594000000E+02  0.51100000000E-03 0. -1.
         11   -1    0    0    0    0 -0.00000000000E+00 -0.00000000000E+00 -0.45593999997E+02  0.45594000000E+02  0.51100000000E-03 0.  1.
    9900012    2    1    2    0    0 -0.11365246512E+02  0.26423788283E+02 -0.13759935829E+02  0.59301933301E+02  0.49999980437E+02 0.  0.
         12    1    1    2    0    0  0.11365246512E+02 -0.26423788283E+02  0.13759935829E+02  0.31886066699E+02  0.00000000000E+00 0. -1.
         11    1    3    3    0    0 -0.38242739157E+01  0.26426749121E+01  0.60546871238E+01  0.76333503851E+01  0.51100000000E-03 0. -1.
        -11    1    3    3    0    0 -0.94149132239E+01  0.12425410842E+02  0.10798021968E+02  0.18963878936E+02  0.51100000000E-03 0.  1.
        -12    1    3    3    0    0  0.18739406279E+01  0.11355702529E+02 -0.30612644921E+02  0.32704703980E+02  0.00000000000E+00 0.  1.
</event>
<event>
 7    1  0.1284645E-011  0.5930193E+02  0.7816164E-02  0.1266605E+00
        -11   -1    0    0    0    0  0.00000000000E+00  0.00000000000E+00  0.45593999997E+02  0.45594000000E+02  0.51100000000E-03 0. -1.
         11   -1    0    0    0    0 -0.00000000000E+00 -0.00000000000E+00 -0.45593999997E+02  0.45594000000E+02  0.51100000000E-03 0.  1.
    9900012    2    1    2    0    0 -0.24320303850E+02 -0.19438550256E+02 -0.68838324619E+01  0.59301928358E+02  0.49999971422E+02 0.  0.
         12    1    1    2    0    0  0.24320303850E+02  0.19438550256E+02  0.68838324619E+01  0.31886071642E+02  0.00000000000E+00 0. -1.
         11    1    3    3    0    0  0.17251194367E+01 -0.13942460784E+01  0.68604311193E+01  0.72100953255E+01  0.51100000000E-03 0. -1.
        -11    1    3    3    0    0 -0.22907023840E+02  0.62596952384E+00  0.70447753756E+01  0.23973995066E+02  0.51100000000E-03 0.  1.
         12    1    3    3    0    0 -0.31383994466E+01 -0.18670273701E+02 -0.20789038957E+02  0.28117837967E+02  0.00000000000E+00 0. -1.
</event>
<event>
 7    1  0.1284645E-011  0.5930205E+02  0.7816164E-02  0.1266604E+00
        -11   -1    0    0    0    0  0.00000000000E+00  0.00000000000E+00  0.45593999997E+02  0.45594000000E+02  0.51100000000E-03 0.  1.
         11   -1    0    0    0    0 -0.00000000000E+00 -0.00000000000E+00 -0.45593999997E+02  0.45594000000E+02  0.51100000000E-03 0. -1.
    9900012    2    1    2    0    0 -0.32491329412E+01  0.31492409951E+02  0.37927951638E+01  0.59302046281E+02  0.50000186486E+02 0.  0.
         12    1    1    2    0    0  0.32491329412E+01 -0.31492409951E+02 -0.37927951638E+01  0.31885953719E+02  0.00000000000E+00 0. -1.
         11    1    3    3    0    0 -0.15186827062E+01  0.71031264433E+01  0.12871899204E+02  0.14779938830E+02  0.51100000000E-03 0.  1.
        -11    1    3    3    0    0 -0.81624813118E+01  0.20121105875E+02 -0.21073416185E+02  0.30258451262E+02  0.51100000000E-03 0. -1.
         12    1    3    3    0    0  0.64320310768E+01  0.42681776324E+01  0.11994312145E+02  0.14263656190E+02  0.00000000000E+00 0. -1.
</event>
<event>
 7    1  0.1284645E-011  0.5930196E+02  0.7816164E-02  0.1266605E+00
        -11   -1    0    0    0    0  0.00000000000E+00  0.00000000000E+00  0.45593999997E+02  0.45594000000E+02  0.51100000000E-03 0. -1.
         11   -1    0    0    0    0 -0.00000000000E+00 -0.00000000000E+00 -0.45593999997E+02  0.45594000000E+02  0.51100000000E-03 0.  1.
    9900012    2    1    2    0    0 -0.31704924315E+02  0.33867193876E+01  0.21852732843E+00  0.59301955275E+02  0.50000020512E+02 0.  0.
         12    1    1    2    0    0  0.31704924315E+02 -0.33867193876E+01 -0.21852732843E+00  0.31886044725E+02  0.00000000000E+00 0. -1.
         11    1    3    3    0    0  0.72426538389E+01 -0.10826454260E+00 -0.25354627650E+01  0.76743942781E+01  0.51100000000E-03 0. -1.
        -11    1    3    3    0    0  0.57242161658E+01 -0.28963302644E+01  0.71290639122E+00  0.64547358968E+01  0.51100000000E-03 0.  1.
         12    1    3    3    0    0 -0.44671794319E+02  0.63913141947E+01  0.20410837022E+01  0.45172825100E+02  0.00000000000E+00 0. -1.
</event>
<event>
 7    1  0.1284645E-011  0.5930195E+02  0.7816164E-02  0.1266605E+00
        -11   -1    0    0    0    0  0.00000000000E+00  0.00000000000E+00  0.45593999997E+02  0.45594000000E+02  0.51100000000E-03 0.  1.
         11   -1    0    0    0    0 -0.00000000000E+00 -0.00000000000E+00 -0.45593999997E+02  0.45594000000E+02  0.51100000000E-03 0. -1.
    9900012    2    1    2    0    0  0.36047904491E+01 -0.23218666097E+02  0.21555034395E+02  0.59301945411E+02  0.50000002523E+02 0.  0.
         12    1    1    2    0    0 -0.36047904491E+01  0.23218666097E+02 -0.21555034395E+02  0.31886054589E+02  0.00000000000E+00 0. -1.
         11    1    3    3    0    0 -0.38443356698E+01 -0.12321052159E+02 -0.81552589200E+01  0.15267465126E+02  0.51100000000E-03 0. -1.
        -11    1    3    3    0    0 -0.10785553113E+02 -0.91101757446E+01  0.11600123241E+02  0.18272556404E+02  0.51100000000E-03 0.  1.
        -12    1    3    3    0    0  0.18234679232E+02 -0.17874381933E+01  0.18110170074E+02  0.25761923882E+02  0.00000000000E+00 0.  1.
</event>
<event>
 7    1  0.1284645E-011  0.5930176E+02  0.7816164E-02  0.1266605E+00
        -11   -1    0    0    0    0  0.00000000000E+00  0.00000000000E+00  0.45593999997E+02  0.45594000000E+02  0.51100000000E-03 0.  1.
         11   -1    0    0    0    0 -0.00000000000E+00 -0.00000000000E+00 -0.45593999997E+02  0.45594000000E+02  0.51100000000E-03 0. -1.
    9900012    2    1    2    0    0  0.13659713914E+02 -0.41101009078E+01  0.28517561107E+02  0.59301764644E+02  0.49999672847E+02 0.  0.
         12    1    1    2    0    0 -0.13659713914E+02  0.41101009078E+01 -0.28517561107E+02  0.31886235356E+02  0.00000000000E+00 0. -1.
         11    1    3    3    0    0  0.44021453530E+01 -0.15195730661E+02  0.10798853194E+02  0.19154747312E+02  0.51100000000E-03 0. -1.
        -11    1    3    3    0    0 -0.56646120255E+01 -0.77324890755E+01 -0.10828492417E+01  0.96463350265E+01  0.51100000000E-03 0.  1.
        -12    1    3    3    0    0  0.14922180586E+02  0.18818118828E+02  0.18801557154E+02  0.30500682306E+02  0.00000000000E+00 0.  1.
</event>
<event>
 7    1  0.1284645E-011  0.5930195E+02  0.7816164E-02  0.1266605E+00
        -11   -1    0    0    0    0  0.00000000000E+00  0.00000000000E+00  0.45593999997E+02  0.45594000000E+02  0.51100000000E-03 0.  1.
         11   -1    0    0    0    0 -0.00000000000E+00 -0.00000000000E+00 -0.45593999997E+02  0.45594000000E+02  0.51100000000E-03 0. -1.
    9900012    2    1    2    0    0  0.25235314363E+02  0.19105319094E+02 -0.38581986624E+01  0.59301952807E+02  0.50000016011E+02 0.  0.
         12    1    1    2    0    0 -0.25235314363E+02 -0.19105319094E+02  0.38581986624E+01  0.31886047193E+02  0.00000000000E+00 0. -1.
         11    1    3    3    0    0  0.29035264938E+01 -0.10656499677E+02 -0.38132266201E+01  0.11684697214E+02  0.51100000000E-03 0. -1.
        -11    1    3    3    0    0  0.22814735321E+02  0.56568523294E+01  0.18787478061E+00  0.23506327302E+02  0.51100000000E-03 0.  1.
        -12    1    3    3    0    0 -0.48294745232E+00  0.24104966442E+02 -0.23284682292E+00  0.24110928291E+02  0.00000000000E+00 0.  1.
</event>
<event>
 7    1  0.1284645E-011  0.5930180E+02  0.7816164E-02  0.1266605E+00
        -11   -1    0    0    0    0  0.00000000000E+00  0.00000000000E+00  0.45593999997E+02  0.45594000000E+02  0.51100000000E-03 0. -1.
         11   -1    0    0    0    0 -0.00000000000E+00 -0.00000000000E+00 -0.45593999997E+02  0.45594000000E+02  0.51100000000E-03 0.  1.
    9900012    2    1    2    0    0  0.71589908999E+01  0.18222394452E+02  0.25167900124E+02  0.59301795978E+02  0.49999729992E+02 0.  0.
         12    1    1    2    0    0 -0.71589908999E+01 -0.18222394452E+02 -0.25167900124E+02  0.31886204022E+02  0.00000000000E+00 0. -1.
         11    1    3    3    0    0  0.11139342040E+02  0.14688862112E+02  0.17576641968E+02  0.25471277047E+02  0.51100000000E-03 0. -1.
        -11    1    3    3    0    0  0.11355979258E+02 -0.56358507532E+01 -0.30421722386E+01  0.13037480232E+02  0.51100000000E-03 0.  1.
        -12    1    3    3    0    0 -0.15336330398E+02  0.91693830929E+01  0.10633430395E+02  0.20793038699E+02  0.00000000000E+00 0.  1.
</event>
<event>
 7    1  0.1284645E-011  0.5930201E+02  0.7816164E-02  0.1266605E+00
        -11   -1    0    0    0    0  0.00000000000E+00  0.00000000000E+00  0.45593999997E+02  0.45594000000E+02  0.51100000000E-03 0. -1.
         11   -1    0    0    0    0 -0.00000000000E+00 -0.00000000000E+00 -0.45593999997E+02  0.45594000000E+02  0.51100000000E-03 0.  1.
    9900012    2    1    2    0    0  0.28539075026E+02 -0.29932885055E+01 -0.13902429235E+02  0.59302013767E+02  0.50000127188E+02 0.  0.
         12    1    1    2    0    0 -0.28539075026E+02  0.29932885055E+01  0.13902429235E+02  0.31885986233E+02  0.00000000000E+00 0. -1.
         11    1    3    3    0    0  0.17345278572E+02 -0.12936957754E+02  0.32129228741E+01  0.21875704293E+02  0.51100000000E-03 0. -1.
        -11    1    3    3    0    0 -0.10946036363E+01 -0.26362664841E+01 -0.19474865770E+02  0.19682948334E+02  0.51100000000E-03 0.  1.
        -12    1    3    3    0    0  0.12288400090E+02  0.12579935733E+02  0.23595136607E+01  0.17743361140E+02  0.00000000000E+00 0.  1.
</event>
<event>
 7    1  0.1284645E-011  0.5930194E+02  0.7816164E-02  0.1266605E+00
        -11   -1    0    0    0    0  0.00000000000E+00  0.00000000000E+00  0.45593999997E+02  0.45594000000E+02  0.51100000000E-03 0. -1.
         11   -1    0    0    0    0 -0.00000000000E+00 -0.00000000000E+00 -0.45593999997E+02  0.45594000000E+02  0.51100000000E-03 0.  1.
    9900012    2    1    2    0    0 -0.22817313202E+02  0.70985516880E+01  0.21111640662E+02  0.59301943655E+02  0.49999999320E+02 0.  0.
         12    1    1    2    0    0  0.22817313202E+02 -0.70985516880E+01 -0.21111640662E+02  0.31886056345E+02  0.00000000000E+00 0. -1.
         11    1    3    3    0    0 -0.12175917770E+02  0.53136403259E+01  0.66804371286E+01  0.14869969319E+02  0.51100000000E-03 0. -1.
        -11    1    3    3    0    0 -0.17656602759E+02 -0.60985786668E+01 -0.74720310111E+01  0.20119133441E+02  0.51100000000E-03 0.  1.
         12    1    3    3    0    0  0.70152073268E+01  0.78834900288E+01  0.21903234544E+02  0.24312840895E+02  0.00000000000E+00 0. -1.
</event>
<event>
 7    1  0.1284645E-011  0.5930196E+02  0.7816164E-02  0.1266605E+00
        -11   -1    0    0    0    0  0.00000000000E+00  0.00000000000E+00  0.45593999997E+02  0.45594000000E+02  0.51100000000E-03 0.  1.
         11   -1    0    0    0    0 -0.00000000000E+00 -0.00000000000E+00 -0.45593999997E+02  0.45594000000E+02  0.51100000000E-03 0. -1.
    9900012    2    1    2    0    0 -0.24163799948E+01  0.24461003119E+02  0.20311078452E+02  0.59301961147E+02  0.50000031221E+02 0.  0.
         12    1    1    2    0    0  0.24163799948E+01 -0.24461003119E+02 -0.20311078452E+02  0.31886038853E+02  0.00000000000E+00 0. -1.
         11    1    3    3    0    0  0.11653771220E+02  0.94331932175E+01 -0.83102280478E+01  0.17142211304E+02  0.51100000000E-03 0. -1.
        -11    1    3    3    0    0  0.28629425541E+01 -0.24096166269E+01 -0.96994590578E+00  0.38656807522E+01  0.51100000000E-03 0.  1.
        -12    1    3    3    0    0 -0.16933093769E+02  0.17437426529E+02  0.29591252405E+02  0.38294069090E+02  0.00000000000E+00 0.  1.
</event>
<event>
 7    1  0.1284645E-011  0.5930190E+02  0.7816164E-02  0.1266605E+00
        -11   -1    0    0    0    0  0.00000000000E+00  0.00000000000E+00  0.45593999997E+02  0.45594000000E+02  0.51100000000E-03 0.  1.
         11   -1    0    0    0    0 -0.00000000000E+00 -0.00000000000E+00 -0.45593999997E+02  0.45594000000E+02  0.51100000000E-03 0. -1.
    9900012    2    1    2    0    0 -0.12298975294E+02  0.52131093467E+01  0.28953096773E+02  0.59301904047E+02  0.49999927085E+02 0.  0.
         12    1    1    2    0    0  0.12298975294E+02 -0.52131093467E+01 -0.28953096773E+02  0.31886095953E+02  0.00000000000E+00 0. -1.
         11    1    3    3    0    0  0.42693071336E+01 -0.24973988376E+01  0.13117161450E+01  0.51170874393E+01  0.51100000000E-03 0. -1.
        -11    1    3    3    0    0  0.97742553908E+00 -0.50990111503E+01  0.31667953382E+02  0.32090723692E+02  0.51100000000E-03 0.  1.
         12    1    3    3    0    0 -0.17545707967E+02  0.12809519335E+02 -0.40265727540E+01  0.22094092916E+02  0.00000000000E+00 0. -1.
</event>
<event>
 7    1  0.1284645E-011  0.5930185E+02  0.7816164E-02  0.1266605E+00
        -11   -1    0    0    0    0  0.00000000000E+00  0.00000000000E+00  0.45593999997E+02  0.45594000000E+02  0.51100000000E-03 0.  1.
         11   -1    0    0    0    0 -0.00000000000E+00 -0.00000000000E+00 -0.45593999997E+02  0.45594000000E+02  0.51100000000E-03 0. -1.
    9900012    2    1    2    0    0 -0.38256515683E+00  0.22045608202E+02  0.23034136861E+02  0.59301848492E+02  0.49999825765E+02 0.  0.
         12    1    1    2    0    0  0.38256515683E+00 -0.22045608202E+02 -0.23034136861E+02  0.31886151508E+02  0.00000000000E+00 0. -1.
         11    1    3    3    0    0 -0.61508667533E+01  0.17299311684E+02 -0.90528863689E-01  0.18360488618E+02  0.51100000000E-03 0. -1.
        -11    1    3    3    0    0  0.10049635038E+02  0.11942590649E+02 -0.76459799287E+00  0.15627067740E+02  0.51100000000E-03 0.  1.
        -12    1    3    3    0    0 -0.42813334417E+01 -0.71962941309E+01  0.23889263718E+02  0.25314292134E+02  0.00000000000E+00 0.  1.
</event>
<event>
 7    1  0.1284645E-011  0.5930194E+02  0.7816164E-02  0.1266605E+00
        -11   -1    0    0    0    0  0.00000000000E+00  0.00000000000E+00  0.45593999997E+02  0.45594000000E+02  0.51100000000E-03 0.  1.
         11   -1    0    0    0    0 -0.00000000000E+00 -0.00000000000E+00 -0.45593999997E+02  0.45594000000E+02  0.51100000000E-03 0. -1.
    9900012    2    1    2    0    0  0.87921514003E+01  0.27990921690E+02  0.12487091261E+02  0.59301936093E+02  0.49999985529E+02 0.  0.
         12    1    1    2    0    0 -0.87921514003E+01 -0.27990921690E+02 -0.12487091261E+02  0.31886063907E+02  0.00000000000E+00 0. -1.
         11    1    3    3    0    0  0.20672054303E+02  0.14124092921E+02  0.88265751308E+01  0.26546793756E+02  0.51100000000E-03 0.  1.
        -11    1    3    3    0    0  0.79492609432E+01 -0.59702581298E+00  0.15482123909E+01  0.81206004231E+01  0.51100000000E-03 0. -1.
        -12    1    3    3    0    0 -0.19829163846E+02  0.14463854583E+02  0.21123037392E+01  0.24634541914E+02  0.00000000000E+00 0.  1.
</event>
<event>
 7    1  0.1284645E-011  0.5930197E+02  0.7816164E-02  0.1266605E+00
        -11   -1    0    0    0    0  0.00000000000E+00  0.00000000000E+00  0.45593999997E+02  0.45594000000E+02  0.51100000000E-03 0.  1.
         11   -1    0    0    0    0 -0.00000000000E+00 -0.00000000000E+00 -0.45593999997E+02  0.45594000000E+02  0.51100000000E-03 0. -1.
    9900012    2    1    2    0    0  0.23945328178E+02  0.13192124427E+02  0.16410604063E+02  0.59301971490E+02  0.50000050084E+02 0.  0.
         12    1    1    2    0    0 -0.23945328178E+02 -0.13192124427E+02 -0.16410604063E+02  0.31886028510E+02  0.00000000000E+00 0. -1.
         11    1    3    3    0    0 -0.57816630725E+01  0.10764435260E+01 -0.39934760478E+01  0.71087417841E+01  0.51100000000E-03 0. -1.
        -11    1    3    3    0    0  0.16692464778E+02 -0.57065265311E+01  0.24037521314E+02  0.29816191182E+02  0.51100000000E-03 0.  1.
         12    1    3    3    0    0  0.13034526472E+02  0.17822207432E+02 -0.36334412032E+01  0.22377038524E+02  0.00000000000E+00 0. -1.
</event>
<event>
 7    1  0.1284645E-011  0.5930195E+02  0.7816164E-02  0.1266605E+00
        -11   -1    0    0    0    0  0.00000000000E+00  0.00000000000E+00  0.45593999997E+02  0.45594000000E+02  0.51100000000E-03 0. -1.
         11   -1    0    0    0    0 -0.00000000000E+00 -0.00000000000E+00 -0.45593999997E+02  0.45594000000E+02  0.51100000000E-03 0.  1.
    9900012    2    1    2    0    0  0.44483866570E+01 -0.30970018304E+02 -0.61473365208E+01  0.59301954088E+02  0.50000018348E+02 0.  0.
         12    1    1    2    0    0 -0.44483866570E+01  0.30970018304E+02  0.61473365208E+01  0.31886045912E+02  0.00000000000E+00 0. -1.
         11    1    3    3    0    0  0.10103358210E+02 -0.24678686747E+02 -0.32599540980E+01  0.26865269916E+02  0.51100000000E-03 0. -1.
        -11    1    3    3    0    0 -0.28600177584E+01 -0.10819020780E+02 -0.15286054894E+02  0.18944508088E+02  0.51100000000E-03 0.  1.
         12    1    3    3    0    0 -0.27949537950E+01  0.45276892233E+01  0.12398672471E+02  0.13492176084E+02  0.00000000000E+00 0. -1.
</event>
<event>
 7    1  0.1284645E-011  0.5930197E+02  0.7816164E-02  0.1266605E+00
        -11   -1    0    0    0    0  0.00000000000E+00  0.00000000000E+00  0.45593999997E+02  0.45594000000E+02  0.51100000000E-03 0.  1.
         11   -1    0    0    0    0 -0.00000000000E+00 -0.00000000000E+00 -0.45593999997E+02  0.45594000000E+02  0.51100000000E-03 0. -1.
    9900012    2    1    2    0    0 -0.29358056364E+02  0.59504265484E+01  0.10927764197E+02  0.59301967323E+02  0.50000042484E+02 0.  0.
         12    1    1    2    0    0  0.29358056364E+02 -0.59504265484E+01 -0.10927764197E+02  0.31886032677E+02  0.00000000000E+00 0. -1.
         11    1    3    3    0    0 -0.86904924682E+01 -0.61250856456E+01 -0.20372795310E+00  0.10634041510E+02  0.51100000000E-03 0.  1.
        -11    1    3    3    0    0 -0.29889068181E+02  0.76410214925E+01  0.18578510202E+02  0.36012534592E+02  0.51100000000E-03 0. -1.
         12    1    3    3    0    0  0.92215042851E+01  0.44344907015E+01 -0.74470180524E+01  0.12655391220E+02  0.00000000000E+00 0. -1.
</event>
<event>
 7    1  0.1284645E-011  0.5930189E+02  0.7816164E-02  0.1266605E+00
        -11   -1    0    0    0    0  0.00000000000E+00  0.00000000000E+00  0.45593999997E+02  0.45594000000E+02  0.51100000000E-03 0.  1.
         11   -1    0    0    0    0 -0.00000000000E+00 -0.00000000000E+00 -0.45593999997E+02  0.45594000000E+02  0.51100000000E-03 0. -1.
    9900012    2    1    2    0    0 -0.19684440814E+02  0.76422189310E+01  0.23892324462E+02  0.59301891919E+02  0.49999904966E+02 0.  0.
         12    1    1    2    0    0  0.19684440814E+02 -0.76422189310E+01 -0.23892324462E+02  0.31886108081E+02  0.00000000000E+00 0. -1.
         11    1    3    3    0    0 -0.19849733591E+02 -0.74902769115E+01  0.13557653897E+02  0.25177890128E+02  0.51100000000E-03 0. -1.
        -11    1    3    3    0    0  0.95659307173E+01 -0.18586418503E+01 -0.34202337168E+01  0.10327612452E+02  0.51100000000E-03 0.  1.
        -12    1    3    3    0    0 -0.94006379405E+01  0.16991137693E+02  0.13754904282E+02  0.23796389340E+02  0.00000000000E+00 0.  1.
</event>
<event>
 7    1  0.1284645E-011  0.5930193E+02  0.7816164E-02  0.1266605E+00
        -11   -1    0    0    0    0  0.00000000000E+00  0.00000000000E+00  0.45593999997E+02  0.45594000000E+02  0.51100000000E-03 0.  1.
         11   -1    0    0    0    0 -0.00000000000E+00 -0.00000000000E+00 -0.45593999997E+02  0.45594000000E+02  0.51100000000E-03 0. -1.
    9900012    2    1    2    0    0  0.25684453075E+02  0.28860722425E+01  0.18673539859E+02  0.59301927278E+02  0.49999969453E+02 0.  0.
         12    1    1    2    0    0 -0.25684453075E+02 -0.28860722425E+01 -0.18673539859E+02  0.31886072722E+02  0.00000000000E+00 0. -1.
         11    1    3    3    0    0 -0.15182602808E+01 -0.29642764524E+01 -0.72203775247E+01  0.79514716265E+01  0.51100000000E-03 0. -1.
        -11    1    3    3    0    0 -0.81483129278E+00 -0.11365290249E+02  0.54635271180E+01  0.12636609566E+02  0.51100000000E-03 0.  1.
        -12    1    3    3    0    0  0.28017544649E+02  0.17215638944E+02  0.20430390265E+02  0.38713846086E+02  0.00000000000E+00 0.  1.
</event>
<event>
 7    1  0.1284645E-011  0.5930189E+02  0.7816164E-02  0.1266605E+00
        -11   -1    0    0    0    0  0.00000000000E+00  0.00000000000E+00  0.45593999997E+02  0.45594000000E+02  0.51100000000E-03 0.  1.
         11   -1    0    0    0    0 -0.00000000000E+00 -0.00000000000E+00 -0.45593999997E+02  0.45594000000E+02  0.51100000000E-03 0. -1.
    9900012    2    1    2    0    0  0.17237739651E+02 -0.26868007357E+01  0.26690170010E+02  0.59301894222E+02  0.49999909167E+02 0.  0.
         12    1    1    2    0    0 -0.17237739651E+02  0.26868007357E+01 -0.26690170010E+02  0.31886105778E+02  0.00000000000E+00 0. -1.
         11    1    3    3    0    0  0.21381360490E+02  0.11009546516E+02  0.21700998562E+02  0.32392993529E+02  0.51100000000E-03 0.  1.
        -11    1    3    3    0    0 -0.21159327069E+00  0.45122669534E+01 -0.41726356090E+01  0.61494888371E+01  0.51100000000E-03 0. -1.
         12    1    3    3    0    0 -0.39320275685E+01 -0.18208614205E+02  0.91618070576E+01  0.20759411857E+02  0.00000000000E+00 0. -1.
</event>
<event>
 7    1  0.1284645E-011  0.5930194E+02  0.7816164E-02  0.1266605E+00
        -11   -1    0    0    0    0  0.00000000000E+00  0.00000000000E+00  0.45593999997E+02  0.45594000000E+02  0.51100000000E-03 0.  1.
         11   -1    0    0    0    0 -0.00000000000E+00 -0.00000000000E+00 -0.45593999997E+02  0.45594000000E+02  0.51100000000E-03 0. -1.
    9900012    2    1    2    0    0  0.29207314151E+02 -0.10625236823E+02  0.71244640952E+01  0.59301939627E+02  0.49999991975E+02 0.  0.
         12    1    1    2    0    0 -0.29207314151E+02  0.10625236823E+02 -0.71244640952E+01  0.31886060373E+02  0.00000000000E+00 0. -1.
         11    1    3    3    0    0  0.83774437311E+01  0.46242926607E+01 -0.72057936982E+01  0.11978693967E+02  0.51100000000E-03 0. -1.
        -11    1    3    3    0    0  0.27158242576E+02  0.66164122637E+00  0.43755129508E+01  0.27516413698E+02  0.51100000000E-03 0.  1.
         12    1    3    3    0    0 -0.63283721563E+01 -0.15911170710E+02  0.99547448426E+01  0.19806831962E+02  0.00000000000E+00 0. -1.
</event>
<event>
 7    1  0.1284645E-011  0.5930193E+02  0.7816164E-02  0.1266605E+00
        -11   -1    0    0    0    0  0.00000000000E+00  0.00000000000E+00  0.45593999997E+02  0.45594000000E+02  0.51100000000E-03 0. -1.
         11   -1    0    0    0    0 -0.00000000000E+00 -0.00000000000E+00 -0.45593999997E+02  0.45594000000E+02  0.51100000000E-03 0.  1.
    9900012    2    1    2    0    0 -0.22830478100E+02 -0.22253379281E+02 -0.52727116566E+00  0.59301927263E+02  0.49999969424E+02 0.  0.
         12    1    1    2    0    0  0.22830478100E+02  0.22253379281E+02  0.52727116566E+00  0.31886072737E+02  0.00000000000E+00 0. -1.
         11    1    3    3    0    0  0.14911352936E+01 -0.16821323002E+02 -0.84950209212E+01  0.18903591529E+02  0.51100000000E-03 0. -1.
        -11    1    3    3    0    0 -0.51736400119E+01 -0.93437041302E+01 -0.94188961523E+01  0.14240328747E+02  0.51100000000E-03 0.  1.
         12    1    3    3    0    0 -0.19147973382E+02  0.39116478506E+01  0.17386645908E+02  0.26158006986E+02  0.00000000000E+00 0. -1.
</event>
<event>
 7    1  0.1284645E-011  0.5930192E+02  0.7816164E-02  0.1266605E+00
        -11   -1    0    0    0    0  0.00000000000E+00  0.00000000000E+00  0.45593999997E+02  0.45594000000E+02  0.51100000000E-03 0. -1.
         11   -1    0    0    0    0 -0.00000000000E+00 -0.00000000000E+00 -0.45593999997E+02  0.45594000000E+02  0.51100000000E-03 0.  1.
    9900012    2    1    2    0    0 -0.14018777959E+02  0.23605262349E+02 -0.16216882516E+02  0.59301924284E+02  0.49999963993E+02 0.  0.
         12    1    1    2    0    0  0.14018777959E+02 -0.23605262349E+02  0.16216882516E+02  0.31886075716E+02  0.00000000000E+00 0. -1.
         11    1    3    3    0    0 -0.15806710252E+02  0.70371303774E+00 -0.17584866453E+02  0.23655334059E+02  0.51100000000E-03 0. -1.
        -11    1    3    3    0    0 -0.23962165261E+01  0.18488821183E+02 -0.11154560762E+02  0.21725620553E+02  0.51100000000E-03 0.  1.
         12    1    3    3    0    0  0.41841488199E+01  0.44127281282E+01  0.12522544698E+02  0.13920969672E+02  0.00000000000E+00 0. -1.
</event>
<event>
 7    1  0.1284645E-011  0.5930190E+02  0.7816164E-02  0.1266605E+00
        -11   -1    0    0    0    0  0.00000000000E+00  0.00000000000E+00  0.45593999997E+02  0.45594000000E+02  0.51100000000E-03 0.  1.
         11   -1    0    0    0    0 -0.00000000000E+00 -0.00000000000E+00 -0.45593999997E+02  0.45594000000E+02  0.51100000000E-03 0. -1.
    9900012    2    1    2    0    0 -0.26497343727E+02 -0.79958578126E+01 -0.15832896092E+02  0.59301896986E+02  0.49999914207E+02 0.  0.
         12    1    1    2    0    0  0.26497343727E+02  0.79958578126E+01  0.15832896092E+02  0.31886103014E+02  0.00000000000E+00 0. -1.
         11    1    3    3    0    0  0.39173011050E+01 -0.14434683196E+02  0.76346787905E+01  0.16792666477E+02  0.51100000000E-03 0. -1.
        -11    1    3    3    0    0 -0.14479555682E+01  0.24742674815E+01  0.21924350408E+01  0.36090645002E+01  0.51100000000E-03 0.  1.
        -12    1    3    3    0    0 -0.28966689264E+02  0.39645579017E+01 -0.25660009924E+02  0.38900166009E+02  0.00000000000E+00 0.  1.
</event>
<event>
 7    1  0.1284645E-011  0.5930196E+02  0.7816164E-02  0.1266605E+00
        -11   -1    0    0    0    0  0.00000000000E+00  0.00000000000E+00  0.45593999997E+02  0.45594000000E+02  0.51100000000E-03 0. -1.
         11   -1    0    0    0    0 -0.00000000000E+00 -0.00000000000E+00 -0.45593999997E+02  0.45594000000E+02  0.51100000000E-03 0.  1.
    9900012    2    1    2    0    0  0.21800704888E+02 -0.12664484450E+02 -0.19520751476E+02  0.59301958568E+02  0.50000026519E+02 0.  0.
         12    1    1    2    0    0 -0.21800704888E+02  0.12664484450E+02  0.19520751476E+02  0.31886041432E+02  0.00000000000E+00 0. -1.
         11    1    3    3    0    0 -0.90894492020E+00 -0.85816845998E+01 -0.15714352591E+01  0.87715962329E+01  0.51100000000E-03 0. -1.
        -11    1    3    3    0    0 -0.87523410700E+01  0.58691582429E+00 -0.16504618807E+02  0.18690917223E+02  0.51100000000E-03 0.  1.
        -12    1    3    3    0    0  0.31461990878E+02 -0.46697156743E+01 -0.14446974095E+01  0.31839445113E+02  0.00000000000E+00 0.  1.
</event>
<event>
 7    1  0.1284645E-011  0.5930196E+02  0.7816164E-02  0.1266605E+00
        -11   -1    0    0    0    0  0.00000000000E+00  0.00000000000E+00  0.45593999997E+02  0.45594000000E+02  0.51100000000E-03 0.  1.
         11   -1    0    0    0    0 -0.00000000000E+00 -0.00000000000E+00 -0.45593999997E+02  0.45594000000E+02  0.51100000000E-03 0. -1.
    9900012    2    1    2    0    0  0.58128039437E+01 -0.18748636317E+02 -0.25128062595E+02  0.59301959431E+02  0.50000028091E+02 0.  0.
         12    1    1    2    0    0 -0.58128039437E+01  0.18748636317E+02  0.25128062595E+02  0.31886040569E+02  0.00000000000E+00 0. -1.
         11    1    3    3    0    0 -0.64295997459E+01 -0.17078919673E+01 -0.28583604799E+01  0.72406403555E+01  0.51100000000E-03 0. -1.
        -11    1    3    3    0    0 -0.13223285953E+02 -0.49659213401E+01  0.27317348962E+01  0.14386731455E+02  0.51100000000E-03 0.  1.
         12    1    3    3    0    0  0.25465689643E+02 -0.12074823010E+02 -0.25001437011E+02  0.37674587620E+02  0.00000000000E+00 0. -1.
</event>
<event>
 7    1  0.1284645E-011  0.5930195E+02  0.7816164E-02  0.1266605E+00
        -11   -1    0    0    0    0  0.00000000000E+00  0.00000000000E+00  0.45593999997E+02  0.45594000000E+02  0.51100000000E-03 0.  1.
         11   -1    0    0    0    0 -0.00000000000E+00 -0.00000000000E+00 -0.45593999997E+02  0.45594000000E+02  0.51100000000E-03 0. -1.
    9900012    2    1    2    0    0 -0.25309213298E+02  0.15667207537E+02  0.11432518365E+02  0.59301950607E+02  0.50000011998E+02 0.  0.
         12    1    1    2    0    0  0.25309213298E+02 -0.15667207537E+02 -0.11432518365E+02  0.31886049393E+02  0.00000000000E+00 0. -1.
         11    1    3    3    0    0 -0.11426815448E+02  0.56351436837E+01 -0.80513831904E+01  0.15071553575E+02  0.51100000000E-03 0. -1.
        -11    1    3    3    0    0 -0.17483147794E+01  0.83228780467E+01 -0.95072076640E+01  0.12755935927E+02  0.51100000000E-03 0.  1.
        -12    1    3    3    0    0 -0.12134083071E+02  0.17091858068E+01  0.28991109219E+02  0.31474461105E+02  0.00000000000E+00 0.  1.
</event>
<event>
 7    1  0.1284645E-011  0.5930196E+02  0.7816164E-02  0.1266605E+00
        -11   -1    0    0    0    0  0.00000000000E+00  0.00000000000E+00  0.45593999997E+02  0.45594000000E+02  0.51100000000E-03 0.  1.
         11   -1    0    0    0    0 -0.00000000000E+00 -0.00000000000E+00 -0.45593999997E+02  0.45594000000E+02  0.51100000000E-03 0. -1.
    9900012    2    1    2    0    0 -0.13108439557E+02  0.28227157153E+02  0.69365653156E+01  0.59301960312E+02  0.50000029699E+02 0.  0.
         12    1    1    2    0    0  0.13108439557E+02 -0.28227157153E+02 -0.69365653156E+01  0.31886039688E+02  0.00000000000E+00 0. -1.
         11    1    3    3    0    0  0.28406711883E+01  0.15393005854E+02  0.75607270876E+00  0.15671173799E+02  0.51100000000E-03 0. -1.
        -11    1    3    3    0    0 -0.27914696300E+02  0.10685794748E+02  0.88730081424E+01  0.31179267994E+02  0.51100000000E-03 0.  1.
        -12    1    3    3    0    0  0.11965585554E+02  0.21483565515E+01 -0.26925155355E+01  0.12451518520E+02  0.00000000000E+00 0.  1.
</event>
<event>
 7    1  0.1284645E-011  0.5930195E+02  0.7816164E-02  0.1266605E+00
        -11   -1    0    0    0    0  0.00000000000E+00  0.00000000000E+00  0.45593999997E+02  0.45594000000E+02  0.51100000000E-03 0. -1.
         11   -1    0    0    0    0 -0.00000000000E+00 -0.00000000000E+00 -0.45593999997E+02  0.45594000000E+02  0.51100000000E-03 0.  1.
    9900012    2    1    2    0    0 -0.15686913880E+02 -0.23762335811E+02 -0.14352437997E+02  0.59301947458E+02  0.50000006256E+02 0.  0.
         12    1    1    2    0    0  0.15686913880E+02  0.23762335811E+02  0.14352437997E+02  0.31886052542E+02  0.00000000000E+00 0. -1.
         11    1    3    3    0    0  0.58378155290E+01 -0.79843499031E+01 -0.72005388689E+01  0.12234283542E+02  0.51100000000E-03 0. -1.
        -11    1    3    3    0    0 -0.66495914933E+01  0.35004904481E+01 -0.18673824520E+02  0.20129138652E+02  0.51100000000E-03 0.  1.
        -12    1    3    3    0    0 -0.14875137916E+02 -0.19278476356E+02  0.11521925393E+02  0.26938525263E+02  0.00000000000E+00 0.  1.
</event>
<event>
 7    1  0.1284645E-011  0.5930171E+02  0.7816164E-02  0.1266606E+00
        -11   -1    0    0    0    0  0.00000000000E+00  0.00000000000E+00  0.45593999997E+02  0.45594000000E+02  0.51100000000E-03 0. -1.
         11   -1    0    0    0    0 -0.00000000000E+00 -0.00000000000E+00 -0.45593999997E+02  0.45594000000E+02  0.51100000000E-03 0.  1.
    9900012    2    1    2    0    0  0.48513508838E+01 -0.18657652610E+02 -0.25398658964E+02  0.59301710102E+02  0.49999573374E+02 0.  0.
         12    1    1    2    0    0 -0.48513508838E+01  0.18657652610E+02  0.25398658964E+02  0.31886289898E+02  0.00000000000E+00 0. -1.
         11    1    3    3    0    0  0.37534995913E+01  0.15356507829E+02 -0.81269792320E+01  0.17775232307E+02  0.51100000000E-03 0. -1.
        -11    1    3    3    0    0 -0.31464294673E+01 -0.13113002999E+02 -0.14853903859E+02  0.20062136630E+02  0.51100000000E-03 0.  1.
        -12    1    3    3    0    0  0.42442807598E+01 -0.20901157439E+02 -0.24177758725E+01  0.21464341165E+02  0.00000000000E+00 0.  1.
</event>
<event>
 7    1  0.1284645E-011  0.5930186E+02  0.7816164E-02  0.1266605E+00
        -11   -1    0    0    0    0  0.00000000000E+00  0.00000000000E+00  0.45593999997E+02  0.45594000000E+02  0.51100000000E-03 0.  1.
         11   -1    0    0    0    0 -0.00000000000E+00 -0.00000000000E+00 -0.45593999997E+02  0.45594000000E+02  0.51100000000E-03 0. -1.
    9900012    2    1    2    0    0 -0.20951827000E+02  0.23954137942E+02  0.19865462110E+01  0.59301856536E+02  0.49999840435E+02 0.  0.
         12    1    1    2    0    0  0.20951827000E+02 -0.23954137942E+02 -0.19865462110E+01  0.31886143464E+02  0.00000000000E+00 0. -1.
         11    1    3    3    0    0  0.93452450734E+01 -0.24256183510E+01 -0.61026667670E+01  0.11421898782E+02  0.51100000000E-03 0. -1.
        -11    1    3    3    0    0  0.32275238789E+01  0.32252875097E+01  0.53687862666E+01  0.70457970555E+01  0.51100000000E-03 0.  1.
        -12    1    3    3    0    0 -0.33524595952E+02  0.23154468783E+02  0.27204267115E+01  0.40834160698E+02  0.00000000000E+00 0.  1.
</event>
<event>
 7    1  0.1284645E-011  0.5930194E+02  0.7816164E-02  0.1266605E+00
        -11   -1    0    0    0    0  0.00000000000E+00  0.00000000000E+00  0.45593999997E+02  0.45594000000E+02  0.51100000000E-03 0. -1.
         11   -1    0    0    0    0 -0.00000000000E+00 -0.00000000000E+00 -0.45593999997E+02  0.45594000000E+02  0.51100000000E-03 0.  1.
    9900012    2    1    2    0    0 -0.53769719304E+01 -0.14025125298E+02 -0.28126590133E+02  0.59301936598E+02  0.49999986450E+02 0.  0.
         12    1    1    2    0    0  0.53769719304E+01  0.14025125298E+02  0.28126590133E+02  0.31886063402E+02  0.00000000000E+00 0. -1.
         11    1    3    3    0    0  0.15355505146E+02 -0.73730169834E+01  0.25520165275E+00  0.17035787211E+02  0.51100000000E-03 0. -1.
        -11    1    3    3    0    0  0.13301871966E+01 -0.10471756683E+01 -0.16503103485E+02  0.16589707645E+02  0.51100000000E-03 0.  1.
        -12    1    3    3    0    0 -0.22062664273E+02 -0.56049326466E+01 -0.11878688301E+02  0.25676441743E+02  0.00000000000E+00 0.  1.
</event>
<event>
 7    1  0.1284645E-011  0.5930200E+02  0.7816164E-02  0.1266605E+00
        -11   -1    0    0    0    0  0.00000000000E+00  0.00000000000E+00  0.45593999997E+02  0.45594000000E+02  0.51100000000E-03 0.  1.
         11   -1    0    0    0    0 -0.00000000000E+00 -0.00000000000E+00 -0.45593999997E+02  0.45594000000E+02  0.51100000000E-03 0. -1.
    9900012    2    1    2    0    0 -0.28479747250E+02 -0.10863754802E+02  0.93594751861E+01  0.59302000759E+02  0.50000103464E+02 0.  0.
         12    1    1    2    0    0  0.28479747250E+02  0.10863754802E+02 -0.93594751861E+01  0.31885999241E+02  0.00000000000E+00 0. -1.
         11    1    3    3    0    0 -0.74294052214E+00  0.89355494444E+01 -0.15804479115E+01  0.91046043491E+01  0.51100000000E-03 0. -1.
        -11    1    3    3    0    0 -0.14741572313E+02 -0.14746930736E+01  0.20904331911E+02  0.25621861112E+02  0.51100000000E-03 0.  1.
        -12    1    3    3    0    0 -0.12995234416E+02 -0.18324611173E+02 -0.99644088139E+01  0.24575535298E+02  0.00000000000E+00 0.  1.
</event>
<event>
 7    1  0.1284645E-011  0.5930194E+02  0.7816164E-02  0.1266605E+00
        -11   -1    0    0    0    0  0.00000000000E+00  0.00000000000E+00  0.45593999997E+02  0.45594000000E+02  0.51100000000E-03 0. -1.
         11   -1    0    0    0    0 -0.00000000000E+00 -0.00000000000E+00 -0.45593999997E+02  0.45594000000E+02  0.51100000000E-03 0.  1.
    9900012    2    1    2    0    0 -0.25869263176E+02  0.53439500208E+01 -0.17859001308E+02  0.59301944947E+02  0.50000001676E+02 0.  0.
         12    1    1    2    0    0  0.25869263176E+02 -0.53439500208E+01  0.17859001308E+02  0.31886055053E+02  0.00000000000E+00 0. -1.
         11    1    3    3    0    0  0.57855562008E+01 -0.20685071631E+01  0.14558563261E+01  0.63143408476E+01  0.51100000000E-03 0. -1.
        -11    1    3    3    0    0  0.59125555878E+00  0.13883316419E+02 -0.13902269683E+02  0.19656275348E+02  0.51100000000E-03 0.  1.
        -12    1    3    3    0    0 -0.32246074936E+02 -0.64708592355E+01 -0.54125879511E+01  0.33331328752E+02  0.00000000000E+00 0.  1.
</event>
<event>
 7    1  0.1284645E-011  0.5930199E+02  0.7816164E-02  0.1266605E+00
        -11   -1    0    0    0    0  0.00000000000E+00  0.00000000000E+00  0.45593999997E+02  0.45594000000E+02  0.51100000000E-03 0.  1.
         11   -1    0    0    0    0 -0.00000000000E+00 -0.00000000000E+00 -0.45593999997E+02  0.45594000000E+02  0.51100000000E-03 0. -1.
    9900012    2    1    2    0    0 -0.29980369690E+02  0.19902913648E+01  0.10673967831E+02  0.59301993418E+02  0.50000090077E+02 0.  0.
         12    1    1    2    0    0  0.29980369690E+02 -0.19902913648E+01 -0.10673967831E+02  0.31886006582E+02  0.00000000000E+00 0. -1.
         11    1    3    3    0    0  0.48512696819E+01  0.97219296534E+01 -0.95393335681E+01  0.14458548298E+02  0.51100000000E-03 0. -1.
        -11    1    3    3    0    0 -0.29891643595E+02 -0.36402021347E+01  0.81742319402E+01  0.31202235441E+02  0.51100000000E-03 0.  1.
        -12    1    3    3    0    0 -0.49399957763E+01 -0.40914361539E+01  0.12039069459E+02  0.13641209679E+02  0.00000000000E+00 0.  1.
</event>
<event>
 7    1  0.1284645E-011  0.5930195E+02  0.7816164E-02  0.1266605E+00
        -11   -1    0    0    0    0  0.00000000000E+00  0.00000000000E+00  0.45593999997E+02  0.45594000000E+02  0.51100000000E-03 0.  1.
         11   -1    0    0    0    0 -0.00000000000E+00 -0.00000000000E+00 -0.45593999997E+02  0.45594000000E+02  0.51100000000E-03 0. -1.
    9900012    2    1    2    0    0  0.23558927881E+02 -0.16870271744E+02  0.13307557529E+02  0.59301949147E+02  0.50000009336E+02 0.  0.
         12    1    1    2    0    0 -0.23558927881E+02  0.16870271744E+02 -0.13307557529E+02  0.31886050853E+02  0.00000000000E+00 0. -1.
         11    1    3    3    0    0 -0.26458190030E+00  0.58531111491E+01  0.90337036126E+01  0.10767391278E+02  0.51100000000E-03 0. -1.
        -11    1    3    3    0    0  0.12720024760E+02 -0.23867983166E+02  0.16735235188E+02  0.31804838427E+02  0.51100000000E-03 0.  1.
         12    1    3    3    0    0  0.11103485022E+02  0.11446002729E+01 -0.12461381272E+02  0.16729719442E+02  0.00000000000E+00 0. -1.
</event>
<event>
 7    1  0.1284645E-011  0.5930195E+02  0.7816164E-02  0.1266605E+00
        -11   -1    0    0    0    0  0.00000000000E+00  0.00000000000E+00  0.45593999997E+02  0.45594000000E+02  0.51100000000E-03 0. -1.
         11   -1    0    0    0    0 -0.00000000000E+00 -0.00000000000E+00 -0.45593999997E+02  0.45594000000E+02  0.51100000000E-03 0.  1.
    9900012    2    1    2    0    0 -0.65079296078E+01  0.30964002875E+02 -0.39493809261E+01  0.59301949265E+02  0.50000009551E+02 0.  0.
         12    1    1    2    0    0  0.65079296078E+01 -0.30964002875E+02  0.39493809261E+01  0.31886050735E+02  0.00000000000E+00 0. -1.
         11    1    3    3    0    0 -0.10785156730E+02  0.12275871637E+02  0.13758957580E+02  0.21361777643E+02  0.51100000000E-03 0. -1.
        -11    1    3    3    0    0 -0.72107797211E+00  0.24545784453E+02 -0.86132531014E+01  0.26023136188E+02  0.51100000000E-03 0.  1.
         12    1    3    3    0    0  0.49983050939E+01 -0.58576532150E+01 -0.90950854046E+01  0.11917035433E+02  0.00000000000E+00 0. -1.
</event>
<event>
 7    1  0.1284645E-011  0.5930204E+02  0.7816164E-02  0.1266604E+00
        -11   -1    0    0    0    0  0.00000000000E+00  0.00000000000E+00  0.45593999997E+02  0.45594000000E+02  0.51100000000E-03 0.  1.
         11   -1    0    0    0    0 -0.00000000000E+00 -0.00000000000E+00 -0.45593999997E+02  0.45594000000E+02  0.51100000000E-03 0. -1.
    9900012    2    1    2    0    0  0.31638517390E+02  0.39413250249E+01  0.42988969606E+00  0.59302037090E+02  0.50000169722E+02 0.  0.
         12    1    1    2    0    0 -0.31638517390E+02 -0.39413250249E+01 -0.42988969606E+00  0.31885962910E+02  0.00000000000E+00 0. -1.
         11    1    3    3    0    0  0.33829848483E+01 -0.38945880040E+00 -0.73510293268E+01  0.81014749932E+01  0.51100000000E-03 0. -1.
        -11    1    3    3    0    0  0.37002756838E+02  0.11014183834E+02  0.17461557604E+01  0.38646672811E+02  0.51100000000E-03 0.  1.
         12    1    3    3    0    0 -0.87472242962E+01 -0.66834000091E+01  0.60347632624E+01  0.12553889286E+02  0.00000000000E+00 0. -1.
</event>
<event>
 7    1  0.1284645E-011  0.5930193E+02  0.7816164E-02  0.1266605E+00
        -11   -1    0    0    0    0  0.00000000000E+00  0.00000000000E+00  0.45593999997E+02  0.45594000000E+02  0.51100000000E-03 0. -1.
         11   -1    0    0    0    0 -0.00000000000E+00 -0.00000000000E+00 -0.45593999997E+02  0.45594000000E+02  0.51100000000E-03 0.  1.
    9900012    2    1    2    0    0  0.30284154051E+02  0.13170313842E+01 -0.98922755881E+01  0.59301926636E+02  0.49999968282E+02 0.  0.
         12    1    1    2    0    0 -0.30284154051E+02 -0.13170313842E+01  0.98922755881E+01  0.31886073364E+02  0.00000000000E+00 0. -1.
         11    1    3    3    0    0 -0.29764477277E+01  0.17441686286E+01  0.37224785951E+01  0.50752549131E+01  0.51100000000E-03 0. -1.
        -11    1    3    3    0    0 -0.75555659160E+01 -0.78389438013E+01 -0.13678920479E+01  0.10973000736E+02  0.51100000000E-03 0.  1.
        -12    1    3    3    0    0  0.40816167695E+02  0.74118065569E+01 -0.12246862135E+02  0.43253670987E+02  0.00000000000E+00 0.  1.
</event>
<event>
 7    1  0.1284645E-011  0.5930195E+02  0.7816164E-02  0.1266605E+00
        -11   -1    0    0    0    0  0.00000000000E+00  0.00000000000E+00  0.45593999997E+02  0.45594000000E+02  0.51100000000E-03 0.  1.
         11   -1    0    0    0    0 -0.00000000000E+00 -0.00000000000E+00 -0.45593999997E+02  0.45594000000E+02  0.51100000000E-03 0. -1.
    9900012    2    1    2    0    0  0.20313171429E+02  0.17843647092E+02  0.16902641151E+02  0.59301953633E+02  0.50000017517E+02 0.  0.
         12    1    1    2    0    0 -0.20313171429E+02 -0.17843647092E+02 -0.16902641151E+02  0.31886046367E+02  0.00000000000E+00 0. -1.
         11    1    3    3    0    0  0.14084626493E+02  0.45326357020E+00  0.93865589785E+01  0.16931911913E+02  0.51100000000E-03 0. -1.
        -11    1    3    3    0    0  0.53075412822E+01  0.22915733824E+02  0.18575789863E+02  0.29972667890E+02  0.51100000000E-03 0.  1.
         12    1    3    3    0    0  0.92100365376E+00 -0.55253503024E+01 -0.11059707690E+02  0.12397373830E+02  0.00000000000E+00 0. -1.
</event>
<event>
 7    1  0.1284645E-011  0.5930194E+02  0.7816164E-02  0.1266605E+00
        -11   -1    0    0    0    0  0.00000000000E+00  0.00000000000E+00  0.45593999997E+02  0.45594000000E+02  0.51100000000E-03 0.  1.
         11   -1    0    0    0    0 -0.00000000000E+00 -0.00000000000E+00 -0.45593999997E+02  0.45594000000E+02  0.51100000000E-03 0. -1.
    9900012    2    1    2    0    0  0.24089889698E+02  0.57305021231E+01  0.20088785681E+02  0.59301941128E+02  0.49999994712E+02 0.  0.
         12    1    1    2    0    0 -0.24089889698E+02 -0.57305021231E+01 -0.20088785681E+02  0.31886058872E+02  0.00000000000E+00 0. -1.
         11    1    3    3    0    0 -0.73220034109E+01  0.95648305177E+01 -0.30818079381E+01  0.12433634111E+02  0.51100000000E-03 0. -1.
        -11    1    3    3    0    0  0.36069326674E+01 -0.11256051330E+02  0.85564503347E+01  0.14591829817E+02  0.51100000000E-03 0.  1.
        -12    1    3    3    0    0  0.27804960442E+02  0.74217229359E+01  0.14614143284E+02  0.32276477200E+02  0.00000000000E+00 0.  1.
</event>
<event>
 7    1  0.1284645E-011  0.5930193E+02  0.7816164E-02  0.1266605E+00
        -11   -1    0    0    0    0  0.00000000000E+00  0.00000000000E+00  0.45593999997E+02  0.45594000000E+02  0.51100000000E-03 0.  1.
         11   -1    0    0    0    0 -0.00000000000E+00 -0.00000000000E+00 -0.45593999997E+02  0.45594000000E+02  0.51100000000E-03 0. -1.
    9900012    2    1    2    0    0  0.12089332550E+02 -0.15695927133E+02  0.24984141534E+02  0.59301930655E+02  0.49999975611E+02 0.  0.
         12    1    1    2    0    0 -0.12089332550E+02  0.15695927133E+02 -0.24984141534E+02  0.31886069345E+02  0.00000000000E+00 0. -1.
         11    1    3    3    0    0 -0.65361514588E+00  0.55568715727E+01  0.61571417386E+01  0.83196411632E+01  0.51100000000E-03 0. -1.
        -11    1    3    3    0    0 -0.10392812986E+02 -0.13168698969E+02  0.20414999049E+02  0.26423424849E+02  0.51100000000E-03 0.  1.
        -12    1    3    3    0    0  0.23135760682E+02 -0.80840997372E+01 -0.15879992536E+01  0.24558864642E+02  0.00000000000E+00 0.  1.
</event>
<event>
 7    1  0.1284645E-011  0.5930193E+02  0.7816164E-02  0.1266605E+00
        -11   -1    0    0    0    0  0.00000000000E+00  0.00000000000E+00  0.45593999997E+02  0.45594000000E+02  0.51100000000E-03 0.  1.
         11   -1    0    0    0    0 -0.00000000000E+00 -0.00000000000E+00 -0.45593999997E+02  0.45594000000E+02  0.51100000000E-03 0. -1.
    9900012    2    1    2    0    0  0.11378015375E+02 -0.28810279513E+02 -0.75650521390E+01  0.59301930105E+02  0.49999974609E+02 0.  0.
         12    1    1    2    0    0 -0.11378015375E+02  0.28810279513E+02  0.75650521390E+01  0.31886069895E+02  0.00000000000E+00 0. -1.
         11    1    3    3    0    0 -0.42657670266E+01  0.17200631779E+01 -0.57465626953E+01  0.73605956779E+01  0.51100000000E-03 0. -1.
        -11    1    3    3    0    0 -0.25936795131E+01 -0.27412259821E+02 -0.12865629968E+02  0.30392163408E+02  0.51100000000E-03 0.  1.
        -12    1    3    3    0    0  0.18237461914E+02 -0.31180828693E+01  0.11047140524E+02  0.21549171019E+02  0.00000000000E+00 0.  1.
</event>
<event>
 7    1  0.1284645E-011  0.5930195E+02  0.7816164E-02  0.1266605E+00
        -11   -1    0    0    0    0  0.00000000000E+00  0.00000000000E+00  0.45593999997E+02  0.45594000000E+02  0.51100000000E-03 0. -1.
         11   -1    0    0    0    0 -0.00000000000E+00 -0.00000000000E+00 -0.45593999997E+02  0.45594000000E+02  0.51100000000E-03 0.  1.
    9900012    2    1    2    0    0 -0.25854992580E+02  0.93514388886E+01  0.16148989953E+02  0.59301954037E+02  0.50000018255E+02 0.  0.
         12    1    1    2    0    0  0.25854992580E+02 -0.93514388886E+01 -0.16148989953E+02  0.31886045963E+02  0.00000000000E+00 0. -1.
         11    1    3    3    0    0  0.59223977555E+01 -0.55556692233E+00 -0.21733332256E+01  0.63329951327E+01  0.51100000000E-03 0. -1.
        -11    1    3    3    0    0  0.44519544055E+01 -0.61528758491E+01 -0.27602633162E+01  0.80806455856E+01  0.51100000000E-03 0.  1.
        -12    1    3    3    0    0 -0.36229344741E+02  0.16059881660E+02  0.21082586495E+02  0.44888313319E+02  0.00000000000E+00 0.  1.
</event>
<event>
 7    1  0.1284645E-011  0.5930195E+02  0.7816164E-02  0.1266605E+00
        -11   -1    0    0    0    0  0.00000000000E+00  0.00000000000E+00  0.45593999997E+02  0.45594000000E+02  0.51100000000E-03 0.  1.
         11   -1    0    0    0    0 -0.00000000000E+00 -0.00000000000E+00 -0.45593999997E+02  0.45594000000E+02  0.51100000000E-03 0. -1.
    9900012    2    1    2    0    0 -0.30854088077E+02 -0.80375971133E+01 -0.37723882838E+00  0.59301952463E+02  0.50000015383E+02 0.  0.
         12    1    1    2    0    0  0.30854088077E+02  0.80375971133E+01  0.37723882838E+00  0.31886047537E+02  0.00000000000E+00 0. -1.
         11    1    3    3    0    0 -0.43495543687E+01  0.24351382956E+01 -0.10683657547E+02  0.11789362178E+02  0.51100000000E-03 0. -1.
        -11    1    3    3    0    0 -0.29326362612E+02  0.51965498928E+01  0.28123216235E+01  0.29915695345E+02  0.51100000000E-03 0.  1.
         12    1    3    3    0    0  0.28218289036E+01 -0.15669285302E+02  0.74940970952E+01  0.17596894939E+02  0.00000000000E+00 0. -1.
</event>
<event>
 7    1  0.1284645E-011  0.5930208E+02  0.7816164E-02  0.1266604E+00
        -11   -1    0    0    0    0  0.00000000000E+00  0.00000000000E+00  0.45593999997E+02  0.45594000000E+02  0.51100000000E-03 0.  1.
         11   -1    0    0    0    0 -0.00000000000E+00 -0.00000000000E+00 -0.45593999997E+02  0.45594000000E+02  0.51100000000E-03 0. -1.
    9900012    2    1    2    0    0  0.20742873583E+02 -0.19986723888E+02  0.13673912962E+02  0.59302080977E+02  0.50000249762E+02 0.  0.
         12    1    1    2    0    0 -0.20742873583E+02  0.19986723888E+02 -0.13673912962E+02  0.31885919023E+02  0.00000000000E+00 0. -1.
         11    1    3    3    0    0  0.26145159738E+00 -0.95284250820E+01 -0.53194359169E+01  0.10915843541E+02  0.51100000000E-03 0. -1.
        -11    1    3    3    0    0  0.31718942192E+02 -0.78469190790E+01  0.16406612930E+02  0.36562855207E+02  0.51100000000E-03 0.  1.
         12    1    3    3    0    0 -0.11237520206E+02 -0.26113797266E+01  0.25867359493E+01  0.11823382229E+02  0.00000000000E+00 0. -1.
</event>
<event>
 7    1  0.1284645E-011  0.5930195E+02  0.7816164E-02  0.1266605E+00
        -11   -1    0    0    0    0  0.00000000000E+00  0.00000000000E+00  0.45593999997E+02  0.45594000000E+02  0.51100000000E-03 0. -1.
         11   -1    0    0    0    0 -0.00000000000E+00 -0.00000000000E+00 -0.45593999997E+02  0.45594000000E+02  0.51100000000E-03 0.  1.
    9900012    2    1    2    0    0  0.17282025551E+02  0.26370692769E+02  0.47579738113E+01  0.59301950401E+02  0.50000011623E+02 0.  0.
         12    1    1    2    0    0 -0.17282025551E+02 -0.26370692769E+02 -0.47579738113E+01  0.31886049599E+02  0.00000000000E+00 0. -1.
         11    1    3    3    0    0 -0.19963451673E+00  0.84900918646E+00 -0.14466238867E+01  0.16891984696E+01  0.51100000000E-03 0. -1.
        -11    1    3    3    0    0  0.25024095179E+02  0.27300189882E+02 -0.11092247561E+02  0.38659328283E+02  0.51100000000E-03 0.  1.
         12    1    3    3    0    0 -0.75424351110E+01 -0.17785062997E+01  0.17296845259E+02  0.18953423648E+02  0.00000000000E+00 0. -1.
</event>
<event>
 7    1  0.1284645E-011  0.5930193E+02  0.7816164E-02  0.1266605E+00
        -11   -1    0    0    0    0  0.00000000000E+00  0.00000000000E+00  0.45593999997E+02  0.45594000000E+02  0.51100000000E-03 0.  1.
         11   -1    0    0    0    0 -0.00000000000E+00 -0.00000000000E+00 -0.45593999997E+02  0.45594000000E+02  0.51100000000E-03 0. -1.
    9900012    2    1    2    0    0 -0.15896076127E+02  0.23407968553E+02 -0.14700451398E+02  0.59301929384E+02  0.49999973294E+02 0.  0.
         12    1    1    2    0    0  0.15896076127E+02 -0.23407968553E+02  0.14700451398E+02  0.31886070616E+02  0.00000000000E+00 0. -1.
         11    1    3    3    0    0 -0.21455336271E+02  0.17140678185E+01 -0.10379659983E+02  0.23895749091E+02  0.51100000000E-03 0.  1.
        -11    1    3    3    0    0 -0.51689930650E+01  0.19618364167E+02 -0.10509293650E+02  0.22848281230E+02  0.51100000000E-03 0. -1.
        -12    1    3    3    0    0  0.10728253210E+02  0.20755365677E+01  0.61885022349E+01  0.12557899063E+02  0.00000000000E+00 0.  1.
</event>
<event>
 7    1  0.1284645E-011  0.5930197E+02  0.7816164E-02  0.1266605E+00
        -11   -1    0    0    0    0  0.00000000000E+00  0.00000000000E+00  0.45593999997E+02  0.45594000000E+02  0.51100000000E-03 0.  1.
         11   -1    0    0    0    0 -0.00000000000E+00 -0.00000000000E+00 -0.45593999997E+02  0.45594000000E+02  0.51100000000E-03 0. -1.
    9900012    2    1    2    0    0 -0.17859649577E+02 -0.13828117959E+02  0.22506338871E+02  0.59301965147E+02  0.50000038516E+02 0.  0.
         12    1    1    2    0    0  0.17859649577E+02  0.13828117959E+02 -0.22506338871E+02  0.31886034853E+02  0.00000000000E+00 0. -1.
         11    1    3    3    0    0  0.93358301706E+01  0.21658873192E+01 -0.43679689567E+01  0.10532233663E+02  0.51100000000E-03 0. -1.
        -11    1    3    3    0    0 -0.14289159521E+02  0.61757228062E+00  0.23434457897E+02  0.27454239974E+02  0.51100000000E-03 0.  1.
         12    1    3    3    0    0 -0.12906320227E+02 -0.16611577558E+02  0.34398499301E+01  0.21315491510E+02  0.00000000000E+00 0. -1.
</event>
<event>
 7    1  0.1284645E-011  0.5930194E+02  0.7816164E-02  0.1266605E+00
        -11   -1    0    0    0    0  0.00000000000E+00  0.00000000000E+00  0.45593999997E+02  0.45594000000E+02  0.51100000000E-03 0.  1.
         11   -1    0    0    0    0 -0.00000000000E+00 -0.00000000000E+00 -0.45593999997E+02  0.45594000000E+02  0.51100000000E-03 0. -1.
    9900012    2    1    2    0    0  0.26302372716E+02 -0.20387998826E+01  0.17909474232E+02  0.59301940621E+02  0.49999993786E+02 0.  0.
         12    1    1    2    0    0 -0.26302372716E+02  0.20387998826E+01 -0.17909474232E+02  0.31886059379E+02  0.00000000000E+00 0. -1.
         11    1    3    3    0    0  0.19670734896E+02  0.63573668984E+00 -0.69566278816E+01  0.20874305839E+02  0.51100000000E-03 0. -1.
        -11    1    3    3    0    0  0.51120196148E+01 -0.12522990534E+02  0.22481045197E+01  0.13711747177E+02  0.51100000000E-03 0.  1.
         12    1    3    3    0    0  0.15196182053E+01  0.98484539616E+01  0.22617997594E+02  0.24715887605E+02  0.00000000000E+00 0. -1.
</event>
<event>
 7    1  0.1284645E-011  0.5930193E+02  0.7816164E-02  0.1266605E+00
        -11   -1    0    0    0    0  0.00000000000E+00  0.00000000000E+00  0.45593999997E+02  0.45594000000E+02  0.51100000000E-03 0. -1.
         11   -1    0    0    0    0 -0.00000000000E+00 -0.00000000000E+00 -0.45593999997E+02  0.45594000000E+02  0.51100000000E-03 0.  1.
    9900012    2    1    2    0    0 -0.24761555391E+02 -0.15929502100E+02  0.12240833506E+02  0.59301926748E+02  0.49999968485E+02 0.  0.
         12    1    1    2    0    0  0.24761555391E+02  0.15929502100E+02 -0.12240833506E+02  0.31886073252E+02  0.00000000000E+00 0. -1.
         11    1    3    3    0    0 -0.10427362263E+02 -0.24675086174E+01 -0.52998889641E+01  0.11954384377E+02  0.51100000000E-03 0. -1.
        -11    1    3    3    0    0 -0.19733731326E+02 -0.44676368393E+01 -0.63901504083E+01  0.21218245768E+02  0.51100000000E-03 0.  1.
         12    1    3    3    0    0  0.53995381988E+01 -0.89943566437E+01  0.23930872878E+02  0.26129296602E+02  0.00000000000E+00 0. -1.
</event>
<event>
 7    1  0.1284645E-011  0.5930195E+02  0.7816164E-02  0.1266605E+00
        -11   -1    0    0    0    0  0.00000000000E+00  0.00000000000E+00  0.45593999997E+02  0.45594000000E+02  0.51100000000E-03 0. -1.
         11   -1    0    0    0    0 -0.00000000000E+00 -0.00000000000E+00 -0.45593999997E+02  0.45594000000E+02  0.51100000000E-03 0.  1.
    9900012    2    1    2    0    0 -0.75996352918E+01  0.23110910554E+02 -0.20611933180E+02  0.59301946111E+02  0.50000003799E+02 0.  0.
         12    1    1    2    0    0  0.75996352918E+01 -0.23110910554E+02  0.20611933180E+02  0.31886053889E+02  0.00000000000E+00 0. -1.
         11    1    3    3    0    0 -0.41233913547E+01  0.20529978006E+02 -0.15581084125E+02  0.26100814852E+02  0.51100000000E-03 0. -1.
        -11    1    3    3    0    0 -0.31888993731E+01  0.10754412060E+02 -0.15986581063E+02  0.19529394059E+02  0.51100000000E-03 0.  1.
         12    1    3    3    0    0 -0.28734456407E+00 -0.81734795121E+01  0.10955732007E+02  0.13671737199E+02  0.00000000000E+00 0. -1.
</event>
<event>
 7    1  0.1284645E-011  0.5930193E+02  0.7816164E-02  0.1266605E+00
        -11   -1    0    0    0    0  0.00000000000E+00  0.00000000000E+00  0.45593999997E+02  0.45594000000E+02  0.51100000000E-03 0. -1.
         11   -1    0    0    0    0 -0.00000000000E+00 -0.00000000000E+00 -0.45593999997E+02  0.45594000000E+02  0.51100000000E-03 0.  1.
    9900012    2    1    2    0    0  0.23934387225E+02  0.21068019920E+02  0.69502553541E-01  0.59301934300E+02  0.49999982259E+02 0.  0.
         12    1    1    2    0    0 -0.23934387225E+02 -0.21068019920E+02 -0.69502553541E-01  0.31886065700E+02  0.00000000000E+00 0. -1.
         11    1    3    3    0    0  0.15296056695E+02  0.16866859084E+02 -0.76558428785E+01  0.24022327453E+02  0.51100000000E-03 0. -1.
        -11    1    3    3    0    0  0.83399543041E+01  0.17981829377E+02  0.76125778812E+00  0.19836343898E+02  0.51100000000E-03 0.  1.
         12    1    3    3    0    0  0.29837622605E+00 -0.13780668541E+02  0.69640876439E+01  0.15443262950E+02  0.00000000000E+00 0. -1.
</event>
<event>
 7    1  0.1284645E-011  0.5930195E+02  0.7816164E-02  0.1266605E+00
        -11   -1    0    0    0    0  0.00000000000E+00  0.00000000000E+00  0.45593999997E+02  0.45594000000E+02  0.51100000000E-03 0.  1.
         11   -1    0    0    0    0 -0.00000000000E+00 -0.00000000000E+00 -0.45593999997E+02  0.45594000000E+02  0.51100000000E-03 0. -1.
    9900012    2    1    2    0    0  0.80463175734E+01 -0.21070464073E+02  0.22539128815E+02  0.59301952730E+02  0.50000015872E+02 0.  0.
         12    1    1    2    0    0 -0.80463175734E+01  0.21070464073E+02 -0.22539128815E+02  0.31886047270E+02  0.00000000000E+00 0. -1.
         11    1    3    3    0    0  0.44555688296E+01 -0.69769321856E+01  0.88076955553E+01  0.12087397469E+02  0.51100000000E-03 0. -1.
        -11    1    3    3    0    0  0.48965943072E+01 -0.23933260955E+02  0.23059416446E+02  0.33593366947E+02  0.51100000000E-03 0.  1.
         12    1    3    3    0    0 -0.13058455633E+01  0.98397290675E+01 -0.93279831869E+01  0.13621188314E+02  0.00000000000E+00 0. -1.
</event>
<event>
 7    1  0.1284645E-011  0.5930194E+02  0.7816164E-02  0.1266605E+00
        -11   -1    0    0    0    0  0.00000000000E+00  0.00000000000E+00  0.45593999997E+02  0.45594000000E+02  0.51100000000E-03 0. -1.
         11   -1    0    0    0    0 -0.00000000000E+00 -0.00000000000E+00 -0.45593999997E+02  0.45594000000E+02  0.51100000000E-03 0.  1.
    9900012    2    1    2    0    0 -0.22343702984E+02  0.67516541437E+01 -0.21723144782E+02  0.59301938532E+02  0.49999989977E+02 0.  0.
         12    1    1    2    0    0  0.22343702984E+02 -0.67516541437E+01  0.21723144782E+02  0.31886061468E+02  0.00000000000E+00 0. -1.
         11    1    3    3    0    0  0.49107174835E+01 -0.35314756979E+01 -0.47149065411E+01  0.76692118734E+01  0.51100000000E-03 0. -1.
        -11    1    3    3    0    0 -0.34010731898E+02 -0.25638946148E+01 -0.10197767899E+02  0.35599127942E+02  0.51100000000E-03 0.  1.
         12    1    3    3    0    0  0.67563114306E+01  0.12847024456E+02 -0.68104703419E+01  0.16033598717E+02  0.00000000000E+00 0. -1.
</event>
<event>
 7    1  0.1284645E-011  0.5930194E+02  0.7816164E-02  0.1266605E+00
        -11   -1    0    0    0    0  0.00000000000E+00  0.00000000000E+00  0.45593999997E+02  0.45594000000E+02  0.51100000000E-03 0.  1.
         11   -1    0    0    0    0 -0.00000000000E+00 -0.00000000000E+00 -0.45593999997E+02  0.45594000000E+02  0.51100000000E-03 0. -1.
    9900012    2    1    2    0    0  0.19927978483E+02 -0.23732326118E+02 -0.75082028166E+01  0.59301941308E+02  0.49999995039E+02 0.  0.
         12    1    1    2    0    0 -0.19927978483E+02  0.23732326118E+02  0.75082028166E+01  0.31886058692E+02  0.00000000000E+00 0. -1.
         11    1    3    3    0    0  0.18723125173E+02 -0.12875842251E+02 -0.92019995873E+01  0.24515699594E+02  0.51100000000E-03 0. -1.
        -11    1    3    3    0    0  0.14371457184E+02  0.11322869017E+01  0.72448021251E+01  0.16134063757E+02  0.51100000000E-03 0.  1.
         12    1    3    3    0    0 -0.13166603873E+02 -0.11988770768E+02 -0.55510053543E+01  0.18652177957E+02  0.00000000000E+00 0. -1.
</event>
<event>
 7    1  0.1284645E-011  0.5930194E+02  0.7816164E-02  0.1266605E+00
        -11   -1    0    0    0    0  0.00000000000E+00  0.00000000000E+00  0.45593999997E+02  0.45594000000E+02  0.51100000000E-03 0.  1.
         11   -1    0    0    0    0 -0.00000000000E+00 -0.00000000000E+00 -0.45593999997E+02  0.45594000000E+02  0.51100000000E-03 0. -1.
    9900012    2    1    2    0    0 -0.12301515968E+02  0.16289088482E+01  0.29372437051E+02  0.59301941958E+02  0.49999996225E+02 0.  0.
         12    1    1    2    0    0  0.12301515968E+02 -0.16289088482E+01 -0.29372437051E+02  0.31886058042E+02  0.00000000000E+00 0. -1.
         11    1    3    3    0    0 -0.63884473571E+01  0.96924560961E+01  0.46280648872E+01  0.12496997626E+02  0.51100000000E-03 0. -1.
        -11    1    3    3    0    0 -0.53665504309E+01  0.15367701206E+02  0.10752593759E+02  0.19508571877E+02  0.51100000000E-03 0.  1.
        -12    1    3    3    0    0 -0.54651817959E+00 -0.23431248454E+02  0.13991778405E+02  0.27296372454E+02  0.00000000000E+00 0.  1.
</event>
<event>
 7    1  0.1284645E-011  0.5930194E+02  0.7816164E-02  0.1266605E+00
        -11   -1    0    0    0    0  0.00000000000E+00  0.00000000000E+00  0.45593999997E+02  0.45594000000E+02  0.51100000000E-03 0.  1.
         11   -1    0    0    0    0 -0.00000000000E+00 -0.00000000000E+00 -0.45593999997E+02  0.45594000000E+02  0.51100000000E-03 0. -1.
    9900012    2    1    2    0    0 -0.74974000720E+01 -0.29852019480E+02  0.83286564471E+01  0.59301943594E+02  0.49999999210E+02 0.  0.
         12    1    1    2    0    0  0.74974000720E+01  0.29852019480E+02 -0.83286564471E+01  0.31886056406E+02  0.00000000000E+00 0. -1.
         11    1    3    3    0    0  0.10854637337E+02 -0.10982186478E+02  0.68632988190E+01  0.16897823602E+02  0.51100000000E-03 0. -1.
        -11    1    3    3    0    0 -0.16954818553E+02  0.42024396661E+01 -0.54138955466E+01  0.18287608826E+02  0.51100000000E-03 0.  1.
         12    1    3    3    0    0 -0.13972188558E+01 -0.23072272668E+02  0.68792531747E+01  0.24116511167E+02  0.00000000000E+00 0. -1.
</event>
<event>
 7    1  0.1284645E-011  0.5930192E+02  0.7816164E-02  0.1266605E+00
        -11   -1    0    0    0    0  0.00000000000E+00  0.00000000000E+00  0.45593999997E+02  0.45594000000E+02  0.51100000000E-03 0. -1.
         11   -1    0    0    0    0 -0.00000000000E+00 -0.00000000000E+00 -0.45593999997E+02  0.45594000000E+02  0.51100000000E-03 0.  1.
    9900012    2    1    2    0    0 -0.12979498683E+02 -0.26001508042E+02 -0.13121606397E+02  0.59301915872E+02  0.49999948652E+02 0.  0.
         12    1    1    2    0    0  0.12979498683E+02  0.26001508042E+02  0.13121606397E+02  0.31886084128E+02  0.00000000000E+00 0. -1.
         11    1    3    3    0    0 -0.18771789748E+02 -0.14313878610E+02  0.34573559444E+01  0.23858342809E+02  0.51100000000E-03 0. -1.
        -11    1    3    3    0    0  0.69490296888E+00 -0.20001704737E+02 -0.16089101778E+02  0.25678985159E+02  0.51100000000E-03 0.  1.
        -12    1    3    3    0    0  0.50973880955E+01  0.83140753049E+01 -0.48986056390E+00  0.97645879045E+01  0.00000000000E+00 0.  1.
</event>
<event>
 7    1  0.1284645E-011  0.5930197E+02  0.7816164E-02  0.1266605E+00
        -11   -1    0    0    0    0  0.00000000000E+00  0.00000000000E+00  0.45593999997E+02  0.45594000000E+02  0.51100000000E-03 0. -1.
         11   -1    0    0    0    0 -0.00000000000E+00 -0.00000000000E+00 -0.45593999997E+02  0.45594000000E+02  0.51100000000E-03 0.  1.
    9900012    2    1    2    0    0  0.89980266123E+00 -0.31865715156E+02  0.69652276685E+00  0.59301974986E+02  0.50000056460E+02 0.  0.
         12    1    1    2    0    0 -0.89980266123E+00  0.31865715156E+02 -0.69652276685E+00  0.31886025014E+02  0.00000000000E+00 0. -1.
         11    1    3    3    0    0 -0.81789560128E+01  0.42833895796E+00 -0.92053477182E+01  0.12321413174E+02  0.51100000000E-03 0. -1.
        -11    1    3    3    0    0 -0.95310692922E+00 -0.26371279696E+02 -0.61992294334E+01  0.27106885683E+02  0.51100000000E-03 0.  1.
        -12    1    3    3    0    0  0.10031865603E+02 -0.59227744178E+01  0.16101099918E+02  0.19873676129E+02  0.00000000000E+00 0.  1.
</event>
<event>
 7    1  0.1284645E-011  0.5930194E+02  0.7816164E-02  0.1266605E+00
        -11   -1    0    0    0    0  0.00000000000E+00  0.00000000000E+00  0.45593999997E+02  0.45594000000E+02  0.51100000000E-03 0. -1.
         11   -1    0    0    0    0 -0.00000000000E+00 -0.00000000000E+00 -0.45593999997E+02  0.45594000000E+02  0.51100000000E-03 0.  1.
    9900012    2    1    2    0    0  0.67577447436E+01  0.24961015851E+02 -0.18654803344E+02  0.59301935424E+02  0.49999984310E+02 0.  0.
         12    1    1    2    0    0 -0.67577447436E+01 -0.24961015851E+02  0.18654803344E+02  0.31886064576E+02  0.00000000000E+00 0. -1.
         11    1    3    3    0    0  0.73850490264E+01  0.20844434904E+01  0.51879441376E+01  0.92627543648E+01  0.51100000000E-03 0.  1.
        -11    1    3    3    0    0  0.75371145805E+01  0.73955452765E+01  0.83062221667E+01  0.13434861856E+02  0.51100000000E-03 0. -1.
        -12    1    3    3    0    0 -0.81644188633E+01  0.15481027084E+02 -0.32148969648E+02  0.36604319204E+02  0.00000000000E+00 0.  1.
</event>
<event>
 7    1  0.1284645E-011  0.5930200E+02  0.7816164E-02  0.1266605E+00
        -11   -1    0    0    0    0  0.00000000000E+00  0.00000000000E+00  0.45593999997E+02  0.45594000000E+02  0.51100000000E-03 0.  1.
         11   -1    0    0    0    0 -0.00000000000E+00 -0.00000000000E+00 -0.45593999997E+02  0.45594000000E+02  0.51100000000E-03 0. -1.
    9900012    2    1    2    0    0  0.83431801658E+01  0.29835977385E+02  0.75447072049E+01  0.59302002938E+02  0.50000107438E+02 0.  0.
         12    1    1    2    0    0 -0.83431801658E+01 -0.29835977385E+02 -0.75447072049E+01  0.31885997062E+02  0.00000000000E+00 0. -1.
         11    1    3    3    0    0 -0.83814044303E+01  0.12543702086E+02  0.52200781215E+01  0.15963759523E+02  0.51100000000E-03 0. -1.
        -11    1    3    3    0    0 -0.84065200602E+01  0.81552710561E+01  0.10126246322E+02  0.15482857952E+02  0.51100000000E-03 0.  1.
         12    1    3    3    0    0  0.25131104656E+02  0.91370042430E+01 -0.78016172384E+01  0.27855385463E+02  0.00000000000E+00 0. -1.
</event>
<event>
 7    1  0.1284645E-011  0.5930192E+02  0.7816164E-02  0.1266605E+00
        -11   -1    0    0    0    0  0.00000000000E+00  0.00000000000E+00  0.45593999997E+02  0.45594000000E+02  0.51100000000E-03 0. -1.
         11   -1    0    0    0    0 -0.00000000000E+00 -0.00000000000E+00 -0.45593999997E+02  0.45594000000E+02  0.51100000000E-03 0.  1.
    9900012    2    1    2    0    0  0.10183281202E+02 -0.28356994090E+02  0.10435701618E+02  0.59301918426E+02  0.49999953309E+02 0.  0.
         12    1    1    2    0    0 -0.10183281202E+02  0.28356994090E+02 -0.10435701618E+02  0.31886081574E+02  0.00000000000E+00 0. -1.
         11    1    3    3    0    0  0.22962890941E+01  0.77019204315E+01  0.15174497732E+02  0.17171426954E+02  0.51100000000E-03 0. -1.
        -11    1    3    3    0    0  0.10158482605E+02 -0.13424213959E+02 -0.88413958747E+01  0.19015114265E+02  0.51100000000E-03 0.  1.
        -12    1    3    3    0    0 -0.22714904967E+01 -0.22634700563E+02  0.41025997608E+01  0.23115377207E+02  0.00000000000E+00 0.  1.
</event>
<event>
 7    1  0.1284645E-011  0.5930186E+02  0.7816164E-02  0.1266605E+00
        -11   -1    0    0    0    0  0.00000000000E+00  0.00000000000E+00  0.45593999997E+02  0.45594000000E+02  0.51100000000E-03 0. -1.
         11   -1    0    0    0    0 -0.00000000000E+00 -0.00000000000E+00 -0.45593999997E+02  0.45594000000E+02  0.51100000000E-03 0.  1.
    9900012    2    1    2    0    0 -0.17926099661E+02  0.79654282813E+01 -0.25138274933E+02  0.59301859385E+02  0.49999845631E+02 0.  0.
         12    1    1    2    0    0  0.17926099661E+02 -0.79654282813E+01  0.25138274933E+02  0.31886140615E+02  0.00000000000E+00 0. -1.
         11    1    3    3    0    0 -0.57867932452E+01  0.51336913760E+00 -0.53440461702E+01  0.78936274085E+01  0.51100000000E-03 0. -1.
        -11    1    3    3    0    0 -0.13279605909E+02  0.20970442748E+01 -0.33797165397E+02  0.36372983339E+02  0.51100000000E-03 0.  1.
         12    1    3    3    0    0  0.11402994936E+01  0.53550148689E+01  0.14002936635E+02  0.15035248637E+02  0.00000000000E+00 0. -1.
</event>
<event>
 7    1  0.1284645E-011  0.5930194E+02  0.7816164E-02  0.1266605E+00
        -11   -1    0    0    0    0  0.00000000000E+00  0.00000000000E+00  0.45593999997E+02  0.45594000000E+02  0.51100000000E-03 0. -1.
         11   -1    0    0    0    0 -0.00000000000E+00 -0.00000000000E+00 -0.45593999997E+02  0.45594000000E+02  0.51100000000E-03 0.  1.
    9900012    2    1    2    0    0 -0.25440683036E+02 -0.10848368356E+02 -0.15868368638E+02  0.59301943916E+02  0.49999999797E+02 0.  0.
         12    1    1    2    0    0  0.25440683036E+02  0.10848368356E+02  0.15868368638E+02  0.31886056084E+02  0.00000000000E+00 0. -1.
         11    1    3    3    0    0 -0.24193324948E+01  0.16921985460E+01 -0.16480176671E+02  0.16742548462E+02  0.51100000000E-03 0. -1.
        -11    1    3    3    0    0 -0.50525427808E+01  0.59122357290E+01 -0.11670609986E+02  0.14024473522E+02  0.51100000000E-03 0.  1.
         12    1    3    3    0    0 -0.17968807761E+02 -0.18452802631E+02  0.12282418019E+02  0.28534921932E+02  0.00000000000E+00 0. -1.
</event>
<event>
 7    1  0.1284645E-011  0.5930196E+02  0.7816164E-02  0.1266605E+00
        -11   -1    0    0    0    0  0.00000000000E+00  0.00000000000E+00  0.45593999997E+02  0.45594000000E+02  0.51100000000E-03 0.  1.
         11   -1    0    0    0    0 -0.00000000000E+00 -0.00000000000E+00 -0.45593999997E+02  0.45594000000E+02  0.51100000000E-03 0. -1.
    9900012    2    1    2    0    0 -0.11685483849E+02 -0.33383400395E+01  0.29479219678E+02  0.59301961679E+02  0.50000032191E+02 0.  0.
         12    1    1    2    0    0  0.11685483849E+02  0.33383400395E+01 -0.29479219678E+02  0.31886038321E+02  0.00000000000E+00 0. -1.
         11    1    3    3    0    0 -0.24756139939E+01 -0.18236308216E+01 -0.87912250620E+01  0.93134275308E+01  0.51100000000E-03 0. -1.
        -11    1    3    3    0    0 -0.84522690558E-02 -0.12523738293E+02  0.45192639303E+01  0.13314196897E+02  0.51100000000E-03 0.  1.
         12    1    3    3    0    0 -0.92014175860E+01  0.11009029075E+02  0.33751180809E+02  0.36674337251E+02  0.00000000000E+00 0. -1.
</event>
<event>
 7    1  0.1284645E-011  0.5930194E+02  0.7816164E-02  0.1266605E+00
        -11   -1    0    0    0    0  0.00000000000E+00  0.00000000000E+00  0.45593999997E+02  0.45594000000E+02  0.51100000000E-03 0.  1.
         11   -1    0    0    0    0 -0.00000000000E+00 -0.00000000000E+00 -0.45593999997E+02  0.45594000000E+02  0.51100000000E-03 0. -1.
    9900012    2    1    2    0    0 -0.86821720650E+01  0.15768155982E+01  0.30640728663E+02  0.59301941727E+02  0.49999995804E+02 0.  0.
         12    1    1    2    0    0  0.86821720650E+01 -0.15768155982E+01 -0.30640728663E+02  0.31886058273E+02  0.00000000000E+00 0. -1.
         11    1    3    3    0    0 -0.65688538990E+01  0.15779461019E+01  0.15151567344E+02  0.16589446907E+02  0.51100000000E-03 0. -1.
        -11    1    3    3    0    0 -0.12597773078E+02  0.24038591592E+01  0.25164761110E+02  0.28244426483E+02  0.51100000000E-03 0.  1.
         12    1    3    3    0    0  0.10484454912E+02 -0.24049896628E+01 -0.96755997907E+01  0.14468068337E+02  0.00000000000E+00 0. -1.
</event>
<event>
 7    1  0.1284645E-011  0.5930197E+02  0.7816164E-02  0.1266605E+00
        -11   -1    0    0    0    0  0.00000000000E+00  0.00000000000E+00  0.45593999997E+02  0.45594000000E+02  0.51100000000E-03 0.  1.
         11   -1    0    0    0    0 -0.00000000000E+00 -0.00000000000E+00 -0.45593999997E+02  0.45594000000E+02  0.51100000000E-03 0. -1.
    9900012    2    1    2    0    0  0.29457275096E+02  0.58676521449E+01 -0.10703203371E+02  0.59301969200E+02  0.50000045909E+02 0.  0.
         12    1    1    2    0    0 -0.29457275096E+02 -0.58676521449E+01  0.10703203371E+02  0.31886030800E+02  0.00000000000E+00 0. -1.
         11    1    3    3    0    0  0.14529884167E+02 -0.10830937817E+02 -0.18846310518E+02  0.26145939805E+02  0.51100000000E-03 0. -1.
        -11    1    3    3    0    0  0.48586397393E+01  0.13634118986E+02 -0.58799514424E+01  0.15622720949E+02  0.51100000000E-03 0.  1.
        -12    1    3    3    0    0  0.10068751189E+02  0.30644709763E+01  0.14023058589E+02  0.17533308446E+02  0.00000000000E+00 0.  1.
</event>
<event>
 7    1  0.1284645E-011  0.5930193E+02  0.7816164E-02  0.1266605E+00
        -11   -1    0    0    0    0  0.00000000000E+00  0.00000000000E+00  0.45593999997E+02  0.45594000000E+02  0.51100000000E-03 0.  1.
         11   -1    0    0    0    0 -0.00000000000E+00 -0.00000000000E+00 -0.45593999997E+02  0.45594000000E+02  0.51100000000E-03 0. -1.
    9900012    2    1    2    0    0  0.24813432211E+02 -0.19074177503E+02 -0.60984205746E+01  0.59301930957E+02  0.49999976162E+02 0.  0.
         12    1    1    2    0    0 -0.24813432211E+02  0.19074177503E+02  0.60984205746E+01  0.31886069043E+02  0.00000000000E+00 0. -1.
         11    1    3    3    0    0  0.67671956223E+01 -0.20098800674E+02 -0.15937010539E+01  0.21267266125E+02  0.51100000000E-03 0. -1.
        -11    1    3    3    0    0  0.26838711563E+01 -0.13961249602E+02 -0.79655561208E+01  0.16296310608E+02  0.51100000000E-03 0.  1.
         12    1    3    3    0    0  0.15362365432E+02  0.14985872773E+02  0.34608366001E+01  0.21738354225E+02  0.00000000000E+00 0. -1.
</event>
<event>
 7    1  0.1284645E-011  0.5930198E+02  0.7816164E-02  0.1266605E+00
        -11   -1    0    0    0    0  0.00000000000E+00  0.00000000000E+00  0.45593999997E+02  0.45594000000E+02  0.51100000000E-03 0. -1.
         11   -1    0    0    0    0 -0.00000000000E+00 -0.00000000000E+00 -0.45593999997E+02  0.45594000000E+02  0.51100000000E-03 0.  1.
    9900012    2    1    2    0    0 -0.28454049341E+02 -0.91131188125E+01  0.11137163676E+02  0.59301979973E+02  0.50000065556E+02 0.  0.
         12    1    1    2    0    0  0.28454049341E+02  0.91131188125E+01 -0.11137163676E+02  0.31886020027E+02  0.00000000000E+00 0. -1.
         11    1    3    3    0    0 -0.20843721162E+02 -0.18147475096E+02  0.30247709056E+01  0.27801812954E+02  0.51100000000E-03 0. -1.
        -11    1    3    3    0    0 -0.42960199949E+01 -0.93097917043E+01 -0.17647374031E+01  0.10403956350E+02  0.51100000000E-03 0.  1.
         12    1    3    3    0    0 -0.33143081845E+01  0.18344147987E+02  0.98771301737E+01  0.21096210669E+02  0.00000000000E+00 0. -1.
</event>
<event>
 7    1  0.1284645E-011  0.5930191E+02  0.7816164E-02  0.1266605E+00
        -11   -1    0    0    0    0  0.00000000000E+00  0.00000000000E+00  0.45593999997E+02  0.45594000000E+02  0.51100000000E-03 0.  1.
         11   -1    0    0    0    0 -0.00000000000E+00 -0.00000000000E+00 -0.45593999997E+02  0.45594000000E+02  0.51100000000E-03 0. -1.
    9900012    2    1    2    0    0  0.10466036653E+02 -0.11272201635E+02  0.27930674368E+02  0.59301905482E+02  0.49999929702E+02 0.  0.
         12    1    1    2    0    0 -0.10466036653E+02  0.11272201635E+02 -0.27930674368E+02  0.31886094518E+02  0.00000000000E+00 0. -1.
         11    1    3    3    0    0 -0.26710311184E+01 -0.21894454875E-02 -0.17665483528E+01  0.32023593448E+01  0.51100000000E-03 0. -1.
        -11    1    3    3    0    0 -0.13205970161E+02  0.51418143915E-01  0.23206925389E+02  0.26701342250E+02  0.51100000000E-03 0.  1.
         12    1    3    3    0    0  0.26343037932E+02 -0.11321430334E+02  0.64902973324E+01  0.29398203887E+02  0.00000000000E+00 0. -1.
</event>
<event>
 7    1  0.1284645E-011  0.5930193E+02  0.7816164E-02  0.1266605E+00
        -11   -1    0    0    0    0  0.00000000000E+00  0.00000000000E+00  0.45593999997E+02  0.45594000000E+02  0.51100000000E-03 0. -1.
         11   -1    0    0    0    0 -0.00000000000E+00 -0.00000000000E+00 -0.45593999997E+02  0.45594000000E+02  0.51100000000E-03 0.  1.
    9900012    2    1    2    0    0  0.34973154215E+01  0.79023043994E+01 -0.30692731397E+02  0.59301931089E+02  0.49999976403E+02 0.  0.
         12    1    1    2    0    0 -0.34973154215E+01 -0.79023043994E+01  0.30692731397E+02  0.31886068911E+02  0.00000000000E+00 0. -1.
         11    1    3    3    0    0  0.27442808153E+01  0.56526365863E+01  0.99188302239E+01  0.11741659629E+02  0.51100000000E-03 0. -1.
        -11    1    3    3    0    0 -0.91520641776E+01 -0.18229413097E+01 -0.54563604388E+01  0.10809961296E+02  0.51100000000E-03 0.  1.
        -12    1    3    3    0    0  0.99050987838E+01  0.40726091228E+01 -0.35155201182E+02  0.36750310164E+02  0.00000000000E+00 0.  1.
</event>
<event>
 7    1  0.1284645E-011  0.5930193E+02  0.7816164E-02  0.1266605E+00
        -11   -1    0    0    0    0  0.00000000000E+00  0.00000000000E+00  0.45593999997E+02  0.45594000000E+02  0.51100000000E-03 0.  1.
         11   -1    0    0    0    0 -0.00000000000E+00 -0.00000000000E+00 -0.45593999997E+02  0.45594000000E+02  0.51100000000E-03 0. -1.
    9900012    2    1    2    0    0 -0.10951217526E+02  0.24426098310E+02  0.17325062894E+02  0.59301933321E+02  0.49999980473E+02 0.  0.
         12    1    1    2    0    0  0.10951217526E+02 -0.24426098310E+02 -0.17325062894E+02  0.31886066679E+02  0.00000000000E+00 0. -1.
         11    1    3    3    0    0 -0.12457079456E+02  0.24993016509E+02  0.70769723332E+01  0.28808214809E+02  0.51100000000E-03 0. -1.
        -11    1    3    3    0    0 -0.52711931049E+01  0.76392552586E+01 -0.60133409837E+01  0.11059112428E+02  0.51100000000E-03 0.  1.
         12    1    3    3    0    0  0.67770550346E+01 -0.82061734570E+01  0.16261431545E+02  0.19434606084E+02  0.00000000000E+00 0. -1.
</event>
<event>
 7    1  0.1284645E-011  0.5930208E+02  0.7816164E-02  0.1266604E+00
        -11   -1    0    0    0    0  0.00000000000E+00  0.00000000000E+00  0.45593999997E+02  0.45594000000E+02  0.51100000000E-03 0.  1.
         11   -1    0    0    0    0 -0.00000000000E+00 -0.00000000000E+00 -0.45593999997E+02  0.45594000000E+02  0.51100000000E-03 0. -1.
    9900012    2    1    2    0    0  0.22104519108E+02 -0.22573832074E+02  0.43039756454E+01  0.59302080445E+02  0.50000248792E+02 0.  0.
         12    1    1    2    0    0 -0.22104519108E+02  0.22573832074E+02 -0.43039756454E+01  0.31885919555E+02  0.00000000000E+00 0. -1.
         11    1    3    3    0    0  0.22992265693E+02 -0.83031507070E+01 -0.12636394393E+02  0.27518449391E+02  0.51100000000E-03 0. -1.
        -11    1    3    3    0    0  0.77889903867E+01 -0.13301673272E+02  0.35817893389E+01  0.15825046547E+02  0.51100000000E-03 0.  1.
         12    1    3    3    0    0 -0.86767369715E+01 -0.96900809504E+00  0.13358580700E+02  0.15958584507E+02  0.00000000000E+00 0. -1.
</event>
<event>
 7    1  0.1284645E-011  0.5930194E+02  0.7816164E-02  0.1266605E+00
        -11   -1    0    0    0    0  0.00000000000E+00  0.00000000000E+00  0.45593999997E+02  0.45594000000E+02  0.51100000000E-03 0.  1.
         11   -1    0    0    0    0 -0.00000000000E+00 -0.00000000000E+00 -0.45593999997E+02  0.45594000000E+02  0.51100000000E-03 0. -1.
    9900012    2    1    2    0    0 -0.30187242699E+02 -0.12134984449E+01 -0.10196999165E+02  0.59301937336E+02  0.49999987797E+02 0.  0.
         12    1    1    2    0    0  0.30187242699E+02  0.12134984449E+01  0.10196999165E+02  0.31886062664E+02  0.00000000000E+00 0. -1.
         11    1    3    3    0    0 -0.73103751955E+01  0.10419785412E+02  0.25345078581E+01  0.12978337485E+02  0.51100000000E-03 0. -1.
        -11    1    3    3    0    0 -0.27350393165E+02  0.42963644359E+01 -0.53140080177E+01  0.28191158811E+02  0.51100000000E-03 0.  1.
         12    1    3    3    0    0  0.44735256620E+01 -0.15929648293E+02 -0.74174990049E+01  0.18132441040E+02  0.00000000000E+00 0. -1.
</event>
<event>
 7    1  0.1284645E-011  0.5930194E+02  0.7816164E-02  0.1266605E+00
        -11   -1    0    0    0    0  0.00000000000E+00  0.00000000000E+00  0.45593999997E+02  0.45594000000E+02  0.51100000000E-03 0.  1.
         11   -1    0    0    0    0 -0.00000000000E+00 -0.00000000000E+00 -0.45593999997E+02  0.45594000000E+02  0.51100000000E-03 0. -1.
    9900012    2    1    2    0    0 -0.15563375779E+02 -0.16566107080E+02  0.22362159221E+02  0.59301941378E+02  0.49999995167E+02 0.  0.
         12    1    1    2    0    0  0.15563375779E+02  0.16566107080E+02 -0.22362159221E+02  0.31886058622E+02  0.00000000000E+00 0. -1.
         11    1    3    3    0    0  0.26148463337E+01  0.62999354732E+01  0.12982080465E+02  0.14664958976E+02  0.51100000000E-03 0. -1.
        -11    1    3    3    0    0 -0.22159798207E+01  0.79706354465E+01 -0.11496106426E+01  0.83524368227E+01  0.51100000000E-03 0.  1.
        -12    1    3    3    0    0 -0.15962242292E+02 -0.30836678000E+02  0.10529689399E+02  0.36284545579E+02  0.00000000000E+00 0.  1.
</event>
<event>
 7    1  0.1284645E-011  0.5930194E+02  0.7816164E-02  0.1266605E+00
        -11   -1    0    0    0    0  0.00000000000E+00  0.00000000000E+00  0.45593999997E+02  0.45594000000E+02  0.51100000000E-03 0.  1.
         11   -1    0    0    0    0 -0.00000000000E+00 -0.00000000000E+00 -0.45593999997E+02  0.45594000000E+02  0.51100000000E-03 0. -1.
    9900012    2    1    2    0    0 -0.28374044071E+02  0.12300982591E+02  0.77666168224E+01  0.59301938993E+02  0.49999990818E+02 0.  0.
         12    1    1    2    0    0  0.28374044071E+02 -0.12300982591E+02 -0.77666168224E+01  0.31886061007E+02  0.00000000000E+00 0. -1.
         11    1    3    3    0    0  0.55133792991E-03  0.63194016390E+01 -0.10605619523E+02  0.12345606631E+02  0.51100000000E-03 0.  1.
        -11    1    3    3    0    0 -0.20697049615E+02  0.18955313102E+02  0.10648870445E+02  0.30017831361E+02  0.51100000000E-03 0. -1.
        -12    1    3    3    0    0 -0.76775457940E+01 -0.12973732151E+02  0.77233659004E+01  0.16938501001E+02  0.00000000000E+00 0.  1.
</event>
<event>
 7    1  0.1284645E-011  0.5930194E+02  0.7816164E-02  0.1266605E+00
        -11   -1    0    0    0    0  0.00000000000E+00  0.00000000000E+00  0.45593999997E+02  0.45594000000E+02  0.51100000000E-03 0. -1.
         11   -1    0    0    0    0 -0.00000000000E+00 -0.00000000000E+00 -0.45593999997E+02  0.45594000000E+02  0.51100000000E-03 0.  1.
    9900012    2    1    2    0    0 -0.30704012874E+02 -0.85144275291E+01  0.12201306414E+01  0.59301943463E+02  0.49999998969E+02 0.  0.
         12    1    1    2    0    0  0.30704012874E+02  0.85144275291E+01 -0.12201306414E+01  0.31886056537E+02  0.00000000000E+00 0. -1.
         11    1    3    3    0    0 -0.26269037198E+02 -0.26685417968E+01  0.59571488192E+01  0.27067897091E+02  0.51100000000E-03 0. -1.
        -11    1    3    3    0    0 -0.16494497089E+01  0.10773855093E+02  0.58128158635E+01  0.12352548985E+02  0.51100000000E-03 0.  1.
         12    1    3    3    0    0 -0.27855259674E+01 -0.16619740825E+02 -0.10549834041E+02  0.19881497386E+02  0.00000000000E+00 0. -1.
</event>
<event>
 7    1  0.1284645E-011  0.5930194E+02  0.7816164E-02  0.1266605E+00
        -11   -1    0    0    0    0  0.00000000000E+00  0.00000000000E+00  0.45593999997E+02  0.45594000000E+02  0.51100000000E-03 0.  1.
         11   -1    0    0    0    0 -0.00000000000E+00 -0.00000000000E+00 -0.45593999997E+02  0.45594000000E+02  0.51100000000E-03 0. -1.
    9900012    2    1    2    0    0 -0.28366577953E+02 -0.14561966255E+02  0.83189193531E-01  0.59301944640E+02  0.50000001117E+02 0.  0.
         12    1    1    2    0    0  0.28366577953E+02  0.14561966255E+02 -0.83189193531E-01  0.31886055360E+02  0.00000000000E+00 0. -1.
         11    1    3    3    0    0  0.51774817520E+01 -0.15129703368E+01 -0.10214827034E+02  0.11551540509E+02  0.51100000000E-03 0. -1.
        -11    1    3    3    0    0 -0.15859151895E+01 -0.80414976213E+01  0.12915326372E+02  0.15296616180E+02  0.51100000000E-03 0.  1.
        -12    1    3    3    0    0 -0.31958144515E+02 -0.50074982970E+01 -0.26173101451E+01  0.32453787952E+02  0.00000000000E+00 0.  1.
</event>
<event>
 7    1  0.1284645E-011  0.5930196E+02  0.7816164E-02  0.1266605E+00
        -11   -1    0    0    0    0  0.00000000000E+00  0.00000000000E+00  0.45593999997E+02  0.45594000000E+02  0.51100000000E-03 0. -1.
         11   -1    0    0    0    0 -0.00000000000E+00 -0.00000000000E+00 -0.45593999997E+02  0.45594000000E+02  0.51100000000E-03 0.  1.
    9900012    2    1    2    0    0  0.14105299737E+02 -0.24817069693E+02 -0.14208205314E+02  0.59301960311E+02  0.50000029696E+02 0.  0.
         12    1    1    2    0    0 -0.14105299737E+02  0.24817069693E+02  0.14208205314E+02  0.31886039689E+02  0.00000000000E+00 0. -1.
         11    1    3    3    0    0  0.26640863638E+01 -0.18136113838E+02 -0.81802117400E+01  0.20073162323E+02  0.51100000000E-03 0. -1.
        -11    1    3    3    0    0  0.20962848392E+02 -0.70201994378E+01  0.69093743768E+01  0.23161685331E+02  0.51100000000E-03 0.  1.
        -12    1    3    3    0    0 -0.95216350180E+01  0.33924358243E+00 -0.12937367950E+02  0.16067112656E+02  0.00000000000E+00 0.  1.
</event>
<event>
 7    1  0.1284645E-011  0.5930196E+02  0.7816164E-02  0.1266605E+00
        -11   -1    0    0    0    0  0.00000000000E+00  0.00000000000E+00  0.45593999997E+02  0.45594000000E+02  0.51100000000E-03 0.  1.
         11   -1    0    0    0    0 -0.00000000000E+00 -0.00000000000E+00 -0.45593999997E+02  0.45594000000E+02  0.51100000000E-03 0. -1.
    9900012    2    1    2    0    0  0.17689153059E+02 -0.13058283139E+02  0.23093170536E+02  0.59301961991E+02  0.50000032762E+02 0.  0.
         12    1    1    2    0    0 -0.17689153059E+02  0.13058283139E+02 -0.23093170536E+02  0.31886038009E+02  0.00000000000E+00 0. -1.
         11    1    3    3    0    0  0.44781466276E+01 -0.15915480372E+01 -0.33826688726E+01  0.58334613511E+01  0.51100000000E-03 0.  1.
        -11    1    3    3    0    0  0.20208099997E+02 -0.15095106400E+02 -0.63862119934E+00  0.25231674142E+02  0.51100000000E-03 0. -1.
        -12    1    3    3    0    0 -0.69970935653E+01  0.36283712985E+01  0.27114460608E+02  0.28236826498E+02  0.00000000000E+00 0.  1.
</event>
<event>
 7    1  0.1284645E-011  0.5930212E+02  0.7816164E-02  0.1266604E+00
        -11   -1    0    0    0    0  0.00000000000E+00  0.00000000000E+00  0.45593999997E+02  0.45594000000E+02  0.51100000000E-03 0.  1.
         11   -1    0    0    0    0 -0.00000000000E+00 -0.00000000000E+00 -0.45593999997E+02  0.45594000000E+02  0.51100000000E-03 0. -1.
    9900012    2    1    2    0    0  0.15740209581E+02 -0.11660475713E+02  0.25159264244E+02  0.59302118033E+02  0.50000317343E+02 0.  0.
         12    1    1    2    0    0 -0.15740209581E+02  0.11660475713E+02 -0.25159264244E+02  0.31885881967E+02  0.00000000000E+00 0. -1.
         11    1    3    3    0    0  0.80339785504E+01 -0.12380071524E+02 -0.34400130399E+01  0.15154031551E+02  0.51100000000E-03 0. -1.
        -11    1    3    3    0    0  0.86120247514E+00 -0.83991702711E+01 -0.41951941198E+01  0.94280106549E+01  0.51100000000E-03 0.  1.
         12    1    3    3    0    0  0.68450285558E+01  0.91187660824E+01  0.32794471403E+02  0.34720075827E+02  0.00000000000E+00 0. -1.
</event>
<event>
 7    1  0.1284645E-011  0.5930198E+02  0.7816164E-02  0.1266605E+00
        -11   -1    0    0    0    0  0.00000000000E+00  0.00000000000E+00  0.45593999997E+02  0.45594000000E+02  0.51100000000E-03 0. -1.
         11   -1    0    0    0    0 -0.00000000000E+00 -0.00000000000E+00 -0.45593999997E+02  0.45594000000E+02  0.51100000000E-03 0.  1.
    9900012    2    1    2    0    0  0.25997867909E+01  0.30360465950E+02 -0.93915554682E+01  0.59301982717E+02  0.50000070559E+02 0.  0.
         12    1    1    2    0    0 -0.25997867909E+01 -0.30360465950E+02  0.93915554682E+01  0.31886017283E+02  0.00000000000E+00 0. -1.
         11    1    3    3    0    0  0.23073534706E+01  0.22535904639E+02 -0.15264052248E+02  0.27316335208E+02  0.51100000000E-03 0. -1.
        -11    1    3    3    0    0  0.36984896048E+01  0.10010104143E+02 -0.10589256528E+02  0.15033740865E+02  0.51100000000E-03 0.  1.
         12    1    3    3    0    0 -0.34060562844E+01 -0.21855428314E+01  0.16461753308E+02  0.16951906644E+02  0.00000000000E+00 0. -1.
</event>
<event>
 7    1  0.1284645E-011  0.5930193E+02  0.7816164E-02  0.1266605E+00
        -11   -1    0    0    0    0  0.00000000000E+00  0.00000000000E+00  0.45593999997E+02  0.45594000000E+02  0.51100000000E-03 0. -1.
         11   -1    0    0    0    0 -0.00000000000E+00 -0.00000000000E+00 -0.45593999997E+02  0.45594000000E+02  0.51100000000E-03 0.  1.
    9900012    2    1    2    0    0  0.26475556629E+02 -0.12974523345E+02 -0.12141989800E+02  0.59301932962E+02  0.49999979819E+02 0.  0.
         12    1    1    2    0    0 -0.26475556629E+02  0.12974523345E+02  0.12141989800E+02  0.31886067038E+02  0.00000000000E+00 0. -1.
         11    1    3    3    0    0 -0.41070061523E+01  0.32997569301E+01 -0.77088201231E+01  0.93371196460E+01  0.51100000000E-03 0. -1.
        -11    1    3    3    0    0  0.12902724460E+02 -0.18237914752E+01 -0.18882942593E+02  0.22942799199E+02  0.51100000000E-03 0.  1.
        -12    1    3    3    0    0  0.17679838321E+02 -0.14450488800E+02  0.14449772917E+02  0.27022014118E+02  0.00000000000E+00 0.  1.
</event>
<event>
 7    1  0.1284645E-011  0.5930194E+02  0.7816164E-02  0.1266605E+00
        -11   -1    0    0    0    0  0.00000000000E+00  0.00000000000E+00  0.45593999997E+02  0.45594000000E+02  0.51100000000E-03 0. -1.
         11   -1    0    0    0    0 -0.00000000000E+00 -0.00000000000E+00 -0.45593999997E+02  0.45594000000E+02  0.51100000000E-03 0.  1.
    9900012    2    1    2    0    0 -0.89364705347E+01  0.12331824381E+02 -0.28014038458E+02  0.59301941151E+02  0.49999994754E+02 0.  0.
         12    1    1    2    0    0  0.89364705347E+01 -0.12331824381E+02  0.28014038458E+02  0.31886058849E+02  0.00000000000E+00 0. -1.
         11    1    3    3    0    0  0.10281920577E+02  0.85780401175E+01  0.51672581313E+01  0.14352742590E+02  0.51100000000E-03 0. -1.
        -11    1    3    3    0    0  0.17312183167E+01 -0.24065278358E+01 -0.18265716833E+02  0.18504726552E+02  0.51100000000E-03 0.  1.
        -12    1    3    3    0    0 -0.20949609429E+02  0.61603120990E+01 -0.14915579757E+02  0.26444472009E+02  0.00000000000E+00 0.  1.
</event>
<event>
 7    1  0.1284645E-011  0.5930195E+02  0.7816164E-02  0.1266605E+00
        -11   -1    0    0    0    0  0.00000000000E+00  0.00000000000E+00  0.45593999997E+02  0.45594000000E+02  0.51100000000E-03 0.  1.
         11   -1    0    0    0    0 -0.00000000000E+00 -0.00000000000E+00 -0.45593999997E+02  0.45594000000E+02  0.51100000000E-03 0. -1.
    9900012    2    1    2    0    0  0.96040378697E+01 -0.21069472007E+02  0.21921676498E+02  0.59301951413E+02  0.50000013468E+02 0.  0.
         12    1    1    2    0    0 -0.96040378697E+01  0.21069472007E+02 -0.21921676498E+02  0.31886048587E+02  0.00000000000E+00 0. -1.
         11    1    3    3    0    0 -0.83082320586E+00 -0.48480123213E+01  0.16478139543E+02  0.17196586107E+02  0.51100000000E-03 0.  1.
        -11    1    3    3    0    0  0.89813605829E+01 -0.17328257640E+02  0.19700617217E+02  0.27731708742E+02  0.51100000000E-03 0. -1.
         12    1    3    3    0    0  0.14535004927E+01  0.11067979545E+01 -0.14257080263E+02  0.14373656564E+02  0.00000000000E+00 0. -1.
</event>
<event>
 7    1  0.1284645E-011  0.5930194E+02  0.7816164E-02  0.1266605E+00
        -11   -1    0    0    0    0  0.00000000000E+00  0.00000000000E+00  0.45593999997E+02  0.45594000000E+02  0.51100000000E-03 0.  1.
         11   -1    0    0    0    0 -0.00000000000E+00 -0.00000000000E+00 -0.45593999997E+02  0.45594000000E+02  0.51100000000E-03 0. -1.
    9900012    2    1    2    0    0 -0.16055057099E+02 -0.22432951807E+02  0.15991200395E+02  0.59301942305E+02  0.49999996859E+02 0.  0.
         12    1    1    2    0    0  0.16055057099E+02  0.22432951807E+02 -0.15991200395E+02  0.31886057695E+02  0.00000000000E+00 0. -1.
         11    1    3    3    0    0 -0.77662184160E+01 -0.11226833026E+02 -0.92916688011E+01  0.16513359369E+02  0.51100000000E-03 0. -1.
        -11    1    3    3    0    0  0.12175546568E+02 -0.38336771004E+01  0.90598149011E+01  0.15653154974E+02  0.51100000000E-03 0.  1.
        -12    1    3    3    0    0 -0.20464385251E+02 -0.73724416809E+01  0.16223054295E+02  0.27135427962E+02  0.00000000000E+00 0.  1.
</event>
<event>
 7    1  0.1284645E-011  0.5930198E+02  0.7816164E-02  0.1266605E+00
        -11   -1    0    0    0    0  0.00000000000E+00  0.00000000000E+00  0.45593999997E+02  0.45594000000E+02  0.51100000000E-03 0.  1.
         11   -1    0    0    0    0 -0.00000000000E+00 -0.00000000000E+00 -0.45593999997E+02  0.45594000000E+02  0.51100000000E-03 0. -1.
    9900012    2    1    2    0    0 -0.12496186628E+02  0.28825854433E+02  0.54436952550E+01  0.59301978266E+02  0.50000062441E+02 0.  0.
         12    1    1    2    0    0  0.12496186628E+02 -0.28825854433E+02 -0.54436952550E+01  0.31886021734E+02  0.00000000000E+00 0. -1.
         11    1    3    3    0    0  0.42432363836E+01  0.33785766457E+01  0.27464625189E+00  0.54309544265E+01  0.51100000000E-03 0. -1.
        -11    1    3    3    0    0  0.76788833039E+01  0.21701576950E+02  0.14787757502E+02  0.27360582288E+02  0.51100000000E-03 0.  1.
         12    1    3    3    0    0 -0.24418306315E+02  0.37457008368E+01 -0.96187084986E+01  0.26510441551E+02  0.00000000000E+00 0. -1.
</event>
<event>
 7    1  0.1284645E-011  0.5930194E+02  0.7816164E-02  0.1266605E+00
        -11   -1    0    0    0    0  0.00000000000E+00  0.00000000000E+00  0.45593999997E+02  0.45594000000E+02  0.51100000000E-03 0. -1.
         11   -1    0    0    0    0 -0.00000000000E+00 -0.00000000000E+00 -0.45593999997E+02  0.45594000000E+02  0.51100000000E-03 0.  1.
    9900012    2    1    2    0    0  0.22910079729E+02  0.18004462427E+02 -0.12949457319E+02  0.59301939325E+02  0.49999991423E+02 0.  0.
         12    1    1    2    0    0 -0.22910079729E+02 -0.18004462427E+02  0.12949457319E+02  0.31886060675E+02  0.00000000000E+00 0. -1.
         11    1    3    3    0    0  0.23347055973E+01  0.43711166666E+01 -0.15312438924E+01  0.51867349323E+01  0.51100000000E-03 0. -1.
        -11    1    3    3    0    0  0.10291733672E+02 -0.55643303019E+01 -0.25585867884E+02  0.28133933058E+02  0.51100000000E-03 0.  1.
         12    1    3    3    0    0  0.10283640460E+02  0.19197676063E+02  0.14167654457E+02  0.25981271334E+02  0.00000000000E+00 0. -1.
</event>
<event>
 7    1  0.1284645E-011  0.5930232E+02  0.7816164E-02  0.1266603E+00
        -11   -1    0    0    0    0  0.00000000000E+00  0.00000000000E+00  0.45593999997E+02  0.45594000000E+02  0.51100000000E-03 0.  1.
         11   -1    0    0    0    0 -0.00000000000E+00 -0.00000000000E+00 -0.45593999997E+02  0.45594000000E+02  0.51100000000E-03 0. -1.
    9900012    2    1    2    0    0  0.11928116861E+02  0.63828797643E+01  0.28873434222E+02  0.59302324067E+02  0.50000693095E+02 0.  0.
         12    1    1    2    0    0 -0.11928116861E+02 -0.63828797643E+01 -0.28873434222E+02  0.31885675933E+02  0.00000000000E+00 0. -1.
         11    1    3    3    0    0 -0.17236423403E+02 -0.75720079563E+00  0.51735148372E+01  0.18012021008E+02  0.51100000000E-03 0. -1.
        -11    1    3    3    0    0  0.17990573546E+01 -0.10597090741E+01  0.88512733968E+01  0.90942086898E+01  0.51100000000E-03 0.  1.
         12    1    3    3    0    0  0.27365482909E+02  0.81997896341E+01  0.14848645988E+02  0.32196094369E+02  0.00000000000E+00 0. -1.
</event>
<event>
 7    1  0.1284645E-011  0.5930193E+02  0.7816164E-02  0.1266605E+00
        -11   -1    0    0    0    0  0.00000000000E+00  0.00000000000E+00  0.45593999997E+02  0.45594000000E+02  0.51100000000E-03 0. -1.
         11   -1    0    0    0    0 -0.00000000000E+00 -0.00000000000E+00 -0.45593999997E+02  0.45594000000E+02  0.51100000000E-03 0.  1.
    9900012    2    1    2    0    0 -0.25654755769E+02  0.10898456207E+02 -0.15484790312E+02  0.59301928240E+02  0.49999971208E+02 0.  0.
         12    1    1    2    0    0  0.25654755769E+02 -0.10898456207E+02  0.15484790312E+02  0.31886071760E+02  0.00000000000E+00 0. -1.
         11    1    3    3    0    0  0.97319281017E+01 -0.90141861501E+00 -0.13856357455E+02  0.16956462552E+02  0.51100000000E-03 0. -1.
        -11    1    3    3    0    0 -0.15861853677E+01  0.55414859415E+01 -0.52289440860E+01  0.77824101007E+01  0.51100000000E-03 0.  1.
         12    1    3    3    0    0 -0.33800498503E+02  0.62583888802E+01  0.36005112292E+01  0.34563055587E+02  0.00000000000E+00 0. -1.
</event>
<event>
 7    1  0.1284645E-011  0.5930191E+02  0.7816164E-02  0.1266605E+00
        -11   -1    0    0    0    0  0.00000000000E+00  0.00000000000E+00  0.45593999997E+02  0.45594000000E+02  0.51100000000E-03 0.  1.
         11   -1    0    0    0    0 -0.00000000000E+00 -0.00000000000E+00 -0.45593999997E+02  0.45594000000E+02  0.51100000000E-03 0. -1.
    9900012    2    1    2    0    0  0.61761814377E+01 -0.30043013623E+02  0.87175120988E+01  0.59301907391E+02  0.49999933183E+02 0.  0.
         12    1    1    2    0    0 -0.61761814377E+01  0.30043013623E+02 -0.87175120988E+01  0.31886092609E+02  0.00000000000E+00 0. -1.
         11    1    3    3    0    0 -0.24076705279E+01  0.25430615506E+01 -0.32293080530E+01  0.47636614262E+01  0.51100000000E-03 0. -1.
        -11    1    3    3    0    0  0.38145486848E+00  0.99141390940E+01  0.25900225579E+01  0.10253968934E+02  0.51100000000E-03 0.  1.
        -12    1    3    3    0    0  0.82023970971E+01 -0.42500214267E+02  0.93567975939E+01  0.44284277031E+02  0.00000000000E+00 0.  1.
</event>
<event>
 7    1  0.1284645E-011  0.5930194E+02  0.7816164E-02  0.1266605E+00
        -11   -1    0    0    0    0  0.00000000000E+00  0.00000000000E+00  0.45593999997E+02  0.45594000000E+02  0.51100000000E-03 0.  1.
         11   -1    0    0    0    0 -0.00000000000E+00 -0.00000000000E+00 -0.45593999997E+02  0.45594000000E+02  0.51100000000E-03 0. -1.
    9900012    2    1    2    0    0 -0.22463141366E+02 -0.96012046637E+01  0.20492551261E+02  0.59301944926E+02  0.50000001638E+02 0.  0.
         12    1    1    2    0    0  0.22463141366E+02  0.96012046637E+01 -0.20492551261E+02  0.31886055074E+02  0.00000000000E+00 0. -1.
         11    1    3    3    0    0  0.57721344777E+01  0.47438989739E+01  0.15871872791E+02  0.17542475882E+02  0.51100000000E-03 0. -1.
        -11    1    3    3    0    0 -0.10215577682E+01  0.49874890571E+00  0.10199493244E+02  0.10262650410E+02  0.51100000000E-03 0.  1.
         12    1    3    3    0    0 -0.27213718075E+02 -0.14843852543E+02 -0.55788147741E+01  0.31496818634E+02  0.00000000000E+00 0. -1.
</event>
<event>
 7    1  0.1284645E-011  0.5930191E+02  0.7816164E-02  0.1266605E+00
        -11   -1    0    0    0    0  0.00000000000E+00  0.00000000000E+00  0.45593999997E+02  0.45594000000E+02  0.51100000000E-03 0. -1.
         11   -1    0    0    0    0 -0.00000000000E+00 -0.00000000000E+00 -0.45593999997E+02  0.45594000000E+02  0.51100000000E-03 0.  1.
    9900012    2    1    2    0    0  0.38660200019E+01  0.30158772906E+02  0.96033757613E+01  0.59301913381E+02  0.49999944107E+02 0.  0.
         12    1    1    2    0    0 -0.38660200019E+01 -0.30158772906E+02 -0.96033757613E+01  0.31886086619E+02  0.00000000000E+00 0. -1.
         11    1    3    3    0    0  0.99610042422E+00  0.14547826338E+01 -0.18947303406E+01  0.25881676707E+01  0.51100000000E-03 0. -1.
        -11    1    3    3    0    0  0.15650268738E+02 -0.71677256472E+01  0.11478716164E+01  0.17251806052E+02  0.51100000000E-03 0.  1.
         12    1    3    3    0    0 -0.12780349161E+02  0.35871715920E+02  0.10350234486E+02  0.39461939658E+02  0.00000000000E+00 0. -1.
</event>
<event>
 7    1  0.1284645E-011  0.5930193E+02  0.7816164E-02  0.1266605E+00
        -11   -1    0    0    0    0  0.00000000000E+00  0.00000000000E+00  0.45593999997E+02  0.45594000000E+02  0.51100000000E-03 0.  1.
         11   -1    0    0    0    0 -0.00000000000E+00 -0.00000000000E+00 -0.45593999997E+02  0.45594000000E+02  0.51100000000E-03 0. -1.
    9900012    2    1    2    0    0  0.27286342713E+02 -0.14013162729E+02  0.87067756908E+01  0.59301934528E+02  0.49999982676E+02 0.  0.
         12    1    1    2    0    0 -0.27286342713E+02  0.14013162729E+02 -0.87067756908E+01  0.31886065472E+02  0.00000000000E+00 0. -1.
         11    1    3    3    0    0  0.96465175207E+00 -0.16279312767E+02 -0.11702878918E+02  0.20072467521E+02  0.51100000000E-03 0. -1.
        -11    1    3    3    0    0  0.95683313209E+01 -0.17761237925E+01  0.19709445466E+02  0.21981124194E+02  0.51100000000E-03 0.  1.
        -12    1    3    3    0    0  0.16753359640E+02  0.40422738306E+01  0.70020914244E+00  0.17248342813E+02  0.00000000000E+00 0.  1.
</event>
<event>
 7    1  0.1284645E-011  0.5930195E+02  0.7816164E-02  0.1266605E+00
        -11   -1    0    0    0    0  0.00000000000E+00  0.00000000000E+00  0.45593999997E+02  0.45594000000E+02  0.51100000000E-03 0.  1.
         11   -1    0    0    0    0 -0.00000000000E+00 -0.00000000000E+00 -0.45593999997E+02  0.45594000000E+02  0.51100000000E-03 0. -1.
    9900012    2    1    2    0    0 -0.61166848135E+01  0.13694487008E+02  0.28138366151E+02  0.59301945726E+02  0.50000003096E+02 0.  0.
         12    1    1    2    0    0  0.61166848135E+01 -0.13694487008E+02 -0.28138366151E+02  0.31886054274E+02  0.00000000000E+00 0. -1.
         11    1    3    3    0    0 -0.14985838851E+02  0.15883943455E+02  0.21155350096E+02  0.30404339554E+02  0.51100000000E-03 0. -1.
        -11    1    3    3    0    0 -0.76830112186E+01  0.58323490769E+01  0.22534851543E+01  0.99057131364E+01  0.51100000000E-03 0.  1.
         12    1    3    3    0    0  0.16552165256E+02 -0.80218055240E+01  0.47295309011E+01  0.18991893035E+02  0.00000000000E+00 0. -1.
</event>
<event>
 7    1  0.1284645E-011  0.5930192E+02  0.7816164E-02  0.1266605E+00
        -11   -1    0    0    0    0  0.00000000000E+00  0.00000000000E+00  0.45593999997E+02  0.45594000000E+02  0.51100000000E-03 0. -1.
         11   -1    0    0    0    0 -0.00000000000E+00 -0.00000000000E+00 -0.45593999997E+02  0.45594000000E+02  0.51100000000E-03 0.  1.
    9900012    2    1    2    0    0 -0.12268614852E+02 -0.27945804529E+02 -0.92322867742E+01  0.59301921215E+02  0.49999958396E+02 0.  0.
         12    1    1    2    0    0  0.12268614852E+02  0.27945804529E+02  0.92322867742E+01  0.31886078785E+02  0.00000000000E+00 0. -1.
         11    1    3    3    0    0  0.33452707495E+01 -0.75245213585E+00 -0.12775198418E+02  0.13227347258E+02  0.51100000000E-03 0. -1.
        -11    1    3    3    0    0 -0.52995856414E+01  0.11484988697E+01 -0.11244856807E+02  0.12484048322E+02  0.51100000000E-03 0.  1.
        -12    1    3    3    0    0 -0.10314299960E+02 -0.28341851263E+02  0.14787768451E+02  0.33590525635E+02  0.00000000000E+00 0.  1.
</event>
<event>
 7    1  0.1284645E-011  0.5930194E+02  0.7816164E-02  0.1266605E+00
        -11   -1    0    0    0    0  0.00000000000E+00  0.00000000000E+00  0.45593999997E+02  0.45594000000E+02  0.51100000000E-03 0. -1.
         11   -1    0    0    0    0 -0.00000000000E+00 -0.00000000000E+00 -0.45593999997E+02  0.45594000000E+02  0.51100000000E-03 0.  1.
    9900012    2    1    2    0    0  0.17948636734E+02  0.23236851688E+02 -0.12434460409E+02  0.59301942818E+02  0.49999997794E+02 0.  0.
         12    1    1    2    0    0 -0.17948636734E+02 -0.23236851688E+02  0.12434460409E+02  0.31886057182E+02  0.00000000000E+00 0. -1.
         11    1    3    3    0    0 -0.97460681174E+01  0.98432119885E+01  0.61251187125E+01  0.15145684055E+02  0.51100000000E-03 0. -1.
        -11    1    3    3    0    0  0.25598098671E+01 -0.53465005991E+01  0.24516253206E+01  0.64146833270E+01  0.51100000000E-03 0.  1.
        -12    1    3    3    0    0  0.25134894984E+02  0.18740140298E+02 -0.21011204442E+02  0.37741575436E+02  0.00000000000E+00 0.  1.
</event>
<event>
 7    1  0.1284645E-011  0.5930208E+02  0.7816164E-02  0.1266604E+00
        -11   -1    0    0    0    0  0.00000000000E+00  0.00000000000E+00  0.45593999997E+02  0.45594000000E+02  0.51100000000E-03 0.  1.
         11   -1    0    0    0    0 -0.00000000000E+00 -0.00000000000E+00 -0.45593999997E+02  0.45594000000E+02  0.51100000000E-03 0. -1.
    9900012    2    1    2    0    0 -0.19135289396E+02 -0.25017993359E+02  0.49651472013E+01  0.59302078675E+02  0.50000245564E+02 0.  0.
         12    1    1    2    0    0  0.19135289396E+02  0.25017993359E+02 -0.49651472013E+01  0.31885921325E+02  0.00000000000E+00 0. -1.
         11    1    3    3    0    0  0.23558391900E+00  0.38922050542E+01  0.19352794645E+01  0.43531674484E+01  0.51100000000E-03 0. -1.
        -11    1    3    3    0    0  0.16102964884E+01  0.98967564481E+01  0.40689190839E+01  0.10821041805E+02  0.51100000000E-03 0.  1.
        -12    1    3    3    0    0 -0.20981169804E+02 -0.38806954862E+02 -0.10390513471E+01  0.44127869422E+02  0.00000000000E+00 0.  1.
</event>
<event>
 7    1  0.1284645E-011  0.5930195E+02  0.7816164E-02  0.1266605E+00
        -11   -1    0    0    0    0  0.00000000000E+00  0.00000000000E+00  0.45593999997E+02  0.45594000000E+02  0.51100000000E-03 0. -1.
         11   -1    0    0    0    0 -0.00000000000E+00 -0.00000000000E+00 -0.45593999997E+02  0.45594000000E+02  0.51100000000E-03 0.  1.
    9900012    2    1    2    0    0  0.24458803561E+02 -0.20251730104E+02 -0.28903889478E+01  0.59301953019E+02  0.50000016398E+02 0.  0.
         12    1    1    2    0    0 -0.24458803561E+02  0.20251730104E+02  0.28903889478E+01  0.31886046981E+02  0.00000000000E+00 0. -1.
         11    1    3    3    0    0  0.45676916568E+01  0.70754303228E+01  0.33234143357E+01  0.90537618939E+01  0.51100000000E-03 0. -1.
        -11    1    3    3    0    0  0.26759127702E+00 -0.27455861834E+01 -0.16827414677E+02  0.17052030189E+02  0.51100000000E-03 0.  1.
         12    1    3    3    0    0  0.19623520627E+02 -0.24581574243E+02  0.10613611394E+02  0.33196160936E+02  0.00000000000E+00 0. -1.
</event>
<event>
 7    1  0.1284645E-011  0.5930210E+02  0.7816164E-02  0.1266604E+00
        -11   -1    0    0    0    0  0.00000000000E+00  0.00000000000E+00  0.45593999997E+02  0.45594000000E+02  0.51100000000E-03 0. -1.
         11   -1    0    0    0    0 -0.00000000000E+00 -0.00000000000E+00 -0.45593999997E+02  0.45594000000E+02  0.51100000000E-03 0.  1.
    9900012    2    1    2    0    0  0.27608651987E+02  0.11289721072E+02 -0.11270091774E+02  0.59302102882E+02  0.50000289712E+02 0.  0.
         12    1    1    2    0    0 -0.27608651987E+02 -0.11289721072E+02  0.11270091774E+02  0.31885897118E+02  0.00000000000E+00 0. -1.
         11    1    3    3    0    0  0.64521568935E+01  0.11432082446E+02 -0.59715261234E+01  0.14421579738E+02  0.51100000000E-03 0. -1.
        -11    1    3    3    0    0  0.22776638766E+02  0.53394215883E+01 -0.18933486187E+02  0.30095873402E+02  0.51100000000E-03 0.  1.
         12    1    3    3    0    0 -0.16201436729E+01 -0.54817829627E+01  0.13634920536E+02  0.14784649742E+02  0.00000000000E+00 0. -1.
</event>
<event>
 7    1  0.1284645E-011  0.5930196E+02  0.7816164E-02  0.1266605E+00
        -11   -1    0    0    0    0  0.00000000000E+00  0.00000000000E+00  0.45593999997E+02  0.45594000000E+02  0.51100000000E-03 0.  1.
         11   -1    0    0    0    0 -0.00000000000E+00 -0.00000000000E+00 -0.45593999997E+02  0.45594000000E+02  0.51100000000E-03 0. -1.
    9900012    2    1    2    0    0  0.67869488108E+01 -0.27783028195E+02  0.14098234812E+02  0.59301959878E+02  0.50000028908E+02 0.  0.
         12    1    1    2    0    0 -0.67869488108E+01  0.27783028195E+02 -0.14098234812E+02  0.31886040122E+02  0.00000000000E+00 0. -1.
         11    1    3    3    0    0 -0.23883213046E+01 -0.11312628925E+02 -0.53214805385E+01  0.12727835921E+02  0.51100000000E-03 0. -1.
        -11    1    3    3    0    0 -0.12229912407E+02  0.27028418848E+01  0.12779887044E+01  0.12590050322E+02  0.51100000000E-03 0.  1.
        -12    1    3    3    0    0  0.21405182522E+02 -0.19173241155E+02  0.18141726646E+02  0.33984073636E+02  0.00000000000E+00 0.  1.
</event>
<event>
 7    1  0.1284645E-011  0.5930193E+02  0.7816164E-02  0.1266605E+00
        -11   -1    0    0    0    0  0.00000000000E+00  0.00000000000E+00  0.45593999997E+02  0.45594000000E+02  0.51100000000E-03 0. -1.
         11   -1    0    0    0    0 -0.00000000000E+00 -0.00000000000E+00 -0.45593999997E+02  0.45594000000E+02  0.51100000000E-03 0.  1.
    9900012    2    1    2    0    0  0.36626086373E+01  0.17270613685E+02 -0.26552451304E+02  0.59301929854E+02  0.49999974150E+02 0.  0.
         12    1    1    2    0    0 -0.36626086373E+01 -0.17270613685E+02  0.26552451304E+02  0.31886070146E+02  0.00000000000E+00 0. -1.
         11    1    3    3    0    0  0.18232456593E+01  0.10731209342E+02  0.80412419232E+01  0.13533094643E+02  0.51100000000E-03 0. -1.
        -11    1    3    3    0    0  0.11861707609E+02 -0.25722794560E+01 -0.48210971422E+01  0.13059850953E+02  0.51100000000E-03 0.  1.
        -12    1    3    3    0    0 -0.10022344631E+02  0.91116837991E+01 -0.29772596085E+02  0.32708984258E+02  0.00000000000E+00 0.  1.
</event>
<event>
 7    1  0.1284645E-011  0.5930195E+02  0.7816164E-02  0.1266605E+00
        -11   -1    0    0    0    0  0.00000000000E+00  0.00000000000E+00  0.45593999997E+02  0.45594000000E+02  0.51100000000E-03 0. -1.
         11   -1    0    0    0    0 -0.00000000000E+00 -0.00000000000E+00 -0.45593999997E+02  0.45594000000E+02  0.51100000000E-03 0.  1.
    9900012    2    1    2    0    0  0.23389496612E+02 -0.21649145251E+02 -0.98299840104E+00  0.59301947756E+02  0.50000006800E+02 0.  0.
         12    1    1    2    0    0 -0.23389496612E+02  0.21649145251E+02  0.98299840104E+00  0.31886052244E+02  0.00000000000E+00 0. -1.
         11    1    3    3    0    0 -0.44926410076E+01 -0.11631284223E+02 -0.40744576311E+01  0.13117614156E+02  0.51100000000E-03 0. -1.
        -11    1    3    3    0    0  0.44580739367E+01  0.51460454791E+01 -0.12489696916E+02  0.14224933624E+02  0.51100000000E-03 0.  1.
         12    1    3    3    0    0  0.23424063683E+02 -0.15163906507E+02  0.15581156146E+02  0.31959399976E+02  0.00000000000E+00 0. -1.
</event>
<event>
 7    1  0.1284645E-011  0.5930195E+02  0.7816164E-02  0.1266605E+00
        -11   -1    0    0    0    0  0.00000000000E+00  0.00000000000E+00  0.45593999997E+02  0.45594000000E+02  0.51100000000E-03 0. -1.
         11   -1    0    0    0    0 -0.00000000000E+00 -0.00000000000E+00 -0.45593999997E+02  0.45594000000E+02  0.51100000000E-03 0.  1.
    9900012    2    1    2    0    0  0.30691920875E+02 -0.82754474208E+01  0.24985901054E+01  0.59301953059E+02  0.50000016471E+02 0.  0.
         12    1    1    2    0    0 -0.30691920875E+02  0.82754474208E+01 -0.24985901054E+01  0.31886046941E+02  0.00000000000E+00 0. -1.
         11    1    3    3    0    0  0.17084807108E+02 -0.15819723848E+02 -0.32292466644E+01  0.23507069805E+02  0.51100000000E-03 0. -1.
        -11    1    3    3    0    0  0.16121168195E+02 -0.84882066254E+01 -0.95515760407E+00  0.18244287928E+02  0.51100000000E-03 0.  1.
        -12    1    3    3    0    0 -0.25140544274E+01  0.16032483053E+02  0.66829943739E+01  0.17550595326E+02  0.00000000000E+00 0.  1.
</event>
<event>
 7    1  0.1284645E-011  0.5930193E+02  0.7816164E-02  0.1266605E+00
        -11   -1    0    0    0    0  0.00000000000E+00  0.00000000000E+00  0.45593999997E+02  0.45594000000E+02  0.51100000000E-03 0. -1.
         11   -1    0    0    0    0 -0.00000000000E+00 -0.00000000000E+00 -0.45593999997E+02  0.45594000000E+02  0.51100000000E-03 0.  1.
    9900012    2    1    2    0    0  0.28599022355E+02  0.13367235122E+01 -0.14036760356E+02  0.59301928578E+02  0.49999971824E+02 0.  0.
         12    1    1    2    0    0 -0.28599022355E+02 -0.13367235122E+01  0.14036760356E+02  0.31886071422E+02  0.00000000000E+00 0. -1.
         11    1    3    3    0    0  0.20062809064E+02 -0.81097946239E+01 -0.50768631099E+01  0.22227451849E+02  0.51100000000E-03 0.  1.
        -11    1    3    3    0    0  0.13587607344E+01 -0.34657527336E+01  0.11358623248E+02  0.11953074713E+02  0.51100000000E-03 0. -1.
         12    1    3    3    0    0  0.71774525567E+01  0.12912270870E+02 -0.20318520494E+02  0.25121402017E+02  0.00000000000E+00 0. -1.
</event>
<event>
 7    1  0.1284645E-011  0.5930197E+02  0.7816164E-02  0.1266605E+00
        -11   -1    0    0    0    0  0.00000000000E+00  0.00000000000E+00  0.45593999997E+02  0.45594000000E+02  0.51100000000E-03 0.  1.
         11   -1    0    0    0    0 -0.00000000000E+00 -0.00000000000E+00 -0.45593999997E+02  0.45594000000E+02  0.51100000000E-03 0. -1.
    9900012    2    1    2    0    0  0.53812454283E+00 -0.25695996075E+02  0.18871815764E+02  0.59301965086E+02  0.50000038405E+02 0.  0.
         12    1    1    2    0    0 -0.53812454283E+00  0.25695996075E+02 -0.18871815764E+02  0.31886034914E+02  0.00000000000E+00 0. -1.
         11    1    3    3    0    0  0.97858297666E+01 -0.30323145240E+02  0.59107346413E+00  0.31868557695E+02  0.51100000000E-03 0. -1.
        -11    1    3    3    0    0 -0.57200133510E+00 -0.42240722514E+01 -0.11239671275E+01  0.44083187586E+01  0.51100000000E-03 0.  1.
        -12    1    3    3    0    0 -0.86757038886E+01  0.88512214166E+01  0.19404709428E+02  0.23025088632E+02  0.00000000000E+00 0.  1.
</event>
<event>
 7    1  0.1284645E-011  0.5930194E+02  0.7816164E-02  0.1266605E+00
        -11   -1    0    0    0    0  0.00000000000E+00  0.00000000000E+00  0.45593999997E+02  0.45594000000E+02  0.51100000000E-03 0.  1.
         11   -1    0    0    0    0 -0.00000000000E+00 -0.00000000000E+00 -0.45593999997E+02  0.45594000000E+02  0.51100000000E-03 0. -1.
    9900012    2    1    2    0    0 -0.12645901446E+02  0.25692761398E+02  0.14024406367E+02  0.59301940576E+02  0.49999993705E+02 0.  0.
         12    1    1    2    0    0  0.12645901446E+02 -0.25692761398E+02 -0.14024406367E+02  0.31886059424E+02  0.00000000000E+00 0. -1.
         11    1    3    3    0    0 -0.19295947177E+02  0.15546680121E+01 -0.51418170296E+01  0.20029699266E+02  0.51100000000E-03 0. -1.
        -11    1    3    3    0    0  0.54771532776E+01 -0.10792741303E+01 -0.23936947334E+01  0.60740279398E+01  0.51100000000E-03 0.  1.
        -12    1    3    3    0    0  0.11728924533E+01  0.25217367516E+02  0.21559918130E+02  0.33198213370E+02  0.00000000000E+00 0.  1.
</event>
<event>
 7    1  0.1284645E-011  0.5930192E+02  0.7816164E-02  0.1266605E+00
        -11   -1    0    0    0    0  0.00000000000E+00  0.00000000000E+00  0.45593999997E+02  0.45594000000E+02  0.51100000000E-03 0. -1.
         11   -1    0    0    0    0 -0.00000000000E+00 -0.00000000000E+00 -0.45593999997E+02  0.45594000000E+02  0.51100000000E-03 0.  1.
    9900012    2    1    2    0    0 -0.88600884377E+00 -0.24384375342E+02 -0.20526549107E+02  0.59301921678E+02  0.49999959239E+02 0.  0.
         12    1    1    2    0    0  0.88600884377E+00  0.24384375342E+02  0.20526549107E+02  0.31886078322E+02  0.00000000000E+00 0. -1.
         11    1    3    3    0    0 -0.57203914071E+01 -0.16380807546E+02  0.83080871051E-01  0.17351098997E+02  0.51100000000E-03 0. -1.
        -11    1    3    3    0    0  0.55022942878E+01 -0.21847032071E+02 -0.14586566303E+02  0.26839075422E+02  0.51100000000E-03 0.  1.
        -12    1    3    3    0    0 -0.66791172443E+00  0.13843464274E+02 -0.60230636752E+01  0.15111747259E+02  0.00000000000E+00 0.  1.
</event>
<event>
 7    1  0.1284645E-011  0.5930194E+02  0.7816164E-02  0.1266605E+00
        -11   -1    0    0    0    0  0.00000000000E+00  0.00000000000E+00  0.45593999997E+02  0.45594000000E+02  0.51100000000E-03 0. -1.
         11   -1    0    0    0    0 -0.00000000000E+00 -0.00000000000E+00 -0.45593999997E+02  0.45594000000E+02  0.51100000000E-03 0.  1.
    9900012    2    1    2    0    0 -0.20292820443E+01 -0.17874399161E+02 -0.26326957363E+02  0.59301940116E+02  0.49999992865E+02 0.  0.
         12    1    1    2    0    0  0.20292820443E+01  0.17874399161E+02  0.26326957363E+02  0.31886059884E+02  0.00000000000E+00 0. -1.
         11    1    3    3    0    0  0.16537979696E+02 -0.28835243562E+00 -0.54551533233E+01  0.17416848670E+02  0.51100000000E-03 0. -1.
        -11    1    3    3    0    0 -0.42815113274E+01 -0.79128289445E+01  0.53716701938E+01  0.10478503809E+02  0.51100000000E-03 0.  1.
        -12    1    3    3    0    0 -0.14285750413E+02 -0.96732177807E+01 -0.26243474233E+02  0.31406587636E+02  0.00000000000E+00 0.  1.
</event>
<event>
 7    1  0.1284645E-011  0.5930193E+02  0.7816164E-02  0.1266605E+00
        -11   -1    0    0    0    0  0.00000000000E+00  0.00000000000E+00  0.45593999997E+02  0.45594000000E+02  0.51100000000E-03 0. -1.
         11   -1    0    0    0    0 -0.00000000000E+00 -0.00000000000E+00 -0.45593999997E+02  0.45594000000E+02  0.51100000000E-03 0.  1.
    9900012    2    1    2    0    0  0.58226671795E+01 -0.23349560139E+02 -0.20919271746E+02  0.59301931848E+02  0.49999977788E+02 0.  0.
         12    1    1    2    0    0 -0.58226671795E+01  0.23349560139E+02  0.20919271746E+02  0.31886068152E+02  0.00000000000E+00 0. -1.
         11    1    3    3    0    0  0.99348697574E+00  0.26721745148E+01  0.31641594439E+01  0.42590419411E+01  0.51100000000E-03 0. -1.
        -11    1    3    3    0    0 -0.26341835221E+01  0.35262689317E+01 -0.24169254390E+02  0.24566773363E+02  0.51100000000E-03 0.  1.
         12    1    3    3    0    0  0.74633637259E+01 -0.29548003586E+02  0.85823200011E-01  0.30476116544E+02  0.00000000000E+00 0. -1.
</event>
<event>
 7    1  0.1284645E-011  0.5930194E+02  0.7816164E-02  0.1266605E+00
        -11   -1    0    0    0    0  0.00000000000E+00  0.00000000000E+00  0.45593999997E+02  0.45594000000E+02  0.51100000000E-03 0.  1.
         11   -1    0    0    0    0 -0.00000000000E+00 -0.00000000000E+00 -0.45593999997E+02  0.45594000000E+02  0.51100000000E-03 0. -1.
    9900012    2    1    2    0    0  0.25717865267E+02  0.10317131381E+02  0.15775577767E+02  0.59301942738E+02  0.49999997648E+02 0.  0.
         12    1    1    2    0    0 -0.25717865267E+02 -0.10317131381E+02 -0.15775577767E+02  0.31886057262E+02  0.00000000000E+00 0. -1.
         11    1    3    3    0    0  0.17417177320E+02  0.56379283483E+01  0.14547292117E+02  0.23383071014E+02  0.51100000000E-03 0.  1.
        -11    1    3    3    0    0  0.20151582905E+02  0.97144579003E+01 -0.25091987887E+01  0.22511176440E+02  0.51100000000E-03 0. -1.
        -12    1    3    3    0    0 -0.11850894958E+02 -0.50352548675E+01  0.37374844387E+01  0.13407695284E+02  0.00000000000E+00 0.  1.
</event>
<event>
 7    1  0.1284645E-011  0.5930188E+02  0.7816164E-02  0.1266605E+00
        -11   -1    0    0    0    0  0.00000000000E+00  0.00000000000E+00  0.45593999997E+02  0.45594000000E+02  0.51100000000E-03 0. -1.
         11   -1    0    0    0    0 -0.00000000000E+00 -0.00000000000E+00 -0.45593999997E+02  0.45594000000E+02  0.51100000000E-03 0.  1.
    9900012    2    1    2    0    0  0.51377952048E+01  0.90011130520E+01 -0.30154727880E+02  0.59301880931E+02  0.49999884927E+02 0.  0.
         12    1    1    2    0    0 -0.51377952048E+01 -0.90011130520E+01  0.30154727880E+02  0.31886119069E+02  0.00000000000E+00 0. -1.
         11    1    3    3    0    0  0.93639477154E+01 -0.88342064436E+01 -0.29963223035E+01  0.13217589338E+02  0.51100000000E-03 0. -1.
        -11    1    3    3    0    0  0.13970103330E+02  0.94082132159E+01 -0.93426854355E+01  0.19260426640E+02  0.51100000000E-03 0.  1.
         12    1    3    3    0    0 -0.18196255840E+02  0.84271062797E+01 -0.17815720141E+02  0.26823864953E+02  0.00000000000E+00 0. -1.
</event>
<event>
 7    1  0.1284645E-011  0.5930197E+02  0.7816164E-02  0.1266605E+00
        -11   -1    0    0    0    0  0.00000000000E+00  0.00000000000E+00  0.45593999997E+02  0.45594000000E+02  0.51100000000E-03 0. -1.
         11   -1    0    0    0    0 -0.00000000000E+00 -0.00000000000E+00 -0.45593999997E+02  0.45594000000E+02  0.51100000000E-03 0.  1.
    9900012    2    1    2    0    0  0.31621883348E+02 -0.31887160923E+01  0.25705631816E+01  0.59301965253E+02  0.50000038710E+02 0.  0.
         12    1    1    2    0    0 -0.31621883348E+02  0.31887160923E+01 -0.25705631816E+01  0.31886034747E+02  0.00000000000E+00 0. -1.
         11    1    3    3    0    0 -0.38509013575E+01  0.73919853021E+01  0.24728938054E+00  0.83385874266E+01  0.51100000000E-03 0. -1.
        -11    1    3    3    0    0  0.13975249688E+02 -0.11663158162E+02 -0.14798656811E+02  0.23459264819E+02  0.51100000000E-03 0.  1.
        -12    1    3    3    0    0  0.21497535017E+02  0.10824567672E+01  0.17121930612E+02  0.27504113008E+02  0.00000000000E+00 0.  1.
</event>
<event>
 7    1  0.1284645E-011  0.5930197E+02  0.7816164E-02  0.1266605E+00
        -11   -1    0    0    0    0  0.00000000000E+00  0.00000000000E+00  0.45593999997E+02  0.45594000000E+02  0.51100000000E-03 0. -1.
         11   -1    0    0    0    0 -0.00000000000E+00 -0.00000000000E+00 -0.45593999997E+02  0.45594000000E+02  0.51100000000E-03 0.  1.
    9900012    2    1    2    0    0  0.91472336550E+01  0.20706848327E+02 -0.22456033300E+02  0.59301970414E+02  0.50000048123E+02 0.  0.
         12    1    1    2    0    0 -0.91472336550E+01 -0.20706848327E+02  0.22456033300E+02  0.31886029586E+02  0.00000000000E+00 0. -1.
         11    1    3    3    0    0  0.18664645271E+02 -0.85566522874E+00 -0.24748335704E+01  0.18847438753E+02  0.51100000000E-03 0. -1.
        -11    1    3    3    0    0  0.83960419693E+01  0.60083720811E+01 -0.16101915173E+01  0.10449247475E+02  0.51100000000E-03 0.  1.
        -12    1    3    3    0    0 -0.17913453585E+02  0.15554141474E+02 -0.18371008212E+02  0.30005284186E+02  0.00000000000E+00 0.  1.
</event>
<event>
 7    1  0.1284645E-011  0.5930225E+02  0.7816164E-02  0.1266604E+00
        -11   -1    0    0    0    0  0.00000000000E+00  0.00000000000E+00  0.45593999997E+02  0.45594000000E+02  0.51100000000E-03 0. -1.
         11   -1    0    0    0    0 -0.00000000000E+00 -0.00000000000E+00 -0.45593999997E+02  0.45594000000E+02  0.51100000000E-03 0.  1.
    9900012    2    1    2    0    0  0.36997082475E+01 -0.27459770149E+02 -0.15778926151E+02  0.59302245685E+02  0.50000550148E+02 0.  0.
         12    1    1    2    0    0 -0.36997082475E+01  0.27459770149E+02  0.15778926151E+02  0.31885754315E+02  0.00000000000E+00 0. -1.
         11    1    3    3    0    0 -0.60941852148E+01 -0.34623374461E+02 -0.89282711877E+01  0.36271630500E+02  0.51100000000E-03 0. -1.
        -11    1    3    3    0    0  0.45298060077E+01  0.13610275370E+01  0.62064994340E+01  0.78033437646E+01  0.51100000000E-03 0.  1.
        -12    1    3    3    0    0  0.52640874546E+01  0.58025767753E+01 -0.13057154397E+02  0.15227271420E+02  0.00000000000E+00 0.  1.
</event>
<event>
 7    1  0.1284645E-011  0.5930192E+02  0.7816164E-02  0.1266605E+00
        -11   -1    0    0    0    0  0.00000000000E+00  0.00000000000E+00  0.45593999997E+02  0.45594000000E+02  0.51100000000E-03 0.  1.
         11   -1    0    0    0    0 -0.00000000000E+00 -0.00000000000E+00 -0.45593999997E+02  0.45594000000E+02  0.51100000000E-03 0. -1.
    9900012    2    1    2    0    0  0.90675253355E+01 -0.20593026014E+02  0.22592680250E+02  0.59301922521E+02  0.49999960776E+02 0.  0.
         12    1    1    2    0    0 -0.90675253355E+01  0.20593026014E+02 -0.22592680250E+02  0.31886077479E+02  0.00000000000E+00 0. -1.
         11    1    3    3    0    0  0.15927645079E+01 -0.81418909707E+01  0.32514436736E+00  0.83025903474E+01  0.51100000000E-03 0. -1.
        -11    1    3    3    0    0  0.12654885807E+02 -0.25369780643E+02  0.49467634103E+01  0.28779200356E+02  0.51100000000E-03 0.  1.
         12    1    3    3    0    0 -0.51801249791E+01  0.12918645599E+02  0.17320772473E+02  0.22220131817E+02  0.00000000000E+00 0. -1.
</event>
<event>
 7    1  0.1284645E-011  0.5930196E+02  0.7816164E-02  0.1266605E+00
        -11   -1    0    0    0    0  0.00000000000E+00  0.00000000000E+00  0.45593999997E+02  0.45594000000E+02  0.51100000000E-03 0.  1.
         11   -1    0    0    0    0 -0.00000000000E+00 -0.00000000000E+00 -0.45593999997E+02  0.45594000000E+02  0.51100000000E-03 0. -1.
    9900012    2    1    2    0    0  0.66109212770E+01 -0.25610205255E+02  0.17808227001E+02  0.59301955368E+02  0.50000020683E+02 0.  0.
         12    1    1    2    0    0 -0.66109212770E+01  0.25610205255E+02 -0.17808227001E+02  0.31886044632E+02  0.00000000000E+00 0. -1.
         11    1    3    3    0    0 -0.89293740768E+01 -0.20498868457E+02  0.11359653739E+02  0.25079454993E+02  0.51100000000E-03 0. -1.
        -11    1    3    3    0    0  0.19863109439E+02 -0.52982191660E+01  0.14448689809E+02  0.25127253738E+02  0.51100000000E-03 0.  1.
         12    1    3    3    0    0 -0.43228140855E+01  0.18688236790E+00 -0.80001165470E+01  0.90952466379E+01  0.00000000000E+00 0. -1.
</event>
<event>
 7    1  0.1284645E-011  0.5930194E+02  0.7816164E-02  0.1266605E+00
        -11   -1    0    0    0    0  0.00000000000E+00  0.00000000000E+00  0.45593999997E+02  0.45594000000E+02  0.51100000000E-03 0. -1.
         11   -1    0    0    0    0 -0.00000000000E+00 -0.00000000000E+00 -0.45593999997E+02  0.45594000000E+02  0.51100000000E-03 0.  1.
    9900012    2    1    2    0    0  0.23046694499E+01 -0.16508748764E+02 -0.27182174660E+02  0.59301938684E+02  0.49999990254E+02 0.  0.
         12    1    1    2    0    0 -0.23046694499E+01  0.16508748764E+02  0.27182174660E+02  0.31886061316E+02  0.00000000000E+00 0. -1.
         11    1    3    3    0    0  0.68823787160E+01 -0.92074937346E+01 -0.22528423077E+02  0.25291795591E+02  0.51100000000E-03 0.  1.
        -11    1    3    3    0    0 -0.36779504906E+01 -0.18767739936E+02 -0.97071422354E+01  0.21447237415E+02  0.51100000000E-03 0. -1.
         12    1    3    3    0    0 -0.89975877555E+00  0.11466484907E+02  0.50533906523E+01  0.12562905677E+02  0.00000000000E+00 0. -1.
</event>
<event>
 7    1  0.1284645E-011  0.5930195E+02  0.7816164E-02  0.1266605E+00
        -11   -1    0    0    0    0  0.00000000000E+00  0.00000000000E+00  0.45593999997E+02  0.45594000000E+02  0.51100000000E-03 0. -1.
         11   -1    0    0    0    0 -0.00000000000E+00 -0.00000000000E+00 -0.45593999997E+02  0.45594000000E+02  0.51100000000E-03 0.  1.
    9900012    2    1    2    0    0  0.30059789895E+02 -0.32839318113E+00 -0.10631154669E+02  0.59301948815E+02  0.50000008730E+02 0.  0.
         12    1    1    2    0    0 -0.30059789895E+02  0.32839318113E+00  0.10631154669E+02  0.31886051185E+02  0.00000000000E+00 0. -1.
         11    1    3    3    0    0  0.95724066548E+01  0.18923792603E+02  0.53088195269E+01  0.21861483497E+02  0.51100000000E-03 0. -1.
        -11    1    3    3    0    0  0.16198966697E+02 -0.24154639391E+01 -0.61275972088E+01  0.17486807482E+02  0.51100000000E-03 0.  1.
        -12    1    3    3    0    0  0.42884165432E+01 -0.16836721845E+02 -0.98123769867E+01  0.19953657837E+02  0.00000000000E+00 0.  1.
</event>
<event>
 7    1  0.1284645E-011  0.5930211E+02  0.7816164E-02  0.1266604E+00
        -11   -1    0    0    0    0  0.00000000000E+00  0.00000000000E+00  0.45593999997E+02  0.45594000000E+02  0.51100000000E-03 0.  1.
         11   -1    0    0    0    0 -0.00000000000E+00 -0.00000000000E+00 -0.45593999997E+02  0.45594000000E+02  0.51100000000E-03 0. -1.
    9900012    2    1    2    0    0 -0.15813514033E+02  0.11625913052E+02  0.25129288245E+02  0.59302106441E+02  0.50000296202E+02 0.  0.
         12    1    1    2    0    0  0.15813514033E+02 -0.11625913052E+02 -0.25129288245E+02  0.31885893559E+02  0.00000000000E+00 0. -1.
         11    1    3    3    0    0 -0.11740559855E+01 -0.20705658274E+01  0.16576390995E+02  0.16746414213E+02  0.51100000000E-03 0.  1.
        -11    1    3    3    0    0 -0.14380359301E+02  0.14583415222E+02 -0.10818206712E+02  0.23162563112E+02  0.51100000000E-03 0. -1.
         12    1    3    3    0    0 -0.25909874638E+00 -0.88693634242E+00  0.19371103962E+02  0.19393129117E+02  0.00000000000E+00 0. -1.
</event>
<event>
 7    1  0.1284645E-011  0.5930194E+02  0.7816164E-02  0.1266605E+00
        -11   -1    0    0    0    0  0.00000000000E+00  0.00000000000E+00  0.45593999997E+02  0.45594000000E+02  0.51100000000E-03 0. -1.
         11   -1    0    0    0    0 -0.00000000000E+00 -0.00000000000E+00 -0.45593999997E+02  0.45594000000E+02  0.51100000000E-03 0.  1.
    9900012    2    1    2    0    0 -0.61072684687E+01 -0.12906136874E+02 -0.28510594521E+02  0.59301935691E+02  0.49999984797E+02 0.  0.
         12    1    1    2    0    0  0.61072684687E+01  0.12906136874E+02  0.28510594521E+02  0.31886064309E+02  0.00000000000E+00 0. -1.
         11    1    3    3    0    0  0.50277283309E+00 -0.46523907494E+01 -0.38945836335E+02  0.39225956818E+02  0.51100000000E-03 0. -1.
        -11    1    3    3    0    0  0.11306863833E+01 -0.26228122143E+01 -0.26278997558E+01  0.38811664480E+01  0.51100000000E-03 0.  1.
         12    1    3    3    0    0 -0.77407276851E+01 -0.56309339102E+01  0.13063141570E+02  0.16194812425E+02  0.00000000000E+00 0. -1.
</event>
<event>
 7    1  0.1284645E-011  0.5930192E+02  0.7816164E-02  0.1266605E+00
        -11   -1    0    0    0    0  0.00000000000E+00  0.00000000000E+00  0.45593999997E+02  0.45594000000E+02  0.51100000000E-03 0.  1.
         11   -1    0    0    0    0 -0.00000000000E+00 -0.00000000000E+00 -0.45593999997E+02  0.45594000000E+02  0.51100000000E-03 0. -1.
    9900012    2    1    2    0    0  0.32465714455E+00 -0.30325397368E+02  0.98482080366E+01  0.59301916369E+02  0.49999949558E+02 0.  0.
         12    1    1    2    0    0 -0.32465714455E+00  0.30325397368E+02 -0.98482080366E+01  0.31886083631E+02  0.00000000000E+00 0. -1.
         11    1    3    3    0    0  0.11780162279E+02 -0.20768045053E+02  0.81693268717E+00  0.23890401795E+02  0.51100000000E-03 0. -1.
        -11    1    3    3    0    0  0.56536598044E+00 -0.94227639160E+01 -0.94547331744E+01  0.13360392890E+02  0.51100000000E-03 0.  1.
         12    1    3    3    0    0 -0.12020871115E+02 -0.13458839846E+00  0.18486008524E+02  0.22051121684E+02  0.00000000000E+00 0. -1.
</event>
<event>
 7    1  0.1284645E-011  0.5930197E+02  0.7816164E-02  0.1266605E+00
        -11   -1    0    0    0    0  0.00000000000E+00  0.00000000000E+00  0.45593999997E+02  0.45594000000E+02  0.51100000000E-03 0.  1.
         11   -1    0    0    0    0 -0.00000000000E+00 -0.00000000000E+00 -0.45593999997E+02  0.45594000000E+02  0.51100000000E-03 0. -1.
    9900012    2    1    2    0    0 -0.28249188840E+02 -0.14662887284E+02 -0.19240531844E+01  0.59301969920E+02  0.50000047221E+02 0.  0.
         12    1    1    2    0    0  0.28249188840E+02  0.14662887284E+02  0.19240531844E+01  0.31886030080E+02  0.00000000000E+00 0. -1.
         11    1    3    3    0    0 -0.14013822011E+02 -0.28081359539E+02 -0.14992564375E+02  0.34781129190E+02  0.51100000000E-03 0. -1.
        -11    1    3    3    0    0 -0.83459879244E+00 -0.82709942239E+00  0.96589976847E+00  0.15210559565E+01  0.51100000000E-03 0.  1.
        -12    1    3    3    0    0 -0.13400768037E+02  0.14245571677E+02  0.12102611422E+02  0.22999784773E+02  0.00000000000E+00 0.  1.
</event>
<event>
 7    1  0.1284645E-011  0.5930195E+02  0.7816164E-02  0.1266605E+00
        -11   -1    0    0    0    0  0.00000000000E+00  0.00000000000E+00  0.45593999997E+02  0.45594000000E+02  0.51100000000E-03 0.  1.
         11   -1    0    0    0    0 -0.00000000000E+00 -0.00000000000E+00 -0.45593999997E+02  0.45594000000E+02  0.51100000000E-03 0. -1.
    9900012    2    1    2    0    0  0.18171161424E+02  0.14202121431E+02 -0.22018835206E+02  0.59301945611E+02  0.50000002888E+02 0.  0.
         12    1    1    2    0    0 -0.18171161424E+02 -0.14202121431E+02  0.22018835206E+02  0.31886054389E+02  0.00000000000E+00 0. -1.
         11    1    3    3    0    0  0.14653015804E+02 -0.43770524852E+01 -0.23535639681E+02  0.28067700228E+02  0.51100000000E-03 0. -1.
        -11    1    3    3    0    0  0.60956143022E+01  0.46178919924E+01 -0.10254324951E+02  0.12791896679E+02  0.51100000000E-03 0.  1.
        -12    1    3    3    0    0 -0.25774686822E+01  0.13961281924E+02  0.11771129426E+02  0.18442348704E+02  0.00000000000E+00 0.  1.
</event>
<event>
 7    1  0.1284645E-011  0.5930194E+02  0.7816164E-02  0.1266605E+00
        -11   -1    0    0    0    0  0.00000000000E+00  0.00000000000E+00  0.45593999997E+02  0.45594000000E+02  0.51100000000E-03 0.  1.
         11   -1    0    0    0    0 -0.00000000000E+00 -0.00000000000E+00 -0.45593999997E+02  0.45594000000E+02  0.51100000000E-03 0. -1.
    9900012    2    1    2    0    0  0.20937451741E+01  0.18529627574E+02  0.25864842422E+02  0.59301938148E+02  0.49999989277E+02 0.  0.
         12    1    1    2    0    0 -0.20937451741E+01 -0.18529627574E+02 -0.25864842422E+02  0.31886061852E+02  0.00000000000E+00 0. -1.
         11    1    3    3    0    0  0.45418939302E+01 -0.22808306762E+01 -0.52997419626E+01  0.73429050230E+01  0.51100000000E-03 0. -1.
        -11    1    3    3    0    0 -0.14454232363E+02 -0.30007749064E+01  0.90515241677E+01  0.17316453830E+02  0.51100000000E-03 0.  1.
        -12    1    3    3    0    0  0.12006083607E+02  0.23811233157E+02  0.22113060217E+02  0.34642579295E+02  0.00000000000E+00 0.  1.
</event>
<event>
 7    1  0.1284645E-011  0.5930195E+02  0.7816164E-02  0.1266605E+00
        -11   -1    0    0    0    0  0.00000000000E+00  0.00000000000E+00  0.45593999997E+02  0.45594000000E+02  0.51100000000E-03 0. -1.
         11   -1    0    0    0    0 -0.00000000000E+00 -0.00000000000E+00 -0.45593999997E+02  0.45594000000E+02  0.51100000000E-03 0.  1.
    9900012    2    1    2    0    0 -0.31044927192E+02 -0.52083237149E+01 -0.50799438964E+01  0.59301953361E+02  0.50000017021E+02 0.  0.
         12    1    1    2    0    0  0.31044927192E+02  0.52083237149E+01  0.50799438964E+01  0.31886046639E+02  0.00000000000E+00 0. -1.
         11    1    3    3    0    0 -0.21882919765E+02 -0.58209110632E+01 -0.37730766338E+01  0.22956073065E+02  0.51100000000E-03 0. -1.
        -11    1    3    3    0    0 -0.51969931249E+01 -0.16985161904E+02  0.24184234212E+01  0.17926327971E+02  0.51100000000E-03 0.  1.
        -12    1    3    3    0    0 -0.39650143025E+01  0.17597749252E+02 -0.37252906838E+01  0.18419552324E+02  0.00000000000E+00 0.  1.
</event>
<event>
 7    1  0.1284645E-011  0.5930195E+02  0.7816164E-02  0.1266605E+00
        -11   -1    0    0    0    0  0.00000000000E+00  0.00000000000E+00  0.45593999997E+02  0.45594000000E+02  0.51100000000E-03 0.  1.
         11   -1    0    0    0    0 -0.00000000000E+00 -0.00000000000E+00 -0.45593999997E+02  0.45594000000E+02  0.51100000000E-03 0. -1.
    9900012    2    1    2    0    0  0.61344889007E+01 -0.18725258062E+02  0.25068967860E+02  0.59301946730E+02  0.50000004929E+02 0.  0.
         12    1    1    2    0    0 -0.61344889007E+01  0.18725258062E+02 -0.25068967860E+02  0.31886053270E+02  0.00000000000E+00 0. -1.
         11    1    3    3    0    0 -0.65907876810E+01 -0.88381609310E+01  0.13016510829E+01  0.11101615500E+02  0.51100000000E-03 0. -1.
        -11    1    3    3    0    0 -0.57557637817E+01 -0.15747204627E+02  0.23428263341E+02  0.28809491382E+02  0.51100000000E-03 0.  1.
         12    1    3    3    0    0  0.18481040363E+02  0.58601074965E+01  0.33905343631E+00  0.19390839848E+02  0.00000000000E+00 0. -1.
</event>
<event>
 7    1  0.1284645E-011  0.5930194E+02  0.7816164E-02  0.1266605E+00
        -11   -1    0    0    0    0  0.00000000000E+00  0.00000000000E+00  0.45593999997E+02  0.45594000000E+02  0.51100000000E-03 0.  1.
         11   -1    0    0    0    0 -0.00000000000E+00 -0.00000000000E+00 -0.45593999997E+02  0.45594000000E+02  0.51100000000E-03 0. -1.
    9900012    2    1    2    0    0 -0.56809096144E+01  0.12895612711E+02  0.28603342269E+02  0.59301941131E+02  0.49999994718E+02 0.  0.
         12    1    1    2    0    0  0.56809096144E+01 -0.12895612711E+02 -0.28603342269E+02  0.31886058869E+02  0.00000000000E+00 0. -1.
         11    1    3    3    0    0  0.73006230014E+01 -0.46796221598E+01 -0.84382868747E+01  0.12099696087E+02  0.51100000000E-03 0. -1.
        -11    1    3    3    0    0 -0.24224400246E+01 -0.24951403286E+01 -0.32424312460E+00  0.34927173944E+01  0.51100000000E-03 0.  1.
        -12    1    3    3    0    0 -0.10559092591E+02  0.20070375200E+02  0.37365872268E+02  0.43709527650E+02  0.00000000000E+00 0.  1.
</event>
<event>
 7    1  0.1284645E-011  0.5930195E+02  0.7816164E-02  0.1266605E+00
        -11   -1    0    0    0    0  0.00000000000E+00  0.00000000000E+00  0.45593999997E+02  0.45594000000E+02  0.51100000000E-03 0.  1.
         11   -1    0    0    0    0 -0.00000000000E+00 -0.00000000000E+00 -0.45593999997E+02  0.45594000000E+02  0.51100000000E-03 0. -1.
    9900012    2    1    2    0    0 -0.16942634761E+02  0.17226611710E+02  0.20806511314E+02  0.59301953887E+02  0.50000017982E+02 0.  0.
         12    1    1    2    0    0  0.16942634761E+02 -0.17226611710E+02 -0.20806511314E+02  0.31886046113E+02  0.00000000000E+00 0. -1.
         11    1    3    3    0    0  0.37738124853E+01 -0.23914720258E+01 -0.35408281578E+01  0.57007248161E+01  0.51100000000E-03 0. -1.
        -11    1    3    3    0    0 -0.29548547361E+01  0.24875022183E+02  0.28300427399E+01  0.25209264909E+02  0.51100000000E-03 0.  1.
         12    1    3    3    0    0 -0.17761592510E+02 -0.52569384471E+01  0.21517296732E+02  0.28391964162E+02  0.00000000000E+00 0. -1.
</event>
<event>
 7    1  0.1284645E-011  0.5930194E+02  0.7816164E-02  0.1266605E+00
        -11   -1    0    0    0    0  0.00000000000E+00  0.00000000000E+00  0.45593999997E+02  0.45594000000E+02  0.51100000000E-03 0.  1.
         11   -1    0    0    0    0 -0.00000000000E+00 -0.00000000000E+00 -0.45593999997E+02  0.45594000000E+02  0.51100000000E-03 0. -1.
    9900012    2    1    2    0    0 -0.29672662761E+02 -0.11287559168E+02  0.29740381432E+01  0.59301940191E+02  0.49999993002E+02 0.  0.
         12    1    1    2    0    0  0.29672662761E+02  0.11287559168E+02 -0.29740381432E+01  0.31886059809E+02  0.00000000000E+00 0. -1.
         11    1    3    3    0    0 -0.51552719087E+01 -0.12214199468E+02  0.55594664982E+00  0.13269234116E+02  0.51100000000E-03 0. -1.
        -11    1    3    3    0    0 -0.26285677161E+02 -0.13070774090E+02 -0.54808163483E+01  0.29863377358E+02  0.51100000000E-03 0.  1.
        -12    1    3    3    0    0  0.17682863085E+01  0.13997414389E+02  0.78989078417E+01  0.16169328717E+02  0.00000000000E+00 0.  1.
</event>
<event>
 7    1  0.1284645E-011  0.5930195E+02  0.7816164E-02  0.1266605E+00
        -11   -1    0    0    0    0  0.00000000000E+00  0.00000000000E+00  0.45593999997E+02  0.45594000000E+02  0.51100000000E-03 0.  1.
         11   -1    0    0    0    0 -0.00000000000E+00 -0.00000000000E+00 -0.45593999997E+02  0.45594000000E+02  0.51100000000E-03 0. -1.
    9900012    2    1    2    0    0 -0.47005721201E+01  0.64916553460E+01  0.30862331973E+02  0.59301945020E+02  0.50000001809E+02 0.  0.
         12    1    1    2    0    0  0.47005721201E+01 -0.64916553460E+01 -0.30862331973E+02  0.31886054980E+02  0.00000000000E+00 0. -1.
         11    1    3    3    0    0 -0.14590984159E+02 -0.20112321332E+01  0.21303803448E+02  0.25899689477E+02  0.51100000000E-03 0. -1.
        -11    1    3    3    0    0 -0.66800684446E+01  0.99854118580E+01  0.11527132951E+02  0.16649521276E+02  0.51100000000E-03 0.  1.
        -12    1    3    3    0    0  0.16570480484E+02 -0.14825243787E+01 -0.19686044257E+01  0.16752734266E+02  0.00000000000E+00 0.  1.
</event>
<event>
 7    1  0.1284645E-011  0.5930195E+02  0.7816164E-02  0.1266605E+00
        -11   -1    0    0    0    0  0.00000000000E+00  0.00000000000E+00  0.45593999997E+02  0.45594000000E+02  0.51100000000E-03 0.  1.
         11   -1    0    0    0    0 -0.00000000000E+00 -0.00000000000E+00 -0.45593999997E+02  0.45594000000E+02  0.51100000000E-03 0. -1.
    9900012    2    1    2    0    0  0.17939903325E+02 -0.12981820122E+02  0.22942369231E+02  0.59301951469E+02  0.50000013571E+02 0.  0.
         12    1    1    2    0    0 -0.17939903325E+02  0.12981820122E+02 -0.22942369231E+02  0.31886048531E+02  0.00000000000E+00 0. -1.
         11    1    3    3    0    0  0.62275904270E+01 -0.19465415026E+02  0.15694978713E+02  0.25768539379E+02  0.51100000000E-03 0.  1.
        -11    1    3    3    0    0  0.30275282338E+01 -0.11000122416E+02 -0.25504075268E+01  0.11690731337E+02  0.51100000000E-03 0. -1.
         12    1    3    3    0    0  0.86847846638E+01  0.17483717320E+02  0.97977980446E+01  0.21842680753E+02  0.00000000000E+00 0. -1.
</event>
<event>
 7    1  0.1284645E-011  0.5930202E+02  0.7816164E-02  0.1266605E+00
        -11   -1    0    0    0    0  0.00000000000E+00  0.00000000000E+00  0.45593999997E+02  0.45594000000E+02  0.51100000000E-03 0. -1.
         11   -1    0    0    0    0 -0.00000000000E+00 -0.00000000000E+00 -0.45593999997E+02  0.45594000000E+02  0.51100000000E-03 0.  1.
    9900012    2    1    2    0    0  0.20689185124E+02  0.22063645286E+02 -0.10093023472E+02  0.59302016446E+02  0.50000132073E+02 0.  0.
         12    1    1    2    0    0 -0.20689185124E+02 -0.22063645286E+02  0.10093023472E+02  0.31885983554E+02  0.00000000000E+00 0. -1.
         11    1    3    3    0    0  0.57633221423E+01 -0.33701499007E+01 -0.93584800262E+01  0.11495866263E+02  0.51100000000E-03 0. -1.
        -11    1    3    3    0    0  0.74546293493E+01  0.31681165203E+02 -0.10317865489E+02  0.34142730937E+02  0.51100000000E-03 0.  1.
         12    1    3    3    0    0  0.74712336322E+01 -0.62473700160E+01  0.95833220430E+01  0.13663419246E+02  0.00000000000E+00 0. -1.
</event>
<event>
 7    1  0.1284645E-011  0.5930190E+02  0.7816164E-02  0.1266605E+00
        -11   -1    0    0    0    0  0.00000000000E+00  0.00000000000E+00  0.45593999997E+02  0.45594000000E+02  0.51100000000E-03 0.  1.
         11   -1    0    0    0    0 -0.00000000000E+00 -0.00000000000E+00 -0.45593999997E+02  0.45594000000E+02  0.51100000000E-03 0. -1.
    9900012    2    1    2    0    0 -0.11773213336E+02 -0.29030152000E+02  0.59468416878E+01  0.59301902662E+02  0.49999924559E+02 0.  0.
         12    1    1    2    0    0  0.11773213336E+02  0.29030152000E+02 -0.59468416878E+01  0.31886097338E+02  0.00000000000E+00 0. -1.
         11    1    3    3    0    0 -0.18997663150E+02 -0.28649534946E+01 -0.12312022291E+02  0.22818962660E+02  0.51100000000E-03 0. -1.
        -11    1    3    3    0    0  0.17711981182E+01  0.20808786854E+01  0.23807798671E+01  0.36242670864E+01  0.51100000000E-03 0.  1.
         12    1    3    3    0    0  0.54532516966E+01 -0.28246077191E+02  0.15878084112E+02  0.32858672916E+02  0.00000000000E+00 0. -1.
</event>
<event>
 7    1  0.1284645E-011  0.5930205E+02  0.7816164E-02  0.1266604E+00
        -11   -1    0    0    0    0  0.00000000000E+00  0.00000000000E+00  0.45593999997E+02  0.45594000000E+02  0.51100000000E-03 0.  1.
         11   -1    0    0    0    0 -0.00000000000E+00 -0.00000000000E+00 -0.45593999997E+02  0.45594000000E+02  0.51100000000E-03 0. -1.
    9900012    2    1    2    0    0  0.68436937857E+01 -0.21035930364E+02  0.22964480663E+02  0.59302048814E+02  0.50000191105E+02 0.  0.
         12    1    1    2    0    0 -0.68436937857E+01  0.21035930364E+02 -0.22964480663E+02  0.31885951186E+02  0.00000000000E+00 0. -1.
         11    1    3    3    0    0 -0.10202558026E+02 -0.33086751488E+01 -0.25818981946E+01  0.11032031548E+02  0.51100000000E-03 0. -1.
        -11    1    3    3    0    0 -0.64734842808E+01  0.44998570554E+01  0.16815652172E+01  0.80611645618E+01  0.51100000000E-03 0.  1.
         12    1    3    3    0    0  0.23519736093E+02 -0.22227112271E+02  0.23864813640E+02  0.40208852705E+02  0.00000000000E+00 0. -1.
</event>
<event>
 7    1  0.1284645E-011  0.5930195E+02  0.7816164E-02  0.1266605E+00
        -11   -1    0    0    0    0  0.00000000000E+00  0.00000000000E+00  0.45593999997E+02  0.45594000000E+02  0.51100000000E-03 0.  1.
         11   -1    0    0    0    0 -0.00000000000E+00 -0.00000000000E+00 -0.45593999997E+02  0.45594000000E+02  0.51100000000E-03 0. -1.
    9900012    2    1    2    0    0  0.14121402163E+02  0.16519775704E+02  0.23332446912E+02  0.59301951840E+02  0.50000014248E+02 0.  0.
         12    1    1    2    0    0 -0.14121402163E+02 -0.16519775704E+02 -0.23332446912E+02  0.31886048160E+02  0.00000000000E+00 0. -1.
         11    1    3    3    0    0  0.13757761754E+02 -0.36547134885E+01 -0.27967065327E+01  0.14507050246E+02  0.51100000000E-03 0. -1.
        -11    1    3    3    0    0  0.15139135198E+02  0.12584959392E+02  0.15709918324E+02  0.25186824958E+02  0.51100000000E-03 0.  1.
         12    1    3    3    0    0 -0.14775494789E+02  0.75895298005E+01  0.10419235121E+02  0.19608076636E+02  0.00000000000E+00 0. -1.
</event>
<event>
 7    1  0.1284645E-011  0.5930191E+02  0.7816164E-02  0.1266605E+00
        -11   -1    0    0    0    0  0.00000000000E+00  0.00000000000E+00  0.45593999997E+02  0.45594000000E+02  0.51100000000E-03 0. -1.
         11   -1    0    0    0    0 -0.00000000000E+00 -0.00000000000E+00 -0.45593999997E+02  0.45594000000E+02  0.51100000000E-03 0.  1.
    9900012    2    1    2    0    0  0.21080149626E+02  0.20305050493E+02 -0.12651286443E+02  0.59301908479E+02  0.49999935168E+02 0.  0.
         12    1    1    2    0    0 -0.21080149626E+02 -0.20305050493E+02  0.12651286443E+02  0.31886091521E+02  0.00000000000E+00 0. -1.
         11    1    3    3    0    0  0.47660205551E+01  0.25048404823E+01 -0.10911119334E+01  0.54936056726E+01  0.51100000000E-03 0. -1.
        -11    1    3    3    0    0  0.17654699451E+02  0.91586218060E+01 -0.28494572538E+02  0.34749236401E+02  0.51100000000E-03 0.  1.
         12    1    3    3    0    0 -0.13405703800E+01  0.86415882052E+01  0.16934398028E+02  0.19059066405E+02  0.00000000000E+00 0. -1.
</event>
<event>
 7    1  0.1284645E-011  0.5930193E+02  0.7816164E-02  0.1266605E+00
        -11   -1    0    0    0    0  0.00000000000E+00  0.00000000000E+00  0.45593999997E+02  0.45594000000E+02  0.51100000000E-03 0. -1.
         11   -1    0    0    0    0 -0.00000000000E+00 -0.00000000000E+00 -0.45593999997E+02  0.45594000000E+02  0.51100000000E-03 0.  1.
    9900012    2    1    2    0    0 -0.94244371948E+01  0.24774040351E+02 -0.17724227386E+02  0.59301932067E+02  0.49999978187E+02 0.  0.
         12    1    1    2    0    0  0.94244371948E+01 -0.24774040351E+02  0.17724227386E+02  0.31886067933E+02  0.00000000000E+00 0. -1.
         11    1    3    3    0    0  0.84170284394E+01  0.12395864208E+02  0.37918645200E+01  0.15455809717E+02  0.51100000000E-03 0. -1.
        -11    1    3    3    0    0  0.83504563636E+01  0.80163856618E+01 -0.52792038457E+01  0.12722521529E+02  0.51100000000E-03 0.  1.
        -12    1    3    3    0    0 -0.26191921998E+02  0.43617904814E+01 -0.16236888060E+02  0.31123600820E+02  0.00000000000E+00 0.  1.
</event>
<event>
 7    1  0.1284645E-011  0.5930196E+02  0.7816164E-02  0.1266605E+00
        -11   -1    0    0    0    0  0.00000000000E+00  0.00000000000E+00  0.45593999997E+02  0.45594000000E+02  0.51100000000E-03 0.  1.
         11   -1    0    0    0    0 -0.00000000000E+00 -0.00000000000E+00 -0.45593999997E+02  0.45594000000E+02  0.51100000000E-03 0. -1.
    9900012    2    1    2    0    0  0.22850202835E+01 -0.31073356402E+02  0.67782533008E+01  0.59301960522E+02  0.50000030082E+02 0.  0.
         12    1    1    2    0    0 -0.22850202835E+01  0.31073356402E+02 -0.67782533008E+01  0.31886039478E+02  0.00000000000E+00 0. -1.
         11    1    3    3    0    0 -0.17627792633E+01 -0.16732710723E+02  0.59927739563E+01  0.17860692562E+02  0.51100000000E-03 0.  1.
        -11    1    3    3    0    0  0.72325355914E+01 -0.22274314744E+02  0.12805224602E+02  0.26691355263E+02  0.51100000000E-03 0. -1.
         12    1    3    3    0    0 -0.31847360447E+01  0.79336690649E+01 -0.12019745258E+02  0.14749912697E+02  0.00000000000E+00 0. -1.
</event>
<event>
 7    1  0.1284645E-011  0.5930196E+02  0.7816164E-02  0.1266605E+00
        -11   -1    0    0    0    0  0.00000000000E+00  0.00000000000E+00  0.45593999997E+02  0.45594000000E+02  0.51100000000E-03 0.  1.
         11   -1    0    0    0    0 -0.00000000000E+00 -0.00000000000E+00 -0.45593999997E+02  0.45594000000E+02  0.51100000000E-03 0. -1.
    9900012    2    1    2    0    0  0.19765315569E+02 -0.20848557314E+02  0.13834357170E+02  0.59301961050E+02  0.50000031044E+02 0.  0.
         12    1    1    2    0    0 -0.19765315569E+02  0.20848557314E+02 -0.13834357170E+02  0.31886038950E+02  0.00000000000E+00 0. -1.
         11    1    3    3    0    0  0.62056077083E+01 -0.11745856933E+02  0.15429200388E+02  0.20360131311E+02  0.51100000000E-03 0.  1.
        -11    1    3    3    0    0  0.15347276244E+02  0.10854573470E+02 -0.19725456070E+01  0.18901100226E+02  0.51100000000E-03 0. -1.
         12    1    3    3    0    0 -0.17875683840E+01 -0.19957273852E+02  0.37770238893E+00  0.20040729513E+02  0.00000000000E+00 0. -1.
</event>
<event>
 7    1  0.1284645E-011  0.5930194E+02  0.7816164E-02  0.1266605E+00
        -11   -1    0    0    0    0  0.00000000000E+00  0.00000000000E+00  0.45593999997E+02  0.45594000000E+02  0.51100000000E-03 0. -1.
         11   -1    0    0    0    0 -0.00000000000E+00 -0.00000000000E+00 -0.45593999997E+02  0.45594000000E+02  0.51100000000E-03 0.  1.
    9900012    2    1    2    0    0 -0.17353955353E+02 -0.10420504740E+02 -0.24636850295E+02  0.59301935992E+02  0.49999985345E+02 0.  0.
         12    1    1    2    0    0  0.17353955353E+02  0.10420504740E+02  0.24636850295E+02  0.31886064008E+02  0.00000000000E+00 0. -1.
         11    1    3    3    0    0 -0.11573619176E+02 -0.91985097567E+01 -0.81854198305E+01  0.16898589901E+02  0.51100000000E-03 0. -1.
        -11    1    3    3    0    0 -0.20351747435E+02 -0.66730635970E+01 -0.16181559042E+02  0.26843365190E+02  0.51100000000E-03 0.  1.
         12    1    3    3    0    0  0.14571411258E+02  0.54510686139E+01 -0.26987142254E+00  0.15559980902E+02  0.00000000000E+00 0. -1.
</event>
<event>
 7    1  0.1284645E-011  0.5930194E+02  0.7816164E-02  0.1266605E+00
        -11   -1    0    0    0    0  0.00000000000E+00  0.00000000000E+00  0.45593999997E+02  0.45594000000E+02  0.51100000000E-03 0. -1.
         11   -1    0    0    0    0 -0.00000000000E+00 -0.00000000000E+00 -0.45593999997E+02  0.45594000000E+02  0.51100000000E-03 0.  1.
    9900012    2    1    2    0    0 -0.25622003056E+02 -0.17457363631E+02 -0.74481239439E+01  0.59301935084E+02  0.49999983689E+02 0.  0.
         12    1    1    2    0    0  0.25622003056E+02  0.17457363631E+02  0.74481239439E+01  0.31886064916E+02  0.00000000000E+00 0. -1.
         11    1    3    3    0    0  0.56271107085E+01 -0.27311909237E+01  0.40641345325E+01  0.74592874021E+01  0.51100000000E-03 0. -1.
        -11    1    3    3    0    0 -0.15965742272E+02 -0.26714386978E+02 -0.68452592694E+01  0.31865670754E+02  0.51100000000E-03 0.  1.
        -12    1    3    3    0    0 -0.15283371493E+02  0.11988214271E+02 -0.46669992071E+01  0.19976976928E+02  0.00000000000E+00 0.  1.
</event>
<event>
 7    1  0.1284645E-011  0.5930197E+02  0.7816164E-02  0.1266605E+00
        -11   -1    0    0    0    0  0.00000000000E+00  0.00000000000E+00  0.45593999997E+02  0.45594000000E+02  0.51100000000E-03 0.  1.
         11   -1    0    0    0    0 -0.00000000000E+00 -0.00000000000E+00 -0.45593999997E+02  0.45594000000E+02  0.51100000000E-03 0. -1.
    9900012    2    1    2    0    0  0.23234870823E+02  0.41055212544E+01  0.21447713431E+02  0.59301969542E+02  0.50000046532E+02 0.  0.
         12    1    1    2    0    0 -0.23234870823E+02 -0.41055212544E+01 -0.21447713431E+02  0.31886030458E+02  0.00000000000E+00 0. -1.
         11    1    3    3    0    0  0.11780701445E+02 -0.56382650876E+01  0.10098720910E+02  0.16509364737E+02  0.51100000000E-03 0. -1.
        -11    1    3    3    0    0  0.51766598882E+01  0.20640541678E+02  0.18611585984E+02  0.28270495246E+02  0.51100000000E-03 0.  1.
         12    1    3    3    0    0  0.62775094898E+01 -0.10896755336E+02 -0.72625934627E+01  0.14522109559E+02  0.00000000000E+00 0. -1.
</event>
<event>
 7    1  0.1284645E-011  0.5930195E+02  0.7816164E-02  0.1266605E+00
        -11   -1    0    0    0    0  0.00000000000E+00  0.00000000000E+00  0.45593999997E+02  0.45594000000E+02  0.51100000000E-03 0.  1.
         11   -1    0    0    0    0 -0.00000000000E+00 -0.00000000000E+00 -0.45593999997E+02  0.45594000000E+02  0.51100000000E-03 0. -1.
    9900012    2    1    2    0    0  0.29516631096E+02 -0.11584943074E+02  0.33582227221E+01  0.59301951685E+02  0.50000013964E+02 0.  0.
         12    1    1    2    0    0 -0.29516631096E+02  0.11584943074E+02 -0.33582227221E+01  0.31886048315E+02  0.00000000000E+00 0. -1.
         11    1    3    3    0    0 -0.25090574954E+01  0.53849348781E+01  0.67567748032E+01  0.89970494696E+01  0.51100000000E-03 0. -1.
        -11    1    3    3    0    0 -0.71949615341E+01  0.53268042530E+00 -0.10641758948E+01  0.72927148929E+01  0.51100000000E-03 0.  1.
        -12    1    3    3    0    0  0.39220650126E+02 -0.17502558378E+02 -0.23343761863E+01  0.43012187322E+02  0.00000000000E+00 0.  1.
</event>
<event>
 7    1  0.1284645E-011  0.5930196E+02  0.7816164E-02  0.1266605E+00
        -11   -1    0    0    0    0  0.00000000000E+00  0.00000000000E+00  0.45593999997E+02  0.45594000000E+02  0.51100000000E-03 0.  1.
         11   -1    0    0    0    0 -0.00000000000E+00 -0.00000000000E+00 -0.45593999997E+02  0.45594000000E+02  0.51100000000E-03 0. -1.
    9900012    2    1    2    0    0  0.10995075023E+02  0.22266796016E+02  0.20000445448E+02  0.59301957635E+02  0.50000024817E+02 0.  0.
         12    1    1    2    0    0 -0.10995075023E+02 -0.22266796016E+02 -0.20000445448E+02  0.31886042365E+02  0.00000000000E+00 0. -1.
         11    1    3    3    0    0  0.28561108305E+01  0.13542077135E+02 -0.67765517965E+01  0.15409960309E+02  0.51100000000E-03 0. -1.
        -11    1    3    3    0    0 -0.12597288230E+02  0.14582043734E+01  0.80410046616E+01  0.15015851190E+02  0.51100000000E-03 0.  1.
        -12    1    3    3    0    0  0.20736252422E+02  0.72665145077E+01  0.18735992583E+02  0.28876146136E+02  0.00000000000E+00 0.  1.
</event>
<event>
 7    1  0.1284645E-011  0.5930194E+02  0.7816164E-02  0.1266605E+00
        -11   -1    0    0    0    0  0.00000000000E+00  0.00000000000E+00  0.45593999997E+02  0.45594000000E+02  0.51100000000E-03 0.  1.
         11   -1    0    0    0    0 -0.00000000000E+00 -0.00000000000E+00 -0.45593999997E+02  0.45594000000E+02  0.51100000000E-03 0. -1.
    9900012    2    1    2    0    0 -0.25225069530E+02 -0.43348095107E+01  0.19016465898E+02  0.59301942208E+02  0.49999996681E+02 0.  0.
         12    1    1    2    0    0  0.25225069530E+02  0.43348095107E+01 -0.19016465898E+02  0.31886057792E+02  0.00000000000E+00 0. -1.
         11    1    3    3    0    0 -0.14007223951E+02  0.11193185950E+02 -0.60124856115E+01  0.18911364784E+02  0.51100000000E-03 0. -1.
        -11    1    3    3    0    0 -0.56293134099E+00  0.44495474025E+01 -0.21855487500E+01  0.49891870462E+01  0.51100000000E-03 0.  1.
        -12    1    3    3    0    0 -0.10654914238E+02 -0.19977542863E+02  0.27214500260E+02  0.35401390377E+02  0.00000000000E+00 0.  1.
</event>
<event>
 7    1  0.1284645E-011  0.5930195E+02  0.7816164E-02  0.1266605E+00
        -11   -1    0    0    0    0  0.00000000000E+00  0.00000000000E+00  0.45593999997E+02  0.45594000000E+02  0.51100000000E-03 0. -1.
         11   -1    0    0    0    0 -0.00000000000E+00 -0.00000000000E+00 -0.45593999997E+02  0.45594000000E+02  0.51100000000E-03 0.  1.
    9900012    2    1    2    0    0 -0.23920048467E+01  0.31395484111E+02 -0.50321125443E+01  0.59301948717E+02  0.50000008552E+02 0.  0.
         12    1    1    2    0    0  0.23920048467E+01 -0.31395484111E+02  0.50321125443E+01  0.31886051283E+02  0.00000000000E+00 0. -1.
         11    1    3    3    0    0 -0.30375578484E+01  0.20357007284E+02  0.18074279560E+00  0.20583176904E+02  0.51100000000E-03 0. -1.
        -11    1    3    3    0    0  0.28972488676E+01  0.24523354959E+02 -0.32378244481E+01  0.24905270463E+02  0.51100000000E-03 0.  1.
        -12    1    3    3    0    0 -0.22516958659E+01 -0.13484878132E+02 -0.19750308918E+01  0.13813501349E+02  0.00000000000E+00 0.  1.
</event>
<event>
 7    1  0.1284645E-011  0.5930198E+02  0.7816164E-02  0.1266605E+00
        -11   -1    0    0    0    0  0.00000000000E+00  0.00000000000E+00  0.45593999997E+02  0.45594000000E+02  0.51100000000E-03 0.  1.
         11   -1    0    0    0    0 -0.00000000000E+00 -0.00000000000E+00 -0.45593999997E+02  0.45594000000E+02  0.51100000000E-03 0. -1.
    9900012    2    1    2    0    0  0.15252136251E+02  0.21539204990E+02  0.17892831445E+02  0.59301977530E+02  0.50000061101E+02 0.  0.
         12    1    1    2    0    0 -0.15252136251E+02 -0.21539204990E+02 -0.17892831445E+02  0.31886022470E+02  0.00000000000E+00 0. -1.
         11    1    3    3    0    0 -0.55441092841E+01 -0.95669249995E+01 -0.54822855230E+00  0.11070851661E+02  0.51100000000E-03 0. -1.
        -11    1    3    3    0    0  0.12015333394E+02  0.16482133274E+02  0.22833498180E+02  0.30616949443E+02  0.51100000000E-03 0.  1.
        -12    1    3    3    0    0  0.87809121403E+01  0.14623996716E+02 -0.43924381824E+01  0.17614176426E+02  0.00000000000E+00 0.  1.
</event>
<event>
 7    1  0.1284645E-011  0.5930194E+02  0.7816164E-02  0.1266605E+00
        -11   -1    0    0    0    0  0.00000000000E+00  0.00000000000E+00  0.45593999997E+02  0.45594000000E+02  0.51100000000E-03 0. -1.
         11   -1    0    0    0    0 -0.00000000000E+00 -0.00000000000E+00 -0.45593999997E+02  0.45594000000E+02  0.51100000000E-03 0.  1.
    9900012    2    1    2    0    0  0.35401177014E+01  0.31401098864E+02 -0.42613836843E+01  0.59301939815E+02  0.49999992316E+02 0.  0.
         12    1    1    2    0    0 -0.35401177014E+01 -0.31401098864E+02  0.42613836843E+01  0.31886060185E+02  0.00000000000E+00 0. -1.
         11    1    3    3    0    0 -0.16165810648E+02  0.22901312248E+02 -0.14015327295E+01  0.28067202049E+02  0.51100000000E-03 0. -1.
        -11    1    3    3    0    0  0.86957902583E+01 -0.41443050118E+01  0.68869434845E+01  0.11841538036E+02  0.51100000000E-03 0.  1.
        -12    1    3    3    0    0  0.11010138092E+02  0.12644091628E+02 -0.97467944394E+01  0.19393199729E+02  0.00000000000E+00 0.  1.
</event>
<event>
 7    1  0.1284645E-011  0.5930196E+02  0.7816164E-02  0.1266605E+00
        -11   -1    0    0    0    0  0.00000000000E+00  0.00000000000E+00  0.45593999997E+02  0.45594000000E+02  0.51100000000E-03 0.  1.
         11   -1    0    0    0    0 -0.00000000000E+00 -0.00000000000E+00 -0.45593999997E+02  0.45594000000E+02  0.51100000000E-03 0. -1.
    9900012    2    1    2    0    0 -0.60845275614E+01 -0.29977906802E+02 -0.90012872461E+01  0.59301960046E+02  0.50000029213E+02 0.  0.
         12    1    1    2    0    0  0.60845275614E+01  0.29977906802E+02  0.90012872461E+01  0.31886039954E+02  0.00000000000E+00 0. -1.
         11    1    3    3    0    0  0.78648931950E+01 -0.47609415711E+01  0.81137215827E+01  0.12261956932E+02  0.51100000000E-03 0. -1.
        -11    1    3    3    0    0 -0.16873494640E+01 -0.74518251680E+01  0.98711460799E+01  0.12482642819E+02  0.51100000000E-03 0.  1.
         12    1    3    3    0    0 -0.12262071292E+02 -0.17765140063E+02 -0.26986154909E+02  0.34557360295E+02  0.00000000000E+00 0. -1.
</event>
<event>
 7    1  0.1284645E-011  0.5930196E+02  0.7816164E-02  0.1266605E+00
        -11   -1    0    0    0    0  0.00000000000E+00  0.00000000000E+00  0.45593999997E+02  0.45594000000E+02  0.51100000000E-03 0. -1.
         11   -1    0    0    0    0 -0.00000000000E+00 -0.00000000000E+00 -0.45593999997E+02  0.45594000000E+02  0.51100000000E-03 0.  1.
    9900012    2    1    2    0    0  0.11991547749E+02 -0.12825538040E+02 -0.26616306404E+02  0.59301962146E+02  0.50000033044E+02 0.  0.
         12    1    1    2    0    0 -0.11991547749E+02  0.12825538040E+02  0.26616306404E+02  0.31886037854E+02  0.00000000000E+00 0. -1.
         11    1    3    3    0    0  0.22260099524E+02 -0.27599146145E+01 -0.16821599064E+02  0.28037392084E+02  0.51100000000E-03 0. -1.
        -11    1    3    3    0    0  0.24054159402E+01 -0.12565858665E+00  0.73536108311E+01  0.77380493952E+01  0.51100000000E-03 0.  1.
         12    1    3    3    0    0 -0.12673967715E+02 -0.99399648387E+01 -0.17148318170E+02  0.23526520667E+02  0.00000000000E+00 0. -1.
</event>
<event>
 7    1  0.1284645E-011  0.5930196E+02  0.7816164E-02  0.1266605E+00
        -11   -1    0    0    0    0  0.00000000000E+00  0.00000000000E+00  0.45593999997E+02  0.45594000000E+02  0.51100000000E-03 0. -1.
         11   -1    0    0    0    0 -0.00000000000E+00 -0.00000000000E+00 -0.45593999997E+02  0.45594000000E+02  0.51100000000E-03 0.  1.
    9900012    2    1    2    0    0 -0.78959793434E+01  0.28363848180E+00 -0.30891624163E+02  0.59301962554E+02  0.50000033788E+02 0.  0.
         12    1    1    2    0    0  0.78959793434E+01 -0.28363848180E+00  0.30891624163E+02  0.31886037446E+02  0.00000000000E+00 0. -1.
         11    1    3    3    0    0 -0.22150914995E+02  0.10196741298E+02 -0.14112829266E+02  0.28174607688E+02  0.51100000000E-03 0. -1.
        -11    1    3    3    0    0 -0.44151139525E+01  0.57069395476E+00 -0.49793864362E+01  0.66793122660E+01  0.51100000000E-03 0.  1.
         12    1    3    3    0    0  0.18670049605E+02 -0.10483796771E+02 -0.11799408461E+02  0.24448042600E+02  0.00000000000E+00 0. -1.
</event>
<event>
 7    1  0.1284645E-011  0.5930193E+02  0.7816164E-02  0.1266605E+00
        -11   -1    0    0    0    0  0.00000000000E+00  0.00000000000E+00  0.45593999997E+02  0.45594000000E+02  0.51100000000E-03 0. -1.
         11   -1    0    0    0    0 -0.00000000000E+00 -0.00000000000E+00 -0.45593999997E+02  0.45594000000E+02  0.51100000000E-03 0.  1.
    9900012    2    1    2    0    0 -0.13261294134E+02  0.28972717691E+02 -0.12005568543E+01  0.59301927346E+02  0.49999969577E+02 0.  0.
         12    1    1    2    0    0  0.13261294134E+02 -0.28972717691E+02  0.12005568543E+01  0.31886072654E+02  0.00000000000E+00 0. -1.
         11    1    3    3    0    0 -0.47826029131E+00  0.17716521573E+02  0.11070992322E+02  0.20896668174E+02  0.51100000000E-03 0. -1.
        -11    1    3    3    0    0 -0.10170302023E+01  0.20848850580E+02 -0.96635661731E+01  0.23002031049E+02  0.51100000000E-03 0.  1.
         12    1    3    3    0    0 -0.11766003640E+02 -0.95926544614E+01 -0.26079830027E+01  0.15403228123E+02  0.00000000000E+00 0. -1.
</event>
<event>
 7    1  0.1284645E-011  0.5930195E+02  0.7816164E-02  0.1266605E+00
        -11   -1    0    0    0    0  0.00000000000E+00  0.00000000000E+00  0.45593999997E+02  0.45594000000E+02  0.51100000000E-03 0.  1.
         11   -1    0    0    0    0 -0.00000000000E+00 -0.00000000000E+00 -0.45593999997E+02  0.45594000000E+02  0.51100000000E-03 0. -1.
    9900012    2    1    2    0    0  0.13930534848E+02  0.27125283612E+02  0.93209182515E+01  0.59301947732E+02  0.50000006755E+02 0.  0.
         12    1    1    2    0    0 -0.13930534848E+02 -0.27125283612E+02 -0.93209182515E+01  0.31886052268E+02  0.00000000000E+00 0. -1.
         11    1    3    3    0    0  0.24063428609E+02  0.13041748524E+02 -0.93853662621E+00  0.27386431900E+02  0.51100000000E-03 0. -1.
        -11    1    3    3    0    0  0.15575353549E+01 -0.50163890877E+01  0.77771154362E+01  0.93847536265E+01  0.51100000000E-03 0.  1.
        -12    1    3    3    0    0 -0.11690429116E+02  0.19099924176E+02  0.24823394415E+01  0.22530762205E+02  0.00000000000E+00 0.  1.
</event>
<event>
 7    1  0.1284645E-011  0.5930193E+02  0.7816164E-02  0.1266605E+00
        -11   -1    0    0    0    0  0.00000000000E+00  0.00000000000E+00  0.45593999997E+02  0.45594000000E+02  0.51100000000E-03 0. -1.
         11   -1    0    0    0    0 -0.00000000000E+00 -0.00000000000E+00 -0.45593999997E+02  0.45594000000E+02  0.51100000000E-03 0.  1.
    9900012    2    1    2    0    0 -0.20330863581E+02  0.13877683646E+02 -0.20267882226E+02  0.59301934591E+02  0.49999982790E+02 0.  0.
         12    1    1    2    0    0  0.20330863581E+02 -0.13877683646E+02  0.20267882226E+02  0.31886065409E+02  0.00000000000E+00 0. -1.
         11    1    3    3    0    0 -0.16831437308E+02 -0.81796485812E+00 -0.37080961997E+01  0.17254458150E+02  0.51100000000E-03 0. -1.
        -11    1    3    3    0    0 -0.15212380236E+02  0.20488445968E+02 -0.12084584658E+02  0.28235263718E+02  0.51100000000E-03 0.  1.
        -12    1    3    3    0    0  0.11712953963E+02 -0.57927974640E+01 -0.44752013683E+01  0.13812212723E+02  0.00000000000E+00 0.  1.
</event>
<event>
 7    1  0.1284645E-011  0.5930196E+02  0.7816164E-02  0.1266605E+00
        -11   -1    0    0    0    0  0.00000000000E+00  0.00000000000E+00  0.45593999997E+02  0.45594000000E+02  0.51100000000E-03 0.  1.
         11   -1    0    0    0    0 -0.00000000000E+00 -0.00000000000E+00 -0.45593999997E+02  0.45594000000E+02  0.51100000000E-03 0. -1.
    9900012    2    1    2    0    0  0.83363565143E+01  0.59005568076E+01  0.30206094431E+02  0.59301959930E+02  0.50000029002E+02 0.  0.
         12    1    1    2    0    0 -0.83363565143E+01 -0.59005568076E+01 -0.30206094431E+02  0.31886040070E+02  0.00000000000E+00 0. -1.
         11    1    3    3    0    0  0.17329359023E+02  0.14616696001E+02  0.38209805723E+01  0.22990310544E+02  0.51100000000E-03 0. -1.
        -11    1    3    3    0    0  0.63901172370E+01 -0.69812168911E+01  0.97699926354E+01  0.13602343325E+02  0.51100000000E-03 0.  1.
        -12    1    3    3    0    0 -0.15383119745E+02 -0.17349223026E+01  0.16615121223E+02  0.22709306061E+02  0.00000000000E+00 0.  1.
</event>
<event>
 7    1  0.1284645E-011  0.5930194E+02  0.7816164E-02  0.1266605E+00
        -11   -1    0    0    0    0  0.00000000000E+00  0.00000000000E+00  0.45593999997E+02  0.45594000000E+02  0.51100000000E-03 0.  1.
         11   -1    0    0    0    0 -0.00000000000E+00 -0.00000000000E+00 -0.45593999997E+02  0.45594000000E+02  0.51100000000E-03 0. -1.
    9900012    2    1    2    0    0 -0.28339478949E+02 -0.13428035946E+02  0.57690810995E+01  0.59301944847E+02  0.50000001495E+02 0.  0.
         12    1    1    2    0    0  0.28339478949E+02  0.13428035946E+02 -0.57690810995E+01  0.31886055153E+02  0.00000000000E+00 0. -1.
         11    1    3    3    0    0  0.69656107743E+01 -0.12034053537E+02 -0.46778303452E+01  0.14670387690E+02  0.51100000000E-03 0. -1.
        -11    1    3    3    0    0 -0.10997793413E+02 -0.12510319159E+02  0.43713479008E+01  0.17221156412E+02  0.51100000000E-03 0.  1.
         12    1    3    3    0    0 -0.24307296310E+02  0.11116336750E+02  0.60755635438E+01  0.27410400745E+02  0.00000000000E+00 0. -1.
</event>
<event>
 7    1  0.1284645E-011  0.5930194E+02  0.7816164E-02  0.1266605E+00
        -11   -1    0    0    0    0  0.00000000000E+00  0.00000000000E+00  0.45593999997E+02  0.45594000000E+02  0.51100000000E-03 0.  1.
         11   -1    0    0    0    0 -0.00000000000E+00 -0.00000000000E+00 -0.45593999997E+02  0.45594000000E+02  0.51100000000E-03 0. -1.
    9900012    2    1    2    0    0  0.49402005457E+01  0.26424697473E+02  0.17147908537E+02  0.59301937446E+02  0.49999987997E+02 0.  0.
         12    1    1    2    0    0 -0.49402005457E+01 -0.26424697473E+02 -0.17147908537E+02  0.31886062554E+02  0.00000000000E+00 0. -1.
         11    1    3    3    0    0  0.39968501827E+01  0.10548455577E+00  0.36769179787E+01  0.54319116762E+01  0.51100000000E-03 0. -1.
        -11    1    3    3    0    0  0.15183079926E+02  0.19718821588E+02  0.24314835156E+02  0.34793232816E+02  0.51100000000E-03 0.  1.
         12    1    3    3    0    0 -0.14239729563E+02  0.66003913301E+01 -0.10843844598E+02  0.19076792954E+02  0.00000000000E+00 0. -1.
</event>
<event>
 7    1  0.1284645E-011  0.5930211E+02  0.7816164E-02  0.1266604E+00
        -11   -1    0    0    0    0  0.00000000000E+00  0.00000000000E+00  0.45593999997E+02  0.45594000000E+02  0.51100000000E-03 0. -1.
         11   -1    0    0    0    0 -0.00000000000E+00 -0.00000000000E+00 -0.45593999997E+02  0.45594000000E+02  0.51100000000E-03 0.  1.
    9900012    2    1    2    0    0  0.29747151600E+01  0.14113902993E+02 -0.28436922098E+02  0.59302113994E+02  0.50000309977E+02 0.  0.
         12    1    1    2    0    0 -0.29747151600E+01 -0.14113902993E+02  0.28436922098E+02  0.31885886006E+02  0.00000000000E+00 0. -1.
         11    1    3    3    0    0 -0.38297559266E+01 -0.79721733771E+01 -0.29239097123E+01  0.93151396704E+01  0.51100000000E-03 0. -1.
        -11    1    3    3    0    0  0.15991480860E+02 -0.20933831525E+01 -0.15132954482E+02  0.22115967642E+02  0.51100000000E-03 0.  1.
         12    1    3    3    0    0 -0.91870097734E+01  0.24179459522E+02 -0.10380057904E+02  0.27871006682E+02  0.00000000000E+00 0. -1.
</event>
<event>
 7    1  0.1284645E-011  0.5930201E+02  0.7816164E-02  0.1266605E+00
        -11   -1    0    0    0    0  0.00000000000E+00  0.00000000000E+00  0.45593999997E+02  0.45594000000E+02  0.51100000000E-03 0.  1.
         11   -1    0    0    0    0 -0.00000000000E+00 -0.00000000000E+00 -0.45593999997E+02  0.45594000000E+02  0.51100000000E-03 0. -1.
    9900012    2    1    2    0    0  0.14636353617E+02 -0.25987475863E+02  0.11275853941E+02  0.59302005723E+02  0.50000112517E+02 0.  0.
         12    1    1    2    0    0 -0.14636353617E+02  0.25987475863E+02 -0.11275853941E+02  0.31885994277E+02  0.00000000000E+00 0. -1.
         11    1    3    3    0    0  0.97774616444E+00  0.33509582237E+01 -0.68955432041E+01  0.77287401897E+01  0.51100000000E-03 0. -1.
        -11    1    3    3    0    0  0.13116833784E+01 -0.67243572416E+01 -0.10807912891E+02  0.12796424302E+02  0.51100000000E-03 0.  1.
        -12    1    3    3    0    0  0.12346924074E+02 -0.22614076845E+02  0.28979310036E+02  0.38776841231E+02  0.00000000000E+00 0.  1.
</event>
<event>
 7    1  0.1284645E-011  0.5930194E+02  0.7816164E-02  0.1266605E+00
        -11   -1    0    0    0    0  0.00000000000E+00  0.00000000000E+00  0.45593999997E+02  0.45594000000E+02  0.51100000000E-03 0.  1.
         11   -1    0    0    0    0 -0.00000000000E+00 -0.00000000000E+00 -0.45593999997E+02  0.45594000000E+02  0.51100000000E-03 0. -1.
    9900012    2    1    2    0    0 -0.26738235184E+02  0.11958706862E+02  0.12600674002E+02  0.59301939160E+02  0.49999991122E+02 0.  0.
         12    1    1    2    0    0  0.26738235184E+02 -0.11958706862E+02 -0.12600674002E+02  0.31886060840E+02  0.00000000000E+00 0. -1.
         11    1    3    3    0    0 -0.13226570234E+02  0.44693937954E+00 -0.15968985619E+02  0.20740067910E+02  0.51100000000E-03 0. -1.
        -11    1    3    3    0    0 -0.15424460810E+01 -0.51544679463E+01  0.60273873505E+01  0.80794231388E+01  0.51100000000E-03 0.  1.
        -12    1    3    3    0    0 -0.11969218869E+02  0.16666235429E+02  0.22542272271E+02  0.30482448111E+02  0.00000000000E+00 0.  1.
</event>
<event>
 7    1  0.1284645E-011  0.5930197E+02  0.7816164E-02  0.1266605E+00
        -11   -1    0    0    0    0  0.00000000000E+00  0.00000000000E+00  0.45593999997E+02  0.45594000000E+02  0.51100000000E-03 0.  1.
         11   -1    0    0    0    0 -0.00000000000E+00 -0.00000000000E+00 -0.45593999997E+02  0.45594000000E+02  0.51100000000E-03 0. -1.
    9900012    2    1    2    0    0  0.13655173661E+02 -0.25489898275E+01  0.28701180681E+02  0.59301970311E+02  0.50000047934E+02 0.  0.
         12    1    1    2    0    0 -0.13655173661E+02  0.25489898275E+01 -0.28701180681E+02  0.31886029689E+02  0.00000000000E+00 0. -1.
         11    1    3    3    0    0 -0.47052590986E+01 -0.10366922783E+02  0.11496226894E+02  0.16179486526E+02  0.51100000000E-03 0. -1.
        -11    1    3    3    0    0 -0.20647763471E+01 -0.34414771503E+01  0.19293154374E+02  0.19706163308E+02  0.51100000000E-03 0.  1.
        -12    1    3    3    0    0  0.20425209107E+02  0.11259410106E+02 -0.20882005866E+01  0.23416320477E+02  0.00000000000E+00 0.  1.
</event>
<event>
 7    1  0.1284645E-011  0.5930193E+02  0.7816164E-02  0.1266605E+00
        -11   -1    0    0    0    0  0.00000000000E+00  0.00000000000E+00  0.45593999997E+02  0.45594000000E+02  0.51100000000E-03 0. -1.
         11   -1    0    0    0    0 -0.00000000000E+00 -0.00000000000E+00 -0.45593999997E+02  0.45594000000E+02  0.51100000000E-03 0.  1.
    9900012    2    1    2    0    0  0.83176280723E+01 -0.10211521206E+02 -0.29039002471E+02  0.59301925193E+02  0.49999965650E+02 0.  0.
         12    1    1    2    0    0 -0.83176280723E+01  0.10211521206E+02  0.29039002471E+02  0.31886074807E+02  0.00000000000E+00 0. -1.
         11    1    3    3    0    0  0.37107623573E+01  0.10112618355E+01  0.98254576878E+01  0.10551399282E+02  0.51100000000E-03 0. -1.
        -11    1    3    3    0    0 -0.10571756331E+02 -0.51351948093E+01 -0.93914125570E+01  0.15044297515E+02  0.51100000000E-03 0.  1.
         12    1    3    3    0    0  0.15178622046E+02 -0.60875882319E+01 -0.29473047602E+02  0.33706228395E+02  0.00000000000E+00 0. -1.
</event>
<event>
 7    1  0.1284645E-011  0.5930196E+02  0.7816164E-02  0.1266605E+00
        -11   -1    0    0    0    0  0.00000000000E+00  0.00000000000E+00  0.45593999997E+02  0.45594000000E+02  0.51100000000E-03 0.  1.
         11   -1    0    0    0    0 -0.00000000000E+00 -0.00000000000E+00 -0.45593999997E+02  0.45594000000E+02  0.51100000000E-03 0. -1.
    9900012    2    1    2    0    0 -0.28419623670E+01  0.29783310734E+02 -0.11027111204E+02  0.59301960267E+02  0.50000029616E+02 0.  0.
         12    1    1    2    0    0  0.28419623670E+01 -0.29783310734E+02  0.11027111204E+02  0.31886039733E+02  0.00000000000E+00 0. -1.
         11    1    3    3    0    0 -0.61928326019E+01  0.25141467026E+02 -0.21284456467E+02  0.33518243200E+02  0.51100000000E-03 0. -1.
        -11    1    3    3    0    0  0.17730135503E+01  0.31423683896E+01 -0.72729841962E+01  0.81187656405E+01  0.51100000000E-03 0.  1.
        -12    1    3    3    0    0  0.15778566846E+01  0.14994753186E+01  0.17530329459E+02  0.17664951427E+02  0.00000000000E+00 0.  1.
</event>
<event>
 7    1  0.1284645E-011  0.5930194E+02  0.7816164E-02  0.1266605E+00
        -11   -1    0    0    0    0  0.00000000000E+00  0.00000000000E+00  0.45593999997E+02  0.45594000000E+02  0.51100000000E-03 0.  1.
         11   -1    0    0    0    0 -0.00000000000E+00 -0.00000000000E+00 -0.45593999997E+02  0.45594000000E+02  0.51100000000E-03 0. -1.
    9900012    2    1    2    0    0 -0.29704855689E+02  0.15878062228E+01  0.11481355368E+02  0.59301935627E+02  0.49999984679E+02 0.  0.
         12    1    1    2    0    0  0.29704855689E+02 -0.15878062228E+01 -0.11481355368E+02  0.31886064373E+02  0.00000000000E+00 0. -1.
         11    1    3    3    0    0 -0.70892179240E+01  0.88138036105E+00 -0.65850663861E+01  0.97158088539E+01  0.51100000000E-03 0. -1.
        -11    1    3    3    0    0 -0.22704061408E+02 -0.16906680412E+02  0.13654806781E+02  0.31428712915E+02  0.51100000000E-03 0.  1.
         12    1    3    3    0    0  0.88423643419E-01  0.17613106274E+02  0.44116149734E+01  0.18157413859E+02  0.00000000000E+00 0. -1.
</event>
<event>
 7    1  0.1284645E-011  0.5930187E+02  0.7816164E-02  0.1266605E+00
        -11   -1    0    0    0    0  0.00000000000E+00  0.00000000000E+00  0.45593999997E+02  0.45594000000E+02  0.51100000000E-03 0. -1.
         11   -1    0    0    0    0 -0.00000000000E+00 -0.00000000000E+00 -0.45593999997E+02  0.45594000000E+02  0.51100000000E-03 0.  1.
    9900012    2    1    2    0    0  0.12940468201E+02 -0.26734828339E+02 -0.11598198497E+02  0.59301874931E+02  0.49999873983E+02 0.  0.
         12    1    1    2    0    0 -0.12940468201E+02  0.26734828339E+02  0.11598198497E+02  0.31886125069E+02  0.00000000000E+00 0. -1.
         11    1    3    3    0    0  0.17646728873E+01  0.13870166507E+01 -0.11698166464E+02  0.11911548365E+02  0.51100000000E-03 0. -1.
        -11    1    3    3    0    0  0.12256266914E+02 -0.29268500753E+02 -0.12930800473E+02  0.34264658412E+02  0.51100000000E-03 0.  1.
         12    1    3    3    0    0 -0.10804716008E+01  0.11466557631E+01  0.13030768440E+02  0.13125668153E+02  0.00000000000E+00 0. -1.
</event>
<event>
 7    1  0.1284645E-011  0.5930193E+02  0.7816164E-02  0.1266605E+00
        -11   -1    0    0    0    0  0.00000000000E+00  0.00000000000E+00  0.45593999997E+02  0.45594000000E+02  0.51100000000E-03 0.  1.
         11   -1    0    0    0    0 -0.00000000000E+00 -0.00000000000E+00 -0.45593999997E+02  0.45594000000E+02  0.51100000000E-03 0. -1.
    9900012    2    1    2    0    0 -0.23899249776E+02 -0.20548464409E+02 -0.48278040296E+01  0.59301933746E+02  0.49999981248E+02 0.  0.
         12    1    1    2    0    0  0.23899249776E+02  0.20548464409E+02  0.48278040296E+01  0.31886066254E+02  0.00000000000E+00 0. -1.
         11    1    3    3    0    0  0.13766046933E+01 -0.79701069652E+01 -0.27230355442E+01  0.85341999246E+01  0.51100000000E-03 0. -1.
        -11    1    3    3    0    0 -0.87862070219E+01 -0.21860569955E+02 -0.14944467700E+02  0.27900162503E+02  0.51100000000E-03 0.  1.
        -12    1    3    3    0    0 -0.16489647448E+02  0.92822125115E+01  0.12839699214E+02  0.22867571318E+02  0.00000000000E+00 0.  1.
</event>
<event>
 7    1  0.1284645E-011  0.5930192E+02  0.7816164E-02  0.1266605E+00
        -11   -1    0    0    0    0  0.00000000000E+00  0.00000000000E+00  0.45593999997E+02  0.45594000000E+02  0.51100000000E-03 0.  1.
         11   -1    0    0    0    0 -0.00000000000E+00 -0.00000000000E+00 -0.45593999997E+02  0.45594000000E+02  0.51100000000E-03 0. -1.
    9900012    2    1    2    0    0 -0.11959647830E+01 -0.22247999940E+02  0.22810484345E+02  0.59301921076E+02  0.49999958142E+02 0.  0.
         12    1    1    2    0    0  0.11959647830E+01  0.22247999940E+02 -0.22810484345E+02  0.31886078924E+02  0.00000000000E+00 0. -1.
         11    1    3    3    0    0  0.69649325623E+01 -0.27454986531E-01 -0.54092385811E+01  0.88187811891E+01  0.51100000000E-03 0. -1.
        -11    1    3    3    0    0 -0.11858043774E+02 -0.30291846927E+02  0.25046560731E+02  0.41055321179E+02  0.51100000000E-03 0.  1.
         12    1    3    3    0    0  0.36971464290E+01  0.80713019737E+01  0.31731621947E+01  0.94278187075E+01  0.00000000000E+00 0. -1.
</event>
<event>
 7    1  0.1284645E-011  0.5930193E+02  0.7816164E-02  0.1266605E+00
        -11   -1    0    0    0    0  0.00000000000E+00  0.00000000000E+00  0.45593999997E+02  0.45594000000E+02  0.51100000000E-03 0.  1.
         11   -1    0    0    0    0 -0.00000000000E+00 -0.00000000000E+00 -0.45593999997E+02  0.45594000000E+02  0.51100000000E-03 0. -1.
    9900012    2    1    2    0    0  0.10049813908E+02 -0.26564168176E+02  0.14493711518E+02  0.59301929937E+02  0.49999974302E+02 0.  0.
         12    1    1    2    0    0 -0.10049813908E+02  0.26564168176E+02 -0.14493711518E+02  0.31886070063E+02  0.00000000000E+00 0. -1.
         11    1    3    3    0    0  0.15111429249E+02 -0.10912391127E+01 -0.95485785438E+01  0.17908697586E+02  0.51100000000E-03 0. -1.
        -11    1    3    3    0    0  0.61296001992E+01 -0.15208806435E+02  0.52185561611E+01  0.17207937716E+02  0.51100000000E-03 0.  1.
        -12    1    3    3    0    0 -0.11191215541E+02 -0.10264122629E+02  0.18823733901E+02  0.24185294635E+02  0.00000000000E+00 0.  1.
</event>
<event>
 7    1  0.1284645E-011  0.5930195E+02  0.7816164E-02  0.1266605E+00
        -11   -1    0    0    0    0  0.00000000000E+00  0.00000000000E+00  0.45593999997E+02  0.45594000000E+02  0.51100000000E-03 0. -1.
         11   -1    0    0    0    0 -0.00000000000E+00 -0.00000000000E+00 -0.45593999997E+02  0.45594000000E+02  0.51100000000E-03 0.  1.
    9900012    2    1    2    0    0  0.11819668918E+02 -0.26659817839E+02 -0.12894559978E+02  0.59301950738E+02  0.50000012237E+02 0.  0.
         12    1    1    2    0    0 -0.11819668918E+02  0.26659817839E+02  0.12894559978E+02  0.31886049262E+02  0.00000000000E+00 0. -1.
         11    1    3    3    0    0  0.47978391214E+01  0.10596369553E+02 -0.71353317130E+01  0.13646071481E+02  0.51100000000E-03 0. -1.
        -11    1    3    3    0    0  0.15212919153E+02 -0.19769265520E+02  0.15868589499E+01  0.24995497393E+02  0.51100000000E-03 0.  1.
        -12    1    3    3    0    0 -0.81910893566E+01 -0.17486921872E+02 -0.73460872144E+01  0.20660381864E+02  0.00000000000E+00 0.  1.
</event>
<event>
 7    1  0.1284645E-011  0.5930189E+02  0.7816164E-02  0.1266605E+00
        -11   -1    0    0    0    0  0.00000000000E+00  0.00000000000E+00  0.45593999997E+02  0.45594000000E+02  0.51100000000E-03 0.  1.
         11   -1    0    0    0    0 -0.00000000000E+00 -0.00000000000E+00 -0.45593999997E+02  0.45594000000E+02  0.51100000000E-03 0. -1.
    9900012    2    1    2    0    0 -0.19886781905E+02  0.55737697648E+01  0.24293480508E+02  0.59301887049E+02  0.49999896084E+02 0.  0.
         12    1    1    2    0    0  0.19886781905E+02 -0.55737697648E+01 -0.24293480508E+02  0.31886112951E+02  0.00000000000E+00 0. -1.
         11    1    3    3    0    0  0.70376886727E+01 -0.78113409869E+00 -0.97719404712E+01  0.12067727755E+02  0.51100000000E-03 0. -1.
        -11    1    3    3    0    0 -0.23438679790E+00 -0.40602139668E+01  0.44488746797E+01  0.60276662818E+01  0.51100000000E-03 0.  1.
        -12    1    3    3    0    0 -0.26690083780E+02  0.10415117830E+02  0.29616546300E+02  0.41206493012E+02  0.00000000000E+00 0.  1.
</event>
<event>
 7    1  0.1284645E-011  0.5930194E+02  0.7816164E-02  0.1266605E+00
        -11   -1    0    0    0    0  0.00000000000E+00  0.00000000000E+00  0.45593999997E+02  0.45594000000E+02  0.51100000000E-03 0.  1.
         11   -1    0    0    0    0 -0.00000000000E+00 -0.00000000000E+00 -0.45593999997E+02  0.45594000000E+02  0.51100000000E-03 0. -1.
    9900012    2    1    2    0    0 -0.26269909847E+02 -0.18051830515E+02 -0.86265275868E+00  0.59301938498E+02  0.49999989916E+02 0.  0.
         12    1    1    2    0    0  0.26269909847E+02  0.18051830515E+02  0.86265275868E+00  0.31886061502E+02  0.00000000000E+00 0. -1.
         11    1    3    3    0    0 -0.11842683757E+02  0.82685928432E+01  0.76773729410E+01  0.16357287113E+02  0.51100000000E-03 0. -1.
        -11    1    3    3    0    0 -0.70328202559E+01  0.38962098393E+01  0.45002921943E+01  0.92137745772E+01  0.51100000000E-03 0.  1.
        -12    1    3    3    0    0 -0.73944058337E+01 -0.30216633198E+02 -0.13040317894E+02  0.33730876808E+02  0.00000000000E+00 0.  1.
</event>
<event>
 7    1  0.1284645E-011  0.5930194E+02  0.7816164E-02  0.1266605E+00
        -11   -1    0    0    0    0  0.00000000000E+00  0.00000000000E+00  0.45593999997E+02  0.45594000000E+02  0.51100000000E-03 0. -1.
         11   -1    0    0    0    0 -0.00000000000E+00 -0.00000000000E+00 -0.45593999997E+02  0.45594000000E+02  0.51100000000E-03 0.  1.
    9900012    2    1    2    0    0  0.10734152849E+02  0.77661065429E+00 -0.30014920470E+02  0.59301943293E+02  0.49999998660E+02 0.  0.
         12    1    1    2    0    0 -0.10734152849E+02 -0.77661065429E+00  0.30014920470E+02  0.31886056707E+02  0.00000000000E+00 0. -1.
         11    1    3    3    0    0 -0.11785471484E+02  0.27005791938E+01 -0.48753149418E+01  0.13036838655E+02  0.51100000000E-03 0. -1.
        -11    1    3    3    0    0 -0.29108366178E+01 -0.84460195978E+01 -0.16256583808E+02  0.18549521132E+02  0.51100000000E-03 0.  1.
         12    1    3    3    0    0  0.25430460951E+02  0.65220510583E+01 -0.88830217199E+01  0.27715583506E+02  0.00000000000E+00 0. -1.
</event>
<event>
 7    1  0.1284645E-011  0.5930194E+02  0.7816164E-02  0.1266605E+00
        -11   -1    0    0    0    0  0.00000000000E+00  0.00000000000E+00  0.45593999997E+02  0.45594000000E+02  0.51100000000E-03 0.  1.
         11   -1    0    0    0    0 -0.00000000000E+00 -0.00000000000E+00 -0.45593999997E+02  0.45594000000E+02  0.51100000000E-03 0. -1.
    9900012    2    1    2    0    0 -0.24590011786E+02  0.16366477390E+01  0.20232987428E+02  0.59301936027E+02  0.49999985408E+02 0.  0.
         12    1    1    2    0    0  0.24590011786E+02 -0.16366477390E+01 -0.20232987428E+02  0.31886063973E+02  0.00000000000E+00 0. -1.
         11    1    3    3    0    0 -0.28406437663E+01  0.12159872337E+02  0.13292121300E+02  0.18237659970E+02  0.51100000000E-03 0. -1.
        -11    1    3    3    0    0 -0.12751053808E+02 -0.12253093914E+02  0.18975490000E+02  0.25938328872E+02  0.51100000000E-03 0.  1.
         12    1    3    3    0    0 -0.89983142118E+01  0.17298693154E+01 -0.12034623872E+02  0.15125947185E+02  0.00000000000E+00 0. -1.
</event>
<event>
 7    1  0.1284645E-011  0.5930194E+02  0.7816164E-02  0.1266605E+00
        -11   -1    0    0    0    0  0.00000000000E+00  0.00000000000E+00  0.45593999997E+02  0.45594000000E+02  0.51100000000E-03 0. -1.
         11   -1    0    0    0    0 -0.00000000000E+00 -0.00000000000E+00 -0.45593999997E+02  0.45594000000E+02  0.51100000000E-03 0.  1.
    9900012    2    1    2    0    0 -0.26127573444E+02 -0.38017210229E+01 -0.17877853403E+02  0.59301940051E+02  0.49999992747E+02 0.  0.
         12    1    1    2    0    0  0.26127573444E+02  0.38017210229E+01  0.17877853403E+02  0.31886059949E+02  0.00000000000E+00 0. -1.
         11    1    3    3    0    0 -0.16195348522E+02  0.89723222856E+01 -0.85523921421E+01  0.20394491721E+02  0.51100000000E-03 0.  1.
        -11    1    3    3    0    0 -0.66440366278E+01  0.11417400051E+02 -0.16333902153E+01  0.13310454932E+02  0.51100000000E-03 0. -1.
        -12    1    3    3    0    0 -0.32881882942E+01 -0.24191443359E+02 -0.76920710457E+01  0.25596993398E+02  0.00000000000E+00 0.  1.
</event>
<event>
 7    1  0.1284645E-011  0.5930195E+02  0.7816164E-02  0.1266605E+00
        -11   -1    0    0    0    0  0.00000000000E+00  0.00000000000E+00  0.45593999997E+02  0.45594000000E+02  0.51100000000E-03 0. -1.
         11   -1    0    0    0    0 -0.00000000000E+00 -0.00000000000E+00 -0.45593999997E+02  0.45594000000E+02  0.51100000000E-03 0.  1.
    9900012    2    1    2    0    0  0.25422078709E+02  0.28197525641E+01 -0.19039097213E+02  0.59301947985E+02  0.50000007217E+02 0.  0.
         12    1    1    2    0    0 -0.25422078709E+02 -0.28197525641E+01  0.19039097213E+02  0.31886052015E+02  0.00000000000E+00 0. -1.
         11    1    3    3    0    0  0.15403341838E+02  0.17377413367E+02 -0.15539474474E+01  0.23273422353E+02  0.51100000000E-03 0. -1.
        -11    1    3    3    0    0 -0.86278394964E+01 -0.22423738445E+01 -0.70521137658E+01  0.11366624990E+02  0.51100000000E-03 0.  1.
        -12    1    3    3    0    0  0.18646576368E+02 -0.12315286958E+02 -0.10433036000E+02  0.24661900642E+02  0.00000000000E+00 0.  1.
</event>
<event>
 7    1  0.1284645E-011  0.5930180E+02  0.7816164E-02  0.1266605E+00
        -11   -1    0    0    0    0  0.00000000000E+00  0.00000000000E+00  0.45593999997E+02  0.45594000000E+02  0.51100000000E-03 0. -1.
         11   -1    0    0    0    0 -0.00000000000E+00 -0.00000000000E+00 -0.45593999997E+02  0.45594000000E+02  0.51100000000E-03 0.  1.
    9900012    2    1    2    0    0 -0.53860316997E+01 -0.25371353320E+02 -0.18547632305E+02  0.59301802815E+02  0.49999742462E+02 0.  0.
         12    1    1    2    0    0  0.53860316997E+01  0.25371353320E+02  0.18547632305E+02  0.31886197185E+02  0.00000000000E+00 0. -1.
         11    1    3    3    0    0 -0.16014403943E+02 -0.11607392860E+02 -0.13798619792E+01  0.19826666941E+02  0.51100000000E-03 0. -1.
        -11    1    3    3    0    0 -0.60822719276E+01 -0.16058922495E+02 -0.29687269274E+01  0.17426886220E+02  0.51100000000E-03 0.  1.
         12    1    3    3    0    0  0.16710644171E+02  0.22949620356E+01 -0.14199043399E+02  0.22048249654E+02  0.00000000000E+00 0. -1.
</event>
<event>
 7    1  0.1284645E-011  0.5930192E+02  0.7816164E-02  0.1266605E+00
        -11   -1    0    0    0    0  0.00000000000E+00  0.00000000000E+00  0.45593999997E+02  0.45594000000E+02  0.51100000000E-03 0. -1.
         11   -1    0    0    0    0 -0.00000000000E+00 -0.00000000000E+00 -0.45593999997E+02  0.45594000000E+02  0.51100000000E-03 0.  1.
    9900012    2    1    2    0    0  0.24937852449E+02 -0.32880179430E+01 -0.19596282042E+02  0.59301924409E+02  0.49999964220E+02 0.  0.
         12    1    1    2    0    0 -0.24937852449E+02  0.32880179430E+01  0.19596282042E+02  0.31886075591E+02  0.00000000000E+00 0. -1.
         11    1    3    3    0    0 -0.59200577152E+00 -0.86929886040E+01  0.40568126147E+01  0.96112564504E+01  0.51100000000E-03 0. -1.
        -11    1    3    3    0    0 -0.11868273153E+01  0.15150689344E+02 -0.69650117149E+01  0.16717156909E+02  0.51100000000E-03 0.  1.
        -12    1    3    3    0    0  0.26716685535E+02 -0.97457186832E+01 -0.16688082942E+02  0.32973511049E+02  0.00000000000E+00 0.  1.
</event>
<event>
 7    1  0.1284645E-011  0.5930185E+02  0.7816164E-02  0.1266605E+00
        -11   -1    0    0    0    0  0.00000000000E+00  0.00000000000E+00  0.45593999997E+02  0.45594000000E+02  0.51100000000E-03 0. -1.
         11   -1    0    0    0    0 -0.00000000000E+00 -0.00000000000E+00 -0.45593999997E+02  0.45594000000E+02  0.51100000000E-03 0.  1.
    9900012    2    1    2    0    0 -0.13198942777E+02 -0.94113620825E+00 -0.29010838893E+02  0.59301849385E+02  0.49999827394E+02 0.  0.
         12    1    1    2    0    0  0.13198942777E+02  0.94113620825E+00  0.29010838893E+02  0.31886150615E+02  0.00000000000E+00 0. -1.
         11    1    3    3    0    0 -0.17928298315E+02  0.74750402712E+01 -0.25955689806E+02  0.32419098400E+02  0.51100000000E-03 0. -1.
        -11    1    3    3    0    0 -0.80805567450E+01 -0.27251347761E+01 -0.83156121783E+01  0.11910968181E+02  0.51100000000E-03 0.  1.
         12    1    3    3    0    0  0.12809912283E+02 -0.56910417034E+01  0.52604630912E+01  0.14971782803E+02  0.00000000000E+00 0. -1.
</event>
<event>
 7    1  0.1284645E-011  0.5930195E+02  0.7816164E-02  0.1266605E+00
        -11   -1    0    0    0    0  0.00000000000E+00  0.00000000000E+00  0.45593999997E+02  0.45594000000E+02  0.51100000000E-03 0. -1.
         11   -1    0    0    0    0 -0.00000000000E+00 -0.00000000000E+00 -0.45593999997E+02  0.45594000000E+02  0.51100000000E-03 0.  1.
    9900012    2    1    2    0    0 -0.21434780398E+02  0.17701842965E+02  0.15617792402E+02  0.59301945139E+02  0.50000002028E+02 0.  0.
         12    1    1    2    0    0  0.21434780398E+02 -0.17701842965E+02 -0.15617792402E+02  0.31886054861E+02  0.00000000000E+00 0. -1.
         11    1    3    3    0    0 -0.15112099779E+00 -0.21251847966E+01  0.92561071078E+01  0.94981454520E+01  0.51100000000E-03 0. -1.
        -11    1    3    3    0    0 -0.12835972934E+02  0.20188746348E+02  0.21693600748E+02  0.32294891143E+02  0.51100000000E-03 0.  1.
        -12    1    3    3    0    0 -0.84476864658E+01 -0.36171858638E+00 -0.15331915453E+02  0.17508908545E+02  0.00000000000E+00 0.  1.
</event>
<event>
 7    1  0.1284645E-011  0.5930194E+02  0.7816164E-02  0.1266605E+00
        -11   -1    0    0    0    0  0.00000000000E+00  0.00000000000E+00  0.45593999997E+02  0.45594000000E+02  0.51100000000E-03 0.  1.
         11   -1    0    0    0    0 -0.00000000000E+00 -0.00000000000E+00 -0.45593999997E+02  0.45594000000E+02  0.51100000000E-03 0. -1.
    9900012    2    1    2    0    0  0.81378168934E+01  0.22657747236E+02  0.20907490939E+02  0.59301941119E+02  0.49999994694E+02 0.  0.
         12    1    1    2    0    0 -0.81378168934E+01 -0.22657747236E+02 -0.20907490939E+02  0.31886058881E+02  0.00000000000E+00 0. -1.
         11    1    3    3    0    0 -0.27402395416E+01 -0.42125409380E+01  0.17289661807E+02  0.18005188684E+02  0.51100000000E-03 0. -1.
        -11    1    3    3    0    0  0.11025185314E+02  0.27785230433E+01  0.11279433313E+02  0.16015633538E+02  0.51100000000E-03 0.  1.
         12    1    3    3    0    0 -0.14712887917E+00  0.24091765131E+02 -0.76616041800E+01  0.25281118896E+02  0.00000000000E+00 0. -1.
</event>
<event>
 7    1  0.1284645E-011  0.5930193E+02  0.7816164E-02  0.1266605E+00
        -11   -1    0    0    0    0  0.00000000000E+00  0.00000000000E+00  0.45593999997E+02  0.45594000000E+02  0.51100000000E-03 0.  1.
         11   -1    0    0    0    0 -0.00000000000E+00 -0.00000000000E+00 -0.45593999997E+02  0.45594000000E+02  0.51100000000E-03 0. -1.
    9900012    2    1    2    0    0 -0.98628964922E+01 -0.30322136096E+02  0.11403300794E+00  0.59301926736E+02  0.49999968464E+02 0.  0.
         12    1    1    2    0    0  0.98628964922E+01  0.30322136096E+02 -0.11403300794E+00  0.31886073264E+02  0.00000000000E+00 0. -1.
         11    1    3    3    0    0  0.76114017184E+01 -0.13912721007E+02  0.26462938458E+01  0.16077938715E+02  0.51100000000E-03 0. -1.
        -11    1    3    3    0    0 -0.27487922416E+02 -0.16151993284E+02  0.25641425102E+01  0.31985115177E+02  0.51100000000E-03 0.  1.
         12    1    3    3    0    0  0.10013624206E+02 -0.25742180523E+00 -0.50964033480E+01  0.11238872844E+02  0.00000000000E+00 0. -1.
</event>
<event>
 7    1  0.1284645E-011  0.5930197E+02  0.7816164E-02  0.1266605E+00
        -11   -1    0    0    0    0  0.00000000000E+00  0.00000000000E+00  0.45593999997E+02  0.45594000000E+02  0.51100000000E-03 0.  1.
         11   -1    0    0    0    0 -0.00000000000E+00 -0.00000000000E+00 -0.45593999997E+02  0.45594000000E+02  0.51100000000E-03 0. -1.
    9900012    2    1    2    0    0  0.43294579417E+01 -0.20571356284E+02  0.23974860073E+02  0.59301971383E+02  0.50000049890E+02 0.  0.
         12    1    1    2    0    0 -0.43294579417E+01  0.20571356284E+02 -0.23974860073E+02  0.31886028617E+02  0.00000000000E+00 0. -1.
         11    1    3    3    0    0 -0.16089976890E+01  0.40593782934E+01 -0.36867022558E+01  0.57148227861E+01  0.51100000000E-03 0. -1.
        -11    1    3    3    0    0 -0.98353561523E+01  0.58166416464E+01  0.49210813868E+01  0.12441245635E+02  0.51100000000E-03 0.  1.
        -12    1    3    3    0    0  0.15773811783E+02 -0.30447376224E+02  0.22740480942E+02  0.41145902962E+02  0.00000000000E+00 0.  1.
</event>
<event>
 7    1  0.1284645E-011  0.5930194E+02  0.7816164E-02  0.1266605E+00
        -11   -1    0    0    0    0  0.00000000000E+00  0.00000000000E+00  0.45593999997E+02  0.45594000000E+02  0.51100000000E-03 0.  1.
         11   -1    0    0    0    0 -0.00000000000E+00 -0.00000000000E+00 -0.45593999997E+02  0.45594000000E+02  0.51100000000E-03 0. -1.
    9900012    2    1    2    0    0  0.52403685441E+01 -0.44296289111E+01  0.31139009110E+02  0.59301937792E+02  0.49999988627E+02 0.  0.
         12    1    1    2    0    0 -0.52403685441E+01  0.44296289111E+01 -0.31139009110E+02  0.31886062208E+02  0.00000000000E+00 0. -1.
         11    1    3    3    0    0  0.80624141886E+01 -0.47005730268E+00 -0.22799160418E+01  0.83917515356E+01  0.51100000000E-03 0. -1.
        -11    1    3    3    0    0  0.12428136307E+02  0.82050148087E+01  0.36736002842E+01  0.15338715050E+02  0.51100000000E-03 0.  1.
        -12    1    3    3    0    0 -0.15250181952E+02 -0.12164586417E+02  0.29745324868E+02  0.35571471206E+02  0.00000000000E+00 0.  1.
</event>
<event>
 7    1  0.1284645E-011  0.5930202E+02  0.7816164E-02  0.1266605E+00
        -11   -1    0    0    0    0  0.00000000000E+00  0.00000000000E+00  0.45593999997E+02  0.45594000000E+02  0.51100000000E-03 0. -1.
         11   -1    0    0    0    0 -0.00000000000E+00 -0.00000000000E+00 -0.45593999997E+02  0.45594000000E+02  0.51100000000E-03 0.  1.
    9900012    2    1    2    0    0  0.17979054170E+00 -0.26391596659E+02 -0.17893214402E+02  0.59302018433E+02  0.50000135697E+02 0.  0.
         12    1    1    2    0    0 -0.17979054170E+00  0.26391596659E+02  0.17893214402E+02  0.31885981567E+02  0.00000000000E+00 0. -1.
         11    1    3    3    0    0  0.48902723557E+01 -0.78679917359E+01  0.55407162072E+01  0.10794424210E+02  0.51100000000E-03 0. -1.
        -11    1    3    3    0    0  0.13589510571E+02 -0.11769593587E+02 -0.22740874218E+02  0.28988713170E+02  0.51100000000E-03 0.  1.
         12    1    3    3    0    0 -0.18299992385E+02 -0.67540113366E+01 -0.69305639089E+00  0.19518881053E+02  0.00000000000E+00 0. -1.
</event>
<event>
 7    1  0.1284645E-011  0.5930194E+02  0.7816164E-02  0.1266605E+00
        -11   -1    0    0    0    0  0.00000000000E+00  0.00000000000E+00  0.45593999997E+02  0.45594000000E+02  0.51100000000E-03 0. -1.
         11   -1    0    0    0    0 -0.00000000000E+00 -0.00000000000E+00 -0.45593999997E+02  0.45594000000E+02  0.51100000000E-03 0.  1.
    9900012    2    1    2    0    0  0.20640051720E+02  0.12366954339E+02 -0.20922895835E+02  0.59301939334E+02  0.49999991440E+02 0.  0.
         12    1    1    2    0    0 -0.20640051720E+02 -0.12366954339E+02  0.20922895835E+02  0.31886060666E+02  0.00000000000E+00 0. -1.
         11    1    3    3    0    0  0.43824010326E+00  0.12033300641E+02 -0.15085766095E+02  0.19302142825E+02  0.51100000000E-03 0. -1.
        -11    1    3    3    0    0 -0.26754948837E+01 -0.12746906611E+02 -0.38032355156E+01  0.13568585102E+02  0.51100000000E-03 0.  1.
         12    1    3    3    0    0  0.22877306501E+02  0.13080560309E+02 -0.20338942246E+01  0.26431211407E+02  0.00000000000E+00 0. -1.
</event>
<event>
 7    1  0.1284645E-011  0.5930194E+02  0.7816164E-02  0.1266605E+00
        -11   -1    0    0    0    0  0.00000000000E+00  0.00000000000E+00  0.45593999997E+02  0.45594000000E+02  0.51100000000E-03 0. -1.
         11   -1    0    0    0    0 -0.00000000000E+00 -0.00000000000E+00 -0.45593999997E+02  0.45594000000E+02  0.51100000000E-03 0.  1.
    9900012    2    1    2    0    0 -0.38370227571E+01 -0.15434534287E+02  0.27636447764E+02  0.59301939765E+02  0.49999992226E+02 0.  0.
         12    1    1    2    0    0  0.38370227571E+01  0.15434534287E+02 -0.27636447764E+02  0.31886060235E+02  0.00000000000E+00 0. -1.
         11    1    3    3    0    0  0.19108194035E+02 -0.34473791463E+01  0.21216600591E+02  0.28760244143E+02  0.51100000000E-03 0. -1.
        -11    1    3    3    0    0  0.11866276479E+01 -0.77465349950E+00  0.34956792466E+01  0.37719950789E+01  0.51100000000E-03 0.  1.
        -12    1    3    3    0    0 -0.24131844440E+02 -0.11212501641E+02  0.29241679260E+01  0.26769700543E+02  0.00000000000E+00 0.  1.
</event>
<event>
 7    1  0.1284645E-011  0.5930201E+02  0.7816164E-02  0.1266605E+00
        -11   -1    0    0    0    0  0.00000000000E+00  0.00000000000E+00  0.45593999997E+02  0.45594000000E+02  0.51100000000E-03 0. -1.
         11   -1    0    0    0    0 -0.00000000000E+00 -0.00000000000E+00 -0.45593999997E+02  0.45594000000E+02  0.51100000000E-03 0.  1.
    9900012    2    1    2    0    0  0.14618567556E+02  0.14146656830E+02 -0.24553731774E+02  0.59302013095E+02  0.50000125963E+02 0.  0.
         12    1    1    2    0    0 -0.14618567556E+02 -0.14146656830E+02  0.24553731774E+02  0.31885986905E+02  0.00000000000E+00 0. -1.
         11    1    3    3    0    0  0.75503485104E+01  0.11114682093E+02 -0.15645417220E+01  0.13527442911E+02  0.51100000000E-03 0. -1.
        -11    1    3    3    0    0  0.81659402049E+01  0.10902790803E+02 -0.31385296169E+02  0.34213889615E+02  0.51100000000E-03 0.  1.
         12    1    3    3    0    0 -0.10977211595E+01 -0.78708160663E+01  0.83961061167E+01  0.11560680569E+02  0.00000000000E+00 0. -1.
</event>
<event>
 7    1  0.1284645E-011  0.5930193E+02  0.7816164E-02  0.1266605E+00
        -11   -1    0    0    0    0  0.00000000000E+00  0.00000000000E+00  0.45593999997E+02  0.45594000000E+02  0.51100000000E-03 0. -1.
         11   -1    0    0    0    0 -0.00000000000E+00 -0.00000000000E+00 -0.45593999997E+02  0.45594000000E+02  0.51100000000E-03 0.  1.
    9900012    2    1    2    0    0 -0.37657970380E+01 -0.33971307186E+01 -0.31480152785E+02  0.59301925551E+02  0.49999966302E+02 0.  0.
         12    1    1    2    0    0  0.37657970380E+01  0.33971307186E+01  0.31480152785E+02  0.31886074449E+02  0.00000000000E+00 0. -1.
         11    1    3    3    0    0 -0.69221268580E+01  0.39396516622E+01 -0.94868129972E+01  0.12386941372E+02  0.51100000000E-03 0. -1.
        -11    1    3    3    0    0 -0.79681333191E+00  0.13782399373E+02 -0.21343510336E+02  0.25419183261E+02  0.51100000000E-03 0.  1.
         12    1    3    3    0    0  0.39531431519E+01 -0.21119181754E+02 -0.64982945172E+00  0.21495800917E+02  0.00000000000E+00 0. -1.
</event>
<event>
 7    1  0.1284645E-011  0.5930194E+02  0.7816164E-02  0.1266605E+00
        -11   -1    0    0    0    0  0.00000000000E+00  0.00000000000E+00  0.45593999997E+02  0.45594000000E+02  0.51100000000E-03 0. -1.
         11   -1    0    0    0    0 -0.00000000000E+00 -0.00000000000E+00 -0.45593999997E+02  0.45594000000E+02  0.51100000000E-03 0.  1.
    9900012    2    1    2    0    0 -0.30960631202E+02  0.52300947270E+01  0.55503566172E+01  0.59301936683E+02  0.49999986604E+02 0.  0.
         12    1    1    2    0    0  0.30960631202E+02 -0.52300947270E+01 -0.55503566172E+01  0.31886063317E+02  0.00000000000E+00 0. -1.
         11    1    3    3    0    0 -0.65085045968E+01 -0.10266019962E+02  0.29732459538E+00  0.12158955552E+02  0.51100000000E-03 0. -1.
        -11    1    3    3    0    0 -0.89953709407E+01 -0.80878220397E+01 -0.94424320671E+01  0.15345653694E+02  0.51100000000E-03 0.  1.
         12    1    3    3    0    0 -0.15456755665E+02  0.23583936728E+02  0.14695464089E+02  0.31797327436E+02  0.00000000000E+00 0. -1.
</event>
<event>
 7    1  0.1284645E-011  0.5930204E+02  0.7816164E-02  0.1266604E+00
        -11   -1    0    0    0    0  0.00000000000E+00  0.00000000000E+00  0.45593999997E+02  0.45594000000E+02  0.51100000000E-03 0. -1.
         11   -1    0    0    0    0 -0.00000000000E+00 -0.00000000000E+00 -0.45593999997E+02  0.45594000000E+02  0.51100000000E-03 0.  1.
    9900012    2    1    2    0    0  0.18926568869E+02  0.93705650164E+01 -0.23889164625E+02  0.59302036249E+02  0.50000168188E+02 0.  0.
         12    1    1    2    0    0 -0.18926568869E+02 -0.93705650164E+01  0.23889164625E+02  0.31885963751E+02  0.00000000000E+00 0. -1.
         11    1    3    3    0    0 -0.17502310436E+01 -0.36963480452E+01 -0.10430216336E+02  0.11203379430E+02  0.51100000000E-03 0. -1.
        -11    1    3    3    0    0  0.28879123444E+02  0.16266078104E+02 -0.18494996449E+02  0.37955947646E+02  0.51100000000E-03 0.  1.
         12    1    3    3    0    0 -0.82023235314E+01 -0.31991650424E+01  0.50360481605E+01  0.10142709172E+02  0.00000000000E+00 0. -1.
</event>
<event>
 7    1  0.1284645E-011  0.5930190E+02  0.7816164E-02  0.1266605E+00
        -11   -1    0    0    0    0  0.00000000000E+00  0.00000000000E+00  0.45593999997E+02  0.45594000000E+02  0.51100000000E-03 0.  1.
         11   -1    0    0    0    0 -0.00000000000E+00 -0.00000000000E+00 -0.45593999997E+02  0.45594000000E+02  0.51100000000E-03 0. -1.
    9900012    2    1    2    0    0 -0.13016237052E+02  0.34977583395E+01  0.28897519648E+02  0.59301899859E+02  0.49999919446E+02 0.  0.
         12    1    1    2    0    0  0.13016237052E+02 -0.34977583395E+01 -0.28897519648E+02  0.31886100141E+02  0.00000000000E+00 0. -1.
         11    1    3    3    0    0 -0.56178276466E+01 -0.46726001862E+01 -0.85949529779E+01  0.11281240930E+02  0.51100000000E-03 0. -1.
        -11    1    3    3    0    0 -0.14712336242E+01 -0.10303991270E+02  0.15768425647E+02  0.18893914684E+02  0.51100000000E-03 0.  1.
        -12    1    3    3    0    0 -0.59271757811E+01  0.18474349796E+02  0.21724046979E+02  0.29126744244E+02  0.00000000000E+00 0.  1.
</event>
<event>
 7    1  0.1284645E-011  0.5930195E+02  0.7816164E-02  0.1266605E+00
        -11   -1    0    0    0    0  0.00000000000E+00  0.00000000000E+00  0.45593999997E+02  0.45594000000E+02  0.51100000000E-03 0. -1.
         11   -1    0    0    0    0 -0.00000000000E+00 -0.00000000000E+00 -0.45593999997E+02  0.45594000000E+02  0.51100000000E-03 0.  1.
    9900012    2    1    2    0    0  0.54948972915E+01  0.21016611285E+02 -0.23341559789E+02  0.59301948825E+02  0.50000008750E+02 0.  0.
         12    1    1    2    0    0 -0.54948972915E+01 -0.21016611285E+02  0.23341559789E+02  0.31886051175E+02  0.00000000000E+00 0. -1.
         11    1    3    3    0    0 -0.12180505342E+02  0.90102296697E+01  0.84168028859E+01  0.17331806604E+02  0.51100000000E-03 0. -1.
        -11    1    3    3    0    0 -0.33072975450E+00  0.40513153883E+01  0.58560020907E+00  0.41067586259E+01  0.51100000000E-03 0.  1.
        -12    1    3    3    0    0  0.18006132388E+02  0.79550662266E+01 -0.32343962884E+02  0.37863383595E+02  0.00000000000E+00 0.  1.
</event>
<event>
 7    1  0.1284645E-011  0.5930193E+02  0.7816164E-02  0.1266605E+00
        -11   -1    0    0    0    0  0.00000000000E+00  0.00000000000E+00  0.45593999997E+02  0.45594000000E+02  0.51100000000E-03 0. -1.
         11   -1    0    0    0    0 -0.00000000000E+00 -0.00000000000E+00 -0.45593999997E+02  0.45594000000E+02  0.51100000000E-03 0.  1.
    9900012    2    1    2    0    0  0.84142480639E+01  0.10693859709E+02 -0.28836834041E+02  0.59301934024E+02  0.49999981755E+02 0.  0.
         12    1    1    2    0    0 -0.84142480639E+01 -0.10693859709E+02  0.28836834041E+02  0.31886065976E+02  0.00000000000E+00 0. -1.
         11    1    3    3    0    0  0.68131960993E+01  0.87857336285E+01 -0.11398883984E+02  0.15923043453E+02  0.51100000000E-03 0. -1.
        -11    1    3    3    0    0  0.40996509445E+01  0.11614578056E+02 -0.26905967510E+02  0.29591158294E+02  0.51100000000E-03 0.  1.
        -12    1    3    3    0    0 -0.24985989799E+01 -0.97064519752E+01  0.94680174536E+01  0.13787732276E+02  0.00000000000E+00 0.  1.
</event>
<event>
 7    1  0.1284645E-011  0.5930192E+02  0.7816164E-02  0.1266605E+00
        -11   -1    0    0    0    0  0.00000000000E+00  0.00000000000E+00  0.45593999997E+02  0.45594000000E+02  0.51100000000E-03 0.  1.
         11   -1    0    0    0    0 -0.00000000000E+00 -0.00000000000E+00 -0.45593999997E+02  0.45594000000E+02  0.51100000000E-03 0. -1.
    9900012    2    1    2    0    0  0.18701985096E+02  0.16725189020E+02  0.19678050935E+02  0.59301923370E+02  0.49999962325E+02 0.  0.
         12    1    1    2    0    0 -0.18701985096E+02 -0.16725189020E+02 -0.19678050935E+02  0.31886076630E+02  0.00000000000E+00 0. -1.
         11    1    3    3    0    0  0.53725328531E+01  0.94585777560E+01  0.21443490408E+02  0.24044793273E+02  0.51100000000E-03 0.  1.
        -11    1    3    3    0    0  0.18185507637E+02  0.44047234248E+01 -0.12934213085E+02  0.22746607326E+02  0.51100000000E-03 0. -1.
         12    1    3    3    0    0 -0.48560553941E+01  0.28618878393E+01  0.11168773612E+02  0.12510522771E+02  0.00000000000E+00 0. -1.
</event>
<event>
 7    1  0.1284645E-011  0.5930196E+02  0.7816164E-02  0.1266605E+00
        -11   -1    0    0    0    0  0.00000000000E+00  0.00000000000E+00  0.45593999997E+02  0.45594000000E+02  0.51100000000E-03 0. -1.
         11   -1    0    0    0    0 -0.00000000000E+00 -0.00000000000E+00 -0.45593999997E+02  0.45594000000E+02  0.51100000000E-03 0.  1.
    9900012    2    1    2    0    0  0.30678415158E+02  0.73120124043E+01  0.46998671306E+01  0.59301961785E+02  0.50000032385E+02 0.  0.
         12    1    1    2    0    0 -0.30678415158E+02 -0.73120124043E+01 -0.46998671306E+01  0.31886038215E+02  0.00000000000E+00 0. -1.
         11    1    3    3    0    0  0.35882446976E+01  0.12482780395E+02 -0.82393057709E+01  0.15381204968E+02  0.51100000000E-03 0. -1.
        -11    1    3    3    0    0  0.94322651364E+01  0.61935702882E+01 -0.83350499580E+01  0.14028577853E+02  0.51100000000E-03 0.  1.
        -12    1    3    3    0    0  0.17657905324E+02 -0.11364338279E+02  0.21274222860E+02  0.29892178964E+02  0.00000000000E+00 0.  1.
</event>
<event>
 7    1  0.1284645E-011  0.5930194E+02  0.7816164E-02  0.1266605E+00
        -11   -1    0    0    0    0  0.00000000000E+00  0.00000000000E+00  0.45593999997E+02  0.45594000000E+02  0.51100000000E-03 0. -1.
         11   -1    0    0    0    0 -0.00000000000E+00 -0.00000000000E+00 -0.45593999997E+02  0.45594000000E+02  0.51100000000E-03 0.  1.
    9900012    2    1    2    0    0 -0.20570311393E+02  0.18689994937E+02 -0.15629058940E+02  0.59301935569E+02  0.49999984574E+02 0.  0.
         12    1    1    2    0    0  0.20570311393E+02 -0.18689994937E+02  0.15629058940E+02  0.31886064431E+02  0.00000000000E+00 0. -1.
         11    1    3    3    0    0 -0.17449555305E+02  0.23517435014E+01  0.26416485185E+01  0.17804381062E+02  0.51100000000E-03 0. -1.
        -11    1    3    3    0    0  0.12821451850E+00 -0.10163266297E+02 -0.78239870539E+01  0.12826659521E+02  0.51100000000E-03 0.  1.
         12    1    3    3    0    0 -0.32489706064E+01  0.26501517732E+02 -0.10446720405E+02  0.28670894986E+02  0.00000000000E+00 0. -1.
</event>
<event>
 7    1  0.1284645E-011  0.5930195E+02  0.7816164E-02  0.1266605E+00
        -11   -1    0    0    0    0  0.00000000000E+00  0.00000000000E+00  0.45593999997E+02  0.45594000000E+02  0.51100000000E-03 0. -1.
         11   -1    0    0    0    0 -0.00000000000E+00 -0.00000000000E+00 -0.45593999997E+02  0.45594000000E+02  0.51100000000E-03 0.  1.
    9900012    2    1    2    0    0  0.10169652260E+02  0.48186972036E+01 -0.29834186783E+02  0.59301947079E+02  0.50000005565E+02 0.  0.
         12    1    1    2    0    0 -0.10169652260E+02 -0.48186972036E+01  0.29834186783E+02  0.31886052921E+02  0.00000000000E+00 0. -1.
         11    1    3    3    0    0 -0.62253742286E+01  0.12619597143E+02 -0.13580717739E+02  0.19556211569E+02  0.51100000000E-03 0. -1.
        -11    1    3    3    0    0  0.16142687541E+02  0.51442588842E+01 -0.20053037102E+02  0.26252124825E+02  0.51100000000E-03 0.  1.
        -12    1    3    3    0    0  0.25233894768E+00 -0.12945158824E+02  0.37995680582E+01  0.13493610686E+02  0.00000000000E+00 0.  1.
</event>
<event>
 7    1  0.1284645E-011  0.5930173E+02  0.7816164E-02  0.1266606E+00
        -11   -1    0    0    0    0  0.00000000000E+00  0.00000000000E+00  0.45593999997E+02  0.45594000000E+02  0.51100000000E-03 0.  1.
         11   -1    0    0    0    0 -0.00000000000E+00 -0.00000000000E+00 -0.45593999997E+02  0.45594000000E+02  0.51100000000E-03 0. -1.
    9900012    2    1    2    0    0 -0.24884612722E+02 -0.10679963932E+02 -0.16835339383E+02  0.59301729725E+02  0.49999609162E+02 0.  0.
         12    1    1    2    0    0  0.24884612722E+02  0.10679963932E+02  0.16835339383E+02  0.31886270275E+02  0.00000000000E+00 0. -1.
         11    1    3    3    0    0  0.58835382025E+01  0.44620892560E+01  0.11671080295E+02  0.13810878966E+02  0.51100000000E-03 0. -1.
        -11    1    3    3    0    0  0.55088367825E+00 -0.79879010536E+00 -0.11336862663E+01  0.14922410230E+01  0.51100000000E-03 0.  1.
        -12    1    3    3    0    0 -0.31319034603E+02 -0.14343263083E+02 -0.27372733411E+02  0.43998609736E+02  0.00000000000E+00 0.  1.
</event>
<event>
 7    1  0.1284645E-011  0.5930189E+02  0.7816164E-02  0.1266605E+00
        -11   -1    0    0    0    0  0.00000000000E+00  0.00000000000E+00  0.45593999997E+02  0.45594000000E+02  0.51100000000E-03 0. -1.
         11   -1    0    0    0    0 -0.00000000000E+00 -0.00000000000E+00 -0.45593999997E+02  0.45594000000E+02  0.51100000000E-03 0.  1.
    9900012    2    1    2    0    0  0.19842985365E+00 -0.29350517532E+02 -0.12459195475E+02  0.59301893218E+02  0.49999907335E+02 0.  0.
         12    1    1    2    0    0 -0.19842985365E+00  0.29350517532E+02  0.12459195475E+02  0.31886106782E+02  0.00000000000E+00 0. -1.
         11    1    3    3    0    0  0.33343986592E+01  0.28402378460E+01 -0.89898770470E+01  0.10000152750E+02  0.51100000000E-03 0. -1.
        -11    1    3    3    0    0  0.52889320075E+01  0.68751317663E+01 -0.34572886662E+01  0.93377236930E+01  0.51100000000E-03 0.  1.
        -12    1    3    3    0    0 -0.84249008130E+01 -0.39065887144E+02 -0.12029761979E-01  0.39964016775E+02  0.00000000000E+00 0.  1.
</event>
<event>
 7    1  0.1284645E-011  0.5930193E+02  0.7816164E-02  0.1266605E+00
        -11   -1    0    0    0    0  0.00000000000E+00  0.00000000000E+00  0.45593999997E+02  0.45594000000E+02  0.51100000000E-03 0.  1.
         11   -1    0    0    0    0 -0.00000000000E+00 -0.00000000000E+00 -0.45593999997E+02  0.45594000000E+02  0.51100000000E-03 0. -1.
    9900012    2    1    2    0    0  0.24217944136E+02  0.29180483387E+01  0.20535277003E+02  0.59301930536E+02  0.49999975394E+02 0.  0.
         12    1    1    2    0    0 -0.24217944136E+02 -0.29180483387E+01 -0.20535277003E+02  0.31886069464E+02  0.00000000000E+00 0. -1.
         11    1    3    3    0    0  0.21937089393E+01  0.10648431669E+02  0.17939925322E+02  0.20977187055E+02  0.51100000000E-03 0. -1.
        -11    1    3    3    0    0 -0.12073610455E+01  0.36606814595E+01  0.10569004178E+02  0.11249984845E+02  0.51100000000E-03 0.  1.
         12    1    3    3    0    0  0.23231596242E+02 -0.11391064790E+02 -0.79736524973E+01  0.27074758635E+02  0.00000000000E+00 0. -1.
</event>
<event>
 7    1  0.1284645E-011  0.5930194E+02  0.7816164E-02  0.1266605E+00
        -11   -1    0    0    0    0  0.00000000000E+00  0.00000000000E+00  0.45593999997E+02  0.45594000000E+02  0.51100000000E-03 0.  1.
         11   -1    0    0    0    0 -0.00000000000E+00 -0.00000000000E+00 -0.45593999997E+02  0.45594000000E+02  0.51100000000E-03 0. -1.
    9900012    2    1    2    0    0  0.16390855590E+02  0.23108879406E+02  0.14630128713E+02  0.59301935324E+02  0.49999984126E+02 0.  0.
         12    1    1    2    0    0 -0.16390855590E+02 -0.23108879406E+02 -0.14630128713E+02  0.31886064676E+02  0.00000000000E+00 0. -1.
         11    1    3    3    0    0  0.59057007183E+01  0.84601825882E+01  0.37454206360E+01  0.10976345767E+02  0.51100000000E-03 0. -1.
        -11    1    3    3    0    0  0.12804744767E+02 -0.11491756483E+02  0.13615237661E+02  0.21940753233E+02  0.51100000000E-03 0.  1.
         12    1    3    3    0    0 -0.23195898952E+01  0.26140453300E+02 -0.27305295839E+01  0.26384836324E+02  0.00000000000E+00 0. -1.
</event>
<event>
 7    1  0.1284645E-011  0.5930193E+02  0.7816164E-02  0.1266605E+00
        -11   -1    0    0    0    0  0.00000000000E+00  0.00000000000E+00  0.45593999997E+02  0.45594000000E+02  0.51100000000E-03 0.  1.
         11   -1    0    0    0    0 -0.00000000000E+00 -0.00000000000E+00 -0.45593999997E+02  0.45594000000E+02  0.51100000000E-03 0. -1.
    9900012    2    1    2    0    0  0.18641502335E+02 -0.21494702552E+02  0.14394221167E+02  0.59301930156E+02  0.49999974701E+02 0.  0.
         12    1    1    2    0    0 -0.18641502335E+02  0.21494702552E+02 -0.14394221167E+02  0.31886069844E+02  0.00000000000E+00 0. -1.
         11    1    3    3    0    0 -0.34216913898E+01 -0.19811980494E+02 -0.12884463236E+01  0.20146529162E+02  0.51100000000E-03 0. -1.
        -11    1    3    3    0    0  0.13964323117E+01 -0.12435338628E+02  0.43448846570E+01  0.13246346400E+02  0.51100000000E-03 0.  1.
         12    1    3    3    0    0  0.20666761413E+02  0.10752616570E+02  0.11337782833E+02  0.25909054595E+02  0.00000000000E+00 0. -1.
</event>
<event>
 7    1  0.1284645E-011  0.5930197E+02  0.7816164E-02  0.1266605E+00
        -11   -1    0    0    0    0  0.00000000000E+00  0.00000000000E+00  0.45593999997E+02  0.45594000000E+02  0.51100000000E-03 0.  1.
         11   -1    0    0    0    0 -0.00000000000E+00 -0.00000000000E+00 -0.45593999997E+02  0.45594000000E+02  0.51100000000E-03 0. -1.
    9900012    2    1    2    0    0 -0.20925116426E+02  0.18772964435E+02  0.15047738907E+02  0.59301966422E+02  0.50000040842E+02 0.  0.
         12    1    1    2    0    0  0.20925116426E+02 -0.18772964435E+02 -0.15047738907E+02  0.31886033578E+02  0.00000000000E+00 0. -1.
         11    1    3    3    0    0 -0.11479577959E+02  0.26844271499E+01  0.16655354384E+01  0.11906337295E+02  0.51100000000E-03 0. -1.
        -11    1    3    3    0    0 -0.58915764665E+01 -0.13006287456E+02  0.10930987073E+02  0.17982231933E+02  0.51100000000E-03 0.  1.
         12    1    3    3    0    0 -0.35539620011E+01  0.29094824741E+02  0.24512163951E+01  0.29413397193E+02  0.00000000000E+00 0. -1.
</event>
<event>
 7    1  0.1284645E-011  0.5930191E+02  0.7816164E-02  0.1266605E+00
        -11   -1    0    0    0    0  0.00000000000E+00  0.00000000000E+00  0.45593999997E+02  0.45594000000E+02  0.51100000000E-03 0.  1.
         11   -1    0    0    0    0 -0.00000000000E+00 -0.00000000000E+00 -0.45593999997E+02  0.45594000000E+02  0.51100000000E-03 0. -1.
    9900012    2    1    2    0    0  0.24324889056E+02  0.14066702062E+02 -0.15071516435E+02  0.59301906760E+02  0.49999932033E+02 0.  0.
         12    1    1    2    0    0 -0.24324889056E+02 -0.14066702062E+02  0.15071516435E+02  0.31886093240E+02  0.00000000000E+00 0. -1.
         11    1    3    3    0    0  0.22310176088E+02 -0.63132506066E+01 -0.16355074264E+02  0.28374099893E+02  0.51100000000E-03 0. -1.
        -11    1    3    3    0    0  0.59531889136E+01 -0.27626977050E+01 -0.27365789969E+01  0.71106836322E+01  0.51100000000E-03 0.  1.
        -12    1    3    3    0    0 -0.39384759456E+01  0.23142650373E+02  0.40201368264E+01  0.23817123235E+02  0.00000000000E+00 0.  1.
</event>
<event>
 7    1  0.1284645E-011  0.5930195E+02  0.7816164E-02  0.1266605E+00
        -11   -1    0    0    0    0  0.00000000000E+00  0.00000000000E+00  0.45593999997E+02  0.45594000000E+02  0.51100000000E-03 0. -1.
         11   -1    0    0    0    0 -0.00000000000E+00 -0.00000000000E+00 -0.45593999997E+02  0.45594000000E+02  0.51100000000E-03 0.  1.
    9900012    2    1    2    0    0  0.24410495545E+02  0.18850854719E+02 -0.80927725002E+01  0.59301953160E+02  0.50000016655E+02 0.  0.
         12    1    1    2    0    0 -0.24410495545E+02 -0.18850854719E+02  0.80927725002E+01  0.31886046840E+02  0.00000000000E+00 0. -1.
         11    1    3    3    0    0  0.12817881381E+01 -0.15948277709E+01 -0.14140500808E+02  0.14287764689E+02  0.51100000000E-03 0. -1.
        -11    1    3    3    0    0  0.95793582292E+01  0.34925885929E+01 -0.12734088022E+02  0.16313162697E+02  0.51100000000E-03 0.  1.
         12    1    3    3    0    0  0.13549349177E+02  0.16953093897E+02  0.18781816330E+02  0.28701025774E+02  0.00000000000E+00 0. -1.
</event>
<event>
 7    1  0.1284645E-011  0.5930192E+02  0.7816164E-02  0.1266605E+00
        -11   -1    0    0    0    0  0.00000000000E+00  0.00000000000E+00  0.45593999997E+02  0.45594000000E+02  0.51100000000E-03 0.  1.
         11   -1    0    0    0    0 -0.00000000000E+00 -0.00000000000E+00 -0.45593999997E+02  0.45594000000E+02  0.51100000000E-03 0. -1.
    9900012    2    1    2    0    0 -0.21746571652E+02  0.22816523576E+02  0.48181887949E+01  0.59301920436E+02  0.49999956974E+02 0.  0.
         12    1    1    2    0    0  0.21746571652E+02 -0.22816523576E+02 -0.48181887949E+01  0.31886079564E+02  0.00000000000E+00 0. -1.
         11    1    3    3    0    0 -0.46835584051E+01  0.77944031437E+01 -0.29330621796E+01  0.95546477544E+01  0.51100000000E-03 0. -1.
        -11    1    3    3    0    0 -0.15719445821E+02  0.29494888085E+02  0.32237779584E+00  0.33423843702E+02  0.51100000000E-03 0.  1.
        -12    1    3    3    0    0 -0.13435674254E+01 -0.14472767653E+02  0.74288731787E+01  0.16323428980E+02  0.00000000000E+00 0.  1.
</event>
<event>
 7    1  0.1284645E-011  0.5930194E+02  0.7816164E-02  0.1266605E+00
        -11   -1    0    0    0    0  0.00000000000E+00  0.00000000000E+00  0.45593999997E+02  0.45594000000E+02  0.51100000000E-03 0.  1.
         11   -1    0    0    0    0 -0.00000000000E+00 -0.00000000000E+00 -0.45593999997E+02  0.45594000000E+02  0.51100000000E-03 0. -1.
    9900012    2    1    2    0    0  0.30253369321E+02 -0.94087860263E+01  0.35956890468E+01  0.59301943651E+02  0.49999999313E+02 0.  0.
         12    1    1    2    0    0 -0.30253369321E+02  0.94087860263E+01 -0.35956890468E+01  0.31886056349E+02  0.00000000000E+00 0. -1.
         11    1    3    3    0    0 -0.11768739065E+01 -0.92955758392E+01 -0.96851484763E+01  0.13475713845E+02  0.51100000000E-03 0. -1.
        -11    1    3    3    0    0  0.20265072496E+02 -0.10425556843E+02 -0.36434387183E+01  0.23078995747E+02  0.51100000000E-03 0.  1.
        -12    1    3    3    0    0  0.11165170731E+02  0.10312346656E+02  0.16924276241E+02  0.22747234058E+02  0.00000000000E+00 0.  1.
</event>
<event>
 7    1  0.1284645E-011  0.5930195E+02  0.7816164E-02  0.1266605E+00
        -11   -1    0    0    0    0  0.00000000000E+00  0.00000000000E+00  0.45593999997E+02  0.45594000000E+02  0.51100000000E-03 0.  1.
         11   -1    0    0    0    0 -0.00000000000E+00 -0.00000000000E+00 -0.45593999997E+02  0.45594000000E+02  0.51100000000E-03 0. -1.
    9900012    2    1    2    0    0 -0.11787560804E+02  0.99037167297E+01  0.27922934070E+02  0.59301945966E+02  0.50000003536E+02 0.  0.
         12    1    1    2    0    0  0.11787560804E+02 -0.99037167297E+01 -0.27922934070E+02  0.31886054034E+02  0.00000000000E+00 0. -1.
         11    1    3    3    0    0 -0.10666127786E+01  0.23960187801E+01 -0.44702934892E+01  0.51828653229E+01  0.51100000000E-03 0. -1.
        -11    1    3    3    0    0 -0.99056717132E+00  0.16823807392E+02 -0.21995752889E+01  0.16995877447E+02  0.51100000000E-03 0.  1.
        -12    1    3    3    0    0 -0.97303808538E+01 -0.93161094423E+01  0.34592802848E+02  0.37123203197E+02  0.00000000000E+00 0.  1.
</event>
<event>
 7    1  0.1284645E-011  0.5930191E+02  0.7816164E-02  0.1266605E+00
        -11   -1    0    0    0    0  0.00000000000E+00  0.00000000000E+00  0.45593999997E+02  0.45594000000E+02  0.51100000000E-03 0.  1.
         11   -1    0    0    0    0 -0.00000000000E+00 -0.00000000000E+00 -0.45593999997E+02  0.45594000000E+02  0.51100000000E-03 0. -1.
    9900012    2    1    2    0    0 -0.17651145708E+01 -0.15232320782E+02  0.27956814579E+02  0.59301910443E+02  0.49999938749E+02 0.  0.
         12    1    1    2    0    0  0.17651145708E+01  0.15232320782E+02 -0.27956814579E+02  0.31886089557E+02  0.00000000000E+00 0. -1.
         11    1    3    3    0    0 -0.17474425583E+01 -0.54198941485E+01 -0.67297593589E+01  0.88158079247E+01  0.51100000000E-03 0. -1.
        -11    1    3    3    0    0  0.14642277115E+02 -0.69389695855E+01  0.45179604339E+01  0.16821341943E+02  0.51100000000E-03 0.  1.
        -12    1    3    3    0    0 -0.14659949127E+02 -0.28734570478E+01  0.30168613504E+02  0.33664760575E+02  0.00000000000E+00 0.  1.
</event>
<event>
 7    1  0.1284645E-011  0.5930194E+02  0.7816164E-02  0.1266605E+00
        -11   -1    0    0    0    0  0.00000000000E+00  0.00000000000E+00  0.45593999997E+02  0.45594000000E+02  0.51100000000E-03 0.  1.
         11   -1    0    0    0    0 -0.00000000000E+00 -0.00000000000E+00 -0.45593999997E+02  0.45594000000E+02  0.51100000000E-03 0. -1.
    9900012    2    1    2    0    0  0.19300864290E+02 -0.11734558752E+02  0.22505502460E+02  0.59301939214E+02  0.49999991222E+02 0.  0.
         12    1    1    2    0    0 -0.19300864290E+02  0.11734558752E+02 -0.22505502460E+02  0.31886060786E+02  0.00000000000E+00 0. -1.
         11    1    3    3    0    0  0.15548740615E+02  0.21122708658E+01 -0.87850940626E+01  0.17983406264E+02  0.51100000000E-03 0. -1.
        -11    1    3    3    0    0 -0.70985229632E+01 -0.83143320896E+01  0.43747487036E+01  0.11775210097E+02  0.51100000000E-03 0.  1.
        -12    1    3    3    0    0  0.10850646638E+02 -0.55324975282E+01  0.26915847819E+02  0.29543322853E+02  0.00000000000E+00 0.  1.
</event>
<event>
 7    1  0.1284645E-011  0.5930188E+02  0.7816164E-02  0.1266605E+00
        -11   -1    0    0    0    0  0.00000000000E+00  0.00000000000E+00  0.45593999997E+02  0.45594000000E+02  0.51100000000E-03 0.  1.
         11   -1    0    0    0    0 -0.00000000000E+00 -0.00000000000E+00 -0.45593999997E+02  0.45594000000E+02  0.51100000000E-03 0. -1.
    9900012    2    1    2    0    0  0.31517736087E+02 -0.39557423900E+01  0.27765760531E+01  0.59301875111E+02  0.49999874311E+02 0.  0.
         12    1    1    2    0    0 -0.31517736087E+02  0.39557423900E+01 -0.27765760531E+01  0.31886124889E+02  0.00000000000E+00 0. -1.
         11    1    3    3    0    0  0.84162483633E+01 -0.10358354438E+02  0.29920192443E+01  0.13677752834E+02  0.51100000000E-03 0. -1.
        -11    1    3    3    0    0  0.30301146238E+02  0.67001456128E+01  0.10456396497E+02  0.32747330312E+02  0.51100000000E-03 0.  1.
        -12    1    3    3    0    0 -0.71996585148E+01 -0.29753356471E+00 -0.10671839689E+02  0.12876791964E+02  0.00000000000E+00 0.  1.
</event>
<event>
 7    1  0.1284645E-011  0.5930192E+02  0.7816164E-02  0.1266605E+00
        -11   -1    0    0    0    0  0.00000000000E+00  0.00000000000E+00  0.45593999997E+02  0.45594000000E+02  0.51100000000E-03 0.  1.
         11   -1    0    0    0    0 -0.00000000000E+00 -0.00000000000E+00 -0.45593999997E+02  0.45594000000E+02  0.51100000000E-03 0. -1.
    9900012    2    1    2    0    0  0.11666475643E+02 -0.16264524788E+02  0.24820974756E+02  0.59301918266E+02  0.49999953018E+02 0.  0.
         12    1    1    2    0    0 -0.11666475643E+02  0.16264524788E+02 -0.24820974756E+02  0.31886081734E+02  0.00000000000E+00 0. -1.
         11    1    3    3    0    0 -0.48387172143E+01  0.36629392505E+01  0.63977166497E+01  0.88182246980E+01  0.51100000000E-03 0. -1.
        -11    1    3    3    0    0  0.28169763755E+01  0.10892449319E+02  0.11439909287E+02  0.16045321213E+02  0.51100000000E-03 0.  1.
        -12    1    3    3    0    0  0.13688216481E+02 -0.30819913357E+02  0.69833488188E+01  0.34438372356E+02  0.00000000000E+00 0.  1.
</event>
<event>
 7    1  0.1284645E-011  0.5930196E+02  0.7816164E-02  0.1266605E+00
        -11   -1    0    0    0    0  0.00000000000E+00  0.00000000000E+00  0.45593999997E+02  0.45594000000E+02  0.51100000000E-03 0.  1.
         11   -1    0    0    0    0 -0.00000000000E+00 -0.00000000000E+00 -0.45593999997E+02  0.45594000000E+02  0.51100000000E-03 0. -1.
    9900012    2    1    2    0    0  0.27478634631E+02  0.61517698769E+01  0.14959949787E+02  0.59301957106E+02  0.50000023851E+02 0.  0.
         12    1    1    2    0    0 -0.27478634631E+02 -0.61517698769E+01 -0.14959949787E+02  0.31886042894E+02  0.00000000000E+00 0. -1.
         11    1    3    3    0    0  0.73228647243E+01 -0.95573141406E+01 -0.26924601233E+01  0.12337582548E+02  0.51100000000E-03 0. -1.
        -11    1    3    3    0    0  0.98443699918E+01 -0.26899450431E+01 -0.85600809073E+01  0.13320000386E+02  0.51100000000E-03 0.  1.
        -12    1    3    3    0    0  0.10311399915E+02  0.18399029061E+02  0.26212490818E+02  0.33644374172E+02  0.00000000000E+00 0.  1.
</event>
<event>
 7    1  0.1284645E-011  0.5930190E+02  0.7816164E-02  0.1266605E+00
        -11   -1    0    0    0    0  0.00000000000E+00  0.00000000000E+00  0.45593999997E+02  0.45594000000E+02  0.51100000000E-03 0.  1.
         11   -1    0    0    0    0 -0.00000000000E+00 -0.00000000000E+00 -0.45593999997E+02  0.45594000000E+02  0.51100000000E-03 0. -1.
    9900012    2    1    2    0    0  0.15527248583E+00 -0.23114733534E+02  0.21963801659E+02  0.59301896456E+02  0.49999913240E+02 0.  0.
         12    1    1    2    0    0 -0.15527248583E+00  0.23114733534E+02 -0.21963801659E+02  0.31886103544E+02  0.00000000000E+00 0. -1.
         11    1    3    3    0    0  0.78269472059E+01 -0.12113980984E+02  0.85173637905E+01  0.16749779821E+02  0.51100000000E-03 0. -1.
        -11    1    3    3    0    0 -0.17148089426E+02 -0.20522679218E+02  0.10895451762E+02  0.28878161344E+02  0.51100000000E-03 0.  1.
         12    1    3    3    0    0  0.94764147063E+01  0.95219266685E+01  0.25509861064E+01  0.13673955290E+02  0.00000000000E+00 0. -1.
</event>
<event>
 7    1  0.1284645E-011  0.5930192E+02  0.7816164E-02  0.1266605E+00
        -11   -1    0    0    0    0  0.00000000000E+00  0.00000000000E+00  0.45593999997E+02  0.45594000000E+02  0.51100000000E-03 0.  1.
         11   -1    0    0    0    0 -0.00000000000E+00 -0.00000000000E+00 -0.45593999997E+02  0.45594000000E+02  0.51100000000E-03 0. -1.
    9900012    2    1    2    0    0  0.16927461405E+02  0.20809039511E+02  0.17238531009E+02  0.59301921120E+02  0.49999958222E+02 0.  0.
         12    1    1    2    0    0 -0.16927461405E+02 -0.20809039511E+02 -0.17238531009E+02  0.31886078880E+02  0.00000000000E+00 0. -1.
         11    1    3    3    0    0 -0.53946918285E+01  0.21197636941E+01  0.17319161378E+01  0.60494323546E+01  0.51100000000E-03 0. -1.
        -11    1    3    3    0    0  0.96265854391E+00 -0.68616328764E+01  0.18558864638E+02  0.19810102829E+02  0.51100000000E-03 0.  1.
        -12    1    3    3    0    0  0.21359494689E+02  0.25550908694E+02 -0.30522497666E+01  0.33442385936E+02  0.00000000000E+00 0.  1.
</event>
<event>
 7    1  0.1284645E-011  0.5930193E+02  0.7816164E-02  0.1266605E+00
        -11   -1    0    0    0    0  0.00000000000E+00  0.00000000000E+00  0.45593999997E+02  0.45594000000E+02  0.51100000000E-03 0.  1.
         11   -1    0    0    0    0 -0.00000000000E+00 -0.00000000000E+00 -0.45593999997E+02  0.45594000000E+02  0.51100000000E-03 0. -1.
    9900012    2    1    2    0    0 -0.21105249208E+02 -0.61940370007E+01 -0.23085141596E+02  0.59301930926E+02  0.49999976105E+02 0.  0.
         12    1    1    2    0    0  0.21105249208E+02  0.61940370007E+01  0.23085141596E+02  0.31886069074E+02  0.00000000000E+00 0. -1.
         11    1    3    3    0    0 -0.86509172263E+00 -0.18349539261E+01 -0.28148128070E+01  0.34696701571E+01  0.51100000000E-03 0. -1.
        -11    1    3    3    0    0  0.11705098293E+02  0.22677853568E+01 -0.19907638005E+02  0.23204875084E+02  0.51100000000E-03 0.  1.
        -12    1    3    3    0    0 -0.31945255779E+02 -0.66268684313E+01 -0.36269078364E+00  0.32627385684E+02  0.00000000000E+00 0.  1.
</event>
<event>
 7    1  0.1284645E-011  0.5930195E+02  0.7816164E-02  0.1266605E+00
        -11   -1    0    0    0    0  0.00000000000E+00  0.00000000000E+00  0.45593999997E+02  0.45594000000E+02  0.51100000000E-03 0.  1.
         11   -1    0    0    0    0 -0.00000000000E+00 -0.00000000000E+00 -0.45593999997E+02  0.45594000000E+02  0.51100000000E-03 0. -1.
    9900012    2    1    2    0    0  0.44280167839E+01 -0.17705303094E+02  0.26146416387E+02  0.59301950070E+02  0.50000011019E+02 0.  0.
         12    1    1    2    0    0 -0.44280167839E+01  0.17705303094E+02 -0.26146416387E+02  0.31886049930E+02  0.00000000000E+00 0. -1.
         11    1    3    3    0    0 -0.59532893591E+01 -0.16425070823E+01 -0.79529904917E+01  0.10069237396E+02  0.51100000000E-03 0. -1.
        -11    1    3    3    0    0  0.18801523466E+01 -0.23724973863E+02  0.25766055693E+02  0.35075618083E+02  0.51100000000E-03 0.  1.
        -12    1    3    3    0    0  0.85011537964E+01  0.76621778508E+01  0.83333511849E+01  0.14157094591E+02  0.00000000000E+00 0.  1.
</event>
<event>
 7    1  0.1284645E-011  0.5930194E+02  0.7816164E-02  0.1266605E+00
        -11   -1    0    0    0    0  0.00000000000E+00  0.00000000000E+00  0.45593999997E+02  0.45594000000E+02  0.51100000000E-03 0. -1.
         11   -1    0    0    0    0 -0.00000000000E+00 -0.00000000000E+00 -0.45593999997E+02  0.45594000000E+02  0.51100000000E-03 0.  1.
    9900012    2    1    2    0    0  0.21786697707E+02 -0.78671180067E+01 -0.21912754996E+02  0.59301943891E+02  0.49999999750E+02 0.  0.
         12    1    1    2    0    0 -0.21786697707E+02  0.78671180067E+01  0.21912754996E+02  0.31886056109E+02  0.00000000000E+00 0. -1.
         11    1    3    3    0    0  0.17099389946E+02 -0.94700314724E+01 -0.19064857747E+01  0.19639381886E+02  0.51100000000E-03 0. -1.
        -11    1    3    3    0    0  0.18009342168E+02 -0.59000828744E+01 -0.11453219238E+02  0.22143252119E+02  0.51100000000E-03 0.  1.
        -12    1    3    3    0    0 -0.13322034407E+02  0.75029963400E+01 -0.85530499833E+01  0.17519309885E+02  0.00000000000E+00 0.  1.
</event>
<event>
 7    1  0.1284645E-011  0.5930194E+02  0.7816164E-02  0.1266605E+00
        -11   -1    0    0    0    0  0.00000000000E+00  0.00000000000E+00  0.45593999997E+02  0.45594000000E+02  0.51100000000E-03 0.  1.
         11   -1    0    0    0    0 -0.00000000000E+00 -0.00000000000E+00 -0.45593999997E+02  0.45594000000E+02  0.51100000000E-03 0. -1.
    9900012    2    1    2    0    0  0.58493974847E+01  0.53274564531E+01  0.30888891466E+02  0.59301939422E+02  0.49999991600E+02 0.  0.
         12    1    1    2    0    0 -0.58493974847E+01 -0.53274564531E+01 -0.30888891466E+02  0.31886060578E+02  0.00000000000E+00 0. -1.
         11    1    3    3    0    0 -0.63404760044E+01  0.27289281312E+01 -0.55997408254E+01  0.88885196900E+01  0.51100000000E-03 0.  1.
        -11    1    3    3    0    0 -0.10735009197E+02 -0.28348251291E+01  0.13715050178E+02  0.17645941676E+02  0.51100000000E-03 0. -1.
        -12    1    3    3    0    0  0.22924882686E+02  0.54333534511E+01  0.22773582113E+02  0.32767478056E+02  0.00000000000E+00 0.  1.
</event>
<event>
 7    1  0.1284645E-011  0.5930194E+02  0.7816164E-02  0.1266605E+00
        -11   -1    0    0    0    0  0.00000000000E+00  0.00000000000E+00  0.45593999997E+02  0.45594000000E+02  0.51100000000E-03 0.  1.
         11   -1    0    0    0    0 -0.00000000000E+00 -0.00000000000E+00 -0.45593999997E+02  0.45594000000E+02  0.51100000000E-03 0. -1.
    9900012    2    1    2    0    0  0.57745425647E+01  0.24060415307E+02  0.20111485158E+02  0.59301940949E+02  0.49999994385E+02 0.  0.
         12    1    1    2    0    0 -0.57745425647E+01 -0.24060415307E+02 -0.20111485158E+02  0.31886059051E+02  0.00000000000E+00 0. -1.
         11    1    3    3    0    0  0.30281595255E+01  0.20693060195E+02  0.44095139233E+01  0.21373261418E+02  0.51100000000E-03 0. -1.
        -11    1    3    3    0    0 -0.68227163983E+01  0.89503003168E+01  0.22339220682E+02  0.25013958418E+02  0.51100000000E-03 0.  1.
         12    1    3    3    0    0  0.95690994375E+01 -0.55829452049E+01 -0.66372494471E+01  0.12914721113E+02  0.00000000000E+00 0. -1.
</event>
<event>
 7    1  0.1284645E-011  0.5930188E+02  0.7816164E-02  0.1266605E+00
        -11   -1    0    0    0    0  0.00000000000E+00  0.00000000000E+00  0.45593999997E+02  0.45594000000E+02  0.51100000000E-03 0.  1.
         11   -1    0    0    0    0 -0.00000000000E+00 -0.00000000000E+00 -0.45593999997E+02  0.45594000000E+02  0.51100000000E-03 0. -1.
    9900012    2    1    2    0    0 -0.28742255683E+02  0.11059510313E+02 -0.82640422360E+01  0.59301883520E+02  0.49999889648E+02 0.  0.
         12    1    1    2    0    0  0.28742255683E+02 -0.11059510313E+02  0.82640422360E+01  0.31886116480E+02  0.00000000000E+00 0. -1.
         11    1    3    3    0    0 -0.69994778971E+01  0.26910308802E+02  0.34888290425E+01  0.28023728142E+02  0.51100000000E-03 0. -1.
        -11    1    3    3    0    0 -0.85256750950E+01 -0.60959181472E+01  0.93391516857E+00  0.10522335847E+02  0.51100000000E-03 0.  1.
        -12    1    3    3    0    0 -0.13217102691E+02 -0.97548803414E+01 -0.12686786447E+02  0.20755819530E+02  0.00000000000E+00 0.  1.
</event>
<event>
 7    1  0.1284645E-011  0.5930192E+02  0.7816164E-02  0.1266605E+00
        -11   -1    0    0    0    0  0.00000000000E+00  0.00000000000E+00  0.45593999997E+02  0.45594000000E+02  0.51100000000E-03 0. -1.
         11   -1    0    0    0    0 -0.00000000000E+00 -0.00000000000E+00 -0.45593999997E+02  0.45594000000E+02  0.51100000000E-03 0.  1.
    9900012    2    1    2    0    0  0.11514133212E+02  0.13302579280E+02 -0.26593012337E+02  0.59301918643E+02  0.49999953704E+02 0.  0.
         12    1    1    2    0    0 -0.11514133212E+02 -0.13302579280E+02  0.26593012337E+02  0.31886081357E+02  0.00000000000E+00 0. -1.
         11    1    3    3    0    0 -0.39884802839E+01  0.48339529346E+01  0.11514229377E+02  0.13109254531E+02  0.51100000000E-03 0. -1.
        -11    1    3    3    0    0  0.37567499837E+00 -0.21159947228E+01  0.14134347186E+01  0.25722292542E+01  0.51100000000E-03 0.  1.
        -12    1    3    3    0    0  0.15126938498E+02  0.10584621068E+02 -0.39520676433E+02  0.43620434858E+02  0.00000000000E+00 0.  1.
</event>
<event>
 7    1  0.1284645E-011  0.5930194E+02  0.7816164E-02  0.1266605E+00
        -11   -1    0    0    0    0  0.00000000000E+00  0.00000000000E+00  0.45593999997E+02  0.45594000000E+02  0.51100000000E-03 0.  1.
         11   -1    0    0    0    0 -0.00000000000E+00 -0.00000000000E+00 -0.45593999997E+02  0.45594000000E+02  0.51100000000E-03 0. -1.
    9900012    2    1    2    0    0  0.27099829914E+00  0.14068304806E+02  0.28613463529E+02  0.59301938228E+02  0.49999989423E+02 0.  0.
         12    1    1    2    0    0 -0.27099829914E+00 -0.14068304806E+02 -0.28613463529E+02  0.31886061772E+02  0.00000000000E+00 0. -1.
         11    1    3    3    0    0  0.19647833037E+01  0.19978137666E+02  0.66970857611E+01  0.21162167091E+02  0.51100000000E-03 0. -1.
        -11    1    3    3    0    0  0.12791473165E+02 -0.26163976080E+01  0.18703977978E+01  0.13189606148E+02  0.51100000000E-03 0.  1.
        -12    1    3    3    0    0 -0.14485258169E+02 -0.32934352524E+01  0.20045979970E+02  0.24950164989E+02  0.00000000000E+00 0.  1.
</event>
<event>
 7    1  0.1284645E-011  0.5930200E+02  0.7816164E-02  0.1266605E+00
        -11   -1    0    0    0    0  0.00000000000E+00  0.00000000000E+00  0.45593999997E+02  0.45594000000E+02  0.51100000000E-03 0. -1.
         11   -1    0    0    0    0 -0.00000000000E+00 -0.00000000000E+00 -0.45593999997E+02  0.45594000000E+02  0.51100000000E-03 0.  1.
    9900012    2    1    2    0    0  0.30639706231E+01 -0.19666607135E+02 -0.24910909871E+02  0.59302003344E+02  0.50000108178E+02 0.  0.
         12    1    1    2    0    0 -0.30639706231E+01  0.19666607135E+02  0.24910909871E+02  0.31885996656E+02  0.00000000000E+00 0. -1.
         11    1    3    3    0    0 -0.19115596367E+02 -0.80646916352E+01 -0.14153921731E+01  0.20795398792E+02  0.51100000000E-03 0. -1.
        -11    1    3    3    0    0 -0.16496069042E+01 -0.53412807753E+01 -0.65116875162E+01  0.85821068409E+01  0.51100000000E-03 0.  1.
        -12    1    3    3    0    0  0.23829173894E+02 -0.62606347240E+01 -0.16983830181E+02  0.29924497711E+02  0.00000000000E+00 0.  1.
</event>
<event>
 7    1  0.1284645E-011  0.5930197E+02  0.7816164E-02  0.1266605E+00
        -11   -1    0    0    0    0  0.00000000000E+00  0.00000000000E+00  0.45593999997E+02  0.45594000000E+02  0.51100000000E-03 0. -1.
         11   -1    0    0    0    0 -0.00000000000E+00 -0.00000000000E+00 -0.45593999997E+02  0.45594000000E+02  0.51100000000E-03 0.  1.
    9900012    2    1    2    0    0 -0.18290540696E+02 -0.62077875142E+01 -0.25370033013E+02  0.59301967323E+02  0.50000042485E+02 0.  0.
         12    1    1    2    0    0  0.18290540696E+02  0.62077875142E+01  0.25370033013E+02  0.31886032677E+02  0.00000000000E+00 0. -1.
         11    1    3    3    0    0 -0.77623316373E+01  0.12634362130E+02 -0.28020645566E+01  0.15090807299E+02  0.51100000000E-03 0. -1.
        -11    1    3    3    0    0 -0.21294965187E+02 -0.81921651479E+01 -0.14740370664E+02  0.27163682366E+02  0.51100000000E-03 0.  1.
        -12    1    3    3    0    0  0.10766756128E+02 -0.10649984497E+02 -0.78275977930E+01  0.17047477658E+02  0.00000000000E+00 0.  1.
</event>
<event>
 7    1  0.1284645E-011  0.5930196E+02  0.7816164E-02  0.1266605E+00
        -11   -1    0    0    0    0  0.00000000000E+00  0.00000000000E+00  0.45593999997E+02  0.45594000000E+02  0.51100000000E-03 0.  1.
         11   -1    0    0    0    0 -0.00000000000E+00 -0.00000000000E+00 -0.45593999997E+02  0.45594000000E+02  0.51100000000E-03 0. -1.
    9900012    2    1    2    0    0 -0.30918890989E+02 -0.24762765857E+00  0.77897792014E+01  0.59301956039E+02  0.50000021906E+02 0.  0.
         12    1    1    2    0    0  0.30918890989E+02  0.24762765857E+00 -0.77897792014E+01  0.31886043961E+02  0.00000000000E+00 0. -1.
         11    1    3    3    0    0 -0.35441133111E+02 -0.12182151250E+02 -0.24989102622E+01  0.37559596351E+02  0.51100000000E-03 0. -1.
        -11    1    3    3    0    0 -0.48410047206E+00  0.17200602408E+01 -0.34622406241E+01  0.38961610464E+01  0.51100000000E-03 0.  1.
        -12    1    3    3    0    0  0.50063425937E+01  0.10214463350E+02  0.13750930088E+02  0.17846198642E+02  0.00000000000E+00 0.  1.
</event>
<event>
 7    1  0.1284645E-011  0.5930210E+02  0.7816164E-02  0.1266604E+00
        -11   -1    0    0    0    0  0.00000000000E+00  0.00000000000E+00  0.45593999997E+02  0.45594000000E+02  0.51100000000E-03 0.  1.
         11   -1    0    0    0    0 -0.00000000000E+00 -0.00000000000E+00 -0.45593999997E+02  0.45594000000E+02  0.51100000000E-03 0. -1.
    9900012    2    1    2    0    0 -0.83038547753E+00 -0.28087188818E+02 -0.15070852914E+02  0.59302104634E+02  0.50000292906E+02 0.  0.
         12    1    1    2    0    0  0.83038547753E+00  0.28087188818E+02  0.15070852914E+02  0.31885895366E+02  0.00000000000E+00 0. -1.
         11    1    3    3    0    0  0.60334335289E+01 -0.17669193874E+02  0.13626180012E+01  0.18720562502E+02  0.51100000000E-03 0. -1.
        -11    1    3    3    0    0  0.17016621199E+01  0.50257633440E+01  0.85043443753E+01  0.10023862762E+02  0.51100000000E-03 0.  1.
        -12    1    3    3    0    0 -0.85654811264E+01 -0.15443758289E+02 -0.24937815290E+02  0.30557679370E+02  0.00000000000E+00 0.  1.
</event>
<event>
 7    1  0.1284645E-011  0.5930192E+02  0.7816164E-02  0.1266605E+00
        -11   -1    0    0    0    0  0.00000000000E+00  0.00000000000E+00  0.45593999997E+02  0.45594000000E+02  0.51100000000E-03 0. -1.
         11   -1    0    0    0    0 -0.00000000000E+00 -0.00000000000E+00 -0.45593999997E+02  0.45594000000E+02  0.51100000000E-03 0.  1.
    9900012    2    1    2    0    0  0.16065084914E+02 -0.27496965233E+02 -0.15974948819E+01  0.59301920902E+02  0.49999957824E+02 0.  0.
         12    1    1    2    0    0 -0.16065084914E+02  0.27496965233E+02  0.15974948819E+01  0.31886079098E+02  0.00000000000E+00 0. -1.
         11    1    3    3    0    0  0.87822610661E+00 -0.11750184988E+02  0.16166571748E+02  0.20004903666E+02  0.51100000000E-03 0. -1.
        -11    1    3    3    0    0 -0.54370397090E+00 -0.58851140619E+01  0.64735267769E+01  0.87656563201E+01  0.51100000000E-03 0.  1.
        -12    1    3    3    0    0  0.15730562779E+02 -0.98616661830E+01 -0.24237593407E+02  0.30531360916E+02  0.00000000000E+00 0.  1.
</event>
<event>
 7    1  0.1284645E-011  0.5930197E+02  0.7816164E-02  0.1266605E+00
        -11   -1    0    0    0    0  0.00000000000E+00  0.00000000000E+00  0.45593999997E+02  0.45594000000E+02  0.51100000000E-03 0.  1.
         11   -1    0    0    0    0 -0.00000000000E+00 -0.00000000000E+00 -0.45593999997E+02  0.45594000000E+02  0.51100000000E-03 0. -1.
    9900012    2    1    2    0    0  0.28229474115E+02  0.97867287326E+01  0.11137140463E+02  0.59301965976E+02  0.50000040028E+02 0.  0.
         12    1    1    2    0    0 -0.28229474115E+02 -0.97867287326E+01 -0.11137140463E+02  0.31886034024E+02  0.00000000000E+00 0. -1.
         11    1    3    3    0    0  0.35656195959E+01 -0.87532509768E+00  0.63638116678E+01  0.73469678326E+01  0.51100000000E-03 0. -1.
        -11    1    3    3    0    0  0.26633738529E+02 -0.89530973697E+01  0.12535949914E+02  0.30767905699E+02  0.51100000000E-03 0.  1.
         12    1    3    3    0    0 -0.19698840103E+01  0.19615151200E+02 -0.77626211194E+01  0.21187092445E+02  0.00000000000E+00 0. -1.
</event>
<event>
 7    1  0.1284645E-011  0.5930193E+02  0.7816164E-02  0.1266605E+00
        -11   -1    0    0    0    0  0.00000000000E+00  0.00000000000E+00  0.45593999997E+02  0.45594000000E+02  0.51100000000E-03 0.  1.
         11   -1    0    0    0    0 -0.00000000000E+00 -0.00000000000E+00 -0.45593999997E+02  0.45594000000E+02  0.51100000000E-03 0. -1.
    9900012    2    1    2    0    0  0.18880236635E+02 -0.20415526606E+02  0.15603346810E+02  0.59301929473E+02  0.49999973456E+02 0.  0.
         12    1    1    2    0    0 -0.18880236635E+02  0.20415526606E+02 -0.15603346810E+02  0.31886070527E+02  0.00000000000E+00 0. -1.
         11    1    3    3    0    0  0.41600576594E+01 -0.22968692380E+02  0.45450438908E+01  0.23780755531E+02  0.51100000000E-03 0. -1.
        -11    1    3    3    0    0  0.74043437662E+01 -0.13719933716E+02  0.27158562493E+01  0.15825193939E+02  0.51100000000E-03 0.  1.
         12    1    3    3    0    0  0.73158352098E+01  0.16273099491E+02  0.83424466695E+01  0.19695980003E+02  0.00000000000E+00 0. -1.
</event>
<event>
 7    1  0.1284645E-011  0.5930205E+02  0.7816164E-02  0.1266604E+00
        -11   -1    0    0    0    0  0.00000000000E+00  0.00000000000E+00  0.45593999997E+02  0.45594000000E+02  0.51100000000E-03 0. -1.
         11   -1    0    0    0    0 -0.00000000000E+00 -0.00000000000E+00 -0.45593999997E+02  0.45594000000E+02  0.51100000000E-03 0.  1.
    9900012    2    1    2    0    0 -0.24952806549E+02 -0.17899595671E+02 -0.85834574860E+01  0.59302049767E+02  0.50000192843E+02 0.  0.
         12    1    1    2    0    0  0.24952806549E+02  0.17899595671E+02  0.85834574860E+01  0.31885950233E+02  0.00000000000E+00 0. -1.
         11    1    3    3    0    0 -0.61781750898E-01 -0.39318181170E+01  0.48877705947E+01  0.62732218467E+01  0.51100000000E-03 0. -1.
        -11    1    3    3    0    0 -0.20270020212E+02 -0.29101196470E+02 -0.91492518428E+01  0.36625976642E+02  0.51100000000E-03 0.  1.
        -12    1    3    3    0    0 -0.46210045854E+01  0.15133418916E+02 -0.43219762379E+01  0.16402851279E+02  0.00000000000E+00 0.  1.
</event>
<event>
 7    1  0.1284645E-011  0.5930192E+02  0.7816164E-02  0.1266605E+00
        -11   -1    0    0    0    0  0.00000000000E+00  0.00000000000E+00  0.45593999997E+02  0.45594000000E+02  0.51100000000E-03 0. -1.
         11   -1    0    0    0    0 -0.00000000000E+00 -0.00000000000E+00 -0.45593999997E+02  0.45594000000E+02  0.51100000000E-03 0.  1.
    9900012    2    1    2    0    0  0.31592905415E+02  0.39401390631E+01 -0.17567002898E+01  0.59301915821E+02  0.49999948557E+02 0.  0.
         12    1    1    2    0    0 -0.31592905415E+02 -0.39401390631E+01  0.17567002898E+01  0.31886084179E+02  0.00000000000E+00 0. -1.
         11    1    3    3    0    0  0.24084585270E+01  0.16216711567E+01  0.18584239024E+02  0.18809689794E+02  0.51100000000E-03 0. -1.
        -11    1    3    3    0    0 -0.24131531770E+01  0.15724898611E+00  0.64023165715E+00  0.25015859640E+01  0.51100000000E-03 0.  1.
        -12    1    3    3    0    0  0.31597600065E+02  0.21612189204E+01 -0.20981170970E+02  0.37990640062E+02  0.00000000000E+00 0.  1.
</event>
<event>
 7    1  0.1284645E-011  0.5930194E+02  0.7816164E-02  0.1266605E+00
        -11   -1    0    0    0    0  0.00000000000E+00  0.00000000000E+00  0.45593999997E+02  0.45594000000E+02  0.51100000000E-03 0.  1.
         11   -1    0    0    0    0 -0.00000000000E+00 -0.00000000000E+00 -0.45593999997E+02  0.45594000000E+02  0.51100000000E-03 0. -1.
    9900012    2    1    2    0    0  0.20054604054E+01  0.72896158678E+01  0.30976777529E+02  0.59301935379E+02  0.49999984227E+02 0.  0.
         12    1    1    2    0    0 -0.20054604054E+01 -0.72896158678E+01 -0.30976777529E+02  0.31886064621E+02  0.00000000000E+00 0. -1.
         11    1    3    3    0    0 -0.53086167393E+01  0.29028632100E+01  0.14760235220E+02  0.15952196417E+02  0.51100000000E-03 0. -1.
        -11    1    3    3    0    0 -0.61637181113E+01  0.19063755399E+02  0.10496717375E+02  0.22618560228E+02  0.51100000000E-03 0.  1.
         12    1    3    3    0    0  0.13477795256E+02 -0.14677002742E+02  0.57198249342E+01  0.20731178734E+02  0.00000000000E+00 0. -1.
</event>
<event>
 7    1  0.1284645E-011  0.5930195E+02  0.7816164E-02  0.1266605E+00
        -11   -1    0    0    0    0  0.00000000000E+00  0.00000000000E+00  0.45593999997E+02  0.45594000000E+02  0.51100000000E-03 0.  1.
         11   -1    0    0    0    0 -0.00000000000E+00 -0.00000000000E+00 -0.45593999997E+02  0.45594000000E+02  0.51100000000E-03 0. -1.
    9900012    2    1    2    0    0  0.44173394154E+01 -0.31562851267E+02  0.99700948745E+00  0.59301945124E+02  0.50000002000E+02 0.  0.
         12    1    1    2    0    0 -0.44173394154E+01  0.31562851267E+02 -0.99700948745E+00  0.31886054876E+02  0.00000000000E+00 0. -1.
         11    1    3    3    0    0  0.24517758718E+01 -0.15718595587E+01 -0.18794285382E+02  0.19018599072E+02  0.51100000000E-03 0. -1.
        -11    1    3    3    0    0  0.25783267137E+01 -0.59032350642E+01  0.14133768140E+02  0.15532525711E+02  0.51100000000E-03 0.  1.
        -12    1    3    3    0    0 -0.61276317018E+00 -0.24087756644E+02  0.56575267292E+01  0.24750820341E+02  0.00000000000E+00 0.  1.
</event>
<event>
 7    1  0.1284645E-011  0.5930199E+02  0.7816164E-02  0.1266605E+00
        -11   -1    0    0    0    0  0.00000000000E+00  0.00000000000E+00  0.45593999997E+02  0.45594000000E+02  0.51100000000E-03 0. -1.
         11   -1    0    0    0    0 -0.00000000000E+00 -0.00000000000E+00 -0.45593999997E+02  0.45594000000E+02  0.51100000000E-03 0.  1.
    9900012    2    1    2    0    0 -0.77180009734E+01  0.37637608496E+01 -0.30708050553E+02  0.59301987337E+02  0.50000078986E+02 0.  0.
         12    1    1    2    0    0  0.77180009734E+01 -0.37637608496E+01  0.30708050553E+02  0.31886012663E+02  0.00000000000E+00 0. -1.
         11    1    3    3    0    0  0.92688160938E+00 -0.21845880311E+02 -0.16519825232E+02  0.27404492734E+02  0.51100000000E-03 0.  1.
        -11    1    3    3    0    0 -0.87438202021E+01  0.13916388391E+02 -0.11000768784E+02  0.19777188164E+02  0.51100000000E-03 0. -1.
        -12    1    3    3    0    0  0.98937619251E-01  0.11693252769E+02 -0.31874565370E+01  0.12120306438E+02  0.00000000000E+00 0.  1.
</event>
<event>
 7    1  0.1284645E-011  0.5930195E+02  0.7816164E-02  0.1266605E+00
        -11   -1    0    0    0    0  0.00000000000E+00  0.00000000000E+00  0.45593999997E+02  0.45594000000E+02  0.51100000000E-03 0. -1.
         11   -1    0    0    0    0 -0.00000000000E+00 -0.00000000000E+00 -0.45593999997E+02  0.45594000000E+02  0.51100000000E-03 0.  1.
    9900012    2    1    2    0    0  0.20585280214E+02  0.24081318394E+02 -0.36133584686E+01  0.59301952636E+02  0.50000015699E+02 0.  0.
         12    1    1    2    0    0 -0.20585280214E+02 -0.24081318394E+02  0.36133584686E+01  0.31886047364E+02  0.00000000000E+00 0. -1.
         11    1    3    3    0    0  0.60269534601E+01  0.80227053939E+01 -0.15012993936E+02  0.18057628777E+02  0.51100000000E-03 0. -1.
        -11    1    3    3    0    0 -0.14702391865E+01  0.17074367477E+02 -0.54336606026E+01  0.17978328504E+02  0.51100000000E-03 0.  1.
        -12    1    3    3    0    0  0.16028565941E+02 -0.10157544768E+01  0.16833296070E+02  0.23265995355E+02  0.00000000000E+00 0.  1.
</event>
<event>
 7    1  0.1385520E-011  0.5930199E+02  0.7816164E-02  0.1266605E+00
        -11   -1    0    0    0    0  0.00000000000E+00  0.00000000000E+00  0.45593999997E+02  0.45594000000E+02  0.51100000000E-03 0. -1.
         11   -1    0    0    0    0 -0.00000000000E+00 -0.00000000000E+00 -0.45593999997E+02  0.45594000000E+02  0.51100000000E-03 0.  1.
    9900012    2    1    2    0    0  0.32395786315E+00  0.15916416934E+02 -0.27627523746E+02  0.59301994527E+02  0.50000092098E+02 0.  0.
         12    1    1    2    0    0 -0.32395786315E+00 -0.15916416934E+02  0.27627523746E+02  0.31886005473E+02  0.00000000000E+00 0. -1.
         11    1    3    3    0    0  0.17634012795E+02  0.50993417903E+01 -0.57150227843E+01  0.19225586587E+02  0.51100000000E-03 0. -1.
        -11    1    3    3    0    0 -0.80281895759E+01  0.17026319126E+02 -0.44409681560E+01  0.19340878193E+02  0.51100000000E-03 0.  1.
        -12    1    3    3    0    0 -0.92818653555E+01 -0.62092439816E+01 -0.17471532806E+02  0.20735529747E+02  0.00000000000E+00 0.  1.
</event>
<event>
 7    1  0.1284645E-011  0.5930193E+02  0.7816164E-02  0.1266605E+00
        -11   -1    0    0    0    0  0.00000000000E+00  0.00000000000E+00  0.45593999997E+02  0.45594000000E+02  0.51100000000E-03 0.  1.
         11   -1    0    0    0    0 -0.00000000000E+00 -0.00000000000E+00 -0.45593999997E+02  0.45594000000E+02  0.51100000000E-03 0. -1.
    9900012    2    1    2    0    0 -0.10448790521E+02  0.20395622665E+02  0.22171214743E+02  0.59301930778E+02  0.49999975835E+02 0.  0.
         12    1    1    2    0    0  0.10448790521E+02 -0.20395622665E+02 -0.22171214743E+02  0.31886069222E+02  0.00000000000E+00 0. -1.
         11    1    3    3    0    0  0.25561272091E+00 -0.36756831428E+01  0.37751855454E+01  0.52752261177E+01  0.51100000000E-03 0. -1.
        -11    1    3    3    0    0  0.12504187903E+02 -0.19247899096E+01  0.14052147370E+02  0.18908262143E+02  0.51100000000E-03 0.  1.
         12    1    3    3    0    0 -0.23208591145E+02  0.25996095718E+02  0.43438818278E+01  0.35118442517E+02  0.00000000000E+00 0. -1.
</event>
<event>
 7    1  0.1284645E-011  0.5930194E+02  0.7816164E-02  0.1266605E+00
        -11   -1    0    0    0    0  0.00000000000E+00  0.00000000000E+00  0.45593999997E+02  0.45594000000E+02  0.51100000000E-03 0. -1.
         11   -1    0    0    0    0 -0.00000000000E+00 -0.00000000000E+00 -0.45593999997E+02  0.45594000000E+02  0.51100000000E-03 0.  1.
    9900012    2    1    2    0    0  0.25282458696E+01 -0.16600289404E+02 -0.27106441465E+02  0.59301940282E+02  0.49999993168E+02 0.  0.
         12    1    1    2    0    0 -0.25282458696E+01  0.16600289404E+02  0.27106441465E+02  0.31886059718E+02  0.00000000000E+00 0. -1.
         11    1    3    3    0    0  0.26183132085E+01  0.27488583506E+01 -0.32312524619E+01  0.49852561642E+01  0.51100000000E-03 0. -1.
        -11    1    3    3    0    0  0.20919536601E+02 -0.46865958327E+01 -0.18091880047E+02  0.28051868316E+02  0.51100000000E-03 0.  1.
        -12    1    3    3    0    0 -0.21009603940E+02 -0.14662551922E+02 -0.57833089558E+01  0.26264815801E+02  0.00000000000E+00 0.  1.
</event>
<event>
 7    1  0.1284645E-011  0.5930185E+02  0.7816164E-02  0.1266605E+00
        -11   -1    0    0    0    0  0.00000000000E+00  0.00000000000E+00  0.45593999997E+02  0.45594000000E+02  0.51100000000E-03 0. -1.
         11   -1    0    0    0    0 -0.00000000000E+00 -0.00000000000E+00 -0.45593999997E+02  0.45594000000E+02  0.51100000000E-03 0.  1.
    9900012    2    1    2    0    0  0.17993379226E+02  0.64882645302E+01 -0.25512097043E+02  0.59301853038E+02  0.49999834056E+02 0.  0.
         12    1    1    2    0    0 -0.17993379226E+02 -0.64882645302E+01  0.25512097043E+02  0.31886146962E+02  0.00000000000E+00 0. -1.
         11    1    3    3    0    0  0.11755112858E+02  0.83054834023E+01 -0.21025019514E+01  0.14545935775E+02  0.51100000000E-03 0. -1.
        -11    1    3    3    0    0  0.18640349395E+02  0.26898380457E+00 -0.53252073113E+00  0.18649894274E+02  0.51100000000E-03 0.  1.
        -12    1    3    3    0    0 -0.12402083027E+02 -0.20862026767E+01 -0.22877074360E+02  0.26106022989E+02  0.00000000000E+00 0.  1.
</event>
<event>
 7    1  0.1284645E-011  0.5930195E+02  0.7816164E-02  0.1266605E+00
        -11   -1    0    0    0    0  0.00000000000E+00  0.00000000000E+00  0.45593999997E+02  0.45594000000E+02  0.51100000000E-03 0. -1.
         11   -1    0    0    0    0 -0.00000000000E+00 -0.00000000000E+00 -0.45593999997E+02  0.45594000000E+02  0.51100000000E-03 0.  1.
    9900012    2    1    2    0    0 -0.24815823787E+02 -0.10667277609E+02 -0.16944152681E+02  0.59301949258E+02  0.50000009539E+02 0.  0.
         12    1    1    2    0    0  0.24815823787E+02  0.10667277609E+02  0.16944152681E+02  0.31886050742E+02  0.00000000000E+00 0. -1.
         11    1    3    3    0    0 -0.37568977823E+01 -0.17982374814E+02 -0.57773811485E+01  0.19257679457E+02  0.51100000000E-03 0. -1.
        -11    1    3    3    0    0 -0.18091543192E+02 -0.27743291314E+01 -0.19412443425E+02  0.26680400994E+02  0.51100000000E-03 0.  1.
         12    1    3    3    0    0 -0.29673828127E+01  0.10089426336E+02  0.82456718923E+01  0.13363868807E+02  0.00000000000E+00 0. -1.
</event>
<event>
 7    1  0.1284645E-011  0.5930194E+02  0.7816164E-02  0.1266605E+00
        -11   -1    0    0    0    0  0.00000000000E+00  0.00000000000E+00  0.45593999997E+02  0.45594000000E+02  0.51100000000E-03 0. -1.
         11   -1    0    0    0    0 -0.00000000000E+00 -0.00000000000E+00 -0.45593999997E+02  0.45594000000E+02  0.51100000000E-03 0.  1.
    9900012    2    1    2    0    0 -0.23444178997E+02 -0.21593671713E+02  0.89712437977E+00  0.59301936915E+02  0.49999987029E+02 0.  0.
         12    1    1    2    0    0  0.23444178997E+02  0.21593671713E+02 -0.89712437977E+00  0.31886063085E+02  0.00000000000E+00 0. -1.
         11    1    3    3    0    0 -0.27937135350E+01 -0.14815514158E+02  0.13746266991E+02  0.20402552573E+02  0.51100000000E-03 0. -1.
        -11    1    3    3    0    0  0.17864602528E+01 -0.12994406618E+02 -0.71125476508E+01  0.14920937569E+02  0.51100000000E-03 0.  1.
        -12    1    3    3    0    0 -0.22436925714E+02  0.62162490624E+01 -0.57365949602E+01  0.23978446773E+02  0.00000000000E+00 0.  1.
</event>
<event>
 7    1  0.1284645E-011  0.5930186E+02  0.7816164E-02  0.1266605E+00
        -11   -1    0    0    0    0  0.00000000000E+00  0.00000000000E+00  0.45593999997E+02  0.45594000000E+02  0.51100000000E-03 0.  1.
         11   -1    0    0    0    0 -0.00000000000E+00 -0.00000000000E+00 -0.45593999997E+02  0.45594000000E+02  0.51100000000E-03 0. -1.
    9900012    2    1    2    0    0 -0.21214301927E+02  0.20159778157E+02  0.12659481767E+02  0.59301862884E+02  0.49999852012E+02 0.  0.
         12    1    1    2    0    0  0.21214301927E+02 -0.20159778157E+02 -0.12659481767E+02  0.31886137116E+02  0.00000000000E+00 0. -1.
         11    1    3    3    0    0 -0.10160270684E+02  0.90026588204E+00 -0.51219636770E+01  0.11413855230E+02  0.51100000000E-03 0. -1.
        -11    1    3    3    0    0  0.48629351862E+01 -0.98499224423E+01  0.68997201469E+01  0.12972095016E+02  0.51100000000E-03 0.  1.
        -12    1    3    3    0    0 -0.15916966429E+02  0.29109434718E+02  0.10881725297E+02  0.34915912638E+02  0.00000000000E+00 0.  1.
</event>
<event>
 7    1  0.1284645E-011  0.5930194E+02  0.7816164E-02  0.1266605E+00
        -11   -1    0    0    0    0  0.00000000000E+00  0.00000000000E+00  0.45593999997E+02  0.45594000000E+02  0.51100000000E-03 0. -1.
         11   -1    0    0    0    0 -0.00000000000E+00 -0.00000000000E+00 -0.45593999997E+02  0.45594000000E+02  0.51100000000E-03 0.  1.
    9900012    2    1    2    0    0  0.22985208711E+02  0.22065704979E+02 -0.12270097428E+01  0.59301941783E+02  0.49999995906E+02 0.  0.
         12    1    1    2    0    0 -0.22985208711E+02 -0.22065704979E+02  0.12270097428E+01  0.31886058217E+02  0.00000000000E+00 0. -1.
         11    1    3    3    0    0  0.25617078007E+01  0.51677298100E+01  0.83743329069E+01  0.10168442857E+02  0.51100000000E-03 0. -1.
        -11    1    3    3    0    0 -0.35260278004E+01  0.17909871885E+02  0.74512351058E+01  0.19715914583E+02  0.51100000000E-03 0.  1.
         12    1    3    3    0    0  0.23949528711E+02 -0.10118967155E+01 -0.17052577756E+02  0.29417584343E+02  0.00000000000E+00 0. -1.
</event>
<event>
 7    1  0.1284645E-011  0.5930193E+02  0.7816164E-02  0.1266605E+00
        -11   -1    0    0    0    0  0.00000000000E+00  0.00000000000E+00  0.45593999997E+02  0.45594000000E+02  0.51100000000E-03 0.  1.
         11   -1    0    0    0    0 -0.00000000000E+00 -0.00000000000E+00 -0.45593999997E+02  0.45594000000E+02  0.51100000000E-03 0. -1.
    9900012    2    1    2    0    0  0.22307308719E+02  0.62592500235E+01  0.21907239374E+02  0.59301931410E+02  0.49999976989E+02 0.  0.
         12    1    1    2    0    0 -0.22307308719E+02 -0.62592500235E+01 -0.21907239374E+02  0.31886068590E+02  0.00000000000E+00 0. -1.
         11    1    3    3    0    0 -0.10195000865E+02 -0.67803433406E+01  0.26582503420E+01  0.12529061960E+02  0.51100000000E-03 0.  1.
        -11    1    3    3    0    0  0.15577322521E+02  0.13967477317E+02 -0.26631823397E+00  0.20924013123E+02  0.51100000000E-03 0. -1.
        -12    1    3    3    0    0  0.16924987063E+02 -0.92788395338E+00  0.19515307266E+02  0.25848856327E+02  0.00000000000E+00 0.  1.
</event>
<event>
 7    1  0.1284645E-011  0.5930200E+02  0.7816164E-02  0.1266605E+00
        -11   -1    0    0    0    0  0.00000000000E+00  0.00000000000E+00  0.45593999997E+02  0.45594000000E+02  0.51100000000E-03 0.  1.
         11   -1    0    0    0    0 -0.00000000000E+00 -0.00000000000E+00 -0.45593999997E+02  0.45594000000E+02  0.51100000000E-03 0. -1.
    9900012    2    1    2    0    0  0.18148616977E+01  0.31487197582E+02  0.46882542110E+01  0.59301998964E+02  0.50000100190E+02 0.  0.
         12    1    1    2    0    0 -0.18148616977E+01 -0.31487197582E+02 -0.46882542110E+01  0.31886001036E+02  0.00000000000E+00 0. -1.
         11    1    3    3    0    0 -0.14823453290E+02  0.66971618706E+01  0.62216476422E+01  0.17415385273E+02  0.51100000000E-03 0. -1.
        -11    1    3    3    0    0 -0.30391151345E+01  0.18237319412E+02 -0.80239797958E+01  0.20154907397E+02  0.51100000000E-03 0.  1.
        -12    1    3    3    0    0  0.19677430122E+02  0.65527162986E+01  0.64905863646E+01  0.21731706294E+02  0.00000000000E+00 0.  1.
</event>
<event>
 7    1  0.1284645E-011  0.5930193E+02  0.7816164E-02  0.1266605E+00
        -11   -1    0    0    0    0  0.00000000000E+00  0.00000000000E+00  0.45593999997E+02  0.45594000000E+02  0.51100000000E-03 0. -1.
         11   -1    0    0    0    0 -0.00000000000E+00 -0.00000000000E+00 -0.45593999997E+02  0.45594000000E+02  0.51100000000E-03 0.  1.
    9900012    2    1    2    0    0 -0.22506470307E+02  0.21095802498E+02  0.80713743279E+01  0.59301934513E+02  0.49999982647E+02 0.  0.
         12    1    1    2    0    0  0.22506470307E+02 -0.21095802498E+02 -0.80713743279E+01  0.31886065487E+02  0.00000000000E+00 0. -1.
         11    1    3    3    0    0 -0.16318848254E+01 -0.19757346329E+00  0.77795080127E+01  0.79512784216E+01  0.51100000000E-03 0. -1.
        -11    1    3    3    0    0 -0.75101819594E+01  0.11472705030E+02  0.20838791980E+02  0.24945561634E+02  0.51100000000E-03 0.  1.
        -12    1    3    3    0    0 -0.13364403522E+02  0.98206709306E+01 -0.20546925665E+02  0.26405094458E+02  0.00000000000E+00 0.  1.
</event>
<event>
 7    1  0.1284645E-011  0.5930196E+02  0.7816164E-02  0.1266605E+00
        -11   -1    0    0    0    0  0.00000000000E+00  0.00000000000E+00  0.45593999997E+02  0.45594000000E+02  0.51100000000E-03 0. -1.
         11   -1    0    0    0    0 -0.00000000000E+00 -0.00000000000E+00 -0.45593999997E+02  0.45594000000E+02  0.51100000000E-03 0.  1.
    9900012    2    1    2    0    0 -0.86240584313E+01 -0.30689524893E+02 -0.70579798493E+00  0.59301961162E+02  0.50000031249E+02 0.  0.
         12    1    1    2    0    0  0.86240584313E+01  0.30689524893E+02  0.70579798493E+00  0.31886038838E+02  0.00000000000E+00 0. -1.
         11    1    3    3    0    0  0.66494256232E+01  0.10004230739E+02 -0.39643716723E+01  0.12649732677E+02  0.51100000000E-03 0. -1.
        -11    1    3    3    0    0 -0.10265127876E+02 -0.14655023676E+02 -0.55137197712E+01  0.18722811627E+02  0.51100000000E-03 0.  1.
        -12    1    3    3    0    0 -0.50083561790E+01 -0.26038731956E+02  0.87722934585E+01  0.27929416857E+02  0.00000000000E+00 0.  1.
</event>
<event>
 7    1  0.1284645E-011  0.5930196E+02  0.7816164E-02  0.1266605E+00
        -11   -1    0    0    0    0  0.00000000000E+00  0.00000000000E+00  0.45593999997E+02  0.45594000000E+02  0.51100000000E-03 0. -1.
         11   -1    0    0    0    0 -0.00000000000E+00 -0.00000000000E+00 -0.45593999997E+02  0.45594000000E+02  0.51100000000E-03 0.  1.
    9900012    2    1    2    0    0 -0.18140824056E+02  0.32961581474E+01 -0.26014709494E+02  0.59301964404E+02  0.50000037161E+02 0.  0.
         12    1    1    2    0    0  0.18140824056E+02 -0.32961581474E+01  0.26014709494E+02  0.31886035596E+02  0.00000000000E+00 0. -1.
         11    1    3    3    0    0 -0.43366779881E+01 -0.86616303813E+01 -0.20876942032E+02  0.23014719761E+02  0.51100000000E-03 0. -1.
        -11    1    3    3    0    0 -0.12550083366E+01 -0.71972664464E+01 -0.10477546618E+02  0.12773201385E+02  0.51100000000E-03 0.  1.
        -12    1    3    3    0    0 -0.12549137731E+02  0.19155054975E+02  0.53397791553E+01  0.23514043258E+02  0.00000000000E+00 0.  1.
</event>
<event>
 7    1  0.1284645E-011  0.5930194E+02  0.7816164E-02  0.1266605E+00
        -11   -1    0    0    0    0  0.00000000000E+00  0.00000000000E+00  0.45593999997E+02  0.45594000000E+02  0.51100000000E-03 0. -1.
         11   -1    0    0    0    0 -0.00000000000E+00 -0.00000000000E+00 -0.45593999997E+02  0.45594000000E+02  0.51100000000E-03 0.  1.
    9900012    2    1    2    0    0  0.23162099469E+02 -0.56759545896E+01 -0.21166521806E+02  0.59301937878E+02  0.49999988784E+02 0.  0.
         12    1    1    2    0    0 -0.23162099469E+02  0.56759545896E+01  0.21166521806E+02  0.31886062122E+02  0.00000000000E+00 0. -1.
         11    1    3    3    0    0  0.25053766077E+02  0.18455093058E+02 -0.12067106076E+02  0.33375091067E+02  0.51100000000E-03 0. -1.
        -11    1    3    3    0    0  0.24179359052E+00 -0.11190213086E+01 -0.20174456403E+00  0.11624861116E+01  0.51100000000E-03 0.  1.
         12    1    3    3    0    0 -0.21334601987E+01 -0.23012026339E+02 -0.88976711655E+01  0.24764360699E+02  0.00000000000E+00 0. -1.
</event>
<event>
 7    1  0.1284645E-011  0.5930195E+02  0.7816164E-02  0.1266605E+00
        -11   -1    0    0    0    0  0.00000000000E+00  0.00000000000E+00  0.45593999997E+02  0.45594000000E+02  0.51100000000E-03 0.  1.
         11   -1    0    0    0    0 -0.00000000000E+00 -0.00000000000E+00 -0.45593999997E+02  0.45594000000E+02  0.51100000000E-03 0. -1.
    9900012    2    1    2    0    0 -0.17884189958E+02  0.34418661057E+01  0.26173066873E+02  0.59301950977E+02  0.50000012674E+02 0.  0.
         12    1    1    2    0    0  0.17884189958E+02 -0.34418661057E+01 -0.26173066873E+02  0.31886049023E+02  0.00000000000E+00 0. -1.
         11    1    3    3    0    0 -0.96105689004E+00  0.19052144856E+02  0.13108736605E+01  0.19121355704E+02  0.51100000000E-03 0. -1.
        -11    1    3    3    0    0 -0.18782534737E+02 -0.53748330309E+01  0.97508755567E+01  0.21834651718E+02  0.51100000000E-03 0.  1.
        -12    1    3    3    0    0  0.18594016690E+01 -0.10235445719E+02  0.15111317656E+02  0.18345943555E+02  0.00000000000E+00 0.  1.
</event>
<event>
 7    1  0.1284645E-011  0.5930194E+02  0.7816164E-02  0.1266605E+00
        -11   -1    0    0    0    0  0.00000000000E+00  0.00000000000E+00  0.45593999997E+02  0.45594000000E+02  0.51100000000E-03 0.  1.
         11   -1    0    0    0    0 -0.00000000000E+00 -0.00000000000E+00 -0.45593999997E+02  0.45594000000E+02  0.51100000000E-03 0. -1.
    9900012    2    1    2    0    0 -0.16544548073E+02  0.22720664299E+01  0.27163144341E+02  0.59301940863E+02  0.49999994228E+02 0.  0.
         12    1    1    2    0    0  0.16544548073E+02 -0.22720664299E+01 -0.27163144341E+02  0.31886059137E+02  0.00000000000E+00 0. -1.
         11    1    3    3    0    0 -0.54666136598E+00  0.16209661996E+01 -0.44358613244E+01  0.47542860683E+01  0.51100000000E-03 0. -1.
        -11    1    3    3    0    0  0.12927945426E+02  0.71243080431E+01  0.91778033920E+01  0.17381588345E+02  0.51100000000E-03 0.  1.
        -12    1    3    3    0    0 -0.28925832133E+02 -0.64732078128E+01  0.22421202273E+02  0.37166066450E+02  0.00000000000E+00 0.  1.
</event>
<event>
 7    1  0.1284645E-011  0.5930191E+02  0.7816164E-02  0.1266605E+00
        -11   -1    0    0    0    0  0.00000000000E+00  0.00000000000E+00  0.45593999997E+02  0.45594000000E+02  0.51100000000E-03 0.  1.
         11   -1    0    0    0    0 -0.00000000000E+00 -0.00000000000E+00 -0.45593999997E+02  0.45594000000E+02  0.51100000000E-03 0. -1.
    9900012    2    1    2    0    0  0.72901242027E+01 -0.13219007198E+02  0.28086197716E+02  0.59301912684E+02  0.49999942836E+02 0.  0.
         12    1    1    2    0    0 -0.72901242027E+01  0.13219007198E+02 -0.28086197716E+02  0.31886087316E+02  0.00000000000E+00 0. -1.
         11    1    3    3    0    0  0.11647551379E+02  0.11420994804E+01  0.17794217130E+02  0.21297981310E+02  0.51100000000E-03 0. -1.
        -11    1    3    3    0    0  0.10060627352E+02 -0.37442655653E+00  0.14331561527E+02  0.17514282001E+02  0.51100000000E-03 0.  1.
         12    1    3    3    0    0 -0.14418054528E+02 -0.13986680122E+02 -0.40395809416E+01  0.20489649372E+02  0.00000000000E+00 0. -1.
</event>
<event>
 7    1  0.1284645E-011  0.5930195E+02  0.7816164E-02  0.1266605E+00
        -11   -1    0    0    0    0  0.00000000000E+00  0.00000000000E+00  0.45593999997E+02  0.45594000000E+02  0.51100000000E-03 0.  1.
         11   -1    0    0    0    0 -0.00000000000E+00 -0.00000000000E+00 -0.45593999997E+02  0.45594000000E+02  0.51100000000E-03 0. -1.
    9900012    2    1    2    0    0 -0.25692438730E+02  0.12739741767E+02  0.13939785739E+02  0.59301952039E+02  0.50000014610E+02 0.  0.
         12    1    1    2    0    0  0.25692438730E+02 -0.12739741767E+02 -0.13939785739E+02  0.31886047961E+02  0.00000000000E+00 0. -1.
         11    1    3    3    0    0  0.21318137966E+01  0.78084378098E+01  0.15344062168E+01  0.82383696076E+01  0.51100000000E-03 0. -1.
        -11    1    3    3    0    0  0.83705285733E+01 -0.39804193060E+01  0.10112207275E+02  0.13717369379E+02  0.51100000000E-03 0.  1.
         12    1    3    3    0    0 -0.36194781100E+02  0.89117232628E+01  0.22931722470E+01  0.37346213052E+02  0.00000000000E+00 0. -1.
</event>
<event>
 7    1  0.1284645E-011  0.5930196E+02  0.7816164E-02  0.1266605E+00
        -11   -1    0    0    0    0  0.00000000000E+00  0.00000000000E+00  0.45593999997E+02  0.45594000000E+02  0.51100000000E-03 0. -1.
         11   -1    0    0    0    0 -0.00000000000E+00 -0.00000000000E+00 -0.45593999997E+02  0.45594000000E+02  0.51100000000E-03 0.  1.
    9900012    2    1    2    0    0  0.11496482239E+02  0.22211709063E+02  0.19778539101E+02  0.59301957092E+02  0.50000023826E+02 0.  0.
         12    1    1    2    0    0 -0.11496482239E+02 -0.22211709063E+02 -0.19778539101E+02  0.31886042908E+02  0.00000000000E+00 0. -1.
         11    1    3    3    0    0 -0.94683973784E+01  0.71703193778E+00  0.90138961126E+00  0.95381962240E+01  0.51100000000E-03 0. -1.
        -11    1    3    3    0    0 -0.55743905702E+01  0.13440477191E+01  0.15192113187E+02  0.16238244913E+02  0.51100000000E-03 0.  1.
        -12    1    3    3    0    0  0.26539270187E+02  0.20150629406E+02  0.36850363035E+01  0.33525515955E+02  0.00000000000E+00 0.  1.
</event>
<event>
 7    1  0.1284645E-011  0.5930194E+02  0.7816164E-02  0.1266605E+00
        -11   -1    0    0    0    0  0.00000000000E+00  0.00000000000E+00  0.45593999997E+02  0.45594000000E+02  0.51100000000E-03 0.  1.
         11   -1    0    0    0    0 -0.00000000000E+00 -0.00000000000E+00 -0.45593999997E+02  0.45594000000E+02  0.51100000000E-03 0. -1.
    9900012    2    1    2    0    0  0.81394638840E+01  0.35631628159E+01  0.30623090306E+02  0.59301942523E+02  0.49999997255E+02 0.  0.
         12    1    1    2    0    0 -0.81394638840E+01 -0.35631628159E+01 -0.30623090306E+02  0.31886057477E+02  0.00000000000E+00 0. -1.
         11    1    3    3    0    0  0.15829427976E+02 -0.13927231540E+02  0.10195810958E+02  0.23419930182E+02  0.51100000000E-03 0. -1.
        -11    1    3    3    0    0  0.74454873714E+01  0.24653212264E+01  0.32171687398E+01  0.84772204117E+01  0.51100000000E-03 0.  1.
         12    1    3    3    0    0 -0.15135451463E+02  0.15025073129E+02  0.17210110608E+02  0.27404791929E+02  0.00000000000E+00 0. -1.
</event>
<event>
 7    1  0.1284645E-011  0.5930194E+02  0.7816164E-02  0.1266605E+00
        -11   -1    0    0    0    0  0.00000000000E+00  0.00000000000E+00  0.45593999997E+02  0.45594000000E+02  0.51100000000E-03 0.  1.
         11   -1    0    0    0    0 -0.00000000000E+00 -0.00000000000E+00 -0.45593999997E+02  0.45594000000E+02  0.51100000000E-03 0. -1.
    9900012    2    1    2    0    0 -0.71405320576E+01 -0.66985092283E+01  0.30345733575E+02  0.59301940818E+02  0.49999994146E+02 0.  0.
         12    1    1    2    0    0  0.71405320576E+01  0.66985092283E+01 -0.30345733575E+02  0.31886059182E+02  0.00000000000E+00 0. -1.
         11    1    3    3    0    0  0.84534967326E+01 -0.61113227550E+01  0.12550004065E+02  0.16319083158E+02  0.51100000000E-03 0. -1.
        -11    1    3    3    0    0 -0.12835988600E+02 -0.18148596103E+01  0.28794042960E+02  0.31577733120E+02  0.51100000000E-03 0.  1.
        -12    1    3    3    0    0 -0.27580401900E+01  0.12276731369E+01 -0.10998313450E+02  0.11405124540E+02  0.00000000000E+00 0.  1.
</event>
<event>
 7    1  0.1284645E-011  0.5930197E+02  0.7816164E-02  0.1266605E+00
        -11   -1    0    0    0    0  0.00000000000E+00  0.00000000000E+00  0.45593999997E+02  0.45594000000E+02  0.51100000000E-03 0.  1.
         11   -1    0    0    0    0 -0.00000000000E+00 -0.00000000000E+00 -0.45593999997E+02  0.45594000000E+02  0.51100000000E-03 0. -1.
    9900012    2    1    2    0    0 -0.98752077484E+01  0.29044110408E+02 -0.86970459457E+01  0.59301973505E+02  0.50000053760E+02 0.  0.
         12    1    1    2    0    0  0.98752077484E+01 -0.29044110408E+02  0.86970459457E+01  0.31886026495E+02  0.00000000000E+00 0. -1.
         11    1    3    3    0    0 -0.82469702009E+01  0.15599187077E+02 -0.27038069712E+02  0.32286287631E+02  0.51100000000E-03 0. -1.
        -11    1    3    3    0    0 -0.59367859754E+01  0.12511974950E+02  0.85440032154E+01  0.16272520889E+02  0.51100000000E-03 0.  1.
        -12    1    3    3    0    0  0.43085484279E+01  0.93294838130E+00  0.97970205510E+01  0.10743164986E+02  0.00000000000E+00 0.  1.
</event>
<event>
 7    1  0.1284645E-011  0.5930198E+02  0.7816164E-02  0.1266605E+00
        -11   -1    0    0    0    0  0.00000000000E+00  0.00000000000E+00  0.45593999997E+02  0.45594000000E+02  0.51100000000E-03 0. -1.
         11   -1    0    0    0    0 -0.00000000000E+00 -0.00000000000E+00 -0.45593999997E+02  0.45594000000E+02  0.51100000000E-03 0.  1.
    9900012    2    1    2    0    0 -0.12166211230E+02 -0.39395781671E+01 -0.29209265407E+02  0.59301981787E+02  0.50000068865E+02 0.  0.
         12    1    1    2    0    0  0.12166211230E+02  0.39395781671E+01  0.29209265407E+02  0.31886018213E+02  0.00000000000E+00 0. -1.
         11    1    3    3    0    0 -0.72245795084E+01  0.19154556328E+02 -0.85240760490E+01  0.22175469554E+02  0.51100000000E-03 0. -1.
        -11    1    3    3    0    0 -0.76422375657E+01 -0.10812801527E+00 -0.59977183204E+01  0.97153544449E+01  0.51100000000E-03 0.  1.
         12    1    3    3    0    0  0.27006058441E+01 -0.22986006480E+02 -0.14687471038E+02  0.27411157788E+02  0.00000000000E+00 0. -1.
</event>
<event>
 7    1  0.1284645E-011  0.5930198E+02  0.7816164E-02  0.1266605E+00
        -11   -1    0    0    0    0  0.00000000000E+00  0.00000000000E+00  0.45593999997E+02  0.45594000000E+02  0.51100000000E-03 0. -1.
         11   -1    0    0    0    0 -0.00000000000E+00 -0.00000000000E+00 -0.45593999997E+02  0.45594000000E+02  0.51100000000E-03 0.  1.
    9900012    2    1    2    0    0 -0.64943016727E+01 -0.17701928203E+02  0.25713502596E+02  0.59301977481E+02  0.50000061011E+02 0.  0.
         12    1    1    2    0    0  0.64943016727E+01  0.17701928203E+02 -0.25713502596E+02  0.31886022519E+02  0.00000000000E+00 0. -1.
         11    1    3    3    0    0 -0.22841803404E+02 -0.10561346578E+02  0.19797675647E+02  0.32019337682E+02  0.51100000000E-03 0.  1.
        -11    1    3    3    0    0  0.95429890010E+01  0.22849415794E+01  0.10871733709E+02  0.14645278802E+02  0.51100000000E-03 0. -1.
        -12    1    3    3    0    0  0.68045127303E+01 -0.94255232045E+01 -0.49559067595E+01  0.12637360998E+02  0.00000000000E+00 0.  1.
</event>
<event>
 7    1  0.1284645E-011  0.5930193E+02  0.7816164E-02  0.1266605E+00
        -11   -1    0    0    0    0  0.00000000000E+00  0.00000000000E+00  0.45593999997E+02  0.45594000000E+02  0.51100000000E-03 0.  1.
         11   -1    0    0    0    0 -0.00000000000E+00 -0.00000000000E+00 -0.45593999997E+02  0.45594000000E+02  0.51100000000E-03 0. -1.
    9900012    2    1    2    0    0  0.57723210448E+01  0.16994776702E+02  0.26354877992E+02  0.59301925933E+02  0.49999967000E+02 0.  0.
         12    1    1    2    0    0 -0.57723210448E+01 -0.16994776702E+02 -0.26354877992E+02  0.31886074067E+02  0.00000000000E+00 0. -1.
         11    1    3    3    0    0 -0.24726191985E+01  0.17468513785E+01  0.13251007225E+02  0.13592443790E+02  0.51100000000E-03 0. -1.
        -11    1    3    3    0    0 -0.10543894868E+02 -0.52324780290E+01  0.13503128269E+02  0.17913319587E+02  0.51100000000E-03 0.  1.
         12    1    3    3    0    0  0.18788835111E+02  0.20480403352E+02 -0.39925750209E+00  0.27796162556E+02  0.00000000000E+00 0. -1.
</event>
<event>
 7    1  0.1284645E-011  0.5930196E+02  0.7816164E-02  0.1266605E+00
        -11   -1    0    0    0    0  0.00000000000E+00  0.00000000000E+00  0.45593999997E+02  0.45594000000E+02  0.51100000000E-03 0.  1.
         11   -1    0    0    0    0 -0.00000000000E+00 -0.00000000000E+00 -0.45593999997E+02  0.45594000000E+02  0.51100000000E-03 0. -1.
    9900012    2    1    2    0    0 -0.30718191521E+02  0.31870777546E+01 -0.79344248649E+01  0.59301955202E+02  0.50000020378E+02 0.  0.
         12    1    1    2    0    0  0.30718191521E+02 -0.31870777546E+01  0.79344248649E+01  0.31886044798E+02  0.00000000000E+00 0. -1.
         11    1    3    3    0    0 -0.40397334583E+01  0.42624266182E+01  0.13646617999E+02  0.14856578010E+02  0.51100000000E-03 0. -1.
        -11    1    3    3    0    0 -0.11615396801E+02 -0.85314499313E+01  0.29481619933E+01  0.14710361660E+02  0.51100000000E-03 0.  1.
         12    1    3    3    0    0 -0.15063061262E+02  0.74561010678E+01 -0.24529204857E+02  0.29735015532E+02  0.00000000000E+00 0. -1.
</event>
<event>
 7    1  0.1284645E-011  0.5930196E+02  0.7816164E-02  0.1266605E+00
        -11   -1    0    0    0    0  0.00000000000E+00  0.00000000000E+00  0.45593999997E+02  0.45594000000E+02  0.51100000000E-03 0.  1.
         11   -1    0    0    0    0 -0.00000000000E+00 -0.00000000000E+00 -0.45593999997E+02  0.45594000000E+02  0.51100000000E-03 0. -1.
    9900012    2    1    2    0    0  0.89137623834E+01  0.18145175746E+02  0.24657996357E+02  0.59301963134E+02  0.50000034846E+02 0.  0.
         12    1    1    2    0    0 -0.89137623834E+01 -0.18145175746E+02 -0.24657996357E+02  0.31886036866E+02  0.00000000000E+00 0. -1.
         11    1    3    3    0    0 -0.79335960946E+01  0.26886217597E+01  0.23400167475E+02  0.24854345135E+02  0.51100000000E-03 0. -1.
        -11    1    3    3    0    0  0.25191701997E+01 -0.71801099680E+01 -0.26856639120E+00  0.76139559899E+01  0.51100000000E-03 0.  1.
        -12    1    3    3    0    0  0.14328188278E+02  0.22636663954E+02  0.15263952729E+01  0.26833662010E+02  0.00000000000E+00 0.  1.
</event>
<event>
 7    1  0.1284645E-011  0.5930195E+02  0.7816164E-02  0.1266605E+00
        -11   -1    0    0    0    0  0.00000000000E+00  0.00000000000E+00  0.45593999997E+02  0.45594000000E+02  0.51100000000E-03 0. -1.
         11   -1    0    0    0    0 -0.00000000000E+00 -0.00000000000E+00 -0.45593999997E+02  0.45594000000E+02  0.51100000000E-03 0.  1.
    9900012    2    1    2    0    0 -0.36144509480E+01  0.31614193423E+02  0.20491242238E+01  0.59301946756E+02  0.50000004975E+02 0.  0.
         12    1    1    2    0    0  0.36144509480E+01 -0.31614193423E+02 -0.20491242238E+01  0.31886053244E+02  0.00000000000E+00 0. -1.
         11    1    3    3    0    0  0.27940871030E+01  0.18505837766E+02  0.10908268156E+02  0.21662485282E+02  0.51100000000E-03 0. -1.
        -11    1    3    3    0    0 -0.37779096165E+01  0.17784968844E+02  0.80612068643E+01  0.19888709717E+02  0.51100000000E-03 0.  1.
        -12    1    3    3    0    0 -0.26306284345E+01 -0.46766131873E+01 -0.16920350796E+02  0.17750751757E+02  0.00000000000E+00 0.  1.
</event>
<event>
 7    1  0.1284645E-011  0.5930190E+02  0.7816164E-02  0.1266605E+00
        -11   -1    0    0    0    0  0.00000000000E+00  0.00000000000E+00  0.45593999997E+02  0.45594000000E+02  0.51100000000E-03 0.  1.
         11   -1    0    0    0    0 -0.00000000000E+00 -0.00000000000E+00 -0.45593999997E+02  0.45594000000E+02  0.51100000000E-03 0. -1.
    9900012    2    1    2    0    0  0.15535542523E+00 -0.12801522937E+01  0.31860016667E+02  0.59301896644E+02  0.49999913584E+02 0.  0.
         12    1    1    2    0    0 -0.15535542523E+00  0.12801522937E+01 -0.31860016667E+02  0.31886103356E+02  0.00000000000E+00 0. -1.
         11    1    3    3    0    0 -0.18330791836E+02 -0.38495833163E+01  0.15221615372E+02  0.24135757619E+02  0.51100000000E-03 0. -1.
        -11    1    3    3    0    0  0.15232316605E+02 -0.54453358856E+01  0.20141861960E+02  0.25833500644E+02  0.51100000000E-03 0.  1.
        -12    1    3    3    0    0  0.32538306561E+01  0.80147669081E+01 -0.35034606644E+01  0.93326383813E+01  0.00000000000E+00 0.  1.
</event>
<event>
 7    1  0.1556806E-011  0.5930199E+02  0.7816164E-02  0.1266605E+00
        -11   -1    0    0    0    0  0.00000000000E+00  0.00000000000E+00  0.45593999997E+02  0.45594000000E+02  0.51100000000E-03 0. -1.
         11   -1    0    0    0    0 -0.00000000000E+00 -0.00000000000E+00 -0.45593999997E+02  0.45594000000E+02  0.51100000000E-03 0.  1.
    9900012    2    1    2    0    0 -0.16816724021E+01 -0.87962976285E+01 -0.30602531295E+02  0.59301987460E+02  0.50000079211E+02 0.  0.
         12    1    1    2    0    0  0.16816724021E+01  0.87962976285E+01  0.30602531295E+02  0.31886012540E+02  0.00000000000E+00 0. -1.
         11    1    3    3    0    0 -0.58588155040E+01 -0.45938043695E+01  0.54583599120E+01  0.92316006676E+01  0.51100000000E-03 0. -1.
        -11    1    3    3    0    0  0.10960328009E+02  0.13169373515E+01  0.18243862368E+01  0.11188900726E+02  0.51100000000E-03 0.  1.
        -12    1    3    3    0    0 -0.67831849076E+01 -0.55194306105E+01 -0.37885277444E+02  0.38881486066E+02  0.00000000000E+00 0.  1.
</event>
<event>
 7    1  0.1284645E-011  0.5930194E+02  0.7816164E-02  0.1266605E+00
        -11   -1    0    0    0    0  0.00000000000E+00  0.00000000000E+00  0.45593999997E+02  0.45594000000E+02  0.51100000000E-03 0.  1.
         11   -1    0    0    0    0 -0.00000000000E+00 -0.00000000000E+00 -0.45593999997E+02  0.45594000000E+02  0.51100000000E-03 0. -1.
    9900012    2    1    2    0    0  0.77712709342E+01  0.21056859596E+02  0.22648102894E+02  0.59301944229E+02  0.50000000366E+02 0.  0.
         12    1    1    2    0    0 -0.77712709342E+01 -0.21056859596E+02 -0.22648102894E+02  0.31886055771E+02  0.00000000000E+00 0. -1.
         11    1    3    3    0    0  0.17834783229E+01 -0.47239377450E+01  0.24007968311E+01  0.55910829391E+01  0.51100000000E-03 0. -1.
        -11    1    3    3    0    0  0.24044016046E+01 -0.45908799330E+01  0.22458510072E+02  0.23048687610E+02  0.51100000000E-03 0.  1.
         12    1    3    3    0    0  0.35833910067E+01  0.30371677274E+02 -0.22112040098E+01  0.30662173679E+02  0.00000000000E+00 0. -1.
</event>
<event>
 7    1  0.1284645E-011  0.5930192E+02  0.7816164E-02  0.1266605E+00
        -11   -1    0    0    0    0  0.00000000000E+00  0.00000000000E+00  0.45593999997E+02  0.45594000000E+02  0.51100000000E-03 0.  1.
         11   -1    0    0    0    0 -0.00000000000E+00 -0.00000000000E+00 -0.45593999997E+02  0.45594000000E+02  0.51100000000E-03 0. -1.
    9900012    2    1    2    0    0  0.12110048246E+02  0.27185731294E+02  0.11445723121E+02  0.59301924163E+02  0.49999963772E+02 0.  0.
         12    1    1    2    0    0 -0.12110048246E+02 -0.27185731294E+02 -0.11445723121E+02  0.31886075837E+02  0.00000000000E+00 0. -1.
         11    1    3    3    0    0  0.81253540866E+01 -0.11224129823E+02  0.52738656840E+01  0.14826197382E+02  0.51100000000E-03 0. -1.
        -11    1    3    3    0    0  0.41072361624E+01  0.12268342740E+02  0.12051280001E+02  0.17680921141E+02  0.51100000000E-03 0.  1.
        -12    1    3    3    0    0 -0.12254200334E+00  0.26141518377E+02 -0.58794225641E+01  0.26794805640E+02  0.00000000000E+00 0.  1.
</event>
<event>
 7    1  0.1284645E-011  0.5930192E+02  0.7816164E-02  0.1266605E+00
        -11   -1    0    0    0    0  0.00000000000E+00  0.00000000000E+00  0.45593999997E+02  0.45594000000E+02  0.51100000000E-03 0.  1.
         11   -1    0    0    0    0 -0.00000000000E+00 -0.00000000000E+00 -0.45593999997E+02  0.45594000000E+02  0.51100000000E-03 0. -1.
    9900012    2    1    2    0    0 -0.11680457907E+02  0.22447999640E+02  0.19400422890E+02  0.59301918505E+02  0.49999953453E+02 0.  0.
         12    1    1    2    0    0  0.11680457907E+02 -0.22447999640E+02 -0.19400422890E+02  0.31886081495E+02  0.00000000000E+00 0. -1.
         11    1    3    3    0    0 -0.87795386904E+01  0.87913819900E+01  0.10547120622E+02  0.16297559652E+02  0.51100000000E-03 0. -1.
        -11    1    3    3    0    0  0.45183644406E+01  0.26212360509E+02  0.99030862318E+01  0.28382645716E+02  0.51100000000E-03 0.  1.
         12    1    3    3    0    0 -0.74192836572E+01 -0.12555742859E+02 -0.10497839637E+01  0.14621713138E+02  0.00000000000E+00 0. -1.
</event>
<event>
 7    1  0.1284645E-011  0.5930194E+02  0.7816164E-02  0.1266605E+00
        -11   -1    0    0    0    0  0.00000000000E+00  0.00000000000E+00  0.45593999997E+02  0.45594000000E+02  0.51100000000E-03 0.  1.
         11   -1    0    0    0    0 -0.00000000000E+00 -0.00000000000E+00 -0.45593999997E+02  0.45594000000E+02  0.51100000000E-03 0. -1.
    9900012    2    1    2    0    0  0.12619726025E+02  0.15877338798E+00  0.29282040384E+02  0.59301943754E+02  0.49999999500E+02 0.  0.
         12    1    1    2    0    0 -0.12619726025E+02 -0.15877338798E+00 -0.29282040384E+02  0.31886056246E+02  0.00000000000E+00 0. -1.
         11    1    3    3    0    0  0.12513317578E+02  0.11855015691E+02  0.18184656070E+02  0.25056061751E+02  0.51100000000E-03 0. -1.
        -11    1    3    3    0    0 -0.81359121290E+01  0.45024848279E+01  0.12987101448E+02  0.15972796877E+02  0.51100000000E-03 0.  1.
         12    1    3    3    0    0  0.82423205756E+01 -0.16198727131E+02 -0.18897171341E+01  0.18273085125E+02  0.00000000000E+00 0. -1.
</event>
<event>
 7    1  0.1284645E-011  0.5930195E+02  0.7816164E-02  0.1266605E+00
        -11   -1    0    0    0    0  0.00000000000E+00  0.00000000000E+00  0.45593999997E+02  0.45594000000E+02  0.51100000000E-03 0.  1.
         11   -1    0    0    0    0 -0.00000000000E+00 -0.00000000000E+00 -0.45593999997E+02  0.45594000000E+02  0.51100000000E-03 0. -1.
    9900012    2    1    2    0    0 -0.10479975730E+01 -0.97399587089E+00  0.31853940078E+02  0.59301945597E+02  0.50000002862E+02 0.  0.
         12    1    1    2    0    0  0.10479975730E+01  0.97399587089E+00 -0.31853940078E+02  0.31886054403E+02  0.00000000000E+00 0. -1.
         11    1    3    3    0    0 -0.39341683797E+00 -0.16069614600E+02  0.19238395342E+02  0.25069965014E+02  0.51100000000E-03 0. -1.
        -11    1    3    3    0    0 -0.94180511372E+01  0.90612246303E-01  0.13919386686E+02  0.16806463750E+02  0.51100000000E-03 0.  1.
         12    1    3    3    0    0  0.87634704021E+01  0.15005006483E+02 -0.13038419499E+01  0.17425516833E+02  0.00000000000E+00 0. -1.
</event>
<event>
 7    1  0.1284645E-011  0.5930195E+02  0.7816164E-02  0.1266605E+00
        -11   -1    0    0    0    0  0.00000000000E+00  0.00000000000E+00  0.45593999997E+02  0.45594000000E+02  0.51100000000E-03 0. -1.
         11   -1    0    0    0    0 -0.00000000000E+00 -0.00000000000E+00 -0.45593999997E+02  0.45594000000E+02  0.51100000000E-03 0.  1.
    9900012    2    1    2    0    0 -0.85041677382E+00 -0.55756695271E+01 -0.31383261565E+02  0.59301946531E+02  0.50000004565E+02 0.  0.
         12    1    1    2    0    0  0.85041677382E+00  0.55756695271E+01  0.31383261565E+02  0.31886053469E+02  0.00000000000E+00 0. -1.
         11    1    3    3    0    0  0.13905610328E+01 -0.32533143499E+01  0.47514944090E+01  0.59240538169E+01  0.51100000000E-03 0. -1.
        -11    1    3    3    0    0 -0.40531590883E+01 -0.10848863664E+02  0.40420061242E+01  0.12266366828E+02  0.51100000000E-03 0.  1.
        -12    1    3    3    0    0  0.18121812816E+01  0.85265084866E+01 -0.40176762098E+02  0.41111525886E+02  0.00000000000E+00 0.  1.
</event>
<event>
 7    1  0.1284645E-011  0.5930207E+02  0.7816164E-02  0.1266604E+00
        -11   -1    0    0    0    0  0.00000000000E+00  0.00000000000E+00  0.45593999997E+02  0.45594000000E+02  0.51100000000E-03 0.  1.
         11   -1    0    0    0    0 -0.00000000000E+00 -0.00000000000E+00 -0.45593999997E+02  0.45594000000E+02  0.51100000000E-03 0. -1.
    9900012    2    1    2    0    0 -0.26092149293E+01  0.30609982830E+01  0.31631235615E+02  0.59302066118E+02  0.50000222662E+02 0.  0.
         12    1    1    2    0    0  0.26092149293E+01 -0.30609982830E+01 -0.31631235615E+02  0.31885933882E+02  0.00000000000E+00 0. -1.
         11    1    3    3    0    0 -0.98320458856E+01  0.89265369901E+01  0.38112953132E+02  0.40360245114E+02  0.51100000000E-03 0.  1.
        -11    1    3    3    0    0 -0.47212018905E+01 -0.19177983954E+01 -0.28957927074E+01  0.58611699891E+01  0.51100000000E-03 0. -1.
        -12    1    3    3    0    0  0.11944032847E+02 -0.39477403117E+01 -0.35859248103E+01  0.13080651014E+02  0.00000000000E+00 0.  1.
</event>
<event>
 7    1  0.1284645E-011  0.5930185E+02  0.7816164E-02  0.1266605E+00
        -11   -1    0    0    0    0  0.00000000000E+00  0.00000000000E+00  0.45593999997E+02  0.45594000000E+02  0.51100000000E-03 0.  1.
         11   -1    0    0    0    0 -0.00000000000E+00 -0.00000000000E+00 -0.45593999997E+02  0.45594000000E+02  0.51100000000E-03 0. -1.
    9900012    2    1    2    0    0 -0.27876952895E+02  0.92340614346E+00  0.15451527008E+02  0.59301845191E+02  0.49999819746E+02 0.  0.
         12    1    1    2    0    0  0.27876952895E+02 -0.92340614346E+00 -0.15451527008E+02  0.31886154809E+02  0.00000000000E+00 0. -1.
         11    1    3    3    0    0 -0.17334272228E+02  0.16180488281E+02  0.31409174655E+01  0.23919668841E+02  0.51100000000E-03 0. -1.
        -11    1    3    3    0    0 -0.39260096144E+01  0.79551275745E+01  0.17791631217E+01  0.90478189579E+01  0.51100000000E-03 0.  1.
        -12    1    3    3    0    0 -0.66166710529E+01 -0.23212209712E+02  0.10531446420E+02  0.26334357392E+02  0.00000000000E+00 0.  1.
</event>
<event>
 7    1  0.1284645E-011  0.5930193E+02  0.7816164E-02  0.1266605E+00
        -11   -1    0    0    0    0  0.00000000000E+00  0.00000000000E+00  0.45593999997E+02  0.45594000000E+02  0.51100000000E-03 0. -1.
         11   -1    0    0    0    0 -0.00000000000E+00 -0.00000000000E+00 -0.45593999997E+02  0.45594000000E+02  0.51100000000E-03 0.  1.
    9900012    2    1    2    0    0  0.11165153086E+02 -0.29220235590E+02 -0.61837273791E+01  0.59301932577E+02  0.49999979117E+02 0.  0.
         12    1    1    2    0    0 -0.11165153086E+02  0.29220235590E+02  0.61837273791E+01  0.31886067423E+02  0.00000000000E+00 0. -1.
         11    1    3    3    0    0  0.17075495177E+02 -0.10409394423E+02  0.15946416021E+02  0.25577650635E+02  0.51100000000E-03 0. -1.
        -11    1    3    3    0    0  0.16858694574E+01 -0.61991168900E+00  0.19187226370E+01  0.26282966249E+01  0.51100000000E-03 0.  1.
        -12    1    3    3    0    0 -0.75962115488E+01 -0.18190929479E+02 -0.24048866038E+02  0.31095985318E+02  0.00000000000E+00 0.  1.
</event>
<event>
 7    1  0.1284645E-011  0.5930173E+02  0.7816164E-02  0.1266606E+00
        -11   -1    0    0    0    0  0.00000000000E+00  0.00000000000E+00  0.45593999997E+02  0.45594000000E+02  0.51100000000E-03 0.  1.
         11   -1    0    0    0    0 -0.00000000000E+00 -0.00000000000E+00 -0.45593999997E+02  0.45594000000E+02  0.51100000000E-03 0. -1.
    9900012    2    1    2    0    0 -0.13204318574E+02  0.24141576719E+02  0.16111006062E+02  0.59301729101E+02  0.49999608024E+02 0.  0.
         12    1    1    2    0    0  0.13204318574E+02 -0.24141576719E+02 -0.16111006062E+02  0.31886270899E+02  0.00000000000E+00 0. -1.
         11    1    3    3    0    0 -0.31056554162E+01  0.10899796342E+02  0.13944677682E+02  0.17969549014E+02  0.51100000000E-03 0. -1.
        -11    1    3    3    0    0  0.13178155821E+02 -0.21466592165E+01  0.13012612538E+01  0.13415111544E+02  0.51100000000E-03 0.  1.
         12    1    3    3    0    0 -0.23276818979E+02  0.15388439593E+02  0.86506712639E+00  0.27917068543E+02  0.00000000000E+00 0. -1.
</event>
<event>
 7    1  0.1284645E-011  0.5930186E+02  0.7816164E-02  0.1266605E+00
        -11   -1    0    0    0    0  0.00000000000E+00  0.00000000000E+00  0.45593999997E+02  0.45594000000E+02  0.51100000000E-03 0.  1.
         11   -1    0    0    0    0 -0.00000000000E+00 -0.00000000000E+00 -0.45593999997E+02  0.45594000000E+02  0.51100000000E-03 0. -1.
    9900012    2    1    2    0    0  0.23748307146E+02  0.18419334816E+02  0.10652318662E+02  0.59301860688E+02  0.49999848008E+02 0.  0.
         12    1    1    2    0    0 -0.23748307146E+02 -0.18419334816E+02 -0.10652318662E+02  0.31886139312E+02  0.00000000000E+00 0. -1.
         11    1    3    3    0    0  0.62752357339E+01 -0.10489538766E+01 -0.53526224991E+00  0.63847782803E+01  0.51100000000E-03 0. -1.
        -11    1    3    3    0    0  0.21430341347E+02  0.78950956642E+00  0.22207644016E+02  0.30871707251E+02  0.51100000000E-03 0.  1.
         12    1    3    3    0    0 -0.39572699343E+01  0.18678779126E+02 -0.11020063104E+02  0.22045375156E+02  0.00000000000E+00 0. -1.
</event>
<event>
 7    1  0.1284645E-011  0.5930197E+02  0.7816164E-02  0.1266605E+00
        -11   -1    0    0    0    0  0.00000000000E+00  0.00000000000E+00  0.45593999997E+02  0.45594000000E+02  0.51100000000E-03 0. -1.
         11   -1    0    0    0    0 -0.00000000000E+00 -0.00000000000E+00 -0.45593999997E+02  0.45594000000E+02  0.51100000000E-03 0.  1.
    9900012    2    1    2    0    0 -0.17888610020E+02 -0.22039900664E+02 -0.14524442865E+02  0.59301968101E+02  0.50000043903E+02 0.  0.
         12    1    1    2    0    0  0.17888610020E+02  0.22039900664E+02  0.14524442865E+02  0.31886031899E+02  0.00000000000E+00 0. -1.
         11    1    3    3    0    0  0.46926163479E+01  0.12453363578E+02 -0.22718735639E+01  0.13500678588E+02  0.51100000000E-03 0. -1.
        -11    1    3    3    0    0 -0.14862695619E+01 -0.11468066541E+02 -0.84942374440E+01  0.14348436062E+02  0.51100000000E-03 0.  1.
        -12    1    3    3    0    0 -0.21094956806E+02 -0.23025197701E+02 -0.37583318569E+01  0.31452853450E+02  0.00000000000E+00 0.  1.
</event>
<event>
 7    1  0.1284645E-011  0.5930194E+02  0.7816164E-02  0.1266605E+00
        -11   -1    0    0    0    0  0.00000000000E+00  0.00000000000E+00  0.45593999997E+02  0.45594000000E+02  0.51100000000E-03 0.  1.
         11   -1    0    0    0    0 -0.00000000000E+00 -0.00000000000E+00 -0.45593999997E+02  0.45594000000E+02  0.51100000000E-03 0. -1.
    9900012    2    1    2    0    0 -0.55273862980E+00 -0.31711842589E+02  0.32823917783E+01  0.59301943860E+02  0.49999999694E+02 0.  0.
         12    1    1    2    0    0  0.55273862980E+00  0.31711842589E+02 -0.32823917783E+01  0.31886056140E+02  0.00000000000E+00 0. -1.
         11    1    3    3    0    0  0.11677054074E+02 -0.21129932831E+02 -0.32053067939E+01  0.24353678269E+02  0.51100000000E-03 0. -1.
        -11    1    3    3    0    0  0.83752074960E+01  0.16883298622E+01  0.68704233597E+01  0.10963451816E+02  0.51100000000E-03 0.  1.
         12    1    3    3    0    0 -0.20605000200E+02 -0.12270239620E+02 -0.38272478756E+00  0.23984813775E+02  0.00000000000E+00 0. -1.
</event>
<event>
 7    1  0.1284645E-011  0.5930193E+02  0.7816164E-02  0.1266605E+00
        -11   -1    0    0    0    0  0.00000000000E+00  0.00000000000E+00  0.45593999997E+02  0.45594000000E+02  0.51100000000E-03 0.  1.
         11   -1    0    0    0    0 -0.00000000000E+00 -0.00000000000E+00 -0.45593999997E+02  0.45594000000E+02  0.51100000000E-03 0. -1.
    9900012    2    1    2    0    0 -0.16670310862E+02 -0.95804564175E+01  0.25436922302E+02  0.59301930540E+02  0.49999975402E+02 0.  0.
         12    1    1    2    0    0  0.16670310862E+02  0.95804564175E+01 -0.25436922302E+02  0.31886069460E+02  0.00000000000E+00 0. -1.
         11    1    3    3    0    0 -0.12079745168E+02  0.16617378367E+02  0.46353863037E+01  0.21060491769E+02  0.51100000000E-03 0. -1.
        -11    1    3    3    0    0 -0.14262667555E+01 -0.11242766579E+01 -0.30119559622E+01  0.35171172628E+01  0.51100000000E-03 0.  1.
        -12    1    3    3    0    0 -0.31642989389E+01 -0.25073558127E+02  0.23813491960E+02  0.34724321509E+02  0.00000000000E+00 0.  1.
</event>
<event>
 7    1  0.1284645E-011  0.5930193E+02  0.7816164E-02  0.1266605E+00
        -11   -1    0    0    0    0  0.00000000000E+00  0.00000000000E+00  0.45593999997E+02  0.45594000000E+02  0.51100000000E-03 0.  1.
         11   -1    0    0    0    0 -0.00000000000E+00 -0.00000000000E+00 -0.45593999997E+02  0.45594000000E+02  0.51100000000E-03 0. -1.
    9900012    2    1    2    0    0  0.16273562878E+02  0.11524203049E+00  0.27420418327E+02  0.59301929833E+02  0.49999974112E+02 0.  0.
         12    1    1    2    0    0 -0.16273562878E+02 -0.11524203049E+00 -0.27420418327E+02  0.31886070167E+02  0.00000000000E+00 0. -1.
         11    1    3    3    0    0 -0.50447746929E+01 -0.10297454893E+02  0.14966160100E+02  0.18853998976E+02  0.51100000000E-03 0. -1.
        -11    1    3    3    0    0  0.13649452148E+02 -0.94815818788E+01  0.21197888264E+01  0.16754147063E+02  0.51100000000E-03 0.  1.
         12    1    3    3    0    0  0.76688854220E+01  0.19894278802E+02  0.10334469401E+02  0.23693783794E+02  0.00000000000E+00 0. -1.
</event>
<event>
 7    1  0.1284645E-011  0.5930195E+02  0.7816164E-02  0.1266605E+00
        -11   -1    0    0    0    0  0.00000000000E+00  0.00000000000E+00  0.45593999997E+02  0.45594000000E+02  0.51100000000E-03 0.  1.
         11   -1    0    0    0    0 -0.00000000000E+00 -0.00000000000E+00 -0.45593999997E+02  0.45594000000E+02  0.51100000000E-03 0. -1.
    9900012    2    1    2    0    0  0.10544847216E+02 -0.29764399956E+02  0.44279519789E+01  0.59301951856E+02  0.50000014276E+02 0.  0.
         12    1    1    2    0    0 -0.10544847216E+02  0.29764399956E+02 -0.44279519789E+01  0.31886048144E+02  0.00000000000E+00 0. -1.
         11    1    3    3    0    0 -0.18760723718E+01 -0.17075063030E+02  0.39773173471E+01  0.17632256763E+02  0.51100000000E-03 0.  1.
        -11    1    3    3    0    0 -0.12336127948E+02 -0.46357083387E+01  0.68618659674E+01  0.14857827882E+02  0.51100000000E-03 0. -1.
         12    1    3    3    0    0  0.24757047535E+02 -0.80536285870E+01 -0.64112313355E+01  0.26811867211E+02  0.00000000000E+00 0. -1.
</event>
<event>
 7    1  0.1284645E-011  0.5930191E+02  0.7816164E-02  0.1266605E+00
        -11   -1    0    0    0    0  0.00000000000E+00  0.00000000000E+00  0.45593999997E+02  0.45594000000E+02  0.51100000000E-03 0. -1.
         11   -1    0    0    0    0 -0.00000000000E+00 -0.00000000000E+00 -0.45593999997E+02  0.45594000000E+02  0.51100000000E-03 0.  1.
    9900012    2    1    2    0    0 -0.37636905733E+01 -0.30333439008E+02  0.90796462707E+01  0.59301907966E+02  0.49999934232E+02 0.  0.
         12    1    1    2    0    0  0.37636905733E+01  0.30333439008E+02 -0.90796462707E+01  0.31886092034E+02  0.00000000000E+00 0. -1.
         11    1    3    3    0    0 -0.97072859285E+01 -0.41553910502E+02  0.26371467793E+01  0.42754104148E+02  0.51100000000E-03 0.  1.
        -11    1    3    3    0    0 -0.63879536947E+00  0.36162126969E+01 -0.12571442737E+01  0.38814257405E+01  0.51100000000E-03 0. -1.
        -12    1    3    3    0    0  0.65823907247E+01  0.76042587965E+01  0.76996437651E+01  0.12666378078E+02  0.00000000000E+00 0.  1.
</event>
<event>
 7    1  0.1284645E-011  0.5930196E+02  0.7816164E-02  0.1266605E+00
        -11   -1    0    0    0    0  0.00000000000E+00  0.00000000000E+00  0.45593999997E+02  0.45594000000E+02  0.51100000000E-03 0. -1.
         11   -1    0    0    0    0 -0.00000000000E+00 -0.00000000000E+00 -0.45593999997E+02  0.45594000000E+02  0.51100000000E-03 0.  1.
    9900012    2    1    2    0    0 -0.27834587528E+02  0.13735612281E+02 -0.72998987006E+01  0.59301955582E+02  0.50000021073E+02 0.  0.
         12    1    1    2    0    0  0.27834587528E+02 -0.13735612281E+02  0.72998987006E+01  0.31886044418E+02  0.00000000000E+00 0. -1.
         11    1    3    3    0    0 -0.37406006158E+01  0.56667671050E+01  0.18019129053E+01  0.70250432575E+01  0.51100000000E-03 0. -1.
        -11    1    3    3    0    0 -0.20706799780E+02  0.15216098862E+02  0.13003550108E+02  0.28799193346E+02  0.51100000000E-03 0.  1.
        -12    1    3    3    0    0 -0.33871871315E+01 -0.71472536867E+01 -0.22105361714E+02  0.23477718979E+02  0.00000000000E+00 0.  1.
</event>
<event>
 7    1  0.1284645E-011  0.5930192E+02  0.7816164E-02  0.1266605E+00
        -11   -1    0    0    0    0  0.00000000000E+00  0.00000000000E+00  0.45593999997E+02  0.45594000000E+02  0.51100000000E-03 0. -1.
         11   -1    0    0    0    0 -0.00000000000E+00 -0.00000000000E+00 -0.45593999997E+02  0.45594000000E+02  0.51100000000E-03 0.  1.
    9900012    2    1    2    0    0 -0.10307561760E+02  0.28171486234E+02  0.10809409672E+02  0.59301924614E+02  0.49999964594E+02 0.  0.
         12    1    1    2    0    0  0.10307561760E+02 -0.28171486234E+02 -0.10809409672E+02  0.31886075386E+02  0.00000000000E+00 0. -1.
         11    1    3    3    0    0  0.21617768332E+01 -0.34069268568E+01 -0.10899665998E+02  0.11622527643E+02  0.51100000000E-03 0. -1.
        -11    1    3    3    0    0 -0.13383385765E+02  0.21956774103E+02  0.20777709600E+01  0.25797908364E+02  0.51100000000E-03 0.  1.
        -12    1    3    3    0    0  0.91404717118E+00  0.96216389873E+01  0.19631304710E+02  0.21881488607E+02  0.00000000000E+00 0.  1.
</event>
<event>
 7    1  0.1284645E-011  0.5930196E+02  0.7816164E-02  0.1266605E+00
        -11   -1    0    0    0    0  0.00000000000E+00  0.00000000000E+00  0.45593999997E+02  0.45594000000E+02  0.51100000000E-03 0. -1.
         11   -1    0    0    0    0 -0.00000000000E+00 -0.00000000000E+00 -0.45593999997E+02  0.45594000000E+02  0.51100000000E-03 0.  1.
    9900012    2    1    2    0    0  0.13031280921E+02 -0.27974010181E+02  0.80224861584E+01  0.59301955839E+02  0.50000021541E+02 0.  0.
         12    1    1    2    0    0 -0.13031280921E+02  0.27974010181E+02 -0.80224861584E+01  0.31886044161E+02  0.00000000000E+00 0. -1.
         11    1    3    3    0    0  0.22800966761E+02 -0.11812633319E+00 -0.74401781556E+01  0.23984459350E+02  0.51100000000E-03 0. -1.
        -11    1    3    3    0    0  0.20741596260E+01 -0.11669499199E+01  0.24906733542E+00  0.23928947049E+01  0.51100000000E-03 0.  1.
        -12    1    3    3    0    0 -0.11843845466E+02 -0.26688933928E+02  0.15213596979E+02  0.32924601785E+02  0.00000000000E+00 0.  1.
</event>
<event>
 7    1  0.1284645E-011  0.5930194E+02  0.7816164E-02  0.1266605E+00
        -11   -1    0    0    0    0  0.00000000000E+00  0.00000000000E+00  0.45593999997E+02  0.45594000000E+02  0.51100000000E-03 0.  1.
         11   -1    0    0    0    0 -0.00000000000E+00 -0.00000000000E+00 -0.45593999997E+02  0.45594000000E+02  0.51100000000E-03 0. -1.
    9900012    2    1    2    0    0 -0.12892660002E+02  0.26337411398E+02  0.12523611925E+02  0.59301940715E+02  0.49999993958E+02 0.  0.
         12    1    1    2    0    0  0.12892660002E+02 -0.26337411398E+02 -0.12523611925E+02  0.31886059285E+02  0.00000000000E+00 0. -1.
         11    1    3    3    0    0  0.63736631138E+00  0.19818339114E+02  0.13160942467E+00  0.19829022224E+02  0.51100000000E-03 0. -1.
        -11    1    3    3    0    0 -0.15378345683E+02  0.15449134610E+02  0.18422098055E+02  0.28540199249E+02  0.51100000000E-03 0.  1.
        -12    1    3    3    0    0  0.18483193692E+01 -0.89300623260E+01 -0.60300955541E+01  0.10932719242E+02  0.00000000000E+00 0.  1.
</event>
<event>
 7    1  0.1284645E-011  0.5930193E+02  0.7816164E-02  0.1266605E+00
        -11   -1    0    0    0    0  0.00000000000E+00  0.00000000000E+00  0.45593999997E+02  0.45594000000E+02  0.51100000000E-03 0. -1.
         11   -1    0    0    0    0 -0.00000000000E+00 -0.00000000000E+00 -0.45593999997E+02  0.45594000000E+02  0.51100000000E-03 0.  1.
    9900012    2    1    2    0    0  0.80794627442E+00  0.26078111112E+02 -0.18330322874E+02  0.59301931051E+02  0.49999976334E+02 0.  0.
         12    1    1    2    0    0 -0.80794627442E+00 -0.26078111112E+02  0.18330322874E+02  0.31886068949E+02  0.00000000000E+00 0. -1.
         11    1    3    3    0    0  0.27283094678E+01 -0.31061597622E+01  0.45666713467E+01  0.61600639989E+01  0.51100000000E-03 0. -1.
        -11    1    3    3    0    0  0.26708547678E+01 -0.79053201141E+01 -0.11229391251E+02  0.13990238720E+02  0.51100000000E-03 0.  1.
        -12    1    3    3    0    0 -0.45912179612E+01  0.37089590988E+02 -0.11667602969E+02  0.39151628333E+02  0.00000000000E+00 0.  1.
</event>
<event>
 7    1  0.1284645E-011  0.5930194E+02  0.7816164E-02  0.1266605E+00
        -11   -1    0    0    0    0  0.00000000000E+00  0.00000000000E+00  0.45593999997E+02  0.45594000000E+02  0.51100000000E-03 0.  1.
         11   -1    0    0    0    0 -0.00000000000E+00 -0.00000000000E+00 -0.45593999997E+02  0.45594000000E+02  0.51100000000E-03 0. -1.
    9900012    2    1    2    0    0 -0.91245117266E+01 -0.14702447073E+02  0.26782500334E+02  0.59301937397E+02  0.49999987908E+02 0.  0.
         12    1    1    2    0    0  0.91245117266E+01  0.14702447073E+02 -0.26782500334E+02  0.31886062603E+02  0.00000000000E+00 0. -1.
         11    1    3    3    0    0  0.65010922049E+01  0.54902103437E+01 -0.13907608387E+01  0.86221125860E+01  0.51100000000E-03 0. -1.
        -11    1    3    3    0    0  0.42989736218E+01 -0.16442294323E+02  0.24893773501E+02  0.30141834321E+02  0.51100000000E-03 0.  1.
         12    1    3    3    0    0 -0.19924577553E+02 -0.37503630936E+01  0.32794876710E+01  0.20537990491E+02  0.00000000000E+00 0. -1.
</event>
<event>
 7    1  0.1284645E-011  0.5930194E+02  0.7816164E-02  0.1266605E+00
        -11   -1    0    0    0    0  0.00000000000E+00  0.00000000000E+00  0.45593999997E+02  0.45594000000E+02  0.51100000000E-03 0.  1.
         11   -1    0    0    0    0 -0.00000000000E+00 -0.00000000000E+00 -0.45593999997E+02  0.45594000000E+02  0.51100000000E-03 0. -1.
    9900012    2    1    2    0    0 -0.28121100269E+02  0.14928179783E+02  0.17533063277E+01  0.59301938546E+02  0.49999990003E+02 0.  0.
         12    1    1    2    0    0  0.28121100269E+02 -0.14928179783E+02 -0.17533063277E+01  0.31886061454E+02  0.00000000000E+00 0. -1.
         11    1    3    3    0    0 -0.10421098715E+02  0.92361350665E+00  0.57480375122E+01  0.11937013690E+02  0.51100000000E-03 0. -1.
        -11    1    3    3    0    0 -0.15905006036E+02  0.71193506278E+01  0.17516205052E+02  0.24707727739E+02  0.51100000000E-03 0.  1.
         12    1    3    3    0    0 -0.17949955181E+01  0.68852156481E+01 -0.21510936236E+02  0.22657197117E+02  0.00000000000E+00 0. -1.
</event>
<event>
 7    1  0.1284645E-011  0.5930195E+02  0.7816164E-02  0.1266605E+00
        -11   -1    0    0    0    0  0.00000000000E+00  0.00000000000E+00  0.45593999997E+02  0.45594000000E+02  0.51100000000E-03 0. -1.
         11   -1    0    0    0    0 -0.00000000000E+00 -0.00000000000E+00 -0.45593999997E+02  0.45594000000E+02  0.51100000000E-03 0.  1.
    9900012    2    1    2    0    0  0.23411902467E+02  0.18609066882E+02 -0.11059198620E+02  0.59301946286E+02  0.50000004118E+02 0.  0.
         12    1    1    2    0    0 -0.23411902467E+02 -0.18609066882E+02  0.11059198620E+02  0.31886053714E+02  0.00000000000E+00 0. -1.
         11    1    3    3    0    0 -0.10738463981E+02  0.45548426826E+01 -0.13206251050E+01  0.11739048149E+02  0.51100000000E-03 0. -1.
        -11    1    3    3    0    0  0.13717421189E+01  0.41522869819E+01 -0.12468043082E+02  0.13212693222E+02  0.51100000000E-03 0.  1.
         12    1    3    3    0    0  0.32778624329E+02  0.99019372172E+01  0.27294695671E+01  0.34350204914E+02  0.00000000000E+00 0. -1.
</event>
<event>
 7    1  0.1284645E-011  0.5930195E+02  0.7816164E-02  0.1266605E+00
        -11   -1    0    0    0    0  0.00000000000E+00  0.00000000000E+00  0.45593999997E+02  0.45594000000E+02  0.51100000000E-03 0. -1.
         11   -1    0    0    0    0 -0.00000000000E+00 -0.00000000000E+00 -0.45593999997E+02  0.45594000000E+02  0.51100000000E-03 0.  1.
    9900012    2    1    2    0    0 -0.15249826783E+02  0.24097734119E+02  0.14264024928E+02  0.59301946407E+02  0.50000004340E+02 0.  0.
         12    1    1    2    0    0  0.15249826783E+02 -0.24097734119E+02 -0.14264024928E+02  0.31886053593E+02  0.00000000000E+00 0. -1.
         11    1    3    3    0    0 -0.20308526034E+02  0.10281644935E+02  0.98672249818E+01  0.24809485713E+02  0.51100000000E-03 0. -1.
        -11    1    3    3    0    0 -0.88911713379E+00  0.23111804765E+02  0.38150464558E+01  0.23441429745E+02  0.51100000000E-03 0.  1.
         12    1    3    3    0    0  0.59478163849E+01 -0.92957155813E+01  0.58175349037E+00  0.11051030949E+02  0.00000000000E+00 0. -1.
</event>
<event>
 7    1  0.1284645E-011  0.5930187E+02  0.7816164E-02  0.1266605E+00
        -11   -1    0    0    0    0  0.00000000000E+00  0.00000000000E+00  0.45593999997E+02  0.45594000000E+02  0.51100000000E-03 0. -1.
         11   -1    0    0    0    0 -0.00000000000E+00 -0.00000000000E+00 -0.45593999997E+02  0.45594000000E+02  0.51100000000E-03 0.  1.
    9900012    2    1    2    0    0 -0.29821763728E+02  0.84027341827E+01 -0.75353580246E+01  0.59301872073E+02  0.49999868772E+02 0.  0.
         12    1    1    2    0    0  0.29821763728E+02 -0.84027341827E+01  0.75353580246E+01  0.31886127927E+02  0.00000000000E+00 0. -1.
         11    1    3    3    0    0  0.47791375995E+01  0.12087783987E+00  0.18433415717E+01  0.51237365328E+01  0.51100000000E-03 0. -1.
        -11    1    3    3    0    0  0.31491995617E+01  0.10641530502E+02  0.68263156714E+01  0.13029129488E+02  0.51100000000E-03 0.  1.
        -12    1    3    3    0    0 -0.37750100889E+02 -0.23596741588E+01 -0.16205015268E+02  0.41149006053E+02  0.00000000000E+00 0.  1.
</event>
<event>
 7    1  0.1284645E-011  0.5930193E+02  0.7816164E-02  0.1266605E+00
        -11   -1    0    0    0    0  0.00000000000E+00  0.00000000000E+00  0.45593999997E+02  0.45594000000E+02  0.51100000000E-03 0.  1.
         11   -1    0    0    0    0 -0.00000000000E+00 -0.00000000000E+00 -0.45593999997E+02  0.45594000000E+02  0.51100000000E-03 0. -1.
    9900012    2    1    2    0    0  0.26020268784E+02 -0.36111602152E+01  0.18072820874E+02  0.59301925924E+02  0.49999966983E+02 0.  0.
         12    1    1    2    0    0 -0.26020268784E+02  0.36111602152E+01 -0.18072820874E+02  0.31886074076E+02  0.00000000000E+00 0. -1.
         11    1    3    3    0    0 -0.57624467067E+01 -0.14612636487E+01  0.79603765765E+00  0.59978962739E+01  0.51100000000E-03 0. -1.
        -11    1    3    3    0    0  0.32909081650E+02  0.81514615127E+01  0.23467234100E+02  0.41233057810E+02  0.51100000000E-03 0.  1.
         12    1    3    3    0    0 -0.11263661595E+01 -0.10301358079E+02 -0.61904508840E+01  0.12070971839E+02  0.00000000000E+00 0. -1.
</event>
<event>
 7    1  0.1284645E-011  0.5930193E+02  0.7816164E-02  0.1266605E+00
        -11   -1    0    0    0    0  0.00000000000E+00  0.00000000000E+00  0.45593999997E+02  0.45594000000E+02  0.51100000000E-03 0. -1.
         11   -1    0    0    0    0 -0.00000000000E+00 -0.00000000000E+00 -0.45593999997E+02  0.45594000000E+02  0.51100000000E-03 0.  1.
    9900012    2    1    2    0    0  0.15415120142E+02  0.21380117758E+02  0.17943962955E+02  0.59301934534E+02  0.49999982686E+02 0.  0.
         12    1    1    2    0    0 -0.15415120142E+02 -0.21380117758E+02 -0.17943962955E+02  0.31886065466E+02  0.00000000000E+00 0. -1.
         11    1    3    3    0    0 -0.44599004258E+01  0.17925899214E+02 -0.57205734572E+01  0.19337878254E+02  0.51100000000E-03 0.  1.
        -11    1    3    3    0    0 -0.48132148528E+01 -0.84245791074E+00  0.10670555856E+02  0.11736163559E+02  0.51100000000E-03 0. -1.
         12    1    3    3    0    0  0.24688235421E+02  0.42966764554E+01  0.12993980556E+02  0.28227892721E+02  0.00000000000E+00 0. -1.
</event>
<event>
 7    1  0.1284645E-011  0.5930194E+02  0.7816164E-02  0.1266605E+00
        -11   -1    0    0    0    0  0.00000000000E+00  0.00000000000E+00  0.45593999997E+02  0.45594000000E+02  0.51100000000E-03 0.  1.
         11   -1    0    0    0    0 -0.00000000000E+00 -0.00000000000E+00 -0.45593999997E+02  0.45594000000E+02  0.51100000000E-03 0. -1.
    9900012    2    1    2    0    0 -0.29155514392E+02  0.12299425968E+02  0.39243902030E+01  0.59301941337E+02  0.49999995093E+02 0.  0.
         12    1    1    2    0    0  0.29155514392E+02 -0.12299425968E+02 -0.39243902030E+01  0.31886058663E+02  0.00000000000E+00 0. -1.
         11    1    3    3    0    0  0.60437022888E+01 -0.62026486681E+01  0.10889332379E+01  0.87283998369E+01  0.51100000000E-03 0. -1.
        -11    1    3    3    0    0 -0.21276417633E+01  0.17022560732E+02  0.32807078122E+01  0.17465894691E+02  0.51100000000E-03 0.  1.
        -12    1    3    3    0    0 -0.33071574917E+02  0.14795139042E+01 -0.44525084708E+00  0.33107646809E+02  0.00000000000E+00 0.  1.
</event>
<event>
 7    1  0.1284645E-011  0.5930195E+02  0.7816164E-02  0.1266605E+00
        -11   -1    0    0    0    0  0.00000000000E+00  0.00000000000E+00  0.45593999997E+02  0.45594000000E+02  0.51100000000E-03 0. -1.
         11   -1    0    0    0    0 -0.00000000000E+00 -0.00000000000E+00 -0.45593999997E+02  0.45594000000E+02  0.51100000000E-03 0.  1.
    9900012    2    1    2    0    0 -0.31157012371E+02  0.15829107115E+01  0.65920403196E+01  0.59301952553E+02  0.50000015549E+02 0.  0.
         12    1    1    2    0    0  0.31157012371E+02 -0.15829107115E+01 -0.65920403196E+01  0.31886047447E+02  0.00000000000E+00 0. -1.
         11    1    3    3    0    0  0.80766397396E+00  0.97345653308E+01  0.77333271356E+01  0.12458668955E+02  0.51100000000E-03 0. -1.
        -11    1    3    3    0    0 -0.15079547409E+02  0.77297160113E+01 -0.12473616073E+02  0.21041206189E+02  0.51100000000E-03 0.  1.
         12    1    3    3    0    0 -0.16885128936E+02 -0.15881370631E+02  0.11332329257E+02  0.25802077410E+02  0.00000000000E+00 0. -1.
</event>
<event>
 7    1  0.1284645E-011  0.5930193E+02  0.7816164E-02  0.1266605E+00
        -11   -1    0    0    0    0  0.00000000000E+00  0.00000000000E+00  0.45593999997E+02  0.45594000000E+02  0.51100000000E-03 0. -1.
         11   -1    0    0    0    0 -0.00000000000E+00 -0.00000000000E+00 -0.45593999997E+02  0.45594000000E+02  0.51100000000E-03 0.  1.
    9900012    2    1    2    0    0 -0.20426431271E+02  0.15291997861E+01 -0.24436528603E+02  0.59301929740E+02  0.49999973943E+02 0.  0.
         12    1    1    2    0    0  0.20426431271E+02 -0.15291997861E+01  0.24436528603E+02  0.31886070260E+02  0.00000000000E+00 0. -1.
         11    1    3    3    0    0  0.53642418255E+01 -0.23793032737E+00  0.43691114873E+01  0.69224877503E+01  0.51100000000E-03 0. -1.
        -11    1    3    3    0    0 -0.38215392715E+01 -0.46936106919E+01  0.73875230951E+01  0.95503738917E+01  0.51100000000E-03 0.  1.
        -12    1    3    3    0    0 -0.21969133825E+02  0.64607408053E+01 -0.36193163186E+02  0.42829068098E+02  0.00000000000E+00 0.  1.
</event>
<event>
 7    1  0.1284645E-011  0.5930193E+02  0.7816164E-02  0.1266605E+00
        -11   -1    0    0    0    0  0.00000000000E+00  0.00000000000E+00  0.45593999997E+02  0.45594000000E+02  0.51100000000E-03 0.  1.
         11   -1    0    0    0    0 -0.00000000000E+00 -0.00000000000E+00 -0.45593999997E+02  0.45594000000E+02  0.51100000000E-03 0. -1.
    9900012    2    1    2    0    0  0.91405355020E+01  0.25271186895E+02 -0.17162136224E+02  0.59301934139E+02  0.49999981965E+02 0.  0.
         12    1    1    2    0    0 -0.91405355020E+01 -0.25271186895E+02  0.17162136224E+02  0.31886065861E+02  0.00000000000E+00 0. -1.
         11    1    3    3    0    0 -0.10884684742E+02 -0.85623758868E+01 -0.11695329580E+02  0.18126537921E+02  0.51100000000E-03 0. -1.
        -11    1    3    3    0    0  0.72138386062E+01  0.13554941365E+02 -0.75268366506E+01  0.17100560607E+02  0.51100000000E-03 0.  1.
        -12    1    3    3    0    0  0.12811381638E+02  0.20278621417E+02  0.20600300065E+01  0.24074835610E+02  0.00000000000E+00 0.  1.
</event>
<event>
 7    1  0.1284645E-011  0.5930191E+02  0.7816164E-02  0.1266605E+00
        -11   -1    0    0    0    0  0.00000000000E+00  0.00000000000E+00  0.45593999997E+02  0.45594000000E+02  0.51100000000E-03 0.  1.
         11   -1    0    0    0    0 -0.00000000000E+00 -0.00000000000E+00 -0.45593999997E+02  0.45594000000E+02  0.51100000000E-03 0. -1.
    9900012    2    1    2    0    0  0.31660251201E+02 -0.15444573199E+01  0.34591986969E+01  0.59301907262E+02  0.49999932947E+02 0.  0.
         12    1    1    2    0    0 -0.31660251201E+02  0.15444573199E+01 -0.34591986969E+01  0.31886092738E+02  0.00000000000E+00 0. -1.
         11    1    3    3    0    0 -0.68228004610E+00  0.79091772821E+01 -0.59959619857E+01  0.99484748447E+01  0.51100000000E-03 0. -1.
        -11    1    3    3    0    0  0.22829742226E+02  0.39409498438E+01 -0.88106678306E+01  0.24786207529E+02  0.51100000000E-03 0.  1.
        -12    1    3    3    0    0  0.95127890208E+01 -0.13394584446E+02  0.18265828513E+02  0.24567224888E+02  0.00000000000E+00 0.  1.
</event>
<event>
 7    1  0.1284645E-011  0.5930195E+02  0.7816164E-02  0.1266605E+00
        -11   -1    0    0    0    0  0.00000000000E+00  0.00000000000E+00  0.45593999997E+02  0.45594000000E+02  0.51100000000E-03 0.  1.
         11   -1    0    0    0    0 -0.00000000000E+00 -0.00000000000E+00 -0.45593999997E+02  0.45594000000E+02  0.51100000000E-03 0. -1.
    9900012    2    1    2    0    0 -0.16982506357E+01 -0.30034891388E+02 -0.10570784787E+02  0.59301949023E+02  0.50000009110E+02 0.  0.
         12    1    1    2    0    0  0.16982506357E+01  0.30034891388E+02  0.10570784787E+02  0.31886050977E+02  0.00000000000E+00 0. -1.
         11    1    3    3    0    0  0.11062287311E+02 -0.13253252245E+02 -0.16230669119E+02  0.23695094765E+02  0.51100000000E-03 0. -1.
        -11    1    3    3    0    0 -0.64677854137E+01 -0.19244049661E+02 -0.68184921154E+01  0.21416291240E+02  0.51100000000E-03 0.  1.
        -12    1    3    3    0    0 -0.62927525326E+01  0.24624105181E+01  0.12478376447E+02  0.14190563018E+02  0.00000000000E+00 0.  1.
</event>
<event>
 7    1  0.1284645E-011  0.5930188E+02  0.7816164E-02  0.1266605E+00
        -11   -1    0    0    0    0  0.00000000000E+00  0.00000000000E+00  0.45593999997E+02  0.45594000000E+02  0.51100000000E-03 0.  1.
         11   -1    0    0    0    0 -0.00000000000E+00 -0.00000000000E+00 -0.45593999997E+02  0.45594000000E+02  0.51100000000E-03 0. -1.
    9900012    2    1    2    0    0  0.11395588153E+02  0.17691744830E+02  0.23955527691E+02  0.59301881210E+02  0.49999885436E+02 0.  0.
         12    1    1    2    0    0 -0.11395588153E+02 -0.17691744830E+02 -0.23955527691E+02  0.31886118790E+02  0.00000000000E+00 0. -1.
         11    1    3    3    0    0 -0.62631657367E+01  0.12588960520E+02 -0.32450406676E+01  0.14430504538E+02  0.51100000000E-03 0. -1.
        -11    1    3    3    0    0  0.60831641394E+01  0.14222545274E+02  0.18907491703E+01  0.15583985777E+02  0.51100000000E-03 0.  1.
        -12    1    3    3    0    0  0.11575589750E+02 -0.91197609635E+01  0.25309819189E+02  0.29287390895E+02  0.00000000000E+00 0.  1.
</event>
<event>
 7    1  0.1284645E-011  0.5930194E+02  0.7816164E-02  0.1266605E+00
        -11   -1    0    0    0    0  0.00000000000E+00  0.00000000000E+00  0.45593999997E+02  0.45594000000E+02  0.51100000000E-03 0. -1.
         11   -1    0    0    0    0 -0.00000000000E+00 -0.00000000000E+00 -0.45593999997E+02  0.45594000000E+02  0.51100000000E-03 0.  1.
    9900012    2    1    2    0    0  0.26686095154E+02 -0.94769492697E+01 -0.14654715618E+02  0.59301938282E+02  0.49999989521E+02 0.  0.
         12    1    1    2    0    0 -0.26686095154E+02  0.94769492697E+01  0.14654715618E+02  0.31886061718E+02  0.00000000000E+00 0. -1.
         11    1    3    3    0    0 -0.12138754780E+01  0.83042984176E+01 -0.31185821138E+01  0.89532352000E+01  0.51100000000E-03 0. -1.
        -11    1    3    3    0    0  0.34008342533E+02 -0.92485303158E+01 -0.16292682254E+02  0.38827234902E+02  0.51100000000E-03 0.  1.
         12    1    3    3    0    0 -0.61083719009E+01 -0.85327173715E+01  0.47565487492E+01  0.11521468180E+02  0.00000000000E+00 0. -1.
</event>
<event>
 7    1  0.1284645E-011  0.5930198E+02  0.7816164E-02  0.1266605E+00
        -11   -1    0    0    0    0  0.00000000000E+00  0.00000000000E+00  0.45593999997E+02  0.45594000000E+02  0.51100000000E-03 0.  1.
         11   -1    0    0    0    0 -0.00000000000E+00 -0.00000000000E+00 -0.45593999997E+02  0.45594000000E+02  0.51100000000E-03 0. -1.
    9900012    2    1    2    0    0 -0.54415350061E+01 -0.10022762145E+02  0.29776705178E+02  0.59301980564E+02  0.50000066633E+02 0.  0.
         12    1    1    2    0    0  0.54415350061E+01  0.10022762145E+02 -0.29776705178E+02  0.31886019436E+02  0.00000000000E+00 0. -1.
         11    1    3    3    0    0  0.13711746443E+02 -0.86778672617E+01  0.99427445350E+01  0.19030910117E+02  0.51100000000E-03 0.  1.
        -11    1    3    3    0    0 -0.14196416117E+02 -0.87709527682E+01  0.24923314713E+02  0.29993990391E+02  0.51100000000E-03 0. -1.
         12    1    3    3    0    0 -0.49568653324E+01  0.74260578848E+01 -0.50893540696E+01  0.10277080056E+02  0.00000000000E+00 0. -1.
</event>
<event>
 7    1  0.1284645E-011  0.5930192E+02  0.7816164E-02  0.1266605E+00
        -11   -1    0    0    0    0  0.00000000000E+00  0.00000000000E+00  0.45593999997E+02  0.45594000000E+02  0.51100000000E-03 0. -1.
         11   -1    0    0    0    0 -0.00000000000E+00 -0.00000000000E+00 -0.45593999997E+02  0.45594000000E+02  0.51100000000E-03 0.  1.
    9900012    2    1    2    0    0  0.24842942620E+02 -0.12414852996E+02 -0.15665936183E+02  0.59301922639E+02  0.49999960993E+02 0.  0.
         12    1    1    2    0    0 -0.24842942620E+02  0.12414852996E+02  0.15665936183E+02  0.31886077361E+02  0.00000000000E+00 0. -1.
         11    1    3    3    0    0  0.26279094620E+02 -0.23139149269E+02 -0.21302776697E+02  0.40985599156E+02  0.51100000000E-03 0. -1.
        -11    1    3    3    0    0  0.13832551830E+01 -0.51424461471E+00 -0.33449025542E+01  0.36559835589E+01  0.51100000000E-03 0.  1.
         12    1    3    3    0    0 -0.28194071828E+01  0.11238540888E+02  0.89817430676E+01  0.14660339924E+02  0.00000000000E+00 0. -1.
</event>
<event>
 7    1  0.1284645E-011  0.5930195E+02  0.7816164E-02  0.1266605E+00
        -11   -1    0    0    0    0  0.00000000000E+00  0.00000000000E+00  0.45593999997E+02  0.45594000000E+02  0.51100000000E-03 0. -1.
         11   -1    0    0    0    0 -0.00000000000E+00 -0.00000000000E+00 -0.45593999997E+02  0.45594000000E+02  0.51100000000E-03 0.  1.
    9900012    2    1    2    0    0 -0.17603441722E+02 -0.53314407527E+01 -0.26046400136E+02  0.59301946920E+02  0.50000005275E+02 0.  0.
         12    1    1    2    0    0  0.17603441722E+02  0.53314407527E+01  0.26046400136E+02  0.31886053080E+02  0.00000000000E+00 0. -1.
         11    1    3    3    0    0 -0.23827923075E+01  0.37486807760E+00 -0.12541751393E+02  0.12771599489E+02  0.51100000000E-03 0. -1.
        -11    1    3    3    0    0  0.50935152973E+01 -0.20560237004E+01 -0.23118157755E+02  0.23761741303E+02  0.51100000000E-03 0.  1.
         12    1    3    3    0    0 -0.20314164712E+02 -0.36502851299E+01  0.96135090115E+01  0.22768606128E+02  0.00000000000E+00 0. -1.
</event>
<event>
 7    1  0.1284645E-011  0.5930194E+02  0.7816164E-02  0.1266605E+00
        -11   -1    0    0    0    0  0.00000000000E+00  0.00000000000E+00  0.45593999997E+02  0.45594000000E+02  0.51100000000E-03 0. -1.
         11   -1    0    0    0    0 -0.00000000000E+00 -0.00000000000E+00 -0.45593999997E+02  0.45594000000E+02  0.51100000000E-03 0.  1.
    9900012    2    1    2    0    0 -0.19759042315E+01  0.20608144535E+02 -0.24251206662E+02  0.59301939671E+02  0.49999992055E+02 0.  0.
         12    1    1    2    0    0  0.19759042315E+01 -0.20608144535E+02  0.24251206662E+02  0.31886060329E+02  0.00000000000E+00 0. -1.
         11    1    3    3    0    0 -0.73643271709E+01  0.22361852921E+02 -0.53228520025E+01  0.24137492298E+02  0.51100000000E-03 0. -1.
        -11    1    3    3    0    0 -0.11037090544E+02 -0.31252645570E+01 -0.13708947282E+02  0.17875119078E+02  0.51100000000E-03 0.  1.
        -12    1    3    3    0    0  0.16425513483E+02  0.13715561706E+01 -0.52194073780E+01  0.17289328295E+02  0.00000000000E+00 0.  1.
</event>
<event>
 7    1  0.1284645E-011  0.5930195E+02  0.7816164E-02  0.1266605E+00
        -11   -1    0    0    0    0  0.00000000000E+00  0.00000000000E+00  0.45593999997E+02  0.45594000000E+02  0.51100000000E-03 0.  1.
         11   -1    0    0    0    0 -0.00000000000E+00 -0.00000000000E+00 -0.45593999997E+02  0.45594000000E+02  0.51100000000E-03 0. -1.
    9900012    2    1    2    0    0  0.28378697250E+02  0.81193608187E+01  0.12060083586E+02  0.59301951424E+02  0.50000013488E+02 0.  0.
         12    1    1    2    0    0 -0.28378697250E+02 -0.81193608187E+01 -0.12060083586E+02  0.31886048576E+02  0.00000000000E+00 0. -1.
         11    1    3    3    0    0  0.30379874389E+02 -0.67585314966E+01  0.95541446889E+01  0.32556047009E+02  0.51100000000E-03 0. -1.
        -11    1    3    3    0    0  0.39342689358E+01  0.12370907181E+02  0.10344581918E+02  0.16599041896E+02  0.51100000000E-03 0.  1.
        -12    1    3    3    0    0 -0.59354460742E+01  0.25069851340E+01 -0.78386430209E+01  0.10146862519E+02  0.00000000000E+00 0.  1.
</event>
<event>
 7    1  0.1284645E-011  0.5930195E+02  0.7816164E-02  0.1266605E+00
        -11   -1    0    0    0    0  0.00000000000E+00  0.00000000000E+00  0.45593999997E+02  0.45594000000E+02  0.51100000000E-03 0.  1.
         11   -1    0    0    0    0 -0.00000000000E+00 -0.00000000000E+00 -0.45593999997E+02  0.45594000000E+02  0.51100000000E-03 0. -1.
    9900012    2    1    2    0    0  0.18833921956E+02  0.23202244902E+02  0.11120211228E+02  0.59301954737E+02  0.50000019532E+02 0.  0.
         12    1    1    2    0    0 -0.18833921956E+02 -0.23202244902E+02 -0.11120211228E+02  0.31886045263E+02  0.00000000000E+00 0. -1.
         11    1    3    3    0    0  0.34919917693E+00  0.13958801439E+02  0.77155181894E+01  0.15953034159E+02  0.51100000000E-03 0. -1.
        -11    1    3    3    0    0  0.54587573073E+01  0.23028408846E+02  0.54112029986E+01  0.24277289047E+02  0.51100000000E-03 0.  1.
         12    1    3    3    0    0  0.13025965472E+02 -0.13784965383E+02 -0.20065099598E+01  0.19071631532E+02  0.00000000000E+00 0. -1.
</event>
<event>
 7    1  0.1284645E-011  0.5930193E+02  0.7816164E-02  0.1266605E+00
        -11   -1    0    0    0    0  0.00000000000E+00  0.00000000000E+00  0.45593999997E+02  0.45594000000E+02  0.51100000000E-03 0.  1.
         11   -1    0    0    0    0 -0.00000000000E+00 -0.00000000000E+00 -0.45593999997E+02  0.45594000000E+02  0.51100000000E-03 0. -1.
    9900012    2    1    2    0    0 -0.22097210352E+02  0.21861801326E+02 -0.71061013398E+01  0.59301925629E+02  0.49999966445E+02 0.  0.
         12    1    1    2    0    0  0.22097210352E+02 -0.21861801326E+02  0.71061013398E+01  0.31886074371E+02  0.00000000000E+00 0. -1.
         11    1    3    3    0    0 -0.18768317501E+02  0.63067819500E+01 -0.26548327498E+01  0.19976821007E+02  0.51100000000E-03 0. -1.
        -11    1    3    3    0    0  0.47911073291E+01  0.53390368763E+01  0.14580095589E+02  0.16249283426E+02  0.51100000000E-03 0.  1.
         12    1    3    3    0    0 -0.81200001803E+01  0.10215982499E+02 -0.19031364179E+02  0.23075821196E+02  0.00000000000E+00 0. -1.
</event>
<event>
 7    1  0.1284645E-011  0.5930192E+02  0.7816164E-02  0.1266605E+00
        -11   -1    0    0    0    0  0.00000000000E+00  0.00000000000E+00  0.45593999997E+02  0.45594000000E+02  0.51100000000E-03 0.  1.
         11   -1    0    0    0    0 -0.00000000000E+00 -0.00000000000E+00 -0.45593999997E+02  0.45594000000E+02  0.51100000000E-03 0. -1.
    9900012    2    1    2    0    0 -0.14093805628E+02  0.21157698653E+02  0.19246781184E+02  0.59301919097E+02  0.49999954533E+02 0.  0.
         12    1    1    2    0    0  0.14093805628E+02 -0.21157698653E+02 -0.19246781184E+02  0.31886080903E+02  0.00000000000E+00 0. -1.
         11    1    3    3    0    0  0.10147319220E+02 -0.60433428083E+01  0.58118104392E+01  0.13163100717E+02  0.51100000000E-03 0. -1.
        -11    1    3    3    0    0  0.47742274483E+01  0.27656948697E+01  0.46150327055E+01  0.71931107996E+01  0.51100000000E-03 0.  1.
        -12    1    3    3    0    0 -0.29015352296E+02  0.24435346592E+02  0.88199380393E+01  0.38945707581E+02  0.00000000000E+00 0.  1.
</event>
<event>
 7    1  0.1284645E-011  0.5930196E+02  0.7816164E-02  0.1266605E+00
        -11   -1    0    0    0    0  0.00000000000E+00  0.00000000000E+00  0.45593999997E+02  0.45594000000E+02  0.51100000000E-03 0.  1.
         11   -1    0    0    0    0 -0.00000000000E+00 -0.00000000000E+00 -0.45593999997E+02  0.45594000000E+02  0.51100000000E-03 0. -1.
    9900012    2    1    2    0    0 -0.16858081782E+02 -0.26751934868E+02  0.41059207694E+01  0.59301960329E+02  0.50000029730E+02 0.  0.
         12    1    1    2    0    0  0.16858081782E+02  0.26751934868E+02 -0.41059207694E+01  0.31886039671E+02  0.00000000000E+00 0. -1.
         11    1    3    3    0    0 -0.66543231951E+01 -0.29963217475E+01  0.10316631440E+02  0.12636884336E+02  0.51100000000E-03 0.  1.
        -11    1    3    3    0    0  0.10423417270E+02 -0.12522033087E+02 -0.14446789328E+02  0.21775184554E+02  0.51100000000E-03 0. -1.
         12    1    3    3    0    0 -0.20627175857E+02 -0.11233580033E+02  0.82360786576E+01  0.24889891439E+02  0.00000000000E+00 0. -1.
</event>
<event>
 7    1  0.1284645E-011  0.5930200E+02  0.7816164E-02  0.1266605E+00
        -11   -1    0    0    0    0  0.00000000000E+00  0.00000000000E+00  0.45593999997E+02  0.45594000000E+02  0.51100000000E-03 0. -1.
         11   -1    0    0    0    0 -0.00000000000E+00 -0.00000000000E+00 -0.45593999997E+02  0.45594000000E+02  0.51100000000E-03 0.  1.
    9900012    2    1    2    0    0  0.52147070841E+01 -0.16268899761E+02 -0.26922980945E+02  0.59301997235E+02  0.50000097037E+02 0.  0.
         12    1    1    2    0    0 -0.52147070841E+01  0.16268899761E+02  0.26922980945E+02  0.31886002765E+02  0.00000000000E+00 0. -1.
         11    1    3    3    0    0  0.75660768970E+01 -0.19684275762E+01 -0.11552484884E+01  0.79028365835E+01  0.51100000000E-03 0. -1.
        -11    1    3    3    0    0  0.19163466303E+02 -0.12507592186E+02 -0.13321927645E+02  0.26479276037E+02  0.51100000000E-03 0.  1.
         12    1    3    3    0    0 -0.21514836116E+02 -0.17928799991E+01 -0.12445804811E+02  0.24919884614E+02  0.00000000000E+00 0. -1.
</event>
<event>
 7    1  0.1284645E-011  0.5930191E+02  0.7816164E-02  0.1266605E+00
        -11   -1    0    0    0    0  0.00000000000E+00  0.00000000000E+00  0.45593999997E+02  0.45594000000E+02  0.51100000000E-03 0. -1.
         11   -1    0    0    0    0 -0.00000000000E+00 -0.00000000000E+00 -0.45593999997E+02  0.45594000000E+02  0.51100000000E-03 0.  1.
    9900012    2    1    2    0    0  0.10315775976E+02 -0.28482388449E+02 -0.99529457006E+01  0.59301908771E+02  0.49999935700E+02 0.  0.
         12    1    1    2    0    0 -0.10315775976E+02  0.28482388449E+02  0.99529457006E+01  0.31886091229E+02  0.00000000000E+00 0. -1.
         11    1    3    3    0    0  0.49276618352E+01 -0.10582384804E+01  0.11334477540E+02  0.12404519386E+02  0.51100000000E-03 0. -1.
        -11    1    3    3    0    0 -0.68616406422E+01 -0.27189337178E+02 -0.87686773550E+01  0.29380807874E+02  0.51100000000E-03 0.  1.
        -12    1    3    3    0    0  0.12249754783E+02 -0.23481279076E+00 -0.12518745885E+02  0.17516581511E+02  0.00000000000E+00 0.  1.
</event>
<event>
 7    1  0.1284645E-011  0.5930199E+02  0.7816164E-02  0.1266605E+00
        -11   -1    0    0    0    0  0.00000000000E+00  0.00000000000E+00  0.45593999997E+02  0.45594000000E+02  0.51100000000E-03 0.  1.
         11   -1    0    0    0    0 -0.00000000000E+00 -0.00000000000E+00 -0.45593999997E+02  0.45594000000E+02  0.51100000000E-03 0. -1.
    9900012    2    1    2    0    0  0.23929153699E+02  0.90325238176E+01  0.19040131593E+02  0.59301992185E+02  0.50000087827E+02 0.  0.
         12    1    1    2    0    0 -0.23929153699E+02 -0.90325238176E+01 -0.19040131593E+02  0.31886007815E+02  0.00000000000E+00 0. -1.
         11    1    3    3    0    0  0.17071557741E+02 -0.34750090626E+01  0.63385356709E+01  0.18538899817E+02  0.51100000000E-03 0. -1.
        -11    1    3    3    0    0  0.18252852422E+02  0.16946705740E+02  0.13817325230E+02  0.28482905992E+02  0.51100000000E-03 0.  1.
        -12    1    3    3    0    0 -0.11395256464E+02 -0.44391728594E+01 -0.11157293080E+01  0.12280186376E+02  0.00000000000E+00 0.  1.
</event>
<event>
 7    1  0.1284645E-011  0.5930196E+02  0.7816164E-02  0.1266605E+00
        -11   -1    0    0    0    0  0.00000000000E+00  0.00000000000E+00  0.45593999997E+02  0.45594000000E+02  0.51100000000E-03 0.  1.
         11   -1    0    0    0    0 -0.00000000000E+00 -0.00000000000E+00 -0.45593999997E+02  0.45594000000E+02  0.51100000000E-03 0. -1.
    9900012    2    1    2    0    0  0.17011232605E+02 -0.26921883500E+02  0.15968347701E+01  0.59301957172E+02  0.50000023972E+02 0.  0.
         12    1    1    2    0    0 -0.17011232605E+02  0.26921883500E+02 -0.15968347701E+01  0.31886042828E+02  0.00000000000E+00 0. -1.
         11    1    3    3    0    0  0.72283008286E+01 -0.79386537517E+01 -0.45655785739E+01  0.11666836085E+02  0.51100000000E-03 0. -1.
        -11    1    3    3    0    0  0.12687017726E+02 -0.19398063124E+02  0.21743131689E+02  0.31780639510E+02  0.51100000000E-03 0.  1.
         12    1    3    3    0    0 -0.29040859494E+01  0.41483337549E+00 -0.15580718345E+02  0.15854481577E+02  0.00000000000E+00 0. -1.
</event>
<event>
 7    1  0.1284645E-011  0.5930193E+02  0.7816164E-02  0.1266605E+00
        -11   -1    0    0    0    0  0.00000000000E+00  0.00000000000E+00  0.45593999997E+02  0.45594000000E+02  0.51100000000E-03 0.  1.
         11   -1    0    0    0    0 -0.00000000000E+00 -0.00000000000E+00 -0.45593999997E+02  0.45594000000E+02  0.51100000000E-03 0. -1.
    9900012    2    1    2    0    0 -0.58646142095E+01  0.31025064145E+02 -0.44467350601E+01  0.59301925332E+02  0.49999965903E+02 0.  0.
         12    1    1    2    0    0  0.58646142095E+01 -0.31025064145E+02  0.44467350601E+01  0.31886074668E+02  0.00000000000E+00 0. -1.
         11    1    3    3    0    0  0.13639332607E+00 -0.67597538679E+00 -0.13416531142E+02  0.13434241847E+02  0.51100000000E-03 0. -1.
        -11    1    3    3    0    0 -0.12391470465E+02  0.83694341252E+01 -0.73746487772E+01  0.16672774595E+02  0.51100000000E-03 0.  1.
        -12    1    3    3    0    0  0.63904629291E+01  0.23331605407E+02  0.16344444859E+02  0.29194908889E+02  0.00000000000E+00 0.  1.
</event>
<event>
 7    1  0.1284645E-011  0.5930192E+02  0.7816164E-02  0.1266605E+00
        -11   -1    0    0    0    0  0.00000000000E+00  0.00000000000E+00  0.45593999997E+02  0.45594000000E+02  0.51100000000E-03 0.  1.
         11   -1    0    0    0    0 -0.00000000000E+00 -0.00000000000E+00 -0.45593999997E+02  0.45594000000E+02  0.51100000000E-03 0. -1.
    9900012    2    1    2    0    0 -0.22531906840E+02  0.11719334450E+02 -0.19279320535E+02  0.59301924260E+02  0.49999963948E+02 0.  0.
         12    1    1    2    0    0  0.22531906840E+02 -0.11719334450E+02  0.19279320535E+02  0.31886075740E+02  0.00000000000E+00 0. -1.
         11    1    3    3    0    0 -0.24681191416E+02  0.10205951291E+02 -0.15218449164E+02  0.30739613640E+02  0.51100000000E-03 0. -1.
        -11    1    3    3    0    0 -0.43956661276E+01  0.60601637757E+01  0.99449971187E+01  0.12447908806E+02  0.51100000000E-03 0.  1.
         12    1    3    3    0    0  0.65449507036E+01 -0.45467806170E+01 -0.14005868489E+02  0.16114401814E+02  0.00000000000E+00 0. -1.
</event>
<event>
 7    1  0.1284645E-011  0.5930195E+02  0.7816164E-02  0.1266605E+00
        -11   -1    0    0    0    0  0.00000000000E+00  0.00000000000E+00  0.45593999997E+02  0.45594000000E+02  0.51100000000E-03 0.  1.
         11   -1    0    0    0    0 -0.00000000000E+00 -0.00000000000E+00 -0.45593999997E+02  0.45594000000E+02  0.51100000000E-03 0. -1.
    9900012    2    1    2    0    0 -0.21907000392E+02 -0.10152525934E+02 -0.20826175179E+02  0.59301952556E+02  0.50000015554E+02 0.  0.
         12    1    1    2    0    0  0.21907000392E+02  0.10152525934E+02  0.20826175179E+02  0.31886047444E+02  0.00000000000E+00 0. -1.
         11    1    3    3    0    0 -0.48671091597E+01 -0.17939608660E+02  0.58019955392E+00  0.18597175652E+02  0.51100000000E-03 0. -1.
        -11    1    3    3    0    0 -0.14871001259E+02 -0.79757415495E+01 -0.44492520670E+01  0.17451503544E+02  0.51100000000E-03 0.  1.
        -12    1    3    3    0    0 -0.21688899729E+01  0.15762824276E+02 -0.16957122666E+02  0.23253273360E+02  0.00000000000E+00 0.  1.
</event>
<event>
 7    1  0.1284645E-011  0.5930195E+02  0.7816164E-02  0.1266605E+00
        -11   -1    0    0    0    0  0.00000000000E+00  0.00000000000E+00  0.45593999997E+02  0.45594000000E+02  0.51100000000E-03 0. -1.
         11   -1    0    0    0    0 -0.00000000000E+00 -0.00000000000E+00 -0.45593999997E+02  0.45594000000E+02  0.51100000000E-03 0.  1.
    9900012    2    1    2    0    0  0.21265535189E+02  0.23205321696E+02  0.51000454270E+01  0.59301946540E+02  0.50000004582E+02 0.  0.
         12    1    1    2    0    0 -0.21265535189E+02 -0.23205321696E+02 -0.51000454270E+01  0.31886053460E+02  0.00000000000E+00 0. -1.
         11    1    3    3    0    0 -0.12430474296E+01  0.98229233458E+01  0.88129708061E+00  0.99404061675E+01  0.51100000000E-03 0. -1.
        -11    1    3    3    0    0  0.28295743533E+02  0.31620645200E+01 -0.10663239183E+02  0.30403164708E+02  0.51100000000E-03 0.  1.
         12    1    3    3    0    0 -0.57871609144E+01  0.10220333830E+02  0.14881987529E+02  0.18958375665E+02  0.00000000000E+00 0. -1.
</event>
<event>
 7    1  0.1284645E-011  0.5930195E+02  0.7816164E-02  0.1266605E+00
        -11   -1    0    0    0    0  0.00000000000E+00  0.00000000000E+00  0.45593999997E+02  0.45594000000E+02  0.51100000000E-03 0.  1.
         11   -1    0    0    0    0 -0.00000000000E+00 -0.00000000000E+00 -0.45593999997E+02  0.45594000000E+02  0.51100000000E-03 0. -1.
    9900012    2    1    2    0    0  0.67944180815E+01  0.29966004055E+02  0.85202624693E+01  0.59301946801E+02  0.50000005057E+02 0.  0.
         12    1    1    2    0    0 -0.67944180815E+01 -0.29966004055E+02 -0.85202624693E+01  0.31886053199E+02  0.00000000000E+00 0. -1.
         11    1    3    3    0    0 -0.15846970256E+02  0.12069752812E+02  0.12099792632E+02  0.23306874119E+02  0.51100000000E-03 0. -1.
        -11    1    3    3    0    0  0.16200566718E+01  0.18372323387E+01 -0.87106610044E+01  0.90485148882E+01  0.51100000000E-03 0.  1.
        -12    1    3    3    0    0  0.21021331666E+02  0.16059018905E+02  0.51311308422E+01  0.26946557793E+02  0.00000000000E+00 0.  1.
</event>
<event>
 7    1  0.1284645E-011  0.5930194E+02  0.7816164E-02  0.1266605E+00
        -11   -1    0    0    0    0  0.00000000000E+00  0.00000000000E+00  0.45593999997E+02  0.45594000000E+02  0.51100000000E-03 0. -1.
         11   -1    0    0    0    0 -0.00000000000E+00 -0.00000000000E+00 -0.45593999997E+02  0.45594000000E+02  0.51100000000E-03 0.  1.
    9900012    2    1    2    0    0  0.20650036301E+02  0.20944237974E+02  0.12314040513E+02  0.59301941961E+02  0.49999996231E+02 0.  0.
         12    1    1    2    0    0 -0.20650036301E+02 -0.20944237974E+02 -0.12314040513E+02  0.31886058039E+02  0.00000000000E+00 0. -1.
         11    1    3    3    0    0 -0.46014157040E+01  0.18765317881E+02  0.76163660413E+01  0.20768226058E+02  0.51100000000E-03 0. -1.
        -11    1    3    3    0    0  0.29745116357E+02  0.56029303864E+01 -0.12975629579E+01  0.30296013696E+02  0.51100000000E-03 0.  1.
         12    1    3    3    0    0 -0.44936643520E+01 -0.34240102943E+01  0.59952374298E+01  0.82377022065E+01  0.00000000000E+00 0. -1.
</event>
<event>
 7    1  0.1284645E-011  0.5930194E+02  0.7816164E-02  0.1266605E+00
        -11   -1    0    0    0    0  0.00000000000E+00  0.00000000000E+00  0.45593999997E+02  0.45594000000E+02  0.51100000000E-03 0. -1.
         11   -1    0    0    0    0 -0.00000000000E+00 -0.00000000000E+00 -0.45593999997E+02  0.45594000000E+02  0.51100000000E-03 0.  1.
    9900012    2    1    2    0    0 -0.58180137717E+00  0.10801419064E+02 -0.29995194883E+02  0.59301939367E+02  0.49999991499E+02 0.  0.
         12    1    1    2    0    0  0.58180137717E+00 -0.10801419064E+02  0.29995194883E+02  0.31886060633E+02  0.00000000000E+00 0. -1.
         11    1    3    3    0    0 -0.35669537666E+01  0.19969105363E+02  0.62059455202E+01  0.21213252656E+02  0.51100000000E-03 0. -1.
        -11    1    3    3    0    0  0.37245185768E+01 -0.36561409990E+01 -0.97468912873E+01  0.11056278563E+02  0.51100000000E-03 0.  1.
        -12    1    3    3    0    0 -0.73936618734E+00 -0.55115453006E+01 -0.26454249116E+02  0.27032408148E+02  0.00000000000E+00 0.  1.
</event>
<event>
 7    1  0.1284645E-011  0.5930196E+02  0.7816164E-02  0.1266605E+00
        -11   -1    0    0    0    0  0.00000000000E+00  0.00000000000E+00  0.45593999997E+02  0.45594000000E+02  0.51100000000E-03 0.  1.
         11   -1    0    0    0    0 -0.00000000000E+00 -0.00000000000E+00 -0.45593999997E+02  0.45594000000E+02  0.51100000000E-03 0. -1.
    9900012    2    1    2    0    0  0.24901146565E+02 -0.13450271669E+02  0.14688182392E+02  0.59301959007E+02  0.50000027319E+02 0.  0.
         12    1    1    2    0    0 -0.24901146565E+02  0.13450271669E+02 -0.14688182392E+02  0.31886040993E+02  0.00000000000E+00 0. -1.
         11    1    3    3    0    0  0.53055602879E+01  0.64660985866E+01 -0.22944615778E+01  0.86731744530E+01  0.51100000000E-03 0. -1.
        -11    1    3    3    0    0  0.12352923368E+02  0.84322364302E+01 -0.29243053888E+01  0.15239714211E+02  0.51100000000E-03 0.  1.
        -12    1    3    3    0    0  0.72426629086E+01 -0.28348606686E+02  0.19906949358E+02  0.35389070343E+02  0.00000000000E+00 0.  1.
</event>
<event>
 7    1  0.1284645E-011  0.5930194E+02  0.7816164E-02  0.1266605E+00
        -11   -1    0    0    0    0  0.00000000000E+00  0.00000000000E+00  0.45593999997E+02  0.45594000000E+02  0.51100000000E-03 0. -1.
         11   -1    0    0    0    0 -0.00000000000E+00 -0.00000000000E+00 -0.45593999997E+02  0.45594000000E+02  0.51100000000E-03 0.  1.
    9900012    2    1    2    0    0  0.18480111220E+01  0.18371619152E+02 -0.25995946043E+02  0.59301941196E+02  0.49999994836E+02 0.  0.
         12    1    1    2    0    0 -0.18480111220E+01 -0.18371619152E+02  0.25995946043E+02  0.31886058804E+02  0.00000000000E+00 0. -1.
         11    1    3    3    0    0 -0.40752749832E+01  0.85274018609E+01  0.88328499695E+01  0.12936138818E+02  0.51100000000E-03 0. -1.
        -11    1    3    3    0    0  0.12167210439E+02  0.14491147632E+02 -0.12394942622E+02  0.22620101070E+02  0.51100000000E-03 0.  1.
         12    1    3    3    0    0 -0.62439243336E+01 -0.46469303408E+01 -0.22433853390E+02  0.23745701308E+02  0.00000000000E+00 0. -1.
</event>
<event>
 7    1  0.1284645E-011  0.5930195E+02  0.7816164E-02  0.1266605E+00
        -11   -1    0    0    0    0  0.00000000000E+00  0.00000000000E+00  0.45593999997E+02  0.45594000000E+02  0.51100000000E-03 0. -1.
         11   -1    0    0    0    0 -0.00000000000E+00 -0.00000000000E+00 -0.45593999997E+02  0.45594000000E+02  0.51100000000E-03 0.  1.
    9900012    2    1    2    0    0 -0.12861998873E+02  0.27565642100E+02 -0.95616196156E+01  0.59301949616E+02  0.50000010192E+02 0.  0.
         12    1    1    2    0    0  0.12861998873E+02 -0.27565642100E+02  0.95616196156E+01  0.31886050384E+02  0.00000000000E+00 0. -1.
         11    1    3    3    0    0  0.11432482845E+02  0.89742432333E+01  0.10619820008E+02  0.18000535627E+02  0.51100000000E-03 0. -1.
        -11    1    3    3    0    0  0.28846263296E+01 -0.33945611095E+00 -0.13911278708E+01  0.32204870015E+01  0.51100000000E-03 0.  1.
        -12    1    3    3    0    0 -0.27179108048E+02  0.18930854977E+02 -0.18790311752E+02  0.38080926987E+02  0.00000000000E+00 0.  1.
</event>
<event>
 7    1  0.1284645E-011  0.5930200E+02  0.7816164E-02  0.1266605E+00
        -11   -1    0    0    0    0  0.00000000000E+00  0.00000000000E+00  0.45593999997E+02  0.45594000000E+02  0.51100000000E-03 0. -1.
         11   -1    0    0    0    0 -0.00000000000E+00 -0.00000000000E+00 -0.45593999997E+02  0.45594000000E+02  0.51100000000E-03 0.  1.
    9900012    2    1    2    0    0  0.34577070774E+01  0.31689066420E+02  0.75106812467E+00  0.59302003511E+02  0.50000108482E+02 0.  0.
         12    1    1    2    0    0 -0.34577070774E+01 -0.31689066420E+02 -0.75106812467E+00  0.31885996489E+02  0.00000000000E+00 0. -1.
         11    1    3    3    0    0  0.35196959683E+01  0.21238771609E+02  0.13520512094E+02  0.25421996906E+02  0.51100000000E-03 0. -1.
        -11    1    3    3    0    0  0.11146223986E+02  0.15225683067E+02 -0.10120468489E+02  0.21412230540E+02  0.51100000000E-03 0.  1.
         12    1    3    3    0    0 -0.11208212877E+02 -0.47753882560E+01 -0.26489754809E+01  0.12467776064E+02  0.00000000000E+00 0. -1.
</event>
<event>
 7    1  0.1284645E-011  0.5930195E+02  0.7816164E-02  0.1266605E+00
        -11   -1    0    0    0    0  0.00000000000E+00  0.00000000000E+00  0.45593999997E+02  0.45594000000E+02  0.51100000000E-03 0.  1.
         11   -1    0    0    0    0 -0.00000000000E+00 -0.00000000000E+00 -0.45593999997E+02  0.45594000000E+02  0.51100000000E-03 0. -1.
    9900012    2    1    2    0    0 -0.13386814746E+02 -0.21350830297E+02  0.19536003126E+02  0.59301950048E+02  0.50000010979E+02 0.  0.
         12    1    1    2    0    0  0.13386814746E+02  0.21350830297E+02 -0.19536003126E+02  0.31886049952E+02  0.00000000000E+00 0. -1.
         11    1    3    3    0    0 -0.27210341821E+00 -0.80543021815E+01  0.57597229941E+01  0.99055657653E+01  0.51100000000E-03 0. -1.
        -11    1    3    3    0    0  0.39144278830E+01 -0.25180059673E+02  0.13022313711E+02  0.28617106867E+02  0.51100000000E-03 0.  1.
         12    1    3    3    0    0 -0.17029139211E+02  0.11883531558E+02  0.75396642128E+00  0.20779277416E+02  0.00000000000E+00 0. -1.
</event>
<event>
 7    1  0.1284645E-011  0.5930196E+02  0.7816164E-02  0.1266605E+00
        -11   -1    0    0    0    0  0.00000000000E+00  0.00000000000E+00  0.45593999997E+02  0.45594000000E+02  0.51100000000E-03 0. -1.
         11   -1    0    0    0    0 -0.00000000000E+00 -0.00000000000E+00 -0.45593999997E+02  0.45594000000E+02  0.51100000000E-03 0.  1.
    9900012    2    1    2    0    0  0.25420083049E+02  0.17046786724E+02 -0.89412545449E+01  0.59301959282E+02  0.50000027820E+02 0.  0.
         12    1    1    2    0    0 -0.25420083049E+02 -0.17046786724E+02  0.89412545449E+01  0.31886040718E+02  0.00000000000E+00 0. -1.
         11    1    3    3    0    0  0.31088466676E+01 -0.39840445041E+00 -0.86518948109E+01  0.92021159408E+01  0.51100000000E-03 0. -1.
        -11    1    3    3    0    0  0.11821382169E+02  0.25371039653E+02 -0.13835345690E+02  0.31222612320E+02  0.51100000000E-03 0.  1.
         12    1    3    3    0    0  0.10489854213E+02 -0.79258484786E+01  0.13545985956E+02  0.18877231021E+02  0.00000000000E+00 0. -1.
</event>
<event>
 7    1  0.1284645E-011  0.5930195E+02  0.7816164E-02  0.1266605E+00
        -11   -1    0    0    0    0  0.00000000000E+00  0.00000000000E+00  0.45593999997E+02  0.45594000000E+02  0.51100000000E-03 0. -1.
         11   -1    0    0    0    0 -0.00000000000E+00 -0.00000000000E+00 -0.45593999997E+02  0.45594000000E+02  0.51100000000E-03 0.  1.
    9900012    2    1    2    0    0  0.12757460275E+02  0.23704661013E+02 -0.17089654186E+02  0.59301952478E+02  0.50000015411E+02 0.  0.
         12    1    1    2    0    0 -0.12757460275E+02 -0.23704661013E+02  0.17089654186E+02  0.31886047522E+02  0.00000000000E+00 0. -1.
         11    1    3    3    0    0  0.12702957389E+02  0.49145604977E+01  0.52659341909E+01  0.14603016622E+02  0.51100000000E-03 0. -1.
        -11    1    3    3    0    0  0.63903847786E+01  0.26101080304E+02 -0.22462721123E+02  0.35023952535E+02  0.51100000000E-03 0.  1.
        -12    1    3    3    0    0 -0.63358818921E+01 -0.73109797893E+01  0.10713274605E+00  0.96749833207E+01  0.00000000000E+00 0.  1.
</event>
<event>
 7    1  0.1284645E-011  0.5930193E+02  0.7816164E-02  0.1266605E+00
        -11   -1    0    0    0    0  0.00000000000E+00  0.00000000000E+00  0.45593999997E+02  0.45594000000E+02  0.51100000000E-03 0.  1.
         11   -1    0    0    0    0 -0.00000000000E+00 -0.00000000000E+00 -0.45593999997E+02  0.45594000000E+02  0.51100000000E-03 0. -1.
    9900012    2    1    2    0    0  0.24374855930E+02 -0.20543983503E+02  0.72996991778E+00  0.59301925989E+02  0.49999967101E+02 0.  0.
         12    1    1    2    0    0 -0.24374855930E+02  0.20543983503E+02 -0.72996991778E+00  0.31886074011E+02  0.00000000000E+00 0. -1.
         11    1    3    3    0    0  0.85933981163E+01 -0.22118970202E+01 -0.10149816894E+02  0.13481756668E+02  0.51100000000E-03 0. -1.
        -11    1    3    3    0    0 -0.10281261362E+02 -0.76373725962E+01 -0.46815353049E+01  0.13636369328E+02  0.51100000000E-03 0.  1.
        -12    1    3    3    0    0  0.26062719176E+02 -0.10694713886E+02  0.15561322117E+02  0.32183799993E+02  0.00000000000E+00 0.  1.
</event>
<event>
 7    1  0.1284645E-011  0.5930195E+02  0.7816164E-02  0.1266605E+00
        -11   -1    0    0    0    0  0.00000000000E+00  0.00000000000E+00  0.45593999997E+02  0.45594000000E+02  0.51100000000E-03 0. -1.
         11   -1    0    0    0    0 -0.00000000000E+00 -0.00000000000E+00 -0.45593999997E+02  0.45594000000E+02  0.51100000000E-03 0.  1.
    9900012    2    1    2    0    0 -0.26115881664E+02  0.17626525655E+02 -0.48976245754E+01  0.59301946493E+02  0.50000004496E+02 0.  0.
         12    1    1    2    0    0  0.26115881664E+02 -0.17626525655E+02  0.48976245754E+01  0.31886053507E+02  0.00000000000E+00 0. -1.
         11    1    3    3    0    0 -0.45682191918E+00 -0.12364426046E+02 -0.11838131898E+02  0.17123933100E+02  0.51100000000E-03 0. -1.
        -11    1    3    3    0    0 -0.14514955845E+02  0.10739974211E+02 -0.20778141521E+01  0.18175486270E+02  0.51100000000E-03 0.  1.
        -12    1    3    3    0    0 -0.11144103901E+02  0.19250977490E+02  0.90183214750E+01  0.24002527123E+02  0.00000000000E+00 0.  1.
</event>
<event>
 7    1  0.1284645E-011  0.5930194E+02  0.7816164E-02  0.1266605E+00
        -11   -1    0    0    0    0  0.00000000000E+00  0.00000000000E+00  0.45593999997E+02  0.45594000000E+02  0.51100000000E-03 0. -1.
         11   -1    0    0    0    0 -0.00000000000E+00 -0.00000000000E+00 -0.45593999997E+02  0.45594000000E+02  0.51100000000E-03 0.  1.
    9900012    2    1    2    0    0 -0.58899002927E+01  0.23277676790E+02 -0.20980454139E+02  0.59301943203E+02  0.49999998496E+02 0.  0.
         12    1    1    2    0    0  0.58899002927E+01 -0.23277676790E+02  0.20980454139E+02  0.31886056797E+02  0.00000000000E+00 0. -1.
         11    1    3    3    0    0 -0.73828124952E+01 -0.74564880072E+01 -0.49428969518E+01  0.11599024281E+02  0.51100000000E-03 0.  1.
        -11    1    3    3    0    0 -0.11947310678E+02  0.18364885717E+02  0.20401481264E+01  0.22003851129E+02  0.51100000000E-03 0. -1.
        -12    1    3    3    0    0  0.13440222881E+02  0.12369279080E+02 -0.18077705313E+02  0.25699067793E+02  0.00000000000E+00 0.  1.
</event>
<event>
 7    1  0.1284645E-011  0.5930195E+02  0.7816164E-02  0.1266605E+00
        -11   -1    0    0    0    0  0.00000000000E+00  0.00000000000E+00  0.45593999997E+02  0.45594000000E+02  0.51100000000E-03 0.  1.
         11   -1    0    0    0    0 -0.00000000000E+00 -0.00000000000E+00 -0.45593999997E+02  0.45594000000E+02  0.51100000000E-03 0. -1.
    9900012    2    1    2    0    0  0.18904914363E+02  0.20393930531E+02  0.15601664465E+02  0.59301950956E+02  0.50000012636E+02 0.  0.
         12    1    1    2    0    0 -0.18904914363E+02 -0.20393930531E+02 -0.15601664465E+02  0.31886049044E+02  0.00000000000E+00 0. -1.
         11    1    3    3    0    0  0.80481566276E+01  0.10325870777E+02 -0.34587887822E+01  0.13541035872E+02  0.51100000000E-03 0. -1.
        -11    1    3    3    0    0  0.14031035308E+02  0.21448939104E+02  0.29753825889E+01  0.25802709980E+02  0.51100000000E-03 0.  1.
        -12    1    3    3    0    0 -0.31742775727E+01 -0.11380879350E+02  0.16085070658E+02  0.19958205104E+02  0.00000000000E+00 0.  1.
</event>
<event>
 7    1  0.1284645E-011  0.5930193E+02  0.7816164E-02  0.1266605E+00
        -11   -1    0    0    0    0  0.00000000000E+00  0.00000000000E+00  0.45593999997E+02  0.45594000000E+02  0.51100000000E-03 0. -1.
         11   -1    0    0    0    0 -0.00000000000E+00 -0.00000000000E+00 -0.45593999997E+02  0.45594000000E+02  0.51100000000E-03 0.  1.
    9900012    2    1    2    0    0 -0.26703477551E+01  0.13912831925E+02 -0.28566131295E+02  0.59301929272E+02  0.49999973089E+02 0.  0.
         12    1    1    2    0    0  0.26703477551E+01 -0.13912831925E+02  0.28566131295E+02  0.31886070728E+02  0.00000000000E+00 0. -1.
         11    1    3    3    0    0  0.10588065583E+01  0.82183656400E+01  0.21853969559E+01  0.85696304026E+01  0.51100000000E-03 0. -1.
        -11    1    3    3    0    0 -0.15578010434E+02 -0.67672516087E+01 -0.18270343821E+01  0.17082393226E+02  0.51100000000E-03 0.  1.
        -12    1    3    3    0    0  0.11848856121E+02  0.12461717894E+02 -0.28924493869E+02  0.33649905643E+02  0.00000000000E+00 0.  1.
</event>
<event>
 7    1  0.1284645E-011  0.5930195E+02  0.7816164E-02  0.1266605E+00
        -11   -1    0    0    0    0  0.00000000000E+00  0.00000000000E+00  0.45593999997E+02  0.45594000000E+02  0.51100000000E-03 0. -1.
         11   -1    0    0    0    0 -0.00000000000E+00 -0.00000000000E+00 -0.45593999997E+02  0.45594000000E+02  0.51100000000E-03 0.  1.
    9900012    2    1    2    0    0 -0.14311360379E+02 -0.22360052171E+02  0.17661630046E+02  0.59301950624E+02  0.50000012029E+02 0.  0.
         12    1    1    2    0    0  0.14311360379E+02  0.22360052171E+02 -0.17661630046E+02  0.31886049376E+02  0.00000000000E+00 0. -1.
         11    1    3    3    0    0  0.10368639133E+02 -0.13205150360E+02 -0.74060720675E+00  0.16805748207E+02  0.51100000000E-03 0. -1.
        -11    1    3    3    0    0  0.17714027327E+01 -0.10444161108E+02  0.10365012529E+02  0.14820656324E+02  0.51100000000E-03 0.  1.
        -12    1    3    3    0    0 -0.26451402245E+02  0.12892592969E+01  0.80372247232E+01  0.27675546092E+02  0.00000000000E+00 0.  1.
</event>
<event>
 7    1  0.1284645E-011  0.5930214E+02  0.7816164E-02  0.1266604E+00
        -11   -1    0    0    0    0  0.00000000000E+00  0.00000000000E+00  0.45593999997E+02  0.45594000000E+02  0.51100000000E-03 0.  1.
         11   -1    0    0    0    0 -0.00000000000E+00 -0.00000000000E+00 -0.45593999997E+02  0.45594000000E+02  0.51100000000E-03 0. -1.
    9900012    2    1    2    0    0 -0.58147607004E+01  0.24052633090E+02  0.20108883221E+02  0.59302144437E+02  0.50000365498E+02 0.  0.
         12    1    1    2    0    0  0.58147607004E+01 -0.24052633090E+02 -0.20108883221E+02  0.31885855563E+02  0.00000000000E+00 0. -1.
         11    1    3    3    0    0  0.19400550718E+02  0.20939695047E+02  0.67294376899E+01  0.29328101349E+02  0.51100000000E-03 0.  1.
        -11    1    3    3    0    0 -0.11029856221E+02  0.49580333168E+01  0.35004724459E+01  0.12589405476E+02  0.51100000000E-03 0. -1.
        -12    1    3    3    0    0 -0.14185455197E+02 -0.18450952745E+01  0.98789730854E+01  0.17384637613E+02  0.00000000000E+00 0.  1.
</event>
<event>
 7    1  0.1284645E-011  0.5930194E+02  0.7816164E-02  0.1266605E+00
        -11   -1    0    0    0    0  0.00000000000E+00  0.00000000000E+00  0.45593999997E+02  0.45594000000E+02  0.51100000000E-03 0. -1.
         11   -1    0    0    0    0 -0.00000000000E+00 -0.00000000000E+00 -0.45593999997E+02  0.45594000000E+02  0.51100000000E-03 0.  1.
    9900012    2    1    2    0    0  0.24251077151E+02 -0.28187446122E+01 -0.20510017645E+02  0.59301938971E+02  0.49999990778E+02 0.  0.
         12    1    1    2    0    0 -0.24251077151E+02  0.28187446122E+01  0.20510017645E+02  0.31886061029E+02  0.00000000000E+00 0. -1.
         11    1    3    3    0    0  0.10211897218E+02 -0.10695317294E+02 -0.62736420818E+01  0.16063350897E+02  0.51100000000E-03 0. -1.
        -11    1    3    3    0    0  0.67515574004E+01 -0.15183251409E+02 -0.65725343506E+01  0.17869327316E+02  0.51100000000E-03 0.  1.
         12    1    3    3    0    0  0.72876225320E+01  0.23059824091E+02 -0.76638412127E+01  0.25369260758E+02  0.00000000000E+00 0. -1.
</event>
<event>
 7    1  0.1284645E-011  0.5930194E+02  0.7816164E-02  0.1266605E+00
        -11   -1    0    0    0    0  0.00000000000E+00  0.00000000000E+00  0.45593999997E+02  0.45594000000E+02  0.51100000000E-03 0.  1.
         11   -1    0    0    0    0 -0.00000000000E+00 -0.00000000000E+00 -0.45593999997E+02  0.45594000000E+02  0.51100000000E-03 0. -1.
    9900012    2    1    2    0    0 -0.18767372215E+02 -0.69911376979E+00  0.25768545809E+02  0.59301937637E+02  0.49999988344E+02 0.  0.
         12    1    1    2    0    0  0.18767372215E+02  0.69911376979E+00 -0.25768545809E+02  0.31886062363E+02  0.00000000000E+00 0. -1.
         11    1    3    3    0    0  0.71632020421E+01  0.10403493247E+02  0.36356780839E+01  0.13143906977E+02  0.51100000000E-03 0. -1.
        -11    1    3    3    0    0 -0.15274416357E+02  0.28654514173E+01 -0.26646106845E+01  0.15767649071E+02  0.51100000000E-03 0.  1.
         12    1    3    3    0    0 -0.10656157900E+02 -0.13968058434E+02  0.24797478410E+02  0.30390381588E+02  0.00000000000E+00 0. -1.
</event>
<event>
 7    1  0.1284645E-011  0.5930197E+02  0.7816164E-02  0.1266605E+00
        -11   -1    0    0    0    0  0.00000000000E+00  0.00000000000E+00  0.45593999997E+02  0.45594000000E+02  0.51100000000E-03 0.  1.
         11   -1    0    0    0    0 -0.00000000000E+00 -0.00000000000E+00 -0.45593999997E+02  0.45594000000E+02  0.51100000000E-03 0. -1.
    9900012    2    1    2    0    0 -0.14343390413E+02  0.28452153891E+02 -0.12087542135E+01  0.59301968634E+02  0.50000044875E+02 0.  0.
         12    1    1    2    0    0  0.14343390413E+02 -0.28452153891E+02  0.12087542135E+01  0.31886031366E+02  0.00000000000E+00 0. -1.
         11    1    3    3    0    0 -0.25987840416E+01  0.11418016987E+02 -0.23557112809E+01  0.11944629183E+02  0.51100000000E-03 0.  1.
        -11    1    3    3    0    0 -0.12545902903E+02  0.88808681441E+01  0.20916754591E+02  0.25957274925E+02  0.51100000000E-03 0. -1.
         12    1    3    3    0    0  0.80129653161E+00  0.81532687595E+01 -0.19769797524E+02  0.21400064526E+02  0.00000000000E+00 0. -1.
</event>
<event>
 7    1  0.1284645E-011  0.5930197E+02  0.7816164E-02  0.1266605E+00
        -11   -1    0    0    0    0  0.00000000000E+00  0.00000000000E+00  0.45593999997E+02  0.45594000000E+02  0.51100000000E-03 0. -1.
         11   -1    0    0    0    0 -0.00000000000E+00 -0.00000000000E+00 -0.45593999997E+02  0.45594000000E+02  0.51100000000E-03 0.  1.
    9900012    2    1    2    0    0 -0.10877205293E+02 -0.11461454330E+02 -0.27695495691E+02  0.59301968389E+02  0.50000044429E+02 0.  0.
         12    1    1    2    0    0  0.10877205293E+02  0.11461454330E+02  0.27695495691E+02  0.31886031611E+02  0.00000000000E+00 0. -1.
         11    1    3    3    0    0 -0.13755839654E+02 -0.69502329177E+01  0.39750502255E+01  0.15916340243E+02  0.51100000000E-03 0. -1.
        -11    1    3    3    0    0 -0.90602080309E+00 -0.15500153986E+02 -0.90958087671E+01  0.17994704351E+02  0.51100000000E-03 0.  1.
         12    1    3    3    0    0  0.37846551635E+01  0.10988932574E+02 -0.22574737149E+02  0.25390923795E+02  0.00000000000E+00 0. -1.
</event>
<event>
 7    1  0.1284645E-011  0.5930196E+02  0.7816164E-02  0.1266605E+00
        -11   -1    0    0    0    0  0.00000000000E+00  0.00000000000E+00  0.45593999997E+02  0.45594000000E+02  0.51100000000E-03 0.  1.
         11   -1    0    0    0    0 -0.00000000000E+00 -0.00000000000E+00 -0.45593999997E+02  0.45594000000E+02  0.51100000000E-03 0. -1.
    9900012    2    1    2    0    0  0.31283558206E+02  0.60000093014E+01 -0.14346706269E+01  0.59301962218E+02  0.50000033175E+02 0.  0.
         12    1    1    2    0    0 -0.31283558206E+02 -0.60000093014E+01  0.14346706269E+01  0.31886037782E+02  0.00000000000E+00 0. -1.
         11    1    3    3    0    0  0.13508793573E+01  0.82738555118E+01  0.11802376895E+02  0.14476797322E+02  0.51100000000E-03 0. -1.
        -11    1    3    3    0    0  0.56454630324E+01  0.12450164001E+02 -0.83133846554E+01  0.15999693784E+02  0.51100000000E-03 0.  1.
         12    1    3    3    0    0  0.24287215816E+02 -0.14724010212E+02 -0.49236628663E+01  0.28825471112E+02  0.00000000000E+00 0. -1.
</event>
<event>
 7    1  0.1284645E-011  0.5930193E+02  0.7816164E-02  0.1266605E+00
        -11   -1    0    0    0    0  0.00000000000E+00  0.00000000000E+00  0.45593999997E+02  0.45594000000E+02  0.51100000000E-03 0. -1.
         11   -1    0    0    0    0 -0.00000000000E+00 -0.00000000000E+00 -0.45593999997E+02  0.45594000000E+02  0.51100000000E-03 0.  1.
    9900012    2    1    2    0    0  0.26850783119E+02 -0.14509829586E+02  0.92315633258E+01  0.59301929841E+02  0.49999974128E+02 0.  0.
         12    1    1    2    0    0 -0.26850783119E+02  0.14509829586E+02 -0.92315633258E+01  0.31886070159E+02  0.00000000000E+00 0. -1.
         11    1    3    3    0    0  0.27501416603E+01 -0.16449739446E+02 -0.32166146987E+01  0.16985400124E+02  0.51100000000E-03 0.  1.
        -11    1    3    3    0    0  0.12174440839E+02  0.12210555381E+02 -0.58244330752E+01  0.18199964103E+02  0.51100000000E-03 0. -1.
         12    1    3    3    0    0  0.11926200620E+02 -0.10270645521E+02  0.18272611100E+02  0.24116565614E+02  0.00000000000E+00 0. -1.
</event>
<event>
 7    1  0.1284645E-011  0.5930195E+02  0.7816164E-02  0.1266605E+00
        -11   -1    0    0    0    0  0.00000000000E+00  0.00000000000E+00  0.45593999997E+02  0.45594000000E+02  0.51100000000E-03 0.  1.
         11   -1    0    0    0    0 -0.00000000000E+00 -0.00000000000E+00 -0.45593999997E+02  0.45594000000E+02  0.51100000000E-03 0. -1.
    9900012    2    1    2    0    0 -0.63061193431E+01  0.57152383514E+01  0.30729289951E+02  0.59301947383E+02  0.50000006119E+02 0.  0.
         12    1    1    2    0    0  0.63061193431E+01 -0.57152383514E+01 -0.30729289951E+02  0.31886052617E+02  0.00000000000E+00 0. -1.
         11    1    3    3    0    0  0.13108441516E+00  0.13306472351E+01 -0.43445967579E+01  0.45456931747E+01  0.51100000000E-03 0. -1.
        -11    1    3    3    0    0 -0.15068259010E+02  0.62967494086E+01 -0.21727343977E+01  0.16474897806E+02  0.51100000000E-03 0.  1.
        -12    1    3    3    0    0  0.86310552517E+01 -0.19121582924E+01  0.37246621107E+02  0.38281356402E+02  0.00000000000E+00 0.  1.
</event>
<event>
 7    1  0.1284645E-011  0.5930194E+02  0.7816164E-02  0.1266605E+00
        -11   -1    0    0    0    0  0.00000000000E+00  0.00000000000E+00  0.45593999997E+02  0.45594000000E+02  0.51100000000E-03 0.  1.
         11   -1    0    0    0    0 -0.00000000000E+00 -0.00000000000E+00 -0.45593999997E+02  0.45594000000E+02  0.51100000000E-03 0. -1.
    9900012    2    1    2    0    0 -0.54436914143E+01  0.15469087561E+01  0.31379833650E+02  0.59301942501E+02  0.49999997215E+02 0.  0.
         12    1    1    2    0    0  0.54436914143E+01 -0.15469087561E+01 -0.31379833650E+02  0.31886057499E+02  0.00000000000E+00 0. -1.
         11    1    3    3    0    0  0.22465717448E+01 -0.49347973631E+01 -0.14522054062E+01  0.56132174750E+01  0.51100000000E-03 0. -1.
        -11    1    3    3    0    0 -0.17029318896E+02 -0.38515492447E+01  0.35450358009E+02  0.39516579013E+02  0.51100000000E-03 0.  1.
         12    1    3    3    0    0  0.93390557366E+01  0.10333255364E+02 -0.26183189528E+01  0.14172146013E+02  0.00000000000E+00 0. -1.
</event>
<event>
 7    1  0.1284645E-011  0.5930212E+02  0.7816164E-02  0.1266604E+00
        -11   -1    0    0    0    0  0.00000000000E+00  0.00000000000E+00  0.45593999997E+02  0.45594000000E+02  0.51100000000E-03 0.  1.
         11   -1    0    0    0    0 -0.00000000000E+00 -0.00000000000E+00 -0.45593999997E+02  0.45594000000E+02  0.51100000000E-03 0. -1.
    9900012    2    1    2    0    0 -0.50045374628E+01 -0.24894904705E+02  0.19284901796E+02  0.59302123616E+02  0.50000327526E+02 0.  0.
         12    1    1    2    0    0  0.50045374628E+01  0.24894904705E+02 -0.19284901796E+02  0.31885876384E+02  0.00000000000E+00 0. -1.
         11    1    3    3    0    0  0.72679490589E+01  0.16836720961E+01  0.55823185091E+00  0.74812738427E+01  0.51100000000E-03 0.  1.
        -11    1    3    3    0    0  0.12884328658E+02 -0.17058778853E+02  0.72049363373E+01  0.22559232452E+02  0.51100000000E-03 0. -1.
         12    1    3    3    0    0 -0.25156815180E+02 -0.95197979481E+01  0.11521733608E+02  0.29261617322E+02  0.00000000000E+00 0. -1.
</event>
<event>
 7    1  0.1284645E-011  0.5930194E+02  0.7816164E-02  0.1266605E+00
        -11   -1    0    0    0    0  0.00000000000E+00  0.00000000000E+00  0.45593999997E+02  0.45594000000E+02  0.51100000000E-03 0.  1.
         11   -1    0    0    0    0 -0.00000000000E+00 -0.00000000000E+00 -0.45593999997E+02  0.45594000000E+02  0.51100000000E-03 0. -1.
    9900012    2    1    2    0    0  0.31474976445E+02 -0.48415478649E+01  0.16143832310E+01  0.59301937823E+02  0.49999988684E+02 0.  0.
         12    1    1    2    0    0 -0.31474976445E+02  0.48415478649E+01 -0.16143832310E+01  0.31886062177E+02  0.00000000000E+00 0. -1.
         11    1    3    3    0    0 -0.95310149478E+00  0.82719398978E+01  0.60668605343E+01  0.10302436078E+02  0.51100000000E-03 0. -1.
        -11    1    3    3    0    0  0.67322101474E+01 -0.20324178249E+02  0.21165667222E+01  0.21514523698E+02  0.51100000000E-03 0.  1.
         12    1    3    3    0    0  0.25695867792E+02  0.72106904867E+01 -0.65690440254E+01  0.27484978048E+02  0.00000000000E+00 0. -1.
</event>
<event>
 7    1  0.1284645E-011  0.5930194E+02  0.7816164E-02  0.1266605E+00
        -11   -1    0    0    0    0  0.00000000000E+00  0.00000000000E+00  0.45593999997E+02  0.45594000000E+02  0.51100000000E-03 0.  1.
         11   -1    0    0    0    0 -0.00000000000E+00 -0.00000000000E+00 -0.45593999997E+02  0.45594000000E+02  0.51100000000E-03 0. -1.
    9900012    2    1    2    0    0 -0.33500750851E+01 -0.77505552138E+01  0.30747790448E+02  0.59301941500E+02  0.49999995391E+02 0.  0.
         12    1    1    2    0    0  0.33500750851E+01  0.77505552138E+01 -0.30747790448E+02  0.31886058500E+02  0.00000000000E+00 0. -1.
         11    1    3    3    0    0  0.34068964854E+01 -0.15003056634E+02 -0.76425664953E+01  0.17178692468E+02  0.51100000000E-03 0. -1.
        -11    1    3    3    0    0 -0.24204124437E+01 -0.23704768305E+01  0.14160408054E+01  0.36718835256E+01  0.51100000000E-03 0.  1.
        -12    1    3    3    0    0 -0.43365591268E+01  0.96229782504E+01  0.36974316138E+02  0.38451365507E+02  0.00000000000E+00 0.  1.
</event>
<event>
 7    1  0.1284645E-011  0.5930197E+02  0.7816164E-02  0.1266605E+00
        -11   -1    0    0    0    0  0.00000000000E+00  0.00000000000E+00  0.45593999997E+02  0.45594000000E+02  0.51100000000E-03 0.  1.
         11   -1    0    0    0    0 -0.00000000000E+00 -0.00000000000E+00 -0.45593999997E+02  0.45594000000E+02  0.51100000000E-03 0. -1.
    9900012    2    1    2    0    0 -0.29832697803E+02 -0.11001964428E+02 -0.23845370628E+01  0.59301967063E+02  0.50000042011E+02 0.  0.
         12    1    1    2    0    0  0.29832697803E+02  0.11001964428E+02  0.23845370628E+01  0.31886032937E+02  0.00000000000E+00 0. -1.
         11    1    3    3    0    0 -0.29686665192E+02 -0.71973768785E+01 -0.30000162432E+01  0.30693654424E+02  0.51100000000E-03 0. -1.
        -11    1    3    3    0    0  0.52237395309E+00 -0.22171554430E+01 -0.13852315366E+02  0.14038350832E+02  0.51100000000E-03 0.  1.
        -12    1    3    3    0    0 -0.66840656331E+00 -0.15874321065E+01  0.14467794547E+02  0.14569961807E+02  0.00000000000E+00 0.  1.
</event>
<event>
 7    1  0.1284645E-011  0.5930197E+02  0.7816164E-02  0.1266605E+00
        -11   -1    0    0    0    0  0.00000000000E+00  0.00000000000E+00  0.45593999997E+02  0.45594000000E+02  0.51100000000E-03 0. -1.
         11   -1    0    0    0    0 -0.00000000000E+00 -0.00000000000E+00 -0.45593999997E+02  0.45594000000E+02  0.51100000000E-03 0.  1.
    9900012    2    1    2    0    0 -0.20502309977E+02  0.11228610002E+02 -0.21686224298E+02  0.59301972946E+02  0.50000052740E+02 0.  0.
         12    1    1    2    0    0  0.20502309977E+02 -0.11228610002E+02  0.21686224298E+02  0.31886027054E+02  0.00000000000E+00 0. -1.
         11    1    3    3    0    0  0.10118915912E+01  0.71816638202E+01  0.97067464310E+01  0.12116977608E+02  0.51100000000E-03 0. -1.
        -11    1    3    3    0    0 -0.82610030414E+01  0.15335844970E+02 -0.12165328527E+02  0.21246824013E+02  0.51100000000E-03 0.  1.
         12    1    3    3    0    0 -0.13253198527E+02 -0.11288898788E+02 -0.19227642202E+02  0.25938171325E+02  0.00000000000E+00 0. -1.
</event>
<event>
 7    1  0.1284645E-011  0.5930193E+02  0.7816164E-02  0.1266605E+00
        -11   -1    0    0    0    0  0.00000000000E+00  0.00000000000E+00  0.45593999997E+02  0.45594000000E+02  0.51100000000E-03 0.  1.
         11   -1    0    0    0    0 -0.00000000000E+00 -0.00000000000E+00 -0.45593999997E+02  0.45594000000E+02  0.51100000000E-03 0. -1.
    9900012    2    1    2    0    0  0.31333754540E+02 -0.39710021792E+01  0.43758925893E+01  0.59301929878E+02  0.49999974195E+02 0.  0.
         12    1    1    2    0    0 -0.31333754540E+02  0.39710021792E+01 -0.43758925893E+01  0.31886070122E+02  0.00000000000E+00 0. -1.
         11    1    3    3    0    0  0.25740279404E+02 -0.59249577315E+01 -0.87305373692E+01  0.27818867535E+02  0.51100000000E-03 0.  1.
        -11    1    3    3    0    0  0.16432501071E+02  0.38934490020E+01  0.11313510193E+02  0.20326867681E+02  0.51100000000E-03 0. -1.
         12    1    3    3    0    0 -0.10839025935E+02 -0.19394934497E+01  0.17929197652E+01  0.11156194662E+02  0.00000000000E+00 0. -1.
</event>
<event>
 7    1  0.1284645E-011  0.5930203E+02  0.7816164E-02  0.1266604E+00
        -11   -1    0    0    0    0  0.00000000000E+00  0.00000000000E+00  0.45593999997E+02  0.45594000000E+02  0.51100000000E-03 0. -1.
         11   -1    0    0    0    0 -0.00000000000E+00 -0.00000000000E+00 -0.45593999997E+02  0.45594000000E+02  0.51100000000E-03 0.  1.
    9900012    2    1    2    0    0  0.30757660334E+02  0.65852651041E+01 -0.52264701887E+01  0.59302025398E+02  0.50000148399E+02 0.  0.
         12    1    1    2    0    0 -0.30757660334E+02 -0.65852651041E+01  0.52264701887E+01  0.31885974602E+02  0.00000000000E+00 0. -1.
         11    1    3    3    0    0  0.10937999732E+02 -0.29891278839E+01  0.14666133093E+02  0.18538343610E+02  0.51100000000E-03 0. -1.
        -11    1    3    3    0    0 -0.69600112639E+01  0.44436171531E+01 -0.36741543396E+01  0.90380805799E+01  0.51100000000E-03 0.  1.
        -12    1    3    3    0    0  0.26779671865E+02  0.51307758350E+01 -0.16218448942E+02  0.31725601208E+02  0.00000000000E+00 0.  1.
</event>
<event>
 7    1  0.1284645E-011  0.5930197E+02  0.7816164E-02  0.1266605E+00
        -11   -1    0    0    0    0  0.00000000000E+00  0.00000000000E+00  0.45593999997E+02  0.45594000000E+02  0.51100000000E-03 0.  1.
         11   -1    0    0    0    0 -0.00000000000E+00 -0.00000000000E+00 -0.45593999997E+02  0.45594000000E+02  0.51100000000E-03 0. -1.
    9900012    2    1    2    0    0 -0.19127984829E+02 -0.19315127010E+02  0.16666277776E+02  0.59301972497E+02  0.50000051921E+02 0.  0.
         12    1    1    2    0    0  0.19127984829E+02  0.19315127010E+02 -0.16666277776E+02  0.31886027503E+02  0.00000000000E+00 0. -1.
         11    1    3    3    0    0 -0.47371943706E+01  0.80556044504E+01  0.10152111830E+02  0.13798519792E+02  0.51100000000E-03 0. -1.
        -11    1    3    3    0    0  0.68663910968E+01 -0.19708055897E+02  0.90848595878E+01  0.22761578766E+02  0.51100000000E-03 0.  1.
        -12    1    3    3    0    0 -0.21257181555E+02 -0.76626755630E+01 -0.25706936416E+01  0.22741873939E+02  0.00000000000E+00 0.  1.
</event>
<event>
 7    1  0.1284645E-011  0.5930187E+02  0.7816164E-02  0.1266605E+00
        -11   -1    0    0    0    0  0.00000000000E+00  0.00000000000E+00  0.45593999997E+02  0.45594000000E+02  0.51100000000E-03 0. -1.
         11   -1    0    0    0    0 -0.00000000000E+00 -0.00000000000E+00 -0.45593999997E+02  0.45594000000E+02  0.51100000000E-03 0.  1.
    9900012    2    1    2    0    0 -0.10634918804E+02 -0.18261985951E+02 -0.23877258567E+02  0.59301872836E+02  0.49999870163E+02 0.  0.
         12    1    1    2    0    0  0.10634918804E+02  0.18261985951E+02  0.23877258567E+02  0.31886127164E+02  0.00000000000E+00 0. -1.
         11    1    3    3    0    0  0.72483699090E+01 -0.16517307502E+01  0.10056420186E+01  0.75018928904E+01  0.51100000000E-03 0. -1.
        -11    1    3    3    0    0  0.47124411368E+01  0.25293828180E+01  0.66556506316E+01  0.85382998600E+01  0.51100000000E-03 0.  1.
        -12    1    3    3    0    0 -0.22595729849E+02 -0.19139638019E+02 -0.31538551217E+02  0.43261680085E+02  0.00000000000E+00 0.  1.
</event>
<event>
 7    1  0.1284645E-011  0.5930192E+02  0.7816164E-02  0.1266605E+00
        -11   -1    0    0    0    0  0.00000000000E+00  0.00000000000E+00  0.45593999997E+02  0.45594000000E+02  0.51100000000E-03 0.  1.
         11   -1    0    0    0    0 -0.00000000000E+00 -0.00000000000E+00 -0.45593999997E+02  0.45594000000E+02  0.51100000000E-03 0. -1.
    9900012    2    1    2    0    0 -0.38767045405E+01 -0.11675803097E+02  0.29417156705E+02  0.59301916442E+02  0.49999949690E+02 0.  0.
         12    1    1    2    0    0  0.38767045405E+01  0.11675803097E+02 -0.29417156705E+02  0.31886083558E+02  0.00000000000E+00 0. -1.
         11    1    3    3    0    0 -0.70079138999E+00 -0.80524601054E+01 -0.73551275639E+01  0.10928454789E+02  0.51100000000E-03 0. -1.
        -11    1    3    3    0    0  0.13591728877E+02 -0.50920844399E+01  0.15281974101E+02  0.21076127502E+02  0.51100000000E-03 0.  1.
         12    1    3    3    0    0 -0.16767642028E+02  0.14687414486E+01  0.21490310168E+02  0.27297334151E+02  0.00000000000E+00 0. -1.
</event>
<event>
 7    1  0.1284645E-011  0.5930195E+02  0.7816164E-02  0.1266605E+00
        -11   -1    0    0    0    0  0.00000000000E+00  0.00000000000E+00  0.45593999997E+02  0.45594000000E+02  0.51100000000E-03 0. -1.
         11   -1    0    0    0    0 -0.00000000000E+00 -0.00000000000E+00 -0.45593999997E+02  0.45594000000E+02  0.51100000000E-03 0.  1.
    9900012    2    1    2    0    0 -0.36385949838E+01 -0.29553494270E+02 -0.11404910339E+02  0.59301946986E+02  0.50000005394E+02 0.  0.
         12    1    1    2    0    0  0.36385949838E+01  0.29553494270E+02  0.11404910339E+02  0.31886053014E+02  0.00000000000E+00 0. -1.
         11    1    3    3    0    0  0.11703617722E+01  0.53713899020E+01 -0.13787443297E+02  0.14843017520E+02  0.51100000000E-03 0. -1.
        -11    1    3    3    0    0  0.93409020189E+01 -0.17893981392E+02 -0.55573285487E+01  0.20936354063E+02  0.51100000000E-03 0.  1.
        -12    1    3    3    0    0 -0.14149858775E+02 -0.17030902780E+02  0.79398615072E+01  0.23522575403E+02  0.00000000000E+00 0.  1.
</event>
<event>
 7    1  0.1284645E-011  0.5930198E+02  0.7816164E-02  0.1266605E+00
        -11   -1    0    0    0    0  0.00000000000E+00  0.00000000000E+00  0.45593999997E+02  0.45594000000E+02  0.51100000000E-03 0.  1.
         11   -1    0    0    0    0 -0.00000000000E+00 -0.00000000000E+00 -0.45593999997E+02  0.45594000000E+02  0.51100000000E-03 0. -1.
    9900012    2    1    2    0    0 -0.73116986462E+01 -0.30975760717E+02 -0.19390344872E+01  0.59301975729E+02  0.50000057815E+02 0.  0.
         12    1    1    2    0    0  0.73116986462E+01  0.30975760717E+02  0.19390344872E+01  0.31886024271E+02  0.00000000000E+00 0. -1.
         11    1    3    3    0    0  0.23732991283E+01  0.57065156916E+01  0.18218140955E+01  0.64432815358E+01  0.51100000000E-03 0. -1.
        -11    1    3    3    0    0  0.96900177399E+01 -0.17335175422E+02  0.99770102002E+01  0.22224884330E+02  0.51100000000E-03 0.  1.
        -12    1    3    3    0    0 -0.19375015514E+02 -0.19347100987E+02 -0.13737858783E+02  0.30633809863E+02  0.00000000000E+00 0.  1.
</event>
<event>
 7    1  0.1284645E-011  0.5930193E+02  0.7816164E-02  0.1266605E+00
        -11   -1    0    0    0    0  0.00000000000E+00  0.00000000000E+00  0.45593999997E+02  0.45594000000E+02  0.51100000000E-03 0.  1.
         11   -1    0    0    0    0 -0.00000000000E+00 -0.00000000000E+00 -0.45593999997E+02  0.45594000000E+02  0.51100000000E-03 0. -1.
    9900012    2    1    2    0    0  0.42499919180E+01 -0.96021626371E+01  0.30107435572E+02  0.59301927251E+02  0.49999969404E+02 0.  0.
         12    1    1    2    0    0 -0.42499919180E+01  0.96021626371E+01 -0.30107435572E+02  0.31886072749E+02  0.00000000000E+00 0. -1.
         11    1    3    3    0    0  0.10581655866E+02  0.85871735186E+01 -0.53159560837E+00  0.13637946475E+02  0.51100000000E-03 0. -1.
        -11    1    3    3    0    0  0.37167308367E+01  0.63313869107E+01  0.72666805085E+01  0.10329820628E+02  0.51100000000E-03 0.  1.
         12    1    3    3    0    0 -0.10048394785E+02 -0.24520723066E+02  0.23372350672E+02  0.35334160148E+02  0.00000000000E+00 0. -1.
</event>
<event>
 7    1  0.1284645E-011  0.5930196E+02  0.7816164E-02  0.1266605E+00
        -11   -1    0    0    0    0  0.00000000000E+00  0.00000000000E+00  0.45593999997E+02  0.45594000000E+02  0.51100000000E-03 0.  1.
         11   -1    0    0    0    0 -0.00000000000E+00 -0.00000000000E+00 -0.45593999997E+02  0.45594000000E+02  0.51100000000E-03 0. -1.
    9900012    2    1    2    0    0  0.21173006954E+02  0.57748692561E+01  0.23131673820E+02  0.59301958036E+02  0.50000025549E+02 0.  0.
         12    1    1    2    0    0 -0.21173006954E+02 -0.57748692561E+01 -0.23131673820E+02  0.31886041964E+02  0.00000000000E+00 0. -1.
         11    1    3    3    0    0 -0.29129763395E+01 -0.91260622204E+01  0.56652528926E+01  0.11129489360E+02  0.51100000000E-03 0. -1.
        -11    1    3    3    0    0  0.17728426485E+02  0.10077213972E+02  0.28197872519E+02  0.34798956334E+02  0.51100000000E-03 0.  1.
         12    1    3    3    0    0  0.63575568082E+01  0.48237175050E+01 -0.10731451591E+02  0.13373512343E+02  0.00000000000E+00 0. -1.
</event>
<event>
 7    1  0.1284645E-011  0.5930195E+02  0.7816164E-02  0.1266605E+00
        -11   -1    0    0    0    0  0.00000000000E+00  0.00000000000E+00  0.45593999997E+02  0.45594000000E+02  0.51100000000E-03 0. -1.
         11   -1    0    0    0    0 -0.00000000000E+00 -0.00000000000E+00 -0.45593999997E+02  0.45594000000E+02  0.51100000000E-03 0.  1.
    9900012    2    1    2    0    0  0.18923246714E+02  0.25571842315E+02 -0.21707047609E+01  0.59301947489E+02  0.50000006313E+02 0.  0.
         12    1    1    2    0    0 -0.18923246714E+02 -0.25571842315E+02  0.21707047609E+01  0.31886052511E+02  0.00000000000E+00 0. -1.
         11    1    3    3    0    0  0.55338615871E+01 -0.39918064330E+01  0.15686580919E+01  0.70013449518E+01  0.51100000000E-03 0. -1.
        -11    1    3    3    0    0 -0.76607890157E+01 -0.49613981951E+01 -0.73288752884E+01  0.11705365165E+02  0.51100000000E-03 0.  1.
        -12    1    3    3    0    0  0.21050174142E+02  0.34525046943E+02  0.35895124356E+01  0.40595237373E+02  0.00000000000E+00 0.  1.
</event>
<event>
 7    1  0.1284645E-011  0.5930194E+02  0.7816164E-02  0.1266605E+00
        -11   -1    0    0    0    0  0.00000000000E+00  0.00000000000E+00  0.45593999997E+02  0.45594000000E+02  0.51100000000E-03 0.  1.
         11   -1    0    0    0    0 -0.00000000000E+00 -0.00000000000E+00 -0.45593999997E+02  0.45594000000E+02  0.51100000000E-03 0. -1.
    9900012    2    1    2    0    0  0.17673832435E+02 -0.96527979736E+01  0.24722057133E+02  0.59301937676E+02  0.49999988416E+02 0.  0.
         12    1    1    2    0    0 -0.17673832435E+02  0.96527979736E+01 -0.24722057133E+02  0.31886062324E+02  0.00000000000E+00 0. -1.
         11    1    3    3    0    0  0.55909702648E+00 -0.81023483037E+01 -0.62599041998E+00  0.81457044990E+01  0.51100000000E-03 0. -1.
        -11    1    3    3    0    0  0.21172503837E+02 -0.17730367208E+02  0.17733542015E+02  0.32819496533E+02  0.51100000000E-03 0.  1.
         12    1    3    3    0    0 -0.40577684285E+01  0.16179917538E+02  0.76145055380E+01  0.18336736644E+02  0.00000000000E+00 0. -1.
</event>
<event>
 7    1  0.1284645E-011  0.5930233E+02  0.7816164E-02  0.1266603E+00
        -11   -1    0    0    0    0  0.00000000000E+00  0.00000000000E+00  0.45593999997E+02  0.45594000000E+02  0.51100000000E-03 0.  1.
         11   -1    0    0    0    0 -0.00000000000E+00 -0.00000000000E+00 -0.45593999997E+02  0.45594000000E+02  0.51100000000E-03 0. -1.
    9900012    2    1    2    0    0  0.30656068571E+01  0.65861954956E+00  0.31731127165E+02  0.59302326787E+02  0.50000698056E+02 0.  0.
         12    1    1    2    0    0 -0.30656068571E+01 -0.65861954956E+00 -0.31731127165E+02  0.31885673213E+02  0.00000000000E+00 0. -1.
         11    1    3    3    0    0 -0.18633917750E+02 -0.69674084364E+01  0.95494901803E+01  0.22067180019E+02  0.51100000000E-03 0. -1.
        -11    1    3    3    0    0  0.22867221390E+01 -0.50701016102E+01  0.67428373469E+00  0.56026500243E+01  0.51100000000E-03 0.  1.
         12    1    3    3    0    0  0.19412802468E+02  0.12696129596E+02  0.21507353250E+02  0.31632496743E+02  0.00000000000E+00 0. -1.
</event>
<event>
 7    1  0.1284645E-011  0.5930197E+02  0.7816164E-02  0.1266605E+00
        -11   -1    0    0    0    0  0.00000000000E+00  0.00000000000E+00  0.45593999997E+02  0.45594000000E+02  0.51100000000E-03 0. -1.
         11   -1    0    0    0    0 -0.00000000000E+00 -0.00000000000E+00 -0.45593999997E+02  0.45594000000E+02  0.51100000000E-03 0.  1.
    9900012    2    1    2    0    0  0.17440385627E+02  0.11394536195E+02 -0.24139512953E+02  0.59301974981E+02  0.50000056451E+02 0.  0.
         12    1    1    2    0    0 -0.17440385627E+02 -0.11394536195E+02  0.24139512953E+02  0.31886025019E+02  0.00000000000E+00 0. -1.
         11    1    3    3    0    0 -0.99586846394E-01 -0.16590749769E+01  0.14375836091E+01  0.21975200143E+01  0.51100000000E-03 0. -1.
        -11    1    3    3    0    0  0.14294621626E+02 -0.13982092512E+02 -0.37136225904E+00  0.19999325704E+02  0.51100000000E-03 0.  1.
         12    1    3    3    0    0  0.32453508481E+01  0.27035703684E+02 -0.25205734303E+02  0.37105129262E+02  0.00000000000E+00 0. -1.
</event>
<event>
 7    1  0.1284645E-011  0.5930196E+02  0.7816164E-02  0.1266605E+00
        -11   -1    0    0    0    0  0.00000000000E+00  0.00000000000E+00  0.45593999997E+02  0.45594000000E+02  0.51100000000E-03 0.  1.
         11   -1    0    0    0    0 -0.00000000000E+00 -0.00000000000E+00 -0.45593999997E+02  0.45594000000E+02  0.51100000000E-03 0. -1.
    9900012    2    1    2    0    0 -0.30644829222E+02  0.51489901456E+01  0.71485776860E+01  0.59301955709E+02  0.50000021304E+02 0.  0.
         12    1    1    2    0    0  0.30644829222E+02 -0.51489901456E+01 -0.71485776860E+01  0.31886044291E+02  0.00000000000E+00 0. -1.
         11    1    3    3    0    0 -0.91137204498E+01  0.46529560325E+01  0.78764557778E+01  0.12913111792E+02  0.51100000000E-03 0. -1.
        -11    1    3    3    0    0 -0.17411066304E+02  0.22975161677E+00  0.19268543689E+02  0.25970652510E+02  0.51100000000E-03 0.  1.
         12    1    3    3    0    0 -0.41200424687E+01  0.26628249628E+00 -0.19996421780E+02  0.20418191407E+02  0.00000000000E+00 0. -1.
</event>
<event>
 7    1  0.1284645E-011  0.5930194E+02  0.7816164E-02  0.1266605E+00
        -11   -1    0    0    0    0  0.00000000000E+00  0.00000000000E+00  0.45593999997E+02  0.45594000000E+02  0.51100000000E-03 0. -1.
         11   -1    0    0    0    0 -0.00000000000E+00 -0.00000000000E+00 -0.45593999997E+02  0.45594000000E+02  0.51100000000E-03 0.  1.
    9900012    2    1    2    0    0 -0.20374374999E+02  0.24117801535E+02 -0.44650972462E+01  0.59301943472E+02  0.49999998987E+02 0.  0.
         12    1    1    2    0    0  0.20374374999E+02 -0.24117801535E+02  0.44650972462E+01  0.31886056528E+02  0.00000000000E+00 0. -1.
         11    1    3    3    0    0  0.46671255784E+01 -0.80855832831E+01  0.59940038505E+01  0.11094449090E+02  0.51100000000E-03 0. -1.
        -11    1    3    3    0    0 -0.73938625255E+01  0.20102276388E+00  0.45673696626E+01  0.86931282686E+01  0.51100000000E-03 0.  1.
        -12    1    3    3    0    0 -0.17647638051E+02  0.32002362055E+02 -0.15026470759E+02  0.39514366113E+02  0.00000000000E+00 0.  1.
</event>
<event>
 7    1  0.1284645E-011  0.5930194E+02  0.7816164E-02  0.1266605E+00
        -11   -1    0    0    0    0  0.00000000000E+00  0.00000000000E+00  0.45593999997E+02  0.45594000000E+02  0.51100000000E-03 0.  1.
         11   -1    0    0    0    0 -0.00000000000E+00 -0.00000000000E+00 -0.45593999997E+02  0.45594000000E+02  0.51100000000E-03 0. -1.
    9900012    2    1    2    0    0 -0.14683155474E+02  0.15703112138E+02  0.23548625892E+02  0.59301944006E+02  0.49999999960E+02 0.  0.
         12    1    1    2    0    0  0.14683155474E+02 -0.15703112138E+02 -0.23548625892E+02  0.31886055994E+02  0.00000000000E+00 0. -1.
         11    1    3    3    0    0 -0.15450807262E+02  0.17107476545E+02  0.19120465485E+01  0.23131128832E+02  0.51100000000E-03 0. -1.
        -11    1    3    3    0    0 -0.12142181980E+02  0.33240521124E+01  0.28785407354E+01  0.12913864748E+02  0.51100000000E-03 0.  1.
         12    1    3    3    0    0  0.12909833768E+02 -0.47284165196E+01  0.18758038608E+02  0.23256950426E+02  0.00000000000E+00 0. -1.
</event>
<event>
 7    1  0.1284645E-011  0.5930189E+02  0.7816164E-02  0.1266605E+00
        -11   -1    0    0    0    0  0.00000000000E+00  0.00000000000E+00  0.45593999997E+02  0.45594000000E+02  0.51100000000E-03 0. -1.
         11   -1    0    0    0    0 -0.00000000000E+00 -0.00000000000E+00 -0.45593999997E+02  0.45594000000E+02  0.51100000000E-03 0.  1.
    9900012    2    1    2    0    0 -0.10428122365E+02 -0.13332427456E+02 -0.27022668707E+02  0.59301890454E+02  0.49999902295E+02 0.  0.
         12    1    1    2    0    0  0.10428122365E+02  0.13332427456E+02  0.27022668707E+02  0.31886109546E+02  0.00000000000E+00 0. -1.
         11    1    3    3    0    0 -0.21968113392E+01 -0.83536879584E+01 -0.23357685254E+02  0.24903645180E+02  0.51100000000E-03 0. -1.
        -11    1    3    3    0    0  0.11656075794E+02 -0.37028957841E+01 -0.71511084880E+01  0.14167353068E+02  0.51100000000E-03 0.  1.
         12    1    3    3    0    0 -0.19887386820E+02 -0.12758437131E+01  0.34861250347E+01  0.20230892206E+02  0.00000000000E+00 0. -1.
</event>
<event>
 7    1  0.1284645E-011  0.5930200E+02  0.7816164E-02  0.1266605E+00
        -11   -1    0    0    0    0  0.00000000000E+00  0.00000000000E+00  0.45593999997E+02  0.45594000000E+02  0.51100000000E-03 0.  1.
         11   -1    0    0    0    0 -0.00000000000E+00 -0.00000000000E+00 -0.45593999997E+02  0.45594000000E+02  0.51100000000E-03 0. -1.
    9900012    2    1    2    0    0 -0.22560177309E+02  0.21434469585E+02  0.69511824563E+01  0.59301999558E+02  0.50000101275E+02 0.  0.
         12    1    1    2    0    0  0.22560177309E+02 -0.21434469585E+02 -0.69511824563E+01  0.31886000442E+02  0.00000000000E+00 0. -1.
         11    1    3    3    0    0 -0.10966619906E+02  0.14600386159E+01  0.11803520656E+02  0.16177810885E+02  0.51100000000E-03 0. -1.
        -11    1    3    3    0    0 -0.21220655281E+02  0.20347968433E+02 -0.11337783321E+02  0.31510337365E+02  0.51100000000E-03 0.  1.
         12    1    3    3    0    0  0.96270978779E+01 -0.37353746382E+00  0.64854451220E+01  0.11613851309E+02  0.00000000000E+00 0. -1.
</event>
<event>
 7    1  0.1284645E-011  0.5930193E+02  0.7816164E-02  0.1266605E+00
        -11   -1    0    0    0    0  0.00000000000E+00  0.00000000000E+00  0.45593999997E+02  0.45594000000E+02  0.51100000000E-03 0. -1.
         11   -1    0    0    0    0 -0.00000000000E+00 -0.00000000000E+00 -0.45593999997E+02  0.45594000000E+02  0.51100000000E-03 0.  1.
    9900012    2    1    2    0    0 -0.14098322706E+02 -0.20274060210E+02 -0.20172292533E+02  0.59301927702E+02  0.49999970226E+02 0.  0.
         12    1    1    2    0    0  0.14098322706E+02  0.20274060210E+02  0.20172292533E+02  0.31886072298E+02  0.00000000000E+00 0. -1.
         11    1    3    3    0    0  0.32159302033E+01 -0.70569190666E+01 -0.20851256094E+02  0.22246734474E+02  0.51100000000E-03 0. -1.
        -11    1    3    3    0    0 -0.12116610136E+02 -0.65087173011E+00 -0.12988760193E+02  0.17774807082E+02  0.51100000000E-03 0.  1.
         12    1    3    3    0    0 -0.51976427740E+01 -0.12566269413E+02  0.13667723753E+02  0.19280386147E+02  0.00000000000E+00 0. -1.
</event>
<event>
 7    1  0.1284645E-011  0.5930195E+02  0.7816164E-02  0.1266605E+00
        -11   -1    0    0    0    0  0.00000000000E+00  0.00000000000E+00  0.45593999997E+02  0.45594000000E+02  0.51100000000E-03 0.  1.
         11   -1    0    0    0    0 -0.00000000000E+00 -0.00000000000E+00 -0.45593999997E+02  0.45594000000E+02  0.51100000000E-03 0. -1.
    9900012    2    1    2    0    0  0.14399378913E+02 -0.28082366765E+02  0.45562077494E+01  0.59301945599E+02  0.50000002865E+02 0.  0.
         12    1    1    2    0    0 -0.14399378913E+02  0.28082366765E+02 -0.45562077494E+01  0.31886054401E+02  0.00000000000E+00 0. -1.
         11    1    3    3    0    0  0.22782671208E+02 -0.10728733885E+01 -0.63491380749E+01  0.23675149825E+02  0.51100000000E-03 0. -1.
        -11    1    3    3    0    0 -0.63099534130E+01 -0.13175715566E+01 -0.20692322908E+01  0.67700243291E+01  0.51100000000E-03 0.  1.
        -12    1    3    3    0    0 -0.20733388826E+01 -0.25691921820E+02  0.12974578115E+02  0.28856771445E+02  0.00000000000E+00 0.  1.
</event>
<event>
 7    1  0.1284645E-011  0.5930196E+02  0.7816164E-02  0.1266605E+00
        -11   -1    0    0    0    0  0.00000000000E+00  0.00000000000E+00  0.45593999997E+02  0.45594000000E+02  0.51100000000E-03 0.  1.
         11   -1    0    0    0    0 -0.00000000000E+00 -0.00000000000E+00 -0.45593999997E+02  0.45594000000E+02  0.51100000000E-03 0. -1.
    9900012    2    1    2    0    0  0.29468417097E+02 -0.87539553375E+01 -0.84676161803E+01  0.59301955027E+02  0.50000020060E+02 0.  0.
         12    1    1    2    0    0 -0.29468417097E+02  0.87539553375E+01  0.84676161803E+01  0.31886044973E+02  0.00000000000E+00 0. -1.
         11    1    3    3    0    0 -0.82068948739E+01 -0.10074191448E+02  0.13530882879E+01  0.13064199362E+02  0.51100000000E-03 0. -1.
        -11    1    3    3    0    0  0.13008347428E+01 -0.17569011531E+01 -0.94830854878E+01  0.97317924002E+01  0.51100000000E-03 0.  1.
        -12    1    3    3    0    0  0.36374477228E+02  0.30771372632E+01 -0.33761898037E+00  0.36505963265E+02  0.00000000000E+00 0.  1.
</event>
<event>
 7    1  0.1284645E-011  0.5930192E+02  0.7816164E-02  0.1266605E+00
        -11   -1    0    0    0    0  0.00000000000E+00  0.00000000000E+00  0.45593999997E+02  0.45594000000E+02  0.51100000000E-03 0.  1.
         11   -1    0    0    0    0 -0.00000000000E+00 -0.00000000000E+00 -0.45593999997E+02  0.45594000000E+02  0.51100000000E-03 0. -1.
    9900012    2    1    2    0    0  0.21652916965E+02 -0.23124559365E+02  0.36232639160E+01  0.59301919960E+02  0.49999956106E+02 0.  0.
         12    1    1    2    0    0 -0.21652916965E+02  0.23124559365E+02 -0.36232639160E+01  0.31886080040E+02  0.00000000000E+00 0. -1.
         11    1    3    3    0    0  0.23433482403E+02 -0.20009840179E+02  0.91632647182E+01  0.32147896075E+02  0.51100000000E-03 0. -1.
        -11    1    3    3    0    0 -0.21153348073E+01 -0.83575654616E+01  0.85345015807E+01  0.12131004051E+02  0.51100000000E-03 0.  1.
         12    1    3    3    0    0  0.33476936873E+00  0.52428462754E+01 -0.14074502383E+02  0.15023019834E+02  0.00000000000E+00 0. -1.
</event>
<event>
 7    1  0.1284645E-011  0.5930196E+02  0.7816164E-02  0.1266605E+00
        -11   -1    0    0    0    0  0.00000000000E+00  0.00000000000E+00  0.45593999997E+02  0.45594000000E+02  0.51100000000E-03 0.  1.
         11   -1    0    0    0    0 -0.00000000000E+00 -0.00000000000E+00 -0.45593999997E+02  0.45594000000E+02  0.51100000000E-03 0. -1.
    9900012    2    1    2    0    0  0.12781487373E+01  0.26425160413E+02  0.17798780832E+02  0.59301962834E+02  0.50000034297E+02 0.  0.
         12    1    1    2    0    0 -0.12781487373E+01 -0.26425160413E+02 -0.17798780832E+02  0.31886037166E+02  0.00000000000E+00 0. -1.
         11    1    3    3    0    0  0.36207060333E+01  0.31773033525E+02  0.18821728829E+02  0.37106504119E+02  0.51100000000E-03 0.  1.
        -11    1    3    3    0    0 -0.73477462372E+01  0.52110798896E+01 -0.44095793159E+01  0.10029412664E+02  0.51100000000E-03 0. -1.
        -12    1    3    3    0    0  0.50051889412E+01 -0.10558953001E+02  0.33866313195E+01  0.12166046051E+02  0.00000000000E+00 0.  1.
</event>
<event>
 7    1  0.1284645E-011  0.5930193E+02  0.7816164E-02  0.1266605E+00
        -11   -1    0    0    0    0  0.00000000000E+00  0.00000000000E+00  0.45593999997E+02  0.45594000000E+02  0.51100000000E-03 0. -1.
         11   -1    0    0    0    0 -0.00000000000E+00 -0.00000000000E+00 -0.45593999997E+02  0.45594000000E+02  0.51100000000E-03 0.  1.
    9900012    2    1    2    0    0 -0.19810155335E+02 -0.13280462118E+02 -0.21163854270E+02  0.59301926927E+02  0.49999968812E+02 0.  0.
         12    1    1    2    0    0  0.19810155335E+02  0.13280462118E+02  0.21163854270E+02  0.31886073073E+02  0.00000000000E+00 0. -1.
         11    1    3    3    0    0  0.26208290670E+01 -0.43087585309E+01  0.31749060252E+01  0.59593769478E+01  0.51100000000E-03 0. -1.
        -11    1    3    3    0    0 -0.16092616363E+02 -0.20128786571E+02  0.64822206995E-01  0.25771002162E+02  0.51100000000E-03 0.  1.
        -12    1    3    3    0    0 -0.63383680390E+01  0.11157082984E+02 -0.24403582502E+02  0.27571547817E+02  0.00000000000E+00 0.  1.
</event>
<event>
 7    1  0.1284645E-011  0.5930195E+02  0.7816164E-02  0.1266605E+00
        -11   -1    0    0    0    0  0.00000000000E+00  0.00000000000E+00  0.45593999997E+02  0.45594000000E+02  0.51100000000E-03 0. -1.
         11   -1    0    0    0    0 -0.00000000000E+00 -0.00000000000E+00 -0.45593999997E+02  0.45594000000E+02  0.51100000000E-03 0.  1.
    9900012    2    1    2    0    0  0.12830818011E+02  0.10231508520E+02 -0.27338737168E+02  0.59301949643E+02  0.50000010240E+02 0.  0.
         12    1    1    2    0    0 -0.12830818011E+02 -0.10231508520E+02  0.27338737168E+02  0.31886050357E+02  0.00000000000E+00 0. -1.
         11    1    3    3    0    0 -0.66619836572E+01  0.16252692648E+01  0.46140983542E+01  0.82651939067E+01  0.51100000000E-03 0. -1.
        -11    1    3    3    0    0  0.85724610848E+01 -0.10845649871E+02 -0.24343321560E+01  0.14037135872E+02  0.51100000000E-03 0.  1.
         12    1    3    3    0    0  0.10920340583E+02  0.19451889127E+02 -0.29518503367E+02  0.36999619864E+02  0.00000000000E+00 0. -1.
</event>
<event>
 7    1  0.1284645E-011  0.5930168E+02  0.7816164E-02  0.1266606E+00
        -11   -1    0    0    0    0  0.00000000000E+00  0.00000000000E+00  0.45593999997E+02  0.45594000000E+02  0.51100000000E-03 0.  1.
         11   -1    0    0    0    0 -0.00000000000E+00 -0.00000000000E+00 -0.45593999997E+02  0.45594000000E+02  0.51100000000E-03 0. -1.
    9900012    2    1    2    0    0  0.69246040519E+01  0.14378683232E+02  0.27605090367E+02  0.59301675550E+02  0.49999510359E+02 0.  0.
         12    1    1    2    0    0 -0.69246040519E+01 -0.14378683232E+02 -0.27605090367E+02  0.31886324450E+02  0.00000000000E+00 0. -1.
         11    1    3    3    0    0 -0.16556305634E+02 -0.67299920021E+01  0.11496174763E+02  0.21250084307E+02  0.51100000000E-03 0. -1.
        -11    1    3    3    0    0 -0.98759411000E+00  0.72062268856E+00 -0.12753701065E+01  0.17666941883E+01  0.51100000000E-03 0.  1.
        -12    1    3    3    0    0  0.24468503796E+02  0.20388052546E+02  0.17384285710E+02  0.36284897055E+02  0.00000000000E+00 0.  1.
</event>
<event>
 7    1  0.1284645E-011  0.5930194E+02  0.7816164E-02  0.1266605E+00
        -11   -1    0    0    0    0  0.00000000000E+00  0.00000000000E+00  0.45593999997E+02  0.45594000000E+02  0.51100000000E-03 0. -1.
         11   -1    0    0    0    0 -0.00000000000E+00 -0.00000000000E+00 -0.45593999997E+02  0.45594000000E+02  0.51100000000E-03 0.  1.
    9900012    2    1    2    0    0  0.18524539487E+02 -0.35623635114E+01 -0.25707424472E+02  0.59301942389E+02  0.49999997011E+02 0.  0.
         12    1    1    2    0    0 -0.18524539487E+02  0.35623635114E+01  0.25707424472E+02  0.31886057611E+02  0.00000000000E+00 0. -1.
         11    1    3    3    0    0  0.13045872501E+02  0.12564924208E+01 -0.50318307305E+01  0.14038977287E+02  0.51100000000E-03 0. -1.
        -11    1    3    3    0    0  0.20749521555E+01  0.11128832733E+02 -0.25796287250E+02  0.28170991828E+02  0.51100000000E-03 0.  1.
         12    1    3    3    0    0  0.34037148301E+01 -0.15947688665E+02  0.51206935080E+01  0.17091973274E+02  0.00000000000E+00 0. -1.
</event>
<event>
 7    1  0.1284645E-011  0.5930196E+02  0.7816164E-02  0.1266605E+00
        -11   -1    0    0    0    0  0.00000000000E+00  0.00000000000E+00  0.45593999997E+02  0.45594000000E+02  0.51100000000E-03 0. -1.
         11   -1    0    0    0    0 -0.00000000000E+00 -0.00000000000E+00 -0.45593999997E+02  0.45594000000E+02  0.51100000000E-03 0.  1.
    9900012    2    1    2    0    0 -0.16314249296E+02 -0.27983420400E+01 -0.27253151568E+02  0.59301957307E+02  0.50000024218E+02 0.  0.
         12    1    1    2    0    0  0.16314249296E+02  0.27983420400E+01  0.27253151568E+02  0.31886042693E+02  0.00000000000E+00 0. -1.
         11    1    3    3    0    0  0.15084762859E+01  0.56098844996E+01 -0.53881468869E+01  0.79232841638E+01  0.51100000000E-03 0. -1.
        -11    1    3    3    0    0 -0.57936648654E+01  0.15874055095E+02 -0.16766400748E+02  0.23804713232E+02  0.51100000000E-03 0.  1.
        -12    1    3    3    0    0 -0.12029060717E+02 -0.24282281635E+02 -0.50986039330E+01  0.27573959911E+02  0.00000000000E+00 0.  1.
</event>
<event>
 7    1  0.1284645E-011  0.5930194E+02  0.7816164E-02  0.1266605E+00
        -11   -1    0    0    0    0  0.00000000000E+00  0.00000000000E+00  0.45593999997E+02  0.45594000000E+02  0.51100000000E-03 0.  1.
         11   -1    0    0    0    0 -0.00000000000E+00 -0.00000000000E+00 -0.45593999997E+02  0.45594000000E+02  0.51100000000E-03 0. -1.
    9900012    2    1    2    0    0  0.14672055883E+02 -0.27653916539E+02  0.60591031246E+01  0.59301936360E+02  0.49999986015E+02 0.  0.
         12    1    1    2    0    0 -0.14672055883E+02  0.27653916539E+02 -0.60591031246E+01  0.31886063640E+02  0.00000000000E+00 0. -1.
         11    1    3    3    0    0  0.20775412881E+01 -0.23875265821E+02  0.37001660832E+01  0.24249447935E+02  0.51100000000E-03 0. -1.
        -11    1    3    3    0    0  0.19216537008E+02 -0.12792510042E+02 -0.17151088147E+01  0.23148762521E+02  0.51100000000E-03 0.  1.
         12    1    3    3    0    0 -0.66220224130E+01  0.90138593240E+01  0.40740458561E+01  0.11903725904E+02  0.00000000000E+00 0. -1.
</event>
<event>
 7    1  0.1284645E-011  0.5930198E+02  0.7816164E-02  0.1266605E+00
        -11   -1    0    0    0    0  0.00000000000E+00  0.00000000000E+00  0.45593999997E+02  0.45594000000E+02  0.51100000000E-03 0.  1.
         11   -1    0    0    0    0 -0.00000000000E+00 -0.00000000000E+00 -0.45593999997E+02  0.45594000000E+02  0.51100000000E-03 0. -1.
    9900012    2    1    2    0    0  0.19034061473E+02 -0.19993173347E+02  0.15959182434E+02  0.59301984560E+02  0.50000073922E+02 0.  0.
         12    1    1    2    0    0 -0.19034061473E+02  0.19993173347E+02 -0.15959182434E+02  0.31886015440E+02  0.00000000000E+00 0. -1.
         11    1    3    3    0    0 -0.63387556601E+01  0.43672930175E+01  0.10812068355E+02  0.13272297992E+02  0.51100000000E-03 0. -1.
        -11    1    3    3    0    0  0.17172334224E+02 -0.19219307546E+02  0.16888067633E+02  0.30813595602E+02  0.51100000000E-03 0.  1.
         12    1    3    3    0    0  0.82004829091E+01 -0.51411588184E+01 -0.11740953554E+02  0.15216090967E+02  0.00000000000E+00 0. -1.
</event>
<event>
 7    1  0.1284645E-011  0.5930194E+02  0.7816164E-02  0.1266605E+00
        -11   -1    0    0    0    0  0.00000000000E+00  0.00000000000E+00  0.45593999997E+02  0.45594000000E+02  0.51100000000E-03 0.  1.
         11   -1    0    0    0    0 -0.00000000000E+00 -0.00000000000E+00 -0.45593999997E+02  0.45594000000E+02  0.51100000000E-03 0. -1.
    9900012    2    1    2    0    0  0.65719239720E+01  0.14906956201E+02  0.27410093333E+02  0.59301941222E+02  0.49999994883E+02 0.  0.
         12    1    1    2    0    0 -0.65719239720E+01 -0.14906956201E+02 -0.27410093333E+02  0.31886058778E+02  0.00000000000E+00 0. -1.
         11    1    3    3    0    0 -0.22975541360E+01  0.92228637704E+01  0.14340877247E+02  0.17204671796E+02  0.51100000000E-03 0. -1.
        -11    1    3    3    0    0 -0.88966733061E+01  0.72591953026E+01  0.19918792952E+02  0.22991411989E+02  0.51100000000E-03 0.  1.
         12    1    3    3    0    0  0.17766151414E+02 -0.15751028723E+01 -0.68495768658E+01  0.19105857436E+02  0.00000000000E+00 0. -1.
</event>
<event>
 7    1  0.1284645E-011  0.5930193E+02  0.7816164E-02  0.1266605E+00
        -11   -1    0    0    0    0  0.00000000000E+00  0.00000000000E+00  0.45593999997E+02  0.45594000000E+02  0.51100000000E-03 0.  1.
         11   -1    0    0    0    0 -0.00000000000E+00 -0.00000000000E+00 -0.45593999997E+02  0.45594000000E+02  0.51100000000E-03 0. -1.
    9900012    2    1    2    0    0  0.20746895710E+02  0.18791217381E+02 -0.15270167169E+02  0.59301928784E+02  0.49999972199E+02 0.  0.
         12    1    1    2    0    0 -0.20746895710E+02 -0.18791217381E+02  0.15270167169E+02  0.31886071216E+02  0.00000000000E+00 0. -1.
         11    1    3    3    0    0  0.10676583581E+02 -0.83187017851E+00 -0.93864337431E+01  0.14240315433E+02  0.51100000000E-03 0.  1.
        -11    1    3    3    0    0  0.35580197525E+01 -0.99645618467E+01  0.64049607479E+01  0.12368327284E+02  0.51100000000E-03 0. -1.
        -12    1    3    3    0    0  0.65122923762E+01  0.29587649406E+02 -0.12288694174E+02  0.32693286067E+02  0.00000000000E+00 0.  1.
</event>
<event>
 7    1  0.1284645E-011  0.5930193E+02  0.7816164E-02  0.1266605E+00
        -11   -1    0    0    0    0  0.00000000000E+00  0.00000000000E+00  0.45593999997E+02  0.45594000000E+02  0.51100000000E-03 0. -1.
         11   -1    0    0    0    0 -0.00000000000E+00 -0.00000000000E+00 -0.45593999997E+02  0.45594000000E+02  0.51100000000E-03 0.  1.
    9900012    2    1    2    0    0 -0.12888322201E+02 -0.23397582059E+02 -0.17411655515E+02  0.59301930265E+02  0.49999974901E+02 0.  0.
         12    1    1    2    0    0  0.12888322201E+02  0.23397582059E+02  0.17411655515E+02  0.31886069735E+02  0.00000000000E+00 0. -1.
         11    1    3    3    0    0 -0.75938045445E+00 -0.38535166813E+01  0.33703556494E+01  0.51754755291E+01  0.51100000000E-03 0. -1.
        -11    1    3    3    0    0  0.13872471217E+02 -0.13609623837E+02 -0.19340395384E+02  0.27417480054E+02  0.51100000000E-03 0.  1.
         12    1    3    3    0    0 -0.26001412964E+02 -0.59344415407E+01 -0.14416157801E+01  0.26708974682E+02  0.00000000000E+00 0. -1.
</event>
<event>
 7    1  0.1284645E-011  0.5930193E+02  0.7816164E-02  0.1266605E+00
        -11   -1    0    0    0    0  0.00000000000E+00  0.00000000000E+00  0.45593999997E+02  0.45594000000E+02  0.51100000000E-03 0.  1.
         11   -1    0    0    0    0 -0.00000000000E+00 -0.00000000000E+00 -0.45593999997E+02  0.45594000000E+02  0.51100000000E-03 0. -1.
    9900012    2    1    2    0    0 -0.19258655386E+02  0.61995240983E+01  0.24645312495E+02  0.59301931971E+02  0.49999978012E+02 0.  0.
         12    1    1    2    0    0  0.19258655386E+02 -0.61995240983E+01 -0.24645312495E+02  0.31886068029E+02  0.00000000000E+00 0. -1.
         11    1    3    3    0    0  0.61976723651E+01  0.11906354743E+02 -0.54048613601E+01  0.14470140034E+02  0.51100000000E-03 0. -1.
        -11    1    3    3    0    0 -0.12413143606E+01  0.52845846809E+01  0.10519230911E+02  0.11837310329E+02  0.51100000000E-03 0.  1.
        -12    1    3    3    0    0 -0.24215013391E+02 -0.10991415325E+02  0.19530942944E+02  0.32994481609E+02  0.00000000000E+00 0.  1.
</event>
<event>
 7    1  0.1284645E-011  0.5930196E+02  0.7816164E-02  0.1266605E+00
        -11   -1    0    0    0    0  0.00000000000E+00  0.00000000000E+00  0.45593999997E+02  0.45594000000E+02  0.51100000000E-03 0. -1.
         11   -1    0    0    0    0 -0.00000000000E+00 -0.00000000000E+00 -0.45593999997E+02  0.45594000000E+02  0.51100000000E-03 0.  1.
    9900012    2    1    2    0    0 -0.11119965490E+02 -0.21555466704E+02 -0.20698499364E+02  0.59301958332E+02  0.50000026087E+02 0.  0.
         12    1    1    2    0    0  0.11119965490E+02  0.21555466704E+02  0.20698499364E+02  0.31886041668E+02  0.00000000000E+00 0. -1.
         11    1    3    3    0    0 -0.36211915921E+00 -0.38247935676E+01  0.56823331911E+01  0.68592336945E+01  0.51100000000E-03 0. -1.
        -11    1    3    3    0    0  0.39976117310E+01 -0.51174230273E+01  0.95821240648E+01  0.11575233036E+02  0.51100000000E-03 0.  1.
        -12    1    3    3    0    0 -0.14755458062E+02 -0.12613250110E+02 -0.35962956620E+02  0.40867491601E+02  0.00000000000E+00 0.  1.
</event>
<event>
 7    1  0.1284645E-011  0.5930200E+02  0.7816164E-02  0.1266605E+00
        -11   -1    0    0    0    0  0.00000000000E+00  0.00000000000E+00  0.45593999997E+02  0.45594000000E+02  0.51100000000E-03 0. -1.
         11   -1    0    0    0    0 -0.00000000000E+00 -0.00000000000E+00 -0.45593999997E+02  0.45594000000E+02  0.51100000000E-03 0.  1.
    9900012    2    1    2    0    0  0.22600398667E+01 -0.28954436770E+02  0.13162450212E+02  0.59301995477E+02  0.50000093831E+02 0.  0.
         12    1    1    2    0    0 -0.22600398667E+01  0.28954436770E+02 -0.13162450212E+02  0.31886004523E+02  0.00000000000E+00 0. -1.
         11    1    3    3    0    0  0.10828093933E+02 -0.67524471846E+01  0.20508820013E+02  0.24154810282E+02  0.51100000000E-03 0. -1.
        -11    1    3    3    0    0  0.79764904642E+01 -0.11952113162E+02 -0.62038356114E+01  0.15651357312E+02  0.51100000000E-03 0.  1.
         12    1    3    3    0    0 -0.16544544531E+02 -0.10249876424E+02 -0.11425341896E+01  0.19495827882E+02  0.00000000000E+00 0. -1.
</event>
<event>
 7    1  0.1284645E-011  0.5930193E+02  0.7816164E-02  0.1266605E+00
        -11   -1    0    0    0    0  0.00000000000E+00  0.00000000000E+00  0.45593999997E+02  0.45594000000E+02  0.51100000000E-03 0. -1.
         11   -1    0    0    0    0 -0.00000000000E+00 -0.00000000000E+00 -0.45593999997E+02  0.45594000000E+02  0.51100000000E-03 0.  1.
    9900012    2    1    2    0    0 -0.27026311207E+02  0.15964430282E+02 -0.56068540514E+01  0.59301931819E+02  0.49999977734E+02 0.  0.
         12    1    1    2    0    0  0.27026311207E+02 -0.15964430282E+02  0.56068540514E+01  0.31886068181E+02  0.00000000000E+00 0. -1.
         11    1    3    3    0    0 -0.57988285649E+01 -0.73107514648E+01  0.42061368661E+01  0.10235481782E+02  0.51100000000E-03 0. -1.
        -11    1    3    3    0    0  0.50608865687E+01  0.81531752432E+01 -0.15480946885E+02  0.18213911060E+02  0.51100000000E-03 0.  1.
         12    1    3    3    0    0 -0.26288369211E+02  0.15122006503E+02  0.56679559673E+01  0.30852538977E+02  0.00000000000E+00 0. -1.
</event>
<event>
 7    1  0.1284645E-011  0.5930195E+02  0.7816164E-02  0.1266605E+00
        -11   -1    0    0    0    0  0.00000000000E+00  0.00000000000E+00  0.45593999997E+02  0.45594000000E+02  0.51100000000E-03 0.  1.
         11   -1    0    0    0    0 -0.00000000000E+00 -0.00000000000E+00 -0.45593999997E+02  0.45594000000E+02  0.51100000000E-03 0. -1.
    9900012    2    1    2    0    0 -0.14453908785E+02  0.10723269400E+00  0.28421703414E+02  0.59301949712E+02  0.50000010367E+02 0.  0.
         12    1    1    2    0    0  0.14453908785E+02 -0.10723269400E+00 -0.28421703414E+02  0.31886050288E+02  0.00000000000E+00 0. -1.
         11    1    3    3    0    0  0.14020451436E-01 -0.74194076415E+01 -0.49888328462E+01  0.89407080118E+01  0.51100000000E-03 0. -1.
        -11    1    3    3    0    0 -0.15214521468E+02  0.26660932306E+01 -0.11156722892E+01  0.15486589087E+02  0.51100000000E-03 0.  1.
        -12    1    3    3    0    0  0.74659223160E+00  0.48605471050E+01  0.34526208549E+02  0.34874652614E+02  0.00000000000E+00 0.  1.
</event>
<event>
 7    1  0.1284645E-011  0.5930196E+02  0.7816164E-02  0.1266605E+00
        -11   -1    0    0    0    0  0.00000000000E+00  0.00000000000E+00  0.45593999997E+02  0.45594000000E+02  0.51100000000E-03 0. -1.
         11   -1    0    0    0    0 -0.00000000000E+00 -0.00000000000E+00 -0.45593999997E+02  0.45594000000E+02  0.51100000000E-03 0.  1.
    9900012    2    1    2    0    0 -0.12888620164E+02  0.82253335644E+01 -0.27981184255E+02  0.59301963648E+02  0.50000035782E+02 0.  0.
         12    1    1    2    0    0  0.12888620164E+02 -0.82253335644E+01  0.27981184255E+02  0.31886036352E+02  0.00000000000E+00 0. -1.
         11    1    3    3    0    0  0.51705926239E+01  0.26551136886E+01 -0.82583587371E+01  0.10098769533E+02  0.51100000000E-03 0.  1.
        -11    1    3    3    0    0 -0.20510791890E+02  0.30910118238E+01 -0.31055906032E+02  0.37345899879E+02  0.51100000000E-03 0. -1.
         12    1    3    3    0    0  0.24515791025E+01  0.24792080520E+01  0.11333080514E+02  0.11857294236E+02  0.00000000000E+00 0. -1.
</event>
<event>
 7    1  0.1284645E-011  0.5930194E+02  0.7816164E-02  0.1266605E+00
        -11   -1    0    0    0    0  0.00000000000E+00  0.00000000000E+00  0.45593999997E+02  0.45594000000E+02  0.51100000000E-03 0.  1.
         11   -1    0    0    0    0 -0.00000000000E+00 -0.00000000000E+00 -0.45593999997E+02  0.45594000000E+02  0.51100000000E-03 0. -1.
    9900012    2    1    2    0    0  0.14328115344E+02  0.87349264038E+01  0.27113225010E+02  0.59301940365E+02  0.49999993320E+02 0.  0.
         12    1    1    2    0    0 -0.14328115344E+02 -0.87349264038E+01 -0.27113225010E+02  0.31886059635E+02  0.00000000000E+00 0. -1.
         11    1    3    3    0    0 -0.17875457908E+01 -0.12060809253E+02  0.48527426760E+01  0.13122787491E+02  0.51100000000E-03 0. -1.
        -11    1    3    3    0    0 -0.40994898604E+01  0.10409736627E+02  0.20537139986E+02  0.23386802963E+02  0.51100000000E-03 0.  1.
        -12    1    3    3    0    0  0.20215150996E+02  0.10385999029E+02  0.17233423481E+01  0.22792349911E+02  0.00000000000E+00 0.  1.
</event>
<event>
 7    1  0.1284645E-011  0.5930190E+02  0.7816164E-02  0.1266605E+00
        -11   -1    0    0    0    0  0.00000000000E+00  0.00000000000E+00  0.45593999997E+02  0.45594000000E+02  0.51100000000E-03 0. -1.
         11   -1    0    0    0    0 -0.00000000000E+00 -0.00000000000E+00 -0.45593999997E+02  0.45594000000E+02  0.51100000000E-03 0.  1.
    9900012    2    1    2    0    0 -0.52488757041E+01  0.51180892455E+01 -0.31031883606E+02  0.59301900617E+02  0.49999920830E+02 0.  0.
         12    1    1    2    0    0  0.52488757041E+01 -0.51180892455E+01  0.31031883606E+02  0.31886099383E+02  0.00000000000E+00 0. -1.
         11    1    3    3    0    0 -0.13805906356E+02 -0.83260334280E+01 -0.12844769102E+02  0.20613441647E+02  0.51100000000E-03 0. -1.
        -11    1    3    3    0    0 -0.94989979745E+01  0.76952825678E+01  0.28121316813E+00  0.12228140391E+02  0.51100000000E-03 0.  1.
        -12    1    3    3    0    0  0.18056028627E+02  0.57488401057E+01 -0.18468327672E+02  0.26460318580E+02  0.00000000000E+00 0.  1.
</event>
<event>
 7    1  0.1284645E-011  0.5930193E+02  0.7816164E-02  0.1266605E+00
        -11   -1    0    0    0    0  0.00000000000E+00  0.00000000000E+00  0.45593999997E+02  0.45594000000E+02  0.51100000000E-03 0. -1.
         11   -1    0    0    0    0 -0.00000000000E+00 -0.00000000000E+00 -0.45593999997E+02  0.45594000000E+02  0.51100000000E-03 0.  1.
    9900012    2    1    2    0    0 -0.15869536967E+02 -0.64861116737E+01 -0.26885120361E+02  0.59301928668E+02  0.49999971987E+02 0.  0.
         12    1    1    2    0    0  0.15869536967E+02  0.64861116737E+01  0.26885120361E+02  0.31886071332E+02  0.00000000000E+00 0. -1.
         11    1    3    3    0    0  0.70670725048E+01 -0.15208597826E+02 -0.15043982448E+02  0.22529233670E+02  0.51100000000E-03 0. -1.
        -11    1    3    3    0    0 -0.26769201238E+01  0.10365740280E+02 -0.12471975814E+02  0.16436686219E+02  0.51100000000E-03 0.  1.
         12    1    3    3    0    0 -0.20259689348E+02 -0.16432541280E+01  0.63083790034E+00  0.20336008779E+02  0.00000000000E+00 0. -1.
</event>
<event>
 7    1  0.1284645E-011  0.5930194E+02  0.7816164E-02  0.1266605E+00
        -11   -1    0    0    0    0  0.00000000000E+00  0.00000000000E+00  0.45593999997E+02  0.45594000000E+02  0.51100000000E-03 0.  1.
         11   -1    0    0    0    0 -0.00000000000E+00 -0.00000000000E+00 -0.45593999997E+02  0.45594000000E+02  0.51100000000E-03 0. -1.
    9900012    2    1    2    0    0  0.72619253755E+01 -0.29409683502E+02  0.99526735024E+01  0.59301941076E+02  0.49999994617E+02 0.  0.
         12    1    1    2    0    0 -0.72619253755E+01  0.29409683502E+02 -0.99526735024E+01  0.31886058924E+02  0.00000000000E+00 0. -1.
         11    1    3    3    0    0  0.96897517849E+01 -0.12244623912E+02 -0.84163675489E+01  0.17738583579E+02  0.51100000000E-03 0. -1.
        -11    1    3    3    0    0 -0.14327943450E+01 -0.22488376020E+02  0.12688994801E+00  0.22534330631E+02  0.51100000000E-03 0.  1.
        -12    1    3    3    0    0 -0.99503206434E+00  0.53233164302E+01  0.18242151103E+02  0.19029026867E+02  0.00000000000E+00 0.  1.
</event>
<event>
 7    1  0.1284645E-011  0.5930194E+02  0.7816164E-02  0.1266605E+00
        -11   -1    0    0    0    0  0.00000000000E+00  0.00000000000E+00  0.45593999997E+02  0.45594000000E+02  0.51100000000E-03 0.  1.
         11   -1    0    0    0    0 -0.00000000000E+00 -0.00000000000E+00 -0.45593999997E+02  0.45594000000E+02  0.51100000000E-03 0. -1.
    9900012    2    1    2    0    0  0.20279711534E+02  0.24043058336E+02 -0.52330826474E+01  0.59301944928E+02  0.50000001643E+02 0.  0.
         12    1    1    2    0    0 -0.20279711534E+02 -0.24043058336E+02  0.52330826474E+01  0.31886055072E+02  0.00000000000E+00 0. -1.
         11    1    3    3    0    0  0.64309740518E+01 -0.85791030363E+01 -0.47873087438E+01  0.11742093571E+02  0.51100000000E-03 0. -1.
        -11    1    3    3    0    0  0.15607232602E+02  0.16336597593E+02  0.13264060112E+02  0.26199340093E+02  0.51100000000E-03 0.  1.
        -12    1    3    3    0    0 -0.17584951207E+01  0.16285563780E+02 -0.13709834016E+02  0.21360511264E+02  0.00000000000E+00 0.  1.
</event>
<event>
 7    1  0.1284645E-011  0.5930195E+02  0.7816164E-02  0.1266605E+00
        -11   -1    0    0    0    0  0.00000000000E+00  0.00000000000E+00  0.45593999997E+02  0.45594000000E+02  0.51100000000E-03 0. -1.
         11   -1    0    0    0    0 -0.00000000000E+00 -0.00000000000E+00 -0.45593999997E+02  0.45594000000E+02  0.51100000000E-03 0.  1.
    9900012    2    1    2    0    0  0.63005083297E+01 -0.23731464176E+02 -0.20343096982E+02  0.59301946749E+02  0.50000004962E+02 0.  0.
         12    1    1    2    0    0 -0.63005083297E+01  0.23731464176E+02  0.20343096982E+02  0.31886053251E+02  0.00000000000E+00 0. -1.
         11    1    3    3    0    0 -0.46944415841E+01  0.42469070562E+01  0.91634083415E+01  0.11137416847E+02  0.51100000000E-03 0. -1.
        -11    1    3    3    0    0  0.81565648954E+01 -0.59996100772E+01  0.13068972871E+01  0.10209449189E+02  0.51100000000E-03 0.  1.
        -12    1    3    3    0    0  0.28383850185E+01 -0.21978761155E+02 -0.30813402611E+02  0.37955080712E+02  0.00000000000E+00 0.  1.
</event>
<event>
 7    1  0.1284645E-011  0.5930183E+02  0.7816164E-02  0.1266605E+00
        -11   -1    0    0    0    0  0.00000000000E+00  0.00000000000E+00  0.45593999997E+02  0.45594000000E+02  0.51100000000E-03 0. -1.
         11   -1    0    0    0    0 -0.00000000000E+00 -0.00000000000E+00 -0.45593999997E+02  0.45594000000E+02  0.51100000000E-03 0.  1.
    9900012    2    1    2    0    0  0.19646820727E+02 -0.20886650716E+02 -0.13945534558E+02  0.59301832515E+02  0.49999796627E+02 0.  0.
         12    1    1    2    0    0 -0.19646820727E+02  0.20886650716E+02  0.13945534558E+02  0.31886167485E+02  0.00000000000E+00 0. -1.
         11    1    3    3    0    0  0.21034999884E+02  0.73851528697E+01 -0.14563450970E+02  0.26629040678E+02  0.51100000000E-03 0. -1.
        -11    1    3    3    0    0 -0.72508930933E+01 -0.11919523752E+02 -0.43338455330E+01  0.14609336552E+02  0.51100000000E-03 0.  1.
        -12    1    3    3    0    0  0.58627139356E+01 -0.16352279834E+02  0.49517619447E+01  0.18063455285E+02  0.00000000000E+00 0.  1.
</event>
<event>
 7    1  0.1284645E-011  0.5930196E+02  0.7816164E-02  0.1266605E+00
        -11   -1    0    0    0    0  0.00000000000E+00  0.00000000000E+00  0.45593999997E+02  0.45594000000E+02  0.51100000000E-03 0.  1.
         11   -1    0    0    0    0 -0.00000000000E+00 -0.00000000000E+00 -0.45593999997E+02  0.45594000000E+02  0.51100000000E-03 0. -1.
    9900012    2    1    2    0    0  0.98837396564E+01 -0.26794869117E+02  0.14179783390E+02  0.59301959519E+02  0.50000028252E+02 0.  0.
         12    1    1    2    0    0 -0.98837396564E+01  0.26794869117E+02 -0.14179783390E+02  0.31886040481E+02  0.00000000000E+00 0. -1.
         11    1    3    3    0    0  0.11775563765E+01  0.61024890420E+01  0.12075047533E+01  0.63312778740E+01  0.51100000000E-03 0. -1.
        -11    1    3    3    0    0 -0.10980503569E+02 -0.25497388541E+01  0.12447277706E+02  0.16793074448E+02  0.51100000000E-03 0.  1.
        -12    1    3    3    0    0  0.19686686849E+02 -0.30347619305E+02  0.52500093076E+00  0.36177607197E+02  0.00000000000E+00 0.  1.
</event>
<event>
 7    1  0.1284645E-011  0.5930207E+02  0.7816164E-02  0.1266604E+00
        -11   -1    0    0    0    0  0.00000000000E+00  0.00000000000E+00  0.45593999997E+02  0.45594000000E+02  0.51100000000E-03 0.  1.
         11   -1    0    0    0    0 -0.00000000000E+00 -0.00000000000E+00 -0.45593999997E+02  0.45594000000E+02  0.51100000000E-03 0. -1.
    9900012    2    1    2    0    0  0.83698503101E+01 -0.24646719211E+02  0.18417307708E+02  0.59302072300E+02  0.50000233937E+02 0.  0.
         12    1    1    2    0    0 -0.83698503101E+01  0.24646719211E+02 -0.18417307708E+02  0.31885927700E+02  0.00000000000E+00 0. -1.
         11    1    3    3    0    0 -0.11832697123E+02 -0.27212601475E+01  0.58517191937E+01  0.13478152536E+02  0.51100000000E-03 0. -1.
        -11    1    3    3    0    0 -0.54401757983E+01  0.44929021934E+01  0.36462042106E+01  0.79420707779E+01  0.51100000000E-03 0.  1.
        -12    1    3    3    0    0  0.25642723232E+02 -0.26418361257E+02  0.89193843037E+01  0.37881848986E+02  0.00000000000E+00 0.  1.
</event>
<event>
 7    1  0.1284645E-011  0.5930195E+02  0.7816164E-02  0.1266605E+00
        -11   -1    0    0    0    0  0.00000000000E+00  0.00000000000E+00  0.45593999997E+02  0.45594000000E+02  0.51100000000E-03 0. -1.
         11   -1    0    0    0    0 -0.00000000000E+00 -0.00000000000E+00 -0.45593999997E+02  0.45594000000E+02  0.51100000000E-03 0.  1.
    9900012    2    1    2    0    0 -0.20043168739E+02  0.19484418540E+02 -0.15341082791E+02  0.59301952893E+02  0.50000016167E+02 0.  0.
         12    1    1    2    0    0  0.20043168739E+02 -0.19484418540E+02  0.15341082791E+02  0.31886047107E+02  0.00000000000E+00 0. -1.
         11    1    3    3    0    0  0.50740175402E+01  0.20749775543E+01 -0.16292514342E+02  0.17190032277E+02  0.51100000000E-03 0. -1.
        -11    1    3    3    0    0 -0.87312436777E+01 -0.15488237597E+01 -0.11181468636E+02  0.14270904398E+02  0.51100000000E-03 0.  1.
         12    1    3    3    0    0 -0.16385942601E+02  0.18958264745E+02  0.12132900187E+02  0.27841016218E+02  0.00000000000E+00 0. -1.
</event>
<event>
 7    1  0.1284645E-011  0.5930195E+02  0.7816164E-02  0.1266605E+00
        -11   -1    0    0    0    0  0.00000000000E+00  0.00000000000E+00  0.45593999997E+02  0.45594000000E+02  0.51100000000E-03 0.  1.
         11   -1    0    0    0    0 -0.00000000000E+00 -0.00000000000E+00 -0.45593999997E+02  0.45594000000E+02  0.51100000000E-03 0. -1.
    9900012    2    1    2    0    0  0.20476881108E+02 -0.20027746733E+02  0.14010945033E+02  0.59301954779E+02  0.50000019608E+02 0.  0.
         12    1    1    2    0    0 -0.20476881108E+02  0.20027746733E+02 -0.14010945033E+02  0.31886045221E+02  0.00000000000E+00 0. -1.
         11    1    3    3    0    0  0.12700185076E+02  0.49648176129E+01 -0.49998450668E+01  0.14523861947E+02  0.51100000000E-03 0. -1.
        -11    1    3    3    0    0  0.20963030334E+01 -0.26871064872E+02  0.23258369322E+01  0.27052876584E+02  0.51100000000E-03 0.  1.
         12    1    3    3    0    0  0.56803929979E+01  0.18785005262E+01  0.16684953168E+02  0.17725216249E+02  0.00000000000E+00 0. -1.
</event>
<event>
 7    1  0.1284645E-011  0.5930197E+02  0.7816164E-02  0.1266605E+00
        -11   -1    0    0    0    0  0.00000000000E+00  0.00000000000E+00  0.45593999997E+02  0.45594000000E+02  0.51100000000E-03 0.  1.
         11   -1    0    0    0    0 -0.00000000000E+00 -0.00000000000E+00 -0.45593999997E+02  0.45594000000E+02  0.51100000000E-03 0. -1.
    9900012    2    1    2    0    0  0.12903151453E+01  0.26253481929E+02  0.18050177896E+02  0.59301966244E+02  0.50000040518E+02 0.  0.
         12    1    1    2    0    0 -0.12903151453E+01 -0.26253481929E+02 -0.18050177896E+02  0.31886033756E+02  0.00000000000E+00 0. -1.
         11    1    3    3    0    0 -0.79940108067E+01 -0.44902974384E+01  0.99147610388E+01  0.13504423963E+02  0.51100000000E-03 0. -1.
        -11    1    3    3    0    0 -0.20740384041E+01  0.27721587196E+02  0.15596962181E+02  0.31875590371E+02  0.51100000000E-03 0.  1.
         12    1    3    3    0    0  0.11358364356E+02  0.30221921719E+01 -0.74615453237E+01  0.13921951910E+02  0.00000000000E+00 0. -1.
</event>
<event>
 7    1  0.1284645E-011  0.5930190E+02  0.7816164E-02  0.1266605E+00
        -11   -1    0    0    0    0  0.00000000000E+00  0.00000000000E+00  0.45593999997E+02  0.45594000000E+02  0.51100000000E-03 0.  1.
         11   -1    0    0    0    0 -0.00000000000E+00 -0.00000000000E+00 -0.45593999997E+02  0.45594000000E+02  0.51100000000E-03 0. -1.
    9900012    2    1    2    0    0  0.30107731163E+01  0.18488840268E+02  0.25803516033E+02  0.59301899441E+02  0.49999918684E+02 0.  0.
         12    1    1    2    0    0 -0.30107731163E+01 -0.18488840268E+02 -0.25803516033E+02  0.31886100559E+02  0.00000000000E+00 0. -1.
         11    1    3    3    0    0 -0.12424156025E+02 -0.21632598828E+01  0.13482968289E+02  0.18461575783E+02  0.51100000000E-03 0. -1.
        -11    1    3    3    0    0  0.14108278687E+02  0.14991142332E+02  0.21632594445E+02  0.29862133524E+02  0.51100000000E-03 0.  1.
         12    1    3    3    0    0  0.13266504547E+01  0.56609578188E+01 -0.93120467006E+01  0.10978190134E+02  0.00000000000E+00 0. -1.
</event>
<event>
 7    1  0.1284645E-011  0.5930191E+02  0.7816164E-02  0.1266605E+00
        -11   -1    0    0    0    0  0.00000000000E+00  0.00000000000E+00  0.45593999997E+02  0.45594000000E+02  0.51100000000E-03 0.  1.
         11   -1    0    0    0    0 -0.00000000000E+00 -0.00000000000E+00 -0.45593999997E+02  0.45594000000E+02  0.51100000000E-03 0. -1.
    9900012    2    1    2    0    0 -0.19557171274E+02  0.17603271631E+02  0.18010125669E+02  0.59301909820E+02  0.49999937613E+02 0.  0.
         12    1    1    2    0    0  0.19557171274E+02 -0.17603271631E+02 -0.18010125669E+02  0.31886090180E+02  0.00000000000E+00 0. -1.
         11    1    3    3    0    0 -0.44810292727E+01  0.31682284331E+01  0.10915778776E+02  0.12217672500E+02  0.51100000000E-03 0. -1.
        -11    1    3    3    0    0 -0.34893941644E+01  0.19403298903E+01  0.23257483730E+02  0.23597696952E+02  0.51100000000E-03 0.  1.
         12    1    3    3    0    0 -0.11586747837E+02  0.12494713308E+02 -0.16163136837E+02  0.23486540369E+02  0.00000000000E+00 0. -1.
</event>
<event>
 7    1  0.1284645E-011  0.5930195E+02  0.7816164E-02  0.1266605E+00
        -11   -1    0    0    0    0  0.00000000000E+00  0.00000000000E+00  0.45593999997E+02  0.45594000000E+02  0.51100000000E-03 0.  1.
         11   -1    0    0    0    0 -0.00000000000E+00 -0.00000000000E+00 -0.45593999997E+02  0.45594000000E+02  0.51100000000E-03 0. -1.
    9900012    2    1    2    0    0 -0.22914412317E+02  0.10717433236E+02  0.19410996782E+02  0.59301945633E+02  0.50000002928E+02 0.  0.
         12    1    1    2    0    0  0.22914412317E+02 -0.10717433236E+02 -0.19410996782E+02  0.31886054367E+02  0.00000000000E+00 0. -1.
         11    1    3    3    0    0 -0.22466257704E+02  0.17056692315E+01  0.11429940279E+02  0.25264314315E+02  0.51100000000E-03 0. -1.
        -11    1    3    3    0    0 -0.87996828313E+01  0.44450619390E+01 -0.97800113444E+01  0.13886742445E+02  0.51100000000E-03 0.  1.
        -12    1    3    3    0    0  0.83515282182E+01  0.45667020655E+01  0.17761067847E+02  0.20150888874E+02  0.00000000000E+00 0.  1.
</event>
<event>
 7    1  0.1284645E-011  0.5930193E+02  0.7816164E-02  0.1266605E+00
        -11   -1    0    0    0    0  0.00000000000E+00  0.00000000000E+00  0.45593999997E+02  0.45594000000E+02  0.51100000000E-03 0.  1.
         11   -1    0    0    0    0 -0.00000000000E+00 -0.00000000000E+00 -0.45593999997E+02  0.45594000000E+02  0.51100000000E-03 0. -1.
    9900012    2    1    2    0    0  0.31067041030E+02  0.11837988402E+01  0.70822861287E+01  0.59301934158E+02  0.49999982000E+02 0.  0.
         12    1    1    2    0    0 -0.31067041030E+02 -0.11837988402E+01 -0.70822861287E+01  0.31886065842E+02  0.00000000000E+00 0. -1.
         11    1    3    3    0    0  0.58179182499E+01  0.85237794984E+01  0.69006007375E+01  0.12414559215E+02  0.51100000000E-03 0. -1.
        -11    1    3    3    0    0  0.21168402510E+02 -0.21137469766E+01  0.18005262471E+02  0.27870390525E+02  0.51100000000E-03 0.  1.
         12    1    3    3    0    0  0.40807202708E+01 -0.52262336816E+01 -0.17823577080E+02  0.19016984418E+02  0.00000000000E+00 0. -1.
</event>
<event>
 7    1  0.1284645E-011  0.5930194E+02  0.7816164E-02  0.1266605E+00
        -11   -1    0    0    0    0  0.00000000000E+00  0.00000000000E+00  0.45593999997E+02  0.45594000000E+02  0.51100000000E-03 0.  1.
         11   -1    0    0    0    0 -0.00000000000E+00 -0.00000000000E+00 -0.45593999997E+02  0.45594000000E+02  0.51100000000E-03 0. -1.
    9900012    2    1    2    0    0 -0.29952598858E+02  0.28716682188E+01  0.10550659267E+02  0.59301936153E+02  0.49999985638E+02 0.  0.
         12    1    1    2    0    0  0.29952598858E+02 -0.28716682188E+01 -0.10550659267E+02  0.31886063847E+02  0.00000000000E+00 0. -1.
         11    1    3    3    0    0  0.39409032366E+01  0.46389823403E+01  0.87477409087E+01  0.10657103112E+02  0.51100000000E-03 0. -1.
        -11    1    3    3    0    0  0.49213418166E+00  0.10910738602E+02  0.46829368518E+01  0.11883446920E+02  0.51100000000E-03 0.  1.
         12    1    3    3    0    0 -0.34385636276E+02 -0.12678052723E+02 -0.28800184939E+01  0.36761386121E+02  0.00000000000E+00 0. -1.
</event>
<event>
 7    1  0.1284645E-011  0.5930196E+02  0.7816164E-02  0.1266605E+00
        -11   -1    0    0    0    0  0.00000000000E+00  0.00000000000E+00  0.45593999997E+02  0.45594000000E+02  0.51100000000E-03 0. -1.
         11   -1    0    0    0    0 -0.00000000000E+00 -0.00000000000E+00 -0.45593999997E+02  0.45594000000E+02  0.51100000000E-03 0.  1.
    9900012    2    1    2    0    0  0.21563707654E+02 -0.22452315749E+02  0.69007096253E+01  0.59301956602E+02  0.50000022932E+02 0.  0.
         12    1    1    2    0    0 -0.21563707654E+02  0.22452315749E+02 -0.69007096253E+01  0.31886043398E+02  0.00000000000E+00 0. -1.
         11    1    3    3    0    0  0.44506381748E+01 -0.10424775139E+02  0.16320027069E+02  0.19870264232E+02  0.51100000000E-03 0. -1.
        -11    1    3    3    0    0  0.19365040268E+02  0.50660202191E+00  0.51862604218E+01  0.20053895572E+02  0.51100000000E-03 0.  1.
         12    1    3    3    0    0 -0.22519707893E+01 -0.12534142632E+02 -0.14605577865E+02  0.19377796798E+02  0.00000000000E+00 0. -1.
</event>
<event>
 7    1  0.1284645E-011  0.5930202E+02  0.7816164E-02  0.1266604E+00
        -11   -1    0    0    0    0  0.00000000000E+00  0.00000000000E+00  0.45593999997E+02  0.45594000000E+02  0.51100000000E-03 0. -1.
         11   -1    0    0    0    0 -0.00000000000E+00 -0.00000000000E+00 -0.45593999997E+02  0.45594000000E+02  0.51100000000E-03 0.  1.
    9900012    2    1    2    0    0 -0.30496354135E+02 -0.77400187407E+01 -0.51749474496E+01  0.59302022098E+02  0.50000142382E+02 0.  0.
         12    1    1    2    0    0  0.30496354135E+02  0.77400187407E+01  0.51749474496E+01  0.31885977902E+02  0.00000000000E+00 0. -1.
         11    1    3    3    0    0 -0.88949450165E+01  0.55752181982E+01  0.17928043348E+02  0.20775414396E+02  0.51100000000E-03 0.  1.
        -11    1    3    3    0    0 -0.69729938370E+00  0.30528461959E+01  0.28510845383E+00  0.31444209989E+01  0.51100000000E-03 0. -1.
        -12    1    3    3    0    0 -0.20904109735E+02 -0.16368083135E+02 -0.23388099251E+02  0.35382186703E+02  0.00000000000E+00 0.  1.
</event>
<event>
 7    1  0.1284645E-011  0.5930193E+02  0.7816164E-02  0.1266605E+00
        -11   -1    0    0    0    0  0.00000000000E+00  0.00000000000E+00  0.45593999997E+02  0.45594000000E+02  0.51100000000E-03 0.  1.
         11   -1    0    0    0    0 -0.00000000000E+00 -0.00000000000E+00 -0.45593999997E+02  0.45594000000E+02  0.51100000000E-03 0. -1.
    9900012    2    1    2    0    0 -0.23623416365E+02 -0.18881717751E+02 -0.10106260167E+02  0.59301928425E+02  0.49999971543E+02 0.  0.
         12    1    1    2    0    0  0.23623416365E+02  0.18881717751E+02  0.10106260167E+02  0.31886071575E+02  0.00000000000E+00 0. -1.
         11    1    3    3    0    0  0.67142496644E+01 -0.24069750089E+02 -0.10508472018E+02  0.27108338244E+02  0.51100000000E-03 0. -1.
        -11    1    3    3    0    0 -0.14821161757E+02  0.46129479868E+01  0.44495848921E+01  0.16147598302E+02  0.51100000000E-03 0.  1.
        -12    1    3    3    0    0 -0.15516504272E+02  0.57508435159E+00 -0.40473730407E+01  0.16045991879E+02  0.00000000000E+00 0.  1.
</event>
<event>
 7    1  0.1284645E-011  0.5930193E+02  0.7816164E-02  0.1266605E+00
        -11   -1    0    0    0    0  0.00000000000E+00  0.00000000000E+00  0.45593999997E+02  0.45594000000E+02  0.51100000000E-03 0. -1.
         11   -1    0    0    0    0 -0.00000000000E+00 -0.00000000000E+00 -0.45593999997E+02  0.45594000000E+02  0.51100000000E-03 0.  1.
    9900012    2    1    2    0    0 -0.26652834087E+02  0.87729332433E+01  0.15145413161E+02  0.59301929964E+02  0.49999974351E+02 0.  0.
         12    1    1    2    0    0  0.26652834087E+02 -0.87729332433E+01 -0.15145413161E+02  0.31886070036E+02  0.00000000000E+00 0. -1.
         11    1    3    3    0    0  0.75838645741E+01  0.13388393043E+02 -0.16621755072E+01  0.15476656546E+02  0.51100000000E-03 0. -1.
        -11    1    3    3    0    0 -0.14484587146E+02  0.61158378255E+01 -0.57638412615E-01  0.15722915109E+02  0.51100000000E-03 0.  1.
        -12    1    3    3    0    0 -0.19752111515E+02 -0.10731297625E+02  0.16865227081E+02  0.28102358309E+02  0.00000000000E+00 0.  1.
</event>
<event>
 7    1  0.1284645E-011  0.5930194E+02  0.7816164E-02  0.1266605E+00
        -11   -1    0    0    0    0  0.00000000000E+00  0.00000000000E+00  0.45593999997E+02  0.45594000000E+02  0.51100000000E-03 0.  1.
         11   -1    0    0    0    0 -0.00000000000E+00 -0.00000000000E+00 -0.45593999997E+02  0.45594000000E+02  0.51100000000E-03 0. -1.
    9900012    2    1    2    0    0 -0.93961201979E+01  0.69846903588E+01  0.29658854274E+02  0.59301943313E+02  0.49999998697E+02 0.  0.
         12    1    1    2    0    0  0.93961201979E+01 -0.69846903588E+01 -0.29658854274E+02  0.31886056687E+02  0.00000000000E+00 0. -1.
         11    1    3    3    0    0  0.18242027319E+01 -0.89170411016E+01 -0.71892009284E+01  0.11598532143E+02  0.51100000000E-03 0. -1.
        -11    1    3    3    0    0  0.46484602081E+01  0.11570088049E+02  0.90647088241E+01  0.15415708420E+02  0.51100000000E-03 0.  1.
        -12    1    3    3    0    0 -0.15868783138E+02  0.43316434113E+01  0.27783346378E+02  0.32287702750E+02  0.00000000000E+00 0.  1.
</event>
<event>
 7    1  0.1284645E-011  0.5930193E+02  0.7816164E-02  0.1266605E+00
        -11   -1    0    0    0    0  0.00000000000E+00  0.00000000000E+00  0.45593999997E+02  0.45594000000E+02  0.51100000000E-03 0.  1.
         11   -1    0    0    0    0 -0.00000000000E+00 -0.00000000000E+00 -0.45593999997E+02  0.45594000000E+02  0.51100000000E-03 0. -1.
    9900012    2    1    2    0    0  0.72601294567E+00 -0.27717056127E+02  0.15746713068E+02  0.59301933018E+02  0.49999979921E+02 0.  0.
         12    1    1    2    0    0 -0.72601294567E+00  0.27717056127E+02 -0.15746713068E+02  0.31886066982E+02  0.00000000000E+00 0. -1.
         11    1    3    3    0    0  0.78587628048E+01  0.32824545103E+01  0.11471434469E+02  0.14287353480E+02  0.51100000000E-03 0. -1.
        -11    1    3    3    0    0 -0.17082876635E+02 -0.64627115420E+01  0.51830482253E+00  0.18271835014E+02  0.51100000000E-03 0.  1.
        -12    1    3    3    0    0  0.99501267763E+01 -0.24536799096E+02  0.37569737763E+01  0.26742744524E+02  0.00000000000E+00 0.  1.
</event>
<event>
 7    1  0.1284645E-011  0.5930189E+02  0.7816164E-02  0.1266605E+00
        -11   -1    0    0    0    0  0.00000000000E+00  0.00000000000E+00  0.45593999997E+02  0.45594000000E+02  0.51100000000E-03 0.  1.
         11   -1    0    0    0    0 -0.00000000000E+00 -0.00000000000E+00 -0.45593999997E+02  0.45594000000E+02  0.51100000000E-03 0. -1.
    9900012    2    1    2    0    0 -0.25149295487E+02 -0.97810015990E+01  0.16987309770E+02  0.59301894108E+02  0.49999908958E+02 0.  0.
         12    1    1    2    0    0  0.25149295487E+02  0.97810015990E+01 -0.16987309770E+02  0.31886105892E+02  0.00000000000E+00 0. -1.
         11    1    3    3    0    0  0.18963397318E+01 -0.13135479077E+02  0.85352568182E+01  0.15779338521E+02  0.51100000000E-03 0. -1.
        -11    1    3    3    0    0 -0.23741984505E+02 -0.62760142055E+01  0.17295522518E+02  0.30036732212E+02  0.51100000000E-03 0.  1.
         12    1    3    3    0    0 -0.33036507136E+01  0.96304916835E+01 -0.88434695664E+01  0.13485823374E+02  0.00000000000E+00 0. -1.
</event>
<event>
 7    1  0.1284645E-011  0.5930192E+02  0.7816164E-02  0.1266605E+00
        -11   -1    0    0    0    0  0.00000000000E+00  0.00000000000E+00  0.45593999997E+02  0.45594000000E+02  0.51100000000E-03 0.  1.
         11   -1    0    0    0    0 -0.00000000000E+00 -0.00000000000E+00 -0.45593999997E+02  0.45594000000E+02  0.51100000000E-03 0. -1.
    9900012    2    1    2    0    0  0.70178988020E+01 -0.21710931101E+02  0.22273452394E+02  0.59301919739E+02  0.49999955704E+02 0.  0.
         12    1    1    2    0    0 -0.70178988020E+01  0.21710931101E+02 -0.22273452394E+02  0.31886080261E+02  0.00000000000E+00 0. -1.
         11    1    3    3    0    0  0.67390346156E+01 -0.38681028260E+01 -0.93157838806E+01  0.12130978386E+02  0.51100000000E-03 0. -1.
        -11    1    3    3    0    0 -0.72592865871E+01  0.45775042092E+01  0.12066142646E+01  0.86664124518E+01  0.51100000000E-03 0.  1.
        -12    1    3    3    0    0  0.75381507735E+01 -0.22420332484E+02  0.30382622010E+02  0.38504528902E+02  0.00000000000E+00 0.  1.
</event>
<event>
 7    1  0.1284645E-011  0.5930195E+02  0.7816164E-02  0.1266605E+00
        -11   -1    0    0    0    0  0.00000000000E+00  0.00000000000E+00  0.45593999997E+02  0.45594000000E+02  0.51100000000E-03 0. -1.
         11   -1    0    0    0    0 -0.00000000000E+00 -0.00000000000E+00 -0.45593999997E+02  0.45594000000E+02  0.51100000000E-03 0.  1.
    9900012    2    1    2    0    0 -0.42944860542E+01  0.59126083796E+01 -0.31037378646E+02  0.59301946285E+02  0.50000004116E+02 0.  0.
         12    1    1    2    0    0  0.42944860542E+01 -0.59126083796E+01  0.31037378646E+02  0.31886053715E+02  0.00000000000E+00 0. -1.
         11    1    3    3    0    0 -0.97463176407E+01 -0.65380556423E+01  0.31748853453E+01  0.12157992283E+02  0.51100000000E-03 0. -1.
        -11    1    3    3    0    0 -0.77406963011E+01  0.54951229610E+01 -0.30261788616E+02  0.31715778503E+02  0.51100000000E-03 0.  1.
        -12    1    3    3    0    0  0.13192527887E+02  0.69555410610E+01 -0.39504753754E+01  0.15428175498E+02  0.00000000000E+00 0.  1.
</event>
<event>
 7    1  0.1284645E-011  0.5930197E+02  0.7816164E-02  0.1266605E+00
        -11   -1    0    0    0    0  0.00000000000E+00  0.00000000000E+00  0.45593999997E+02  0.45594000000E+02  0.51100000000E-03 0.  1.
         11   -1    0    0    0    0 -0.00000000000E+00 -0.00000000000E+00 -0.45593999997E+02  0.45594000000E+02  0.51100000000E-03 0. -1.
    9900012    2    1    2    0    0  0.16212824326E+00  0.30891177713E+02  0.79011301947E+01  0.59301968506E+02  0.50000044643E+02 0.  0.
         12    1    1    2    0    0 -0.16212824326E+00 -0.30891177713E+02 -0.79011301947E+01  0.31886031494E+02  0.00000000000E+00 0. -1.
         11    1    3    3    0    0  0.12462916092E+02  0.12331207286E+02  0.11177874654E+02  0.20792494623E+02  0.51100000000E-03 0. -1.
        -11    1    3    3    0    0 -0.73645945041E+01  0.18476062165E+02  0.11468793082E+02  0.22959428137E+02  0.51100000000E-03 0.  1.
         12    1    3    3    0    0 -0.49361933443E+01  0.83908262750E-01 -0.14745537541E+02  0.15550045746E+02  0.00000000000E+00 0. -1.
</event>
<event>
 7    1  0.1284645E-011  0.5930192E+02  0.7816164E-02  0.1266605E+00
        -11   -1    0    0    0    0  0.00000000000E+00  0.00000000000E+00  0.45593999997E+02  0.45594000000E+02  0.51100000000E-03 0. -1.
         11   -1    0    0    0    0 -0.00000000000E+00 -0.00000000000E+00 -0.45593999997E+02  0.45594000000E+02  0.51100000000E-03 0.  1.
    9900012    2    1    2    0    0 -0.11548181092E+02 -0.27871330492E+02 -0.10322319749E+02  0.59301924122E+02  0.49999963697E+02 0.  0.
         12    1    1    2    0    0  0.11548181092E+02  0.27871330492E+02  0.10322319749E+02  0.31886075878E+02  0.00000000000E+00 0. -1.
         11    1    3    3    0    0 -0.19616175909E+02 -0.12647779325E+01 -0.20641658334E+02  0.28503895866E+02  0.51100000000E-03 0.  1.
        -11    1    3    3    0    0  0.24700201005E+01 -0.13697831446E+02  0.10698304970E+01  0.13959803837E+02  0.51100000000E-03 0. -1.
        -12    1    3    3    0    0  0.55979747166E+01 -0.12908721113E+02  0.92495080884E+01  0.16838224419E+02  0.00000000000E+00 0.  1.
</event>
<event>
 7    1  0.1284645E-011  0.5930203E+02  0.7816164E-02  0.1266604E+00
        -11   -1    0    0    0    0  0.00000000000E+00  0.00000000000E+00  0.45593999997E+02  0.45594000000E+02  0.51100000000E-03 0.  1.
         11   -1    0    0    0    0 -0.00000000000E+00 -0.00000000000E+00 -0.45593999997E+02  0.45594000000E+02  0.51100000000E-03 0. -1.
    9900012    2    1    2    0    0 -0.14718864321E+02 -0.28054400201E+02  0.36084073124E+01  0.59302032226E+02  0.50000160853E+02 0.  0.
         12    1    1    2    0    0  0.14718864321E+02  0.28054400201E+02 -0.36084073124E+01  0.31885967774E+02  0.00000000000E+00 0. -1.
         11    1    3    3    0    0  0.33116449963E+01 -0.16411931720E+02  0.29416493130E+01  0.16999170459E+02  0.51100000000E-03 0. -1.
        -11    1    3    3    0    0  0.28474624892E+01 -0.17907751640E+02  0.72564441880E+01  0.19530785800E+02  0.51100000000E-03 0.  1.
         12    1    3    3    0    0 -0.20877971806E+02  0.62652831592E+01 -0.65896861887E+01  0.22772075967E+02  0.00000000000E+00 0. -1.
</event>
<event>
 7    1  0.1284645E-011  0.5930190E+02  0.7816164E-02  0.1266605E+00
        -11   -1    0    0    0    0  0.00000000000E+00  0.00000000000E+00  0.45593999997E+02  0.45594000000E+02  0.51100000000E-03 0.  1.
         11   -1    0    0    0    0 -0.00000000000E+00 -0.00000000000E+00 -0.45593999997E+02  0.45594000000E+02  0.51100000000E-03 0. -1.
    9900012    2    1    2    0    0 -0.10082024037E+02 -0.23304293121E+02  0.19286937506E+02  0.59301902012E+02  0.49999923372E+02 0.  0.
         12    1    1    2    0    0  0.10082024037E+02  0.23304293121E+02 -0.19286937506E+02  0.31886097988E+02  0.00000000000E+00 0. -1.
         11    1    3    3    0    0 -0.23017421457E+01 -0.43016637610E+01  0.47175452014E+01  0.67865721101E+01  0.51100000000E-03 0. -1.
        -11    1    3    3    0    0 -0.17307454981E+02 -0.15451161986E+02  0.27555647563E+02  0.36022216999E+02  0.51100000000E-03 0.  1.
         12    1    3    3    0    0  0.95271730896E+01 -0.35514673739E+01 -0.12986255258E+02  0.16493112902E+02  0.00000000000E+00 0. -1.
</event>
<event>
 7    1  0.1284645E-011  0.5930195E+02  0.7816164E-02  0.1266605E+00
        -11   -1    0    0    0    0  0.00000000000E+00  0.00000000000E+00  0.45593999997E+02  0.45594000000E+02  0.51100000000E-03 0. -1.
         11   -1    0    0    0    0 -0.00000000000E+00 -0.00000000000E+00 -0.45593999997E+02  0.45594000000E+02  0.51100000000E-03 0.  1.
    9900012    2    1    2    0    0 -0.28425621085E+01 -0.29768456883E+02 -0.11067029337E+02  0.59301947831E+02  0.50000006937E+02 0.  0.
         12    1    1    2    0    0  0.28425621085E+01  0.29768456883E+02  0.11067029337E+02  0.31886052169E+02  0.00000000000E+00 0. -1.
         11    1    3    3    0    0  0.85907587316E+01 -0.94368642379E+01 -0.88954843294E+01  0.15555872973E+02  0.51100000000E-03 0. -1.
        -11    1    3    3    0    0  0.72837309034E+01 -0.21116182023E+02 -0.86070883758E+01  0.23938000119E+02  0.51100000000E-03 0.  1.
        -12    1    3    3    0    0 -0.18717051743E+02  0.78458937772E+00  0.64355433680E+01  0.19808074740E+02  0.00000000000E+00 0.  1.
</event>
<event>
 7    1  0.1284645E-011  0.5930193E+02  0.7816164E-02  0.1266605E+00
        -11   -1    0    0    0    0  0.00000000000E+00  0.00000000000E+00  0.45593999997E+02  0.45594000000E+02  0.51100000000E-03 0.  1.
         11   -1    0    0    0    0 -0.00000000000E+00 -0.00000000000E+00 -0.45593999997E+02  0.45594000000E+02  0.51100000000E-03 0. -1.
    9900012    2    1    2    0    0 -0.17795769860E+02  0.21111521742E+02  0.15947912129E+02  0.59301926607E+02  0.49999968229E+02 0.  0.
         12    1    1    2    0    0  0.17795769860E+02 -0.21111521742E+02 -0.15947912129E+02  0.31886073393E+02  0.00000000000E+00 0. -1.
         11    1    3    3    0    0 -0.65723506950E+01  0.18304777354E+02  0.13871254982E+02  0.23888750128E+02  0.51100000000E-03 0. -1.
        -11    1    3    3    0    0 -0.13767753328E+01  0.95420307922E+01  0.14996362318E+02  0.17827976469E+02  0.51100000000E-03 0.  1.
         12    1    3    3    0    0 -0.98466438318E+01 -0.67352864046E+01 -0.12919705171E+02  0.17585200010E+02  0.00000000000E+00 0. -1.
</event>
<event>
 7    1  0.1284645E-011  0.5930189E+02  0.7816164E-02  0.1266605E+00
        -11   -1    0    0    0    0  0.00000000000E+00  0.00000000000E+00  0.45593999997E+02  0.45594000000E+02  0.51100000000E-03 0.  1.
         11   -1    0    0    0    0 -0.00000000000E+00 -0.00000000000E+00 -0.45593999997E+02  0.45594000000E+02  0.51100000000E-03 0. -1.
    9900012    2    1    2    0    0 -0.16148171611E+02 -0.23078276825E+02  0.14945019503E+02  0.59301891496E+02  0.49999904195E+02 0.  0.
         12    1    1    2    0    0  0.16148171611E+02  0.23078276825E+02 -0.14945019503E+02  0.31886108504E+02  0.00000000000E+00 0. -1.
         11    1    3    3    0    0 -0.17090870639E+02  0.20881025188E+01 -0.90139076038E+01  0.19434725670E+02  0.51100000000E-03 0. -1.
        -11    1    3    3    0    0  0.39371709649E+01  0.14865919214E+01  0.68966260210E+01  0.80792772871E+01  0.51100000000E-03 0.  1.
        -12    1    3    3    0    0 -0.29944719367E+01 -0.26652971265E+02  0.17062301085E+02  0.31787888539E+02  0.00000000000E+00 0.  1.
</event>
<event>
 7    1  0.1284645E-011  0.5930190E+02  0.7816164E-02  0.1266605E+00
        -11   -1    0    0    0    0  0.00000000000E+00  0.00000000000E+00  0.45593999997E+02  0.45594000000E+02  0.51100000000E-03 0.  1.
         11   -1    0    0    0    0 -0.00000000000E+00 -0.00000000000E+00 -0.45593999997E+02  0.45594000000E+02  0.51100000000E-03 0. -1.
    9900012    2    1    2    0    0  0.21529809825E+02  0.10550404417E+02  0.21020937320E+02  0.59301897223E+02  0.49999914639E+02 0.  0.
         12    1    1    2    0    0 -0.21529809825E+02 -0.10550404417E+02 -0.21020937320E+02  0.31886102777E+02  0.00000000000E+00 0. -1.
         11    1    3    3    0    0 -0.40805916803E+01 -0.92141580695E+01  0.41759095512E+01  0.10908261009E+02  0.51100000000E-03 0. -1.
        -11    1    3    3    0    0  0.40699135253E+01  0.12278460153E+02  0.21526278535E+02  0.25113849718E+02  0.51100000000E-03 0.  1.
         12    1    3    3    0    0  0.21540487980E+02  0.74861023334E+01 -0.46812507659E+01  0.23279786496E+02  0.00000000000E+00 0. -1.
</event>
<event>
 7    1  0.1284645E-011  0.5930193E+02  0.7816164E-02  0.1266605E+00
        -11   -1    0    0    0    0  0.00000000000E+00  0.00000000000E+00  0.45593999997E+02  0.45594000000E+02  0.51100000000E-03 0.  1.
         11   -1    0    0    0    0 -0.00000000000E+00 -0.00000000000E+00 -0.45593999997E+02  0.45594000000E+02  0.51100000000E-03 0. -1.
    9900012    2    1    2    0    0 -0.60210163121E+01 -0.19847411026E+02 -0.24218769998E+02  0.59301934359E+02  0.49999982366E+02 0.  0.
         12    1    1    2    0    0  0.60210163121E+01  0.19847411026E+02  0.24218769998E+02  0.31886065641E+02  0.00000000000E+00 0. -1.
         11    1    3    3    0    0 -0.21387009642E+02 -0.14932839621E+02 -0.80091581774E+01  0.27286269359E+02  0.51100000000E-03 0. -1.
        -11    1    3    3    0    0  0.44091361348E+01 -0.73723823706E+01  0.35446841504E+01  0.92928622749E+01  0.51100000000E-03 0.  1.
         12    1    3    3    0    0  0.10956857195E+02  0.24578109654E+01 -0.19754295971E+02  0.22722802724E+02  0.00000000000E+00 0. -1.
</event>
<event>
 7    1  0.1284645E-011  0.5930195E+02  0.7816164E-02  0.1266605E+00
        -11   -1    0    0    0    0  0.00000000000E+00  0.00000000000E+00  0.45593999997E+02  0.45594000000E+02  0.51100000000E-03 0. -1.
         11   -1    0    0    0    0 -0.00000000000E+00 -0.00000000000E+00 -0.45593999997E+02  0.45594000000E+02  0.51100000000E-03 0.  1.
    9900012    2    1    2    0    0  0.11965791507E+02 -0.19603618019E+02 -0.22118728844E+02  0.59301950206E+02  0.50000011267E+02 0.  0.
         12    1    1    2    0    0 -0.11965791507E+02  0.19603618019E+02  0.22118728844E+02  0.31886049794E+02  0.00000000000E+00 0. -1.
         11    1    3    3    0    0  0.10341725422E+02 -0.31987016540E+01 -0.73285636963E+01  0.13072521681E+02  0.51100000000E-03 0.  1.
        -11    1    3    3    0    0 -0.19151228514E+01  0.93237361880E+01  0.74103597524E+01  0.12062884562E+02  0.51100000000E-03 0. -1.
         12    1    3    3    0    0  0.35391889362E+01 -0.25728652553E+02 -0.22200524900E+02  0.34166543963E+02  0.00000000000E+00 0. -1.
</event>
<event>
 7    1  0.1284645E-011  0.5930195E+02  0.7816164E-02  0.1266605E+00
        -11   -1    0    0    0    0  0.00000000000E+00  0.00000000000E+00  0.45593999997E+02  0.45594000000E+02  0.51100000000E-03 0. -1.
         11   -1    0    0    0    0 -0.00000000000E+00 -0.00000000000E+00 -0.45593999997E+02  0.45594000000E+02  0.51100000000E-03 0.  1.
    9900012    2    1    2    0    0  0.20229400159E+02  0.39078315208E+01 -0.24335578183E+02  0.59301950645E+02  0.50000012068E+02 0.  0.
         12    1    1    2    0    0 -0.20229400159E+02 -0.39078315208E+01  0.24335578183E+02  0.31886049355E+02  0.00000000000E+00 0. -1.
         11    1    3    3    0    0 -0.80494894025E+01 -0.65617855185E+01 -0.14684622006E+02  0.17985811979E+02  0.51100000000E-03 0. -1.
        -11    1    3    3    0    0  0.15499211910E+01 -0.71860604178E+01 -0.51314976144E+01  0.89651541010E+01  0.51100000000E-03 0.  1.
        -12    1    3    3    0    0  0.26728968370E+02  0.17655677457E+02 -0.45194585626E+01  0.32350984564E+02  0.00000000000E+00 0.  1.
</event>
<event>
 7    1  0.1284645E-011  0.5930197E+02  0.7816164E-02  0.1266605E+00
        -11   -1    0    0    0    0  0.00000000000E+00  0.00000000000E+00  0.45593999997E+02  0.45594000000E+02  0.51100000000E-03 0.  1.
         11   -1    0    0    0    0 -0.00000000000E+00 -0.00000000000E+00 -0.45593999997E+02  0.45594000000E+02  0.51100000000E-03 0. -1.
    9900012    2    1    2    0    0 -0.39894204547E+01  0.55280380496E+01  0.31148741489E+02  0.59301972079E+02  0.50000051159E+02 0.  0.
         12    1    1    2    0    0  0.39894204547E+01 -0.55280380496E+01 -0.31148741489E+02  0.31886027921E+02  0.00000000000E+00 0. -1.
         11    1    3    3    0    0 -0.32382074074E+01 -0.10262208056E+02 -0.32365616422E+01  0.11237180826E+02  0.51100000000E-03 0. -1.
        -11    1    3    3    0    0 -0.97538027550E+01  0.15719572137E+02  0.34403355750E+02  0.39061906040E+02  0.51100000000E-03 0.  1.
         12    1    3    3    0    0  0.90025897077E+01  0.70673968581E-01 -0.18052619026E-01  0.90028852127E+01  0.00000000000E+00 0. -1.
</event>
<event>
 7    1  0.1284645E-011  0.5930193E+02  0.7816164E-02  0.1266605E+00
        -11   -1    0    0    0    0  0.00000000000E+00  0.00000000000E+00  0.45593999997E+02  0.45594000000E+02  0.51100000000E-03 0.  1.
         11   -1    0    0    0    0 -0.00000000000E+00 -0.00000000000E+00 -0.45593999997E+02  0.45594000000E+02  0.51100000000E-03 0. -1.
    9900012    2    1    2    0    0 -0.10277228550E+02  0.28511741353E+02 -0.99086095980E+01  0.59301931477E+02  0.49999977111E+02 0.  0.
         12    1    1    2    0    0  0.10277228550E+02 -0.28511741353E+02  0.99086095980E+01  0.31886068523E+02  0.00000000000E+00 0. -1.
         11    1    3    3    0    0 -0.77367138194E+01  0.17724325011E+02  0.60932168263E+01  0.20276482175E+02  0.51100000000E-03 0.  1.
        -11    1    3    3    0    0 -0.13807049609E+02  0.17616818230E+02 -0.10920528755E+02  0.24904715457E+02  0.51100000000E-03 0. -1.
         12    1    3    3    0    0  0.11266534879E+02 -0.68294018877E+01 -0.50812976691E+01  0.14120733845E+02  0.00000000000E+00 0. -1.
</event>
<event>
 7    1  0.1284645E-011  0.5930194E+02  0.7816164E-02  0.1266605E+00
        -11   -1    0    0    0    0  0.00000000000E+00  0.00000000000E+00  0.45593999997E+02  0.45594000000E+02  0.51100000000E-03 0. -1.
         11   -1    0    0    0    0 -0.00000000000E+00 -0.00000000000E+00 -0.45593999997E+02  0.45594000000E+02  0.51100000000E-03 0.  1.
    9900012    2    1    2    0    0 -0.26175060245E+01  0.28066264655E+02 -0.14904844323E+02  0.59301938252E+02  0.49999989467E+02 0.  0.
         12    1    1    2    0    0  0.26175060245E+01 -0.28066264655E+02  0.14904844323E+02  0.31886061748E+02  0.00000000000E+00 0. -1.
         11    1    3    3    0    0 -0.57112102775E+01 -0.92929572758E+00 -0.64628101427E+01  0.86746428506E+01  0.51100000000E-03 0. -1.
        -11    1    3    3    0    0  0.11463383016E+02  0.32510446813E+01 -0.18283102844E+02  0.21823159523E+02  0.51100000000E-03 0.  1.
         12    1    3    3    0    0 -0.83696787624E+01  0.25744515702E+02  0.98410686638E+01  0.28804135879E+02  0.00000000000E+00 0. -1.
</event>
<event>
 7    1  0.1284645E-011  0.5930197E+02  0.7816164E-02  0.1266605E+00
        -11   -1    0    0    0    0  0.00000000000E+00  0.00000000000E+00  0.45593999997E+02  0.45594000000E+02  0.51100000000E-03 0.  1.
         11   -1    0    0    0    0 -0.00000000000E+00 -0.00000000000E+00 -0.45593999997E+02  0.45594000000E+02  0.51100000000E-03 0. -1.
    9900012    2    1    2    0    0 -0.10660797538E+02  0.81478631961E+01  0.28925399801E+02  0.59301968067E+02  0.50000043841E+02 0.  0.
         12    1    1    2    0    0  0.10660797538E+02 -0.81478631961E+01 -0.28925399801E+02  0.31886031933E+02  0.00000000000E+00 0. -1.
         11    1    3    3    0    0 -0.20883867921E+02  0.20557719991E+01 -0.59779505193E+00  0.20993320296E+02  0.51100000000E-03 0. -1.
        -11    1    3    3    0    0  0.18789605803E+00 -0.58083966852E+01  0.11186112539E+01  0.59181135829E+01  0.51100000000E-03 0.  1.
        -12    1    3    3    0    0  0.10035174325E+02  0.11900487882E+02  0.28404583599E+02  0.32390534188E+02  0.00000000000E+00 0.  1.
</event>
<event>
 7    1  0.1284645E-011  0.5930194E+02  0.7816164E-02  0.1266605E+00
        -11   -1    0    0    0    0  0.00000000000E+00  0.00000000000E+00  0.45593999997E+02  0.45594000000E+02  0.51100000000E-03 0.  1.
         11   -1    0    0    0    0 -0.00000000000E+00 -0.00000000000E+00 -0.45593999997E+02  0.45594000000E+02  0.51100000000E-03 0. -1.
    9900012    2    1    2    0    0  0.11641096980E+02 -0.28941371196E+02  0.66032284426E+01  0.59301941425E+02  0.49999995253E+02 0.  0.
         12    1    1    2    0    0 -0.11641096980E+02  0.28941371196E+02 -0.66032284426E+01  0.31886058575E+02  0.00000000000E+00 0. -1.
         11    1    3    3    0    0 -0.65524842325E+01 -0.14616387630E+02 -0.10894796492E+02  0.19371897889E+02  0.51100000000E-03 0. -1.
        -11    1    3    3    0    0 -0.47855100093E+01 -0.10109138293E+02  0.10984152380E+02  0.15676332059E+02  0.51100000000E-03 0.  1.
         12    1    3    3    0    0  0.22979091221E+02 -0.42158452728E+01  0.65138725549E+01  0.24253711477E+02  0.00000000000E+00 0. -1.
</event>
<event>
 7    1  0.1284645E-011  0.5930177E+02  0.7816164E-02  0.1266605E+00
        -11   -1    0    0    0    0  0.00000000000E+00  0.00000000000E+00  0.45593999997E+02  0.45594000000E+02  0.51100000000E-03 0.  1.
         11   -1    0    0    0    0 -0.00000000000E+00 -0.00000000000E+00 -0.45593999997E+02  0.45594000000E+02  0.51100000000E-03 0. -1.
    9900012    2    1    2    0    0 -0.79304068327E+00  0.31617654486E+02  0.40529936107E+01  0.59301768709E+02  0.49999680261E+02 0.  0.
         12    1    1    2    0    0  0.79304068327E+00 -0.31617654486E+02 -0.40529936107E+01  0.31886231291E+02  0.00000000000E+00 0. -1.
         11    1    3    3    0    0 -0.14138734201E+02  0.19309253052E+02  0.14224195046E+02  0.27840236767E+02  0.51100000000E-03 0. -1.
        -11    1    3    3    0    0  0.75875536722E+01 -0.14652895909E+01  0.57527882078E+01  0.96339304928E+01  0.51100000000E-03 0.  1.
         12    1    3    3    0    0  0.57581398459E+01  0.13773691024E+02 -0.15923989643E+02  0.21827601450E+02  0.00000000000E+00 0. -1.
</event>
<event>
 7    1  0.1284645E-011  0.5930197E+02  0.7816164E-02  0.1266605E+00
        -11   -1    0    0    0    0  0.00000000000E+00  0.00000000000E+00  0.45593999997E+02  0.45594000000E+02  0.51100000000E-03 0.  1.
         11   -1    0    0    0    0 -0.00000000000E+00 -0.00000000000E+00 -0.45593999997E+02  0.45594000000E+02  0.51100000000E-03 0. -1.
    9900012    2    1    2    0    0  0.25829677832E+02  0.13812646286E+02  0.12599890643E+02  0.59301973303E+02  0.50000053391E+02 0.  0.
         12    1    1    2    0    0 -0.25829677832E+02 -0.13812646286E+02 -0.12599890643E+02  0.31886026697E+02  0.00000000000E+00 0. -1.
         11    1    3    3    0    0  0.42089478104E+01 -0.46597964118E+01  0.20213274148E+01  0.65965679750E+01  0.51100000000E-03 0. -1.
        -11    1    3    3    0    0 -0.11451631868E+02  0.13901997481E+02  0.61185587053E+01  0.19022149387E+02  0.51100000000E-03 0.  1.
         12    1    3    3    0    0  0.33072361890E+02  0.45704452173E+01  0.44600045226E+01  0.33683255941E+02  0.00000000000E+00 0. -1.
</event>
<event>
 7    1  0.1284645E-011  0.5930194E+02  0.7816164E-02  0.1266605E+00
        -11   -1    0    0    0    0  0.00000000000E+00  0.00000000000E+00  0.45593999997E+02  0.45594000000E+02  0.51100000000E-03 0.  1.
         11   -1    0    0    0    0 -0.00000000000E+00 -0.00000000000E+00 -0.45593999997E+02  0.45594000000E+02  0.51100000000E-03 0. -1.
    9900012    2    1    2    0    0 -0.27811101182E+02 -0.98417453299E+01  0.12099735977E+02  0.59301938613E+02  0.49999990125E+02 0.  0.
         12    1    1    2    0    0  0.27811101182E+02  0.98417453299E+01 -0.12099735977E+02  0.31886061387E+02  0.00000000000E+00 0. -1.
         11    1    3    3    0    0  0.62744236391E+01 -0.17409425653E+01 -0.52987420150E+00  0.65329962459E+01  0.51100000000E-03 0. -1.
        -11    1    3    3    0    0  0.78181537145E+01  0.10760690377E+01  0.45764405958E+01  0.91227879985E+01  0.51100000000E-03 0.  1.
        -12    1    3    3    0    0 -0.41903678535E+02 -0.91768718023E+01  0.80531695824E+01  0.43646154369E+02  0.00000000000E+00 0.  1.
</event>
<event>
 7    1  0.1284645E-011  0.5930192E+02  0.7816164E-02  0.1266605E+00
        -11   -1    0    0    0    0  0.00000000000E+00  0.00000000000E+00  0.45593999997E+02  0.45594000000E+02  0.51100000000E-03 0. -1.
         11   -1    0    0    0    0 -0.00000000000E+00 -0.00000000000E+00 -0.45593999997E+02  0.45594000000E+02  0.51100000000E-03 0.  1.
    9900012    2    1    2    0    0 -0.27411400571E+02  0.10408289345E+02 -0.12530153158E+02  0.59301919863E+02  0.49999955929E+02 0.  0.
         12    1    1    2    0    0  0.27411400571E+02 -0.10408289345E+02  0.12530153158E+02  0.31886080137E+02  0.00000000000E+00 0. -1.
         11    1    3    3    0    0 -0.32699780008E+02  0.76351705282E+01  0.21403364028E+01  0.33647473631E+02  0.51100000000E-03 0. -1.
        -11    1    3    3    0    0 -0.74800255246E+01 -0.54942935292E+00 -0.31348178826E+01  0.81289444506E+01  0.51100000000E-03 0.  1.
         12    1    3    3    0    0  0.12768404962E+02  0.33225481695E+01 -0.11535671678E+02  0.17525501781E+02  0.00000000000E+00 0. -1.
</event>
<event>
 7    1  0.1284645E-011  0.5930194E+02  0.7816164E-02  0.1266605E+00
        -11   -1    0    0    0    0  0.00000000000E+00  0.00000000000E+00  0.45593999997E+02  0.45594000000E+02  0.51100000000E-03 0. -1.
         11   -1    0    0    0    0 -0.00000000000E+00 -0.00000000000E+00 -0.45593999997E+02  0.45594000000E+02  0.51100000000E-03 0.  1.
    9900012    2    1    2    0    0 -0.11260118014E+02 -0.27109668845E+02 -0.12449757933E+02  0.59301939172E+02  0.49999991144E+02 0.  0.
         12    1    1    2    0    0  0.11260118014E+02  0.27109668845E+02  0.12449757933E+02  0.31886060828E+02  0.00000000000E+00 0. -1.
         11    1    3    3    0    0 -0.24044114826E+02 -0.18070325222E+02 -0.24017211288E+01  0.30173239402E+02  0.51100000000E-03 0. -1.
        -11    1    3    3    0    0 -0.39907047947E+01 -0.32096915561E+01 -0.10150847330E+02  0.11369588666E+02  0.51100000000E-03 0.  1.
         12    1    3    3    0    0  0.16774701606E+02 -0.58296520669E+01  0.10281052622E+00  0.17759111104E+02  0.00000000000E+00 0. -1.
</event>
<event>
 7    1  0.1284645E-011  0.5930195E+02  0.7816164E-02  0.1266605E+00
        -11   -1    0    0    0    0  0.00000000000E+00  0.00000000000E+00  0.45593999997E+02  0.45594000000E+02  0.51100000000E-03 0. -1.
         11   -1    0    0    0    0 -0.00000000000E+00 -0.00000000000E+00 -0.45593999997E+02  0.45594000000E+02  0.51100000000E-03 0.  1.
    9900012    2    1    2    0    0 -0.24680808862E+02  0.17992278543E+02  0.91572938213E+01  0.59301945942E+02  0.50000003492E+02 0.  0.
         12    1    1    2    0    0  0.24680808862E+02 -0.17992278543E+02 -0.91572938213E+01  0.31886054058E+02  0.00000000000E+00 0. -1.
         11    1    3    3    0    0 -0.42565044775E+01  0.22291685618E+00  0.26707849176E+01  0.50299716330E+01  0.51100000000E-03 0. -1.
        -11    1    3    3    0    0  0.10592836776E+02 -0.70341716003E+01 -0.37535900415E+01  0.13258099393E+02  0.51100000000E-03 0.  1.
         12    1    3    3    0    0 -0.31017141160E+02  0.24803533287E+02  0.10240098945E+02  0.41013874916E+02  0.00000000000E+00 0. -1.
</event>
<event>
 7    1  0.1284645E-011  0.5930190E+02  0.7816164E-02  0.1266605E+00
        -11   -1    0    0    0    0  0.00000000000E+00  0.00000000000E+00  0.45593999997E+02  0.45594000000E+02  0.51100000000E-03 0.  1.
         11   -1    0    0    0    0 -0.00000000000E+00 -0.00000000000E+00 -0.45593999997E+02  0.45594000000E+02  0.51100000000E-03 0. -1.
    9900012    2    1    2    0    0 -0.13793129282E+02  0.12296725796E+02  0.25985837208E+02  0.59301896192E+02  0.49999912758E+02 0.  0.
         12    1    1    2    0    0  0.13793129282E+02 -0.12296725796E+02 -0.25985837208E+02  0.31886103808E+02  0.00000000000E+00 0. -1.
         11    1    3    3    0    0 -0.53907671317E+01  0.11014367118E+02  0.16506445646E+02  0.20563059145E+02  0.51100000000E-03 0. -1.
        -11    1    3    3    0    0 -0.92837382249E+01  0.15566092828E+02  0.14872653614E+02  0.23445401834E+02  0.51100000000E-03 0.  1.
         12    1    3    3    0    0  0.88137607500E+00 -0.14283734150E+02 -0.53932620520E+01  0.15293435213E+02  0.00000000000E+00 0. -1.
</event>
<event>
 7    1  0.1284645E-011  0.5930199E+02  0.7816164E-02  0.1266605E+00
        -11   -1    0    0    0    0  0.00000000000E+00  0.00000000000E+00  0.45593999997E+02  0.45594000000E+02  0.51100000000E-03 0.  1.
         11   -1    0    0    0    0 -0.00000000000E+00 -0.00000000000E+00 -0.45593999997E+02  0.45594000000E+02  0.51100000000E-03 0. -1.
    9900012    2    1    2    0    0  0.62240321082E+01  0.95106782287E+01  0.29791373955E+02  0.59301991498E+02  0.50000086575E+02 0.  0.
         12    1    1    2    0    0 -0.62240321082E+01 -0.95106782287E+01 -0.29791373955E+02  0.31886008502E+02  0.00000000000E+00 0. -1.
         11    1    3    3    0    0  0.54446689323E+01 -0.73214244276E+01 -0.74524640857E+01  0.11780785060E+02  0.51100000000E-03 0. -1.
        -11    1    3    3    0    0  0.53108430735E+01  0.30566072768E+01 -0.13657911736E+01  0.62780003175E+01  0.51100000000E-03 0.  1.
         12    1    3    3    0    0 -0.45314798976E+01  0.13775495379E+02  0.38609629214E+02  0.41243206120E+02  0.00000000000E+00 0. -1.
</event>
<event>
 7    1  0.1284645E-011  0.5930227E+02  0.7816164E-02  0.1266604E+00
        -11   -1    0    0    0    0  0.00000000000E+00  0.00000000000E+00  0.45593999997E+02  0.45594000000E+02  0.51100000000E-03 0.  1.
         11   -1    0    0    0    0 -0.00000000000E+00 -0.00000000000E+00 -0.45593999997E+02  0.45594000000E+02  0.51100000000E-03 0. -1.
    9900012    2    1    2    0    0 -0.10121119322E+02  0.30224616061E+02 -0.85740393676E+00  0.59302272568E+02  0.50000599175E+02 0.  0.
         12    1    1    2    0    0  0.10121119322E+02 -0.30224616061E+02  0.85740393676E+00  0.31885727432E+02  0.00000000000E+00 0. -1.
         11    1    3    3    0    0 -0.16203774602E+02  0.76517578617E+01  0.11072233002E+02  0.21064331313E+02  0.51100000000E-03 0. -1.
        -11    1    3    3    0    0  0.73612532950E+00  0.25174970737E+02 -0.31270282352E+00  0.25187671893E+02  0.51100000000E-03 0.  1.
         12    1    3    3    0    0  0.53465299506E+01 -0.26021125379E+01 -0.11616934116E+02  0.13050269362E+02  0.00000000000E+00 0. -1.
</event>
<event>
 7    1  0.1284645E-011  0.5930197E+02  0.7816164E-02  0.1266605E+00
        -11   -1    0    0    0    0  0.00000000000E+00  0.00000000000E+00  0.45593999997E+02  0.45594000000E+02  0.51100000000E-03 0. -1.
         11   -1    0    0    0    0 -0.00000000000E+00 -0.00000000000E+00 -0.45593999997E+02  0.45594000000E+02  0.51100000000E-03 0.  1.
    9900012    2    1    2    0    0 -0.32334814584E+00 -0.27483742637E+02 -0.16163490875E+02  0.59301966998E+02  0.50000041892E+02 0.  0.
         12    1    1    2    0    0  0.32334814584E+00  0.27483742637E+02  0.16163490875E+02  0.31886033002E+02  0.00000000000E+00 0. -1.
         11    1    3    3    0    0  0.84633463263E+01 -0.51962781624E+01  0.13199382174E+02  0.16518269516E+02  0.51100000000E-03 0. -1.
        -11    1    3    3    0    0  0.37849770359E+01  0.15757473883E+01 -0.46843510165E+01  0.62251245530E+01  0.51100000000E-03 0.  1.
        -12    1    3    3    0    0 -0.12571671508E+02 -0.23863211863E+02 -0.24678522032E+02  0.36558572929E+02  0.00000000000E+00 0.  1.
</event>
<event>
 7    1  0.1284645E-011  0.5930197E+02  0.7816164E-02  0.1266605E+00
        -11   -1    0    0    0    0  0.00000000000E+00  0.00000000000E+00  0.45593999997E+02  0.45594000000E+02  0.51100000000E-03 0.  1.
         11   -1    0    0    0    0 -0.00000000000E+00 -0.00000000000E+00 -0.45593999997E+02  0.45594000000E+02  0.51100000000E-03 0. -1.
    9900012    2    1    2    0    0 -0.14246952142E+02 -0.22959706259E+02  0.16929122784E+02  0.59301969280E+02  0.50000046055E+02 0.  0.
         12    1    1    2    0    0  0.14246952142E+02  0.22959706259E+02 -0.16929122784E+02  0.31886030720E+02  0.00000000000E+00 0. -1.
         11    1    3    3    0    0  0.48923728499E+01  0.26927244208E+01 -0.23633945740E+01  0.60639682620E+01  0.51100000000E-03 0. -1.
        -11    1    3    3    0    0 -0.46784712394E+01  0.67091296331E+01 -0.56107541034E+01  0.99187234784E+01  0.51100000000E-03 0.  1.
        -12    1    3    3    0    0 -0.14460853753E+02 -0.32361560313E+02  0.24903271461E+02  0.43319277540E+02  0.00000000000E+00 0.  1.
</event>
<event>
 7    1  0.1284645E-011  0.5930194E+02  0.7816164E-02  0.1266605E+00
        -11   -1    0    0    0    0  0.00000000000E+00  0.00000000000E+00  0.45593999997E+02  0.45594000000E+02  0.51100000000E-03 0.  1.
         11   -1    0    0    0    0 -0.00000000000E+00 -0.00000000000E+00 -0.45593999997E+02  0.45594000000E+02  0.51100000000E-03 0. -1.
    9900012    2    1    2    0    0  0.22194131754E+02  0.32179992412E+01  0.22666842679E+02  0.59301940970E+02  0.49999994423E+02 0.  0.
         12    1    1    2    0    0 -0.22194131754E+02 -0.32179992412E+01 -0.22666842679E+02  0.31886059030E+02  0.00000000000E+00 0. -1.
         11    1    3    3    0    0  0.48210740835E+01  0.81372499205E+01 -0.17310133262E-02  0.94582025166E+01  0.51100000000E-03 0. -1.
        -11    1    3    3    0    0 -0.11722059728E+02 -0.29668678811E+01 -0.12124795445E+01  0.12152328839E+02  0.51100000000E-03 0.  1.
         12    1    3    3    0    0  0.29095117398E+02 -0.19523827983E+01  0.23881053237E+02  0.37691409615E+02  0.00000000000E+00 0. -1.
</event>
<event>
 7    1  0.1284645E-011  0.5930191E+02  0.7816164E-02  0.1266605E+00
        -11   -1    0    0    0    0  0.00000000000E+00  0.00000000000E+00  0.45593999997E+02  0.45594000000E+02  0.51100000000E-03 0. -1.
         11   -1    0    0    0    0 -0.00000000000E+00 -0.00000000000E+00 -0.45593999997E+02  0.45594000000E+02  0.51100000000E-03 0.  1.
    9900012    2    1    2    0    0  0.10608160691E+02  0.38259662862E+01 -0.29825349671E+02  0.59301912529E+02  0.49999942553E+02 0.  0.
         12    1    1    2    0    0 -0.10608160691E+02 -0.38259662862E+01  0.29825349671E+02  0.31886087471E+02  0.00000000000E+00 0. -1.
         11    1    3    3    0    0  0.76683672783E+01 -0.81136551933E+01 -0.12482624874E+01  0.11233584326E+02  0.51100000000E-03 0. -1.
        -11    1    3    3    0    0  0.15228796013E+02  0.22744995289E+01  0.10931297883E+00  0.15398101367E+02  0.51100000000E-03 0.  1.
         12    1    3    3    0    0 -0.12289002601E+02  0.96651219506E+01 -0.28686400162E+02  0.32670226836E+02  0.00000000000E+00 0. -1.
</event>
<event>
 7    1  0.1284645E-011  0.5930195E+02  0.7816164E-02  0.1266605E+00
        -11   -1    0    0    0    0  0.00000000000E+00  0.00000000000E+00  0.45593999997E+02  0.45594000000E+02  0.51100000000E-03 0. -1.
         11   -1    0    0    0    0 -0.00000000000E+00 -0.00000000000E+00 -0.45593999997E+02  0.45594000000E+02  0.51100000000E-03 0.  1.
    9900012    2    1    2    0    0  0.19090174746E+02  0.25480624287E+02  0.17387626035E+01  0.59301948484E+02  0.50000008127E+02 0.  0.
         12    1    1    2    0    0 -0.19090174746E+02 -0.25480624287E+02 -0.17387626035E+01  0.31886051516E+02  0.00000000000E+00 0. -1.
         11    1    3    3    0    0 -0.67212811405E+01  0.27863366125E+01 -0.98108509807E+01  0.12214421358E+02  0.51100000000E-03 0. -1.
        -11    1    3    3    0    0  0.17445746934E+02  0.17370774540E+01 -0.59689341617E+01  0.18520251063E+02  0.51100000000E-03 0.  1.
         12    1    3    3    0    0  0.83657089522E+01  0.20957210221E+02  0.17518547746E+02  0.28567276063E+02  0.00000000000E+00 0. -1.
</event>
<event>
 7    1  0.1284645E-011  0.5930195E+02  0.7816164E-02  0.1266605E+00
        -11   -1    0    0    0    0  0.00000000000E+00  0.00000000000E+00  0.45593999997E+02  0.45594000000E+02  0.51100000000E-03 0.  1.
         11   -1    0    0    0    0 -0.00000000000E+00 -0.00000000000E+00 -0.45593999997E+02  0.45594000000E+02  0.51100000000E-03 0. -1.
    9900012    2    1    2    0    0  0.17706279107E+02 -0.21595595656E+02  0.15389553755E+02  0.59301946053E+02  0.50000003693E+02 0.  0.
         12    1    1    2    0    0 -0.17706279107E+02  0.21595595656E+02 -0.15389553755E+02  0.31886053947E+02  0.00000000000E+00 0. -1.
         11    1    3    3    0    0  0.11000341614E+02  0.87383079222E+01  0.92332878890E+01  0.16811280334E+02  0.51100000000E-03 0. -1.
        -11    1    3    3    0    0  0.14845913009E+02 -0.67875537089E+01 -0.15882765240E+01  0.16401056094E+02  0.51100000000E-03 0.  1.
        -12    1    3    3    0    0 -0.81399755159E+01 -0.23546349869E+02  0.77445423899E+01  0.26089609625E+02  0.00000000000E+00 0.  1.
</event>
<event>
 7    1  0.1284645E-011  0.5930196E+02  0.7816164E-02  0.1266605E+00
        -11   -1    0    0    0    0  0.00000000000E+00  0.00000000000E+00  0.45593999997E+02  0.45594000000E+02  0.51100000000E-03 0.  1.
         11   -1    0    0    0    0 -0.00000000000E+00 -0.00000000000E+00 -0.45593999997E+02  0.45594000000E+02  0.51100000000E-03 0. -1.
    9900012    2    1    2    0    0 -0.43634893238E+01 -0.23064741636E+02  0.21580022706E+02  0.59301957194E+02  0.50000024013E+02 0.  0.
         12    1    1    2    0    0  0.43634893238E+01  0.23064741636E+02 -0.21580022706E+02  0.31886042806E+02  0.00000000000E+00 0. -1.
         11    1    3    3    0    0 -0.11436300268E+02 -0.66244001905E+01 -0.70464294826E+01  0.14977443387E+02  0.51100000000E-03 0. -1.
        -11    1    3    3    0    0  0.12448114596E+01 -0.11992417643E+02 -0.25280225949E+01  0.12319031415E+02  0.51100000000E-03 0.  1.
        -12    1    3    3    0    0  0.58279994841E+01 -0.44479238022E+01  0.31154474784E+02  0.32005482393E+02  0.00000000000E+00 0.  1.
</event>
<event>
 7    1  0.1284645E-011  0.5930211E+02  0.7816164E-02  0.1266604E+00
        -11   -1    0    0    0    0  0.00000000000E+00  0.00000000000E+00  0.45593999997E+02  0.45594000000E+02  0.51100000000E-03 0.  1.
         11   -1    0    0    0    0 -0.00000000000E+00 -0.00000000000E+00 -0.45593999997E+02  0.45594000000E+02  0.51100000000E-03 0. -1.
    9900012    2    1    2    0    0 -0.59269554026E+01  0.31054526148E+02 -0.41470330246E+01  0.59302105352E+02  0.50000294216E+02 0.  0.
         12    1    1    2    0    0  0.59269554026E+01 -0.31054526148E+02  0.41470330246E+01  0.31885894648E+02  0.00000000000E+00 0. -1.
         11    1    3    3    0    0 -0.11954008400E+02  0.10811346394E+02 -0.48720946922E+01  0.16838076928E+02  0.51100000000E-03 0. -1.
        -11    1    3    3    0    0 -0.86366643165E+01  0.97510134319E+01  0.14707839013E+02  0.19646749404E+02  0.51100000000E-03 0.  1.
        -12    1    3    3    0    0  0.14663717314E+02  0.10492166322E+02 -0.13982777345E+02  0.22817279020E+02  0.00000000000E+00 0.  1.
</event>
<event>
 7    1  0.1284645E-011  0.5930197E+02  0.7816164E-02  0.1266605E+00
        -11   -1    0    0    0    0  0.00000000000E+00  0.00000000000E+00  0.45593999997E+02  0.45594000000E+02  0.51100000000E-03 0.  1.
         11   -1    0    0    0    0 -0.00000000000E+00 -0.00000000000E+00 -0.45593999997E+02  0.45594000000E+02  0.51100000000E-03 0. -1.
    9900012    2    1    2    0    0  0.31584957592E+02 -0.13654134594E+01  0.41527305248E+01  0.59301967465E+02  0.50000042744E+02 0.  0.
         12    1    1    2    0    0 -0.31584957592E+02  0.13654134594E+01 -0.41527305248E+01  0.31886032535E+02  0.00000000000E+00 0. -1.
         11    1    3    3    0    0  0.10863119176E+02  0.76515870958E+00  0.36246380150E+01  0.11477405068E+02  0.51100000000E-03 0. -1.
        -11    1    3    3    0    0  0.20734426291E+01 -0.15573472288E+02  0.14115658898E+02  0.21120701452E+02  0.51100000000E-03 0.  1.
         12    1    3    3    0    0  0.18648395787E+02  0.13442900119E+02 -0.13587566388E+02  0.26703860945E+02  0.00000000000E+00 0. -1.
</event>
<event>
 7    1  0.1284645E-011  0.5930199E+02  0.7816164E-02  0.1266605E+00
        -11   -1    0    0    0    0  0.00000000000E+00  0.00000000000E+00  0.45593999997E+02  0.45594000000E+02  0.51100000000E-03 0.  1.
         11   -1    0    0    0    0 -0.00000000000E+00 -0.00000000000E+00 -0.45593999997E+02  0.45594000000E+02  0.51100000000E-03 0. -1.
    9900012    2    1    2    0    0 -0.14509679905E+02 -0.28259494364E+02  0.27545464993E+01  0.59301994307E+02  0.50000091696E+02 0.  0.
         12    1    1    2    0    0  0.14509679905E+02  0.28259494364E+02 -0.27545464993E+01  0.31886005693E+02  0.00000000000E+00 0. -1.
         11    1    3    3    0    0 -0.14844064824E+02  0.14117326362E+01 -0.22783645856E+01  0.15084104049E+02  0.51100000000E-03 0. -1.
        -11    1    3    3    0    0  0.21471203052E+01 -0.21080828046E+01  0.14660021299E+02  0.14965639427E+02  0.51100000000E-03 0.  1.
        -12    1    3    3    0    0 -0.18127353860E+01 -0.27563144196E+02 -0.96271102140E+01  0.29252250830E+02  0.00000000000E+00 0.  1.
</event>
<event>
 7    1  0.1284645E-011  0.5930203E+02  0.7816164E-02  0.1266604E+00
        -11   -1    0    0    0    0  0.00000000000E+00  0.00000000000E+00  0.45593999997E+02  0.45594000000E+02  0.51100000000E-03 0. -1.
         11   -1    0    0    0    0 -0.00000000000E+00 -0.00000000000E+00 -0.45593999997E+02  0.45594000000E+02  0.51100000000E-03 0.  1.
    9900012    2    1    2    0    0  0.13305259896E+02  0.94095841005E+01 -0.27407020305E+02  0.59302031678E+02  0.50000159853E+02 0.  0.
         12    1    1    2    0    0 -0.13305259896E+02 -0.94095841005E+01  0.27407020305E+02  0.31885968322E+02  0.00000000000E+00 0. -1.
         11    1    3    3    0    0  0.15561216223E+02  0.12946886265E+02 -0.17786174801E+02  0.26946638540E+02  0.51100000000E-03 0. -1.
        -11    1    3    3    0    0  0.40110422902E+01  0.11139073632E+02  0.27609177436E+01  0.12156894697E+02  0.51100000000E-03 0.  1.
         12    1    3    3    0    0 -0.62669986174E+01 -0.14676375796E+02 -0.12381763248E+02  0.20198498442E+02  0.00000000000E+00 0. -1.
</event>
<event>
 7    1  0.1284645E-011  0.5930195E+02  0.7816164E-02  0.1266605E+00
        -11   -1    0    0    0    0  0.00000000000E+00  0.00000000000E+00  0.45593999997E+02  0.45594000000E+02  0.51100000000E-03 0.  1.
         11   -1    0    0    0    0 -0.00000000000E+00 -0.00000000000E+00 -0.45593999997E+02  0.45594000000E+02  0.51100000000E-03 0. -1.
    9900012    2    1    2    0    0 -0.31028476740E+02 -0.73433025235E+01  0.17323217200E+00  0.59301945523E+02  0.50000002726E+02 0.  0.
         12    1    1    2    0    0  0.31028476740E+02  0.73433025235E+01 -0.17323217200E+00  0.31886054477E+02  0.00000000000E+00 0. -1.
         11    1    3    3    0    0 -0.25384028542E+01  0.85827778104E+01  0.68678208791E+01  0.11281601300E+02  0.51100000000E-03 0. -1.
        -11    1    3    3    0    0 -0.51492472326E+01 -0.11046000667E+02  0.12463709667E+02  0.17431951604E+02  0.51100000000E-03 0.  1.
        -12    1    3    3    0    0 -0.23340826653E+02 -0.48800796667E+01 -0.19158298374E+02  0.30588392619E+02  0.00000000000E+00 0.  1.
</event>
<event>
 7    1  0.1284645E-011  0.5930189E+02  0.7816164E-02  0.1266605E+00
        -11   -1    0    0    0    0  0.00000000000E+00  0.00000000000E+00  0.45593999997E+02  0.45594000000E+02  0.51100000000E-03 0. -1.
         11   -1    0    0    0    0 -0.00000000000E+00 -0.00000000000E+00 -0.45593999997E+02  0.45594000000E+02  0.51100000000E-03 0.  1.
    9900012    2    1    2    0    0 -0.52026061103E+01  0.31172245110E+02 -0.42365373807E+01  0.59301886651E+02  0.49999895358E+02 0.  0.
         12    1    1    2    0    0  0.52026061103E+01 -0.31172245110E+02  0.42365373807E+01  0.31886113349E+02  0.00000000000E+00 0. -1.
         11    1    3    3    0    0 -0.97170772531E+01  0.36795503130E+02 -0.15025510843E+02  0.40915725794E+02  0.51100000000E-03 0.  1.
        -11    1    3    3    0    0  0.30605289422E+01  0.40664920283E+01  0.37257647382E+01  0.63074969654E+01  0.51100000000E-03 0. -1.
        -12    1    3    3    0    0  0.14539422006E+01 -0.96897500481E+01  0.70632087235E+01  0.12078663891E+02  0.00000000000E+00 0.  1.
</event>
<event>
 7    1  0.1284645E-011  0.5930192E+02  0.7816164E-02  0.1266605E+00
        -11   -1    0    0    0    0  0.00000000000E+00  0.00000000000E+00  0.45593999997E+02  0.45594000000E+02  0.51100000000E-03 0. -1.
         11   -1    0    0    0    0 -0.00000000000E+00 -0.00000000000E+00 -0.45593999997E+02  0.45594000000E+02  0.51100000000E-03 0.  1.
    9900012    2    1    2    0    0 -0.24372858305E+02  0.11953554802E+02 -0.16727183766E+02  0.59301915714E+02  0.49999948362E+02 0.  0.
         12    1    1    2    0    0  0.24372858305E+02 -0.11953554802E+02  0.16727183766E+02  0.31886084286E+02  0.00000000000E+00 0. -1.
         11    1    3    3    0    0 -0.12571590293E+02 -0.68485498476E+01 -0.15054721187E+02  0.20774795975E+02  0.51100000000E-03 0. -1.
        -11    1    3    3    0    0 -0.20445071247E+02  0.18281615889E+02  0.46330610294E+01  0.27815169828E+02  0.51100000000E-03 0.  1.
         12    1    3    3    0    0  0.86438032352E+01  0.52048876082E+00 -0.63055236084E+01  0.10711949911E+02  0.00000000000E+00 0. -1.
</event>
<event>
 7    1  0.1284645E-011  0.5930195E+02  0.7816164E-02  0.1266605E+00
        -11   -1    0    0    0    0  0.00000000000E+00  0.00000000000E+00  0.45593999997E+02  0.45594000000E+02  0.51100000000E-03 0.  1.
         11   -1    0    0    0    0 -0.00000000000E+00 -0.00000000000E+00 -0.45593999997E+02  0.45594000000E+02  0.51100000000E-03 0. -1.
    9900012    2    1    2    0    0 -0.25339920463E+02 -0.15905669304E+02  0.11028066853E+02  0.59301950643E+02  0.50000012065E+02 0.  0.
         12    1    1    2    0    0  0.25339920463E+02  0.15905669304E+02 -0.11028066853E+02  0.31886049357E+02  0.00000000000E+00 0. -1.
         11    1    3    3    0    0  0.10160396247E+02  0.52061077746E+01 -0.44555767321E+01  0.12255177450E+02  0.51100000000E-03 0. -1.
        -11    1    3    3    0    0 -0.87920143641E+01  0.83379302568E+00  0.74583757797E+01  0.11559502451E+02  0.51100000000E-03 0.  1.
        -12    1    3    3    0    0 -0.26708302345E+02 -0.21945570105E+02  0.80252678059E+01  0.35487270742E+02  0.00000000000E+00 0.  1.
</event>
<event>
 7    1  0.1284645E-011  0.5930195E+02  0.7816164E-02  0.1266605E+00
        -11   -1    0    0    0    0  0.00000000000E+00  0.00000000000E+00  0.45593999997E+02  0.45594000000E+02  0.51100000000E-03 0. -1.
         11   -1    0    0    0    0 -0.00000000000E+00 -0.00000000000E+00 -0.45593999997E+02  0.45594000000E+02  0.51100000000E-03 0.  1.
    9900012    2    1    2    0    0  0.19110170513E+02 -0.16795092017E+02  0.19220987051E+02  0.59301951701E+02  0.50000013994E+02 0.  0.
         12    1    1    2    0    0 -0.19110170513E+02  0.16795092017E+02 -0.19220987051E+02  0.31886048299E+02  0.00000000000E+00 0. -1.
         11    1    3    3    0    0  0.73428175496E+01  0.20709080511E+01 -0.36913579241E+01  0.84753615443E+01  0.51100000000E-03 0. -1.
        -11    1    3    3    0    0  0.25677283700E+02 -0.15521366677E+02  0.10206049029E+02  0.31692257080E+02  0.51100000000E-03 0.  1.
         12    1    3    3    0    0 -0.13909930737E+02 -0.33446333912E+01  0.12706295946E+02  0.19134333077E+02  0.00000000000E+00 0. -1.
</event>
<event>
 7    1  0.1284645E-011  0.5930196E+02  0.7816164E-02  0.1266605E+00
        -11   -1    0    0    0    0  0.00000000000E+00  0.00000000000E+00  0.45593999997E+02  0.45594000000E+02  0.51100000000E-03 0.  1.
         11   -1    0    0    0    0 -0.00000000000E+00 -0.00000000000E+00 -0.45593999997E+02  0.45594000000E+02  0.51100000000E-03 0. -1.
    9900012    2    1    2    0    0 -0.16437717478E+02  0.13366207445E+01  0.27289825127E+02  0.59301958126E+02  0.50000025712E+02 0.  0.
         12    1    1    2    0    0  0.16437717478E+02 -0.13366207445E+01 -0.27289825127E+02  0.31886041874E+02  0.00000000000E+00 0. -1.
         11    1    3    3    0    0 -0.91545531348E+01 -0.61932111249E+01  0.53288449767E+01  0.12270219891E+02  0.51100000000E-03 0. -1.
        -11    1    3    3    0    0 -0.17304167473E+02 -0.69933241539E+01 -0.24932743267E+00  0.18665555419E+02  0.51100000000E-03 0.  1.
        -12    1    3    3    0    0  0.10021003130E+02  0.14523156023E+02  0.22210307583E+02  0.28366182816E+02  0.00000000000E+00 0.  1.
</event>
<event>
 7    1  0.1284645E-011  0.5930193E+02  0.7816164E-02  0.1266605E+00
        -11   -1    0    0    0    0  0.00000000000E+00  0.00000000000E+00  0.45593999997E+02  0.45594000000E+02  0.51100000000E-03 0.  1.
         11   -1    0    0    0    0 -0.00000000000E+00 -0.00000000000E+00 -0.45593999997E+02  0.45594000000E+02  0.51100000000E-03 0. -1.
    9900012    2    1    2    0    0  0.20006247583E+02  0.20602389657E+02  0.13856879383E+02  0.59301929245E+02  0.49999973041E+02 0.  0.
         12    1    1    2    0    0 -0.20006247583E+02 -0.20602389657E+02 -0.13856879383E+02  0.31886070755E+02  0.00000000000E+00 0. -1.
         11    1    3    3    0    0  0.64710989600E+01  0.10812052679E+01  0.60640903484E+01  0.89340538725E+01  0.51100000000E-03 0. -1.
        -11    1    3    3    0    0  0.52714457616E+00 -0.13868843260E+02  0.11848855037E+01  0.13929344876E+02  0.51100000000E-03 0.  1.
        -12    1    3    3    0    0  0.13008004047E+02  0.33390027649E+02  0.66079035309E+01  0.36438530497E+02  0.00000000000E+00 0.  1.
</event>
<event>
 7    1  0.1284645E-011  0.5930196E+02  0.7816164E-02  0.1266605E+00
        -11   -1    0    0    0    0  0.00000000000E+00  0.00000000000E+00  0.45593999997E+02  0.45594000000E+02  0.51100000000E-03 0. -1.
         11   -1    0    0    0    0 -0.00000000000E+00 -0.00000000000E+00 -0.45593999997E+02  0.45594000000E+02  0.51100000000E-03 0.  1.
    9900012    2    1    2    0    0 -0.75496953632E+01 -0.28971617517E+02 -0.10971199430E+02  0.59301956994E+02  0.50000023648E+02 0.  0.
         12    1    1    2    0    0  0.75496953632E+01  0.28971617517E+02  0.10971199430E+02  0.31886043006E+02  0.00000000000E+00 0. -1.
         11    1    3    3    0    0  0.88727735823E+01 -0.70855223578E+01 -0.88445780515E+01  0.14392960060E+02  0.51100000000E-03 0. -1.
        -11    1    3    3    0    0  0.10266256727E+02 -0.95839026475E+01 -0.59900293206E+01  0.15268518876E+02  0.51100000000E-03 0.  1.
         12    1    3    3    0    0 -0.26688725672E+02 -0.12302192512E+02  0.38634079420E+01  0.29640478058E+02  0.00000000000E+00 0. -1.
</event>
<event>
 7    1  0.1284645E-011  0.5930226E+02  0.7816164E-02  0.1266604E+00
        -11   -1    0    0    0    0  0.00000000000E+00  0.00000000000E+00  0.45593999997E+02  0.45594000000E+02  0.51100000000E-03 0. -1.
         11   -1    0    0    0    0 -0.00000000000E+00 -0.00000000000E+00 -0.45593999997E+02  0.45594000000E+02  0.51100000000E-03 0.  1.
    9900012    2    1    2    0    0  0.13411550175E+02  0.17354110824E+02 -0.23144456146E+02  0.59302255679E+02  0.50000568374E+02 0.  0.
         12    1    1    2    0    0 -0.13411550175E+02 -0.17354110824E+02  0.23144456146E+02  0.31885744321E+02  0.00000000000E+00 0. -1.
         11    1    3    3    0    0  0.11079498808E+02  0.83594055783E+01 -0.24966256999E+02  0.28564820047E+02  0.51100000000E-03 0. -1.
        -11    1    3    3    0    0  0.10931064590E+01  0.97955638245E+01 -0.12736345118E+02  0.16104733453E+02  0.51100000000E-03 0.  1.
         12    1    3    3    0    0  0.12389449081E+01 -0.80085857872E+00  0.14558145971E+02  0.14632702179E+02  0.00000000000E+00 0. -1.
</event>
<event>
 7    1  0.1284645E-011  0.5930195E+02  0.7816164E-02  0.1266605E+00
        -11   -1    0    0    0    0  0.00000000000E+00  0.00000000000E+00  0.45593999997E+02  0.45594000000E+02  0.51100000000E-03 0. -1.
         11   -1    0    0    0    0 -0.00000000000E+00 -0.00000000000E+00 -0.45593999997E+02  0.45594000000E+02  0.51100000000E-03 0.  1.
    9900012    2    1    2    0    0  0.19017736032E+02 -0.22069221317E+02 -0.12961290648E+02  0.59301954955E+02  0.50000019929E+02 0.  0.
         12    1    1    2    0    0 -0.19017736032E+02  0.22069221317E+02  0.12961290648E+02  0.31886045045E+02  0.00000000000E+00 0. -1.
         11    1    3    3    0    0  0.36554903755E+01 -0.23285270318E+02 -0.37540191791E+01  0.23867532003E+02  0.51100000000E-03 0. -1.
        -11    1    3    3    0    0  0.16129457427E+02 -0.12087756586E+02 -0.90822458530E+01  0.22107927224E+02  0.51100000000E-03 0.  1.
        -12    1    3    3    0    0 -0.76721177078E+00  0.13303805586E+02 -0.12502561592E+00  0.13326495728E+02  0.00000000000E+00 0.  1.
</event>
<event>
 7    1  0.1284645E-011  0.5930198E+02  0.7816164E-02  0.1266605E+00
        -11   -1    0    0    0    0  0.00000000000E+00  0.00000000000E+00  0.45593999997E+02  0.45594000000E+02  0.51100000000E-03 0.  1.
         11   -1    0    0    0    0 -0.00000000000E+00 -0.00000000000E+00 -0.45593999997E+02  0.45594000000E+02  0.51100000000E-03 0. -1.
    9900012    2    1    2    0    0 -0.23190547334E+02  0.95665299316E+01  0.19682430192E+02  0.59301983647E+02  0.50000072256E+02 0.  0.
         12    1    1    2    0    0  0.23190547334E+02 -0.95665299316E+01 -0.19682430192E+02  0.31886016353E+02  0.00000000000E+00 0. -1.
         11    1    3    3    0    0 -0.31372607608E+01 -0.11385512985E+02  0.22983259796E+02  0.25839940830E+02  0.51100000000E-03 0. -1.
        -11    1    3    3    0    0  0.10707287483E+01  0.34932802889E+01  0.36760258933E+01  0.51829175045E+01  0.51100000000E-03 0.  1.
        -12    1    3    3    0    0 -0.21124015322E+02  0.17458762627E+02 -0.69768554972E+01  0.28279125312E+02  0.00000000000E+00 0.  1.
</event>
<event>
 7    1  0.1284645E-011  0.5930191E+02  0.7816164E-02  0.1266605E+00
        -11   -1    0    0    0    0  0.00000000000E+00  0.00000000000E+00  0.45593999997E+02  0.45594000000E+02  0.51100000000E-03 0.  1.
         11   -1    0    0    0    0 -0.00000000000E+00 -0.00000000000E+00 -0.45593999997E+02  0.45594000000E+02  0.51100000000E-03 0. -1.
    9900012    2    1    2    0    0 -0.25792990670E+02 -0.81873242000E+01  0.16864518953E+02  0.59301911422E+02  0.49999940535E+02 0.  0.
         12    1    1    2    0    0  0.25792990670E+02  0.81873242000E+01 -0.16864518953E+02  0.31886088578E+02  0.00000000000E+00 0. -1.
         11    1    3    3    0    0 -0.79791110550E+01  0.27869267582E+00 -0.96633435418E+01  0.12534914898E+02  0.51100000000E-03 0. -1.
        -11    1    3    3    0    0 -0.25761696545E+02 -0.13000607627E+02  0.16706304565E+02  0.33343386451E+02  0.51100000000E-03 0.  1.
         12    1    3    3    0    0  0.79478169297E+01  0.45345907511E+01  0.98215579294E+01  0.13423610073E+02  0.00000000000E+00 0. -1.
</event>
<event>
 7    1  0.1284645E-011  0.5930193E+02  0.7816164E-02  0.1266605E+00
        -11   -1    0    0    0    0  0.00000000000E+00  0.00000000000E+00  0.45593999997E+02  0.45594000000E+02  0.51100000000E-03 0. -1.
         11   -1    0    0    0    0 -0.00000000000E+00 -0.00000000000E+00 -0.45593999997E+02  0.45594000000E+02  0.51100000000E-03 0.  1.
    9900012    2    1    2    0    0  0.12902350274E+02  0.11984722550E+02 -0.26582273436E+02  0.59301929715E+02  0.49999973898E+02 0.  0.
         12    1    1    2    0    0 -0.12902350274E+02 -0.11984722550E+02  0.26582273436E+02  0.31886070285E+02  0.00000000000E+00 0. -1.
         11    1    3    3    0    0  0.79039241871E+01  0.12524041549E+02  0.47466884128E+01  0.15551677897E+02  0.51100000000E-03 0. -1.
        -11    1    3    3    0    0  0.66639150067E+01  0.41585647846E+01  0.34763135913E+01  0.85898882840E+01  0.51100000000E-03 0.  1.
         12    1    3    3    0    0 -0.16654889201E+01 -0.46978837835E+01 -0.34805275440E+02  0.35160363534E+02  0.00000000000E+00 0. -1.
</event>
<event>
 7    1  0.1284645E-011  0.5930198E+02  0.7816164E-02  0.1266605E+00
        -11   -1    0    0    0    0  0.00000000000E+00  0.00000000000E+00  0.45593999997E+02  0.45594000000E+02  0.51100000000E-03 0. -1.
         11   -1    0    0    0    0 -0.00000000000E+00 -0.00000000000E+00 -0.45593999997E+02  0.45594000000E+02  0.51100000000E-03 0.  1.
    9900012    2    1    2    0    0  0.24224952358E+02 -0.18086019166E+02 -0.10137343837E+02  0.59301981966E+02  0.50000069190E+02 0.  0.
         12    1    1    2    0    0 -0.24224952358E+02  0.18086019166E+02  0.10137343837E+02  0.31886018034E+02  0.00000000000E+00 0. -1.
         11    1    3    3    0    0 -0.33481058061E+01 -0.19700108728E+01  0.40970962605E+01  0.56459678849E+01  0.51100000000E-03 0. -1.
        -11    1    3    3    0    0  0.53527520183E+01 -0.24833539128E+02  0.85320835234E+00  0.25418193967E+02  0.51100000000E-03 0.  1.
         12    1    3    3    0    0  0.22220306146E+02  0.87175308347E+01 -0.15087648450E+02  0.28237820114E+02  0.00000000000E+00 0. -1.
</event>
<event>
 7    1  0.1284645E-011  0.5930196E+02  0.7816164E-02  0.1266605E+00
        -11   -1    0    0    0    0  0.00000000000E+00  0.00000000000E+00  0.45593999997E+02  0.45594000000E+02  0.51100000000E-03 0.  1.
         11   -1    0    0    0    0 -0.00000000000E+00 -0.00000000000E+00 -0.45593999997E+02  0.45594000000E+02  0.51100000000E-03 0. -1.
    9900012    2    1    2    0    0 -0.25449894166E+02 -0.58458085474E+01 -0.18298874937E+02  0.59301962074E+02  0.50000032912E+02 0.  0.
         12    1    1    2    0    0  0.25449894166E+02  0.58458085474E+01  0.18298874937E+02  0.31886037926E+02  0.00000000000E+00 0. -1.
         11    1    3    3    0    0 -0.52583751780E+01 -0.96843209454E+01  0.50799744661E+01  0.12134361233E+02  0.51100000000E-03 0. -1.
        -11    1    3    3    0    0  0.26886211179E+01  0.89913078557E-01  0.78355906950E+01  0.82845186751E+01  0.51100000000E-03 0.  1.
         12    1    3    3    0    0 -0.22880140106E+02  0.37485993194E+01 -0.31214440098E+02  0.38883082167E+02  0.00000000000E+00 0. -1.
</event>
<event>
 7    1  0.1284645E-011  0.5930195E+02  0.7816164E-02  0.1266605E+00
        -11   -1    0    0    0    0  0.00000000000E+00  0.00000000000E+00  0.45593999997E+02  0.45594000000E+02  0.51100000000E-03 0.  1.
         11   -1    0    0    0    0 -0.00000000000E+00 -0.00000000000E+00 -0.45593999997E+02  0.45594000000E+02  0.51100000000E-03 0. -1.
    9900012    2    1    2    0    0  0.27328035719E+02 -0.14452787596E+02 -0.78112429411E+01  0.59301950985E+02  0.50000012688E+02 0.  0.
         12    1    1    2    0    0 -0.27328035719E+02  0.14452787596E+02  0.78112429411E+01  0.31886049015E+02  0.00000000000E+00 0. -1.
         11    1    3    3    0    0  0.16327037465E+02  0.59992207346E+01 -0.59030504645E+01  0.18368690940E+02  0.51100000000E-03 0. -1.
        -11    1    3    3    0    0  0.18003691096E+02  0.12816362381E+01 -0.50719863326E+00  0.18056376581E+02  0.51100000000E-03 0.  1.
         12    1    3    3    0    0 -0.70026928421E+01 -0.21733644568E+02 -0.14009938433E+01  0.22876883464E+02  0.00000000000E+00 0. -1.
</event>
<event>
 7    1  0.1284645E-011  0.5930194E+02  0.7816164E-02  0.1266605E+00
        -11   -1    0    0    0    0  0.00000000000E+00  0.00000000000E+00  0.45593999997E+02  0.45594000000E+02  0.51100000000E-03 0. -1.
         11   -1    0    0    0    0 -0.00000000000E+00 -0.00000000000E+00 -0.45593999997E+02  0.45594000000E+02  0.51100000000E-03 0.  1.
    9900012    2    1    2    0    0 -0.19380427424E+01 -0.12467250008E+02 -0.29283657682E+02  0.59301938160E+02  0.49999989299E+02 0.  0.
         12    1    1    2    0    0  0.19380427424E+01  0.12467250008E+02  0.29283657682E+02  0.31886061840E+02  0.00000000000E+00 0. -1.
         11    1    3    3    0    0  0.55761065115E+01 -0.14362735430E+02 -0.63115062919E+01  0.16649812155E+02  0.51100000000E-03 0. -1.
        -11    1    3    3    0    0  0.47092200755E+01 -0.29634796541E+01  0.75717506128E+01  0.93962957054E+01  0.51100000000E-03 0.  1.
         12    1    3    3    0    0 -0.12223369329E+02  0.48589650766E+01 -0.30543902003E+02  0.33255830300E+02  0.00000000000E+00 0. -1.
</event>
<event>
 7    1  0.1284645E-011  0.5930193E+02  0.7816164E-02  0.1266605E+00
        -11   -1    0    0    0    0  0.00000000000E+00  0.00000000000E+00  0.45593999997E+02  0.45594000000E+02  0.51100000000E-03 0.  1.
         11   -1    0    0    0    0 -0.00000000000E+00 -0.00000000000E+00 -0.45593999997E+02  0.45594000000E+02  0.51100000000E-03 0. -1.
    9900012    2    1    2    0    0  0.19982924823E+01 -0.11621234251E+02  0.29625579092E+02  0.59301934158E+02  0.49999982000E+02 0.  0.
         12    1    1    2    0    0 -0.19982924823E+01  0.11621234251E+02 -0.29625579092E+02  0.31886065842E+02  0.00000000000E+00 0. -1.
         11    1    3    3    0    0 -0.88825918637E+01 -0.83656390746E+01  0.11679157377E+02  0.16890443234E+02  0.51100000000E-03 0. -1.
        -11    1    3    3    0    0 -0.18482627167E+01 -0.16035510749E+02  0.18259174701E+02  0.24371112840E+02  0.51100000000E-03 0.  1.
         12    1    3    3    0    0  0.12729147063E+02  0.12779915572E+02 -0.31275298579E+00  0.18040378084E+02  0.00000000000E+00 0. -1.
</event>
<event>
 7    1  0.1284645E-011  0.5930196E+02  0.7816164E-02  0.1266605E+00
        -11   -1    0    0    0    0  0.00000000000E+00  0.00000000000E+00  0.45593999997E+02  0.45594000000E+02  0.51100000000E-03 0.  1.
         11   -1    0    0    0    0 -0.00000000000E+00 -0.00000000000E+00 -0.45593999997E+02  0.45594000000E+02  0.51100000000E-03 0. -1.
    9900012    2    1    2    0    0  0.19452532997E+02  0.16502488411E+01  0.25211012475E+02  0.59301960559E+02  0.50000030149E+02 0.  0.
         12    1    1    2    0    0 -0.19452532997E+02 -0.16502488411E+01 -0.25211012475E+02  0.31886039441E+02  0.00000000000E+00 0. -1.
         11    1    3    3    0    0 -0.74819022275E+01  0.99912573939E+00 -0.97231415459E+01  0.12309207731E+02  0.51100000000E-03 0. -1.
        -11    1    3    3    0    0  0.19925271969E+02 -0.32466129590E+01  0.13979365179E+02  0.24555643136E+02  0.51100000000E-03 0.  1.
        -12    1    3    3    0    0  0.70091632557E+01  0.38977360607E+01  0.20954788841E+02  0.22437109692E+02  0.00000000000E+00 0.  1.
</event>
<event>
 7    1  0.1284645E-011  0.5930194E+02  0.7816164E-02  0.1266605E+00
        -11   -1    0    0    0    0  0.00000000000E+00  0.00000000000E+00  0.45593999997E+02  0.45594000000E+02  0.51100000000E-03 0.  1.
         11   -1    0    0    0    0 -0.00000000000E+00 -0.00000000000E+00 -0.45593999997E+02  0.45594000000E+02  0.51100000000E-03 0. -1.
    9900012    2    1    2    0    0 -0.27134469388E+02  0.12137690343E+02 -0.11537665817E+02  0.59301942101E+02  0.49999996486E+02 0.  0.
         12    1    1    2    0    0  0.27134469388E+02 -0.12137690343E+02  0.11537665817E+02  0.31886057899E+02  0.00000000000E+00 0. -1.
         11    1    3    3    0    0 -0.44019624822E+01 -0.12468267847E+02  0.11659501289E+02  0.17628923602E+02  0.51100000000E-03 0.  1.
        -11    1    3    3    0    0 -0.10910965512E+02  0.10068593626E+02 -0.15360973253E+02  0.21363174988E+02  0.51100000000E-03 0. -1.
        -12    1    3    3    0    0 -0.11821541394E+02  0.14537364563E+02 -0.78361938519E+01  0.20309843512E+02  0.00000000000E+00 0.  1.
</event>
<event>
 7    1  0.1284645E-011  0.5930196E+02  0.7816164E-02  0.1266605E+00
        -11   -1    0    0    0    0  0.00000000000E+00  0.00000000000E+00  0.45593999997E+02  0.45594000000E+02  0.51100000000E-03 0. -1.
         11   -1    0    0    0    0 -0.00000000000E+00 -0.00000000000E+00 -0.45593999997E+02  0.45594000000E+02  0.51100000000E-03 0.  1.
    9900012    2    1    2    0    0 -0.37175742737E+01 -0.10955416786E+02 -0.29713259336E+02  0.59301963937E+02  0.50000036310E+02 0.  0.
         12    1    1    2    0    0  0.37175742737E+01  0.10955416786E+02  0.29713259336E+02  0.31886036063E+02  0.00000000000E+00 0. -1.
         11    1    3    3    0    0  0.22275074421E+01 -0.10796394921E+02  0.99465657969E+01  0.14847831630E+02  0.51100000000E-03 0. -1.
        -11    1    3    3    0    0  0.65228569314E+01 -0.16650052298E+01 -0.83919503900E+01  0.10758472781E+02  0.51100000000E-03 0.  1.
        -12    1    3    3    0    0 -0.12467938647E+02  0.15059833652E+01 -0.31267874743E+02  0.33695659527E+02  0.00000000000E+00 0.  1.
</event>
<event>
 7    1  0.1284645E-011  0.5930201E+02  0.7816164E-02  0.1266605E+00
        -11   -1    0    0    0    0  0.00000000000E+00  0.00000000000E+00  0.45593999997E+02  0.45594000000E+02  0.51100000000E-03 0.  1.
         11   -1    0    0    0    0 -0.00000000000E+00 -0.00000000000E+00 -0.45593999997E+02  0.45594000000E+02  0.51100000000E-03 0. -1.
    9900012    2    1    2    0    0 -0.90504479928E+01 -0.30698523198E+01  0.30420089338E+02  0.59302008758E+02  0.50000118052E+02 0.  0.
         12    1    1    2    0    0  0.90504479928E+01  0.30698523198E+01 -0.30420089338E+02  0.31885991242E+02  0.00000000000E+00 0. -1.
         11    1    3    3    0    0 -0.10704478203E+02  0.50281116942E+01 -0.29079105739E+01  0.12178821986E+02  0.51100000000E-03 0. -1.
        -11    1    3    3    0    0  0.91302926994E+01 -0.10078030436E+01 -0.27613244917E+01  0.95918103067E+01  0.51100000000E-03 0.  1.
        -12    1    3    3    0    0 -0.74762624892E+01 -0.70901609705E+01  0.36089324404E+02  0.37531376465E+02  0.00000000000E+00 0.  1.
</event>
<event>
 7    1  0.1284645E-011  0.5930197E+02  0.7816164E-02  0.1266605E+00
        -11   -1    0    0    0    0  0.00000000000E+00  0.00000000000E+00  0.45593999997E+02  0.45594000000E+02  0.51100000000E-03 0.  1.
         11   -1    0    0    0    0 -0.00000000000E+00 -0.00000000000E+00 -0.45593999997E+02  0.45594000000E+02  0.51100000000E-03 0. -1.
    9900012    2    1    2    0    0  0.20144269498E+02 -0.22483155500E+02  0.10268169240E+02  0.59301965842E+02  0.50000039783E+02 0.  0.
         12    1    1    2    0    0 -0.20144269498E+02  0.22483155500E+02 -0.10268169240E+02  0.31886034158E+02  0.00000000000E+00 0. -1.
         11    1    3    3    0    0  0.83257019520E+01 -0.72203027770E+01 -0.83689768602E+01  0.13837986094E+02  0.51100000000E-03 0. -1.
        -11    1    3    3    0    0 -0.12233490336E+02  0.55995745346E+00  0.26382427955E+01  0.12527256821E+02  0.51100000000E-03 0.  1.
         12    1    3    3    0    0  0.24052057881E+02 -0.15822810176E+02  0.15998903305E+02  0.32936722927E+02  0.00000000000E+00 0. -1.
</event>
<event>
 7    1  0.1284645E-011  0.5930203E+02  0.7816164E-02  0.1266604E+00
        -11   -1    0    0    0    0  0.00000000000E+00  0.00000000000E+00  0.45593999997E+02  0.45594000000E+02  0.51100000000E-03 0.  1.
         11   -1    0    0    0    0 -0.00000000000E+00 -0.00000000000E+00 -0.45593999997E+02  0.45594000000E+02  0.51100000000E-03 0. -1.
    9900012    2    1    2    0    0  0.78875362706E+00  0.31622864701E+02 -0.40108804453E+01  0.59302033399E+02  0.50000162991E+02 0.  0.
         12    1    1    2    0    0 -0.78875362706E+00 -0.31622864701E+02  0.40108804453E+01  0.31885966601E+02  0.00000000000E+00 0. -1.
         11    1    3    3    0    0  0.54803487792E+01  0.16598031582E+02  0.71907355583E+00  0.17494168805E+02  0.51100000000E-03 0. -1.
        -11    1    3    3    0    0  0.13230182711E+02  0.19006936458E+02 -0.33200496930E+01  0.23394958822E+02  0.51100000000E-03 0.  1.
         12    1    3    3    0    0 -0.17921777863E+02 -0.39821033394E+01 -0.14099043080E+01  0.18412905771E+02  0.00000000000E+00 0. -1.
</event>
<event>
 7    1  0.1284645E-011  0.5930192E+02  0.7816164E-02  0.1266605E+00
        -11   -1    0    0    0    0  0.00000000000E+00  0.00000000000E+00  0.45593999997E+02  0.45594000000E+02  0.51100000000E-03 0.  1.
         11   -1    0    0    0    0 -0.00000000000E+00 -0.00000000000E+00 -0.45593999997E+02  0.45594000000E+02  0.51100000000E-03 0. -1.
    9900012    2    1    2    0    0 -0.24540701562E+02  0.15115924000E+02  0.13637638275E+02  0.59301915743E+02  0.49999948415E+02 0.  0.
         12    1    1    2    0    0  0.24540701562E+02 -0.15115924000E+02 -0.13637638275E+02  0.31886084257E+02  0.00000000000E+00 0. -1.
         11    1    3    3    0    0  0.66011993547E+00  0.11727019755E+02  0.39552052476E+01  0.12393643511E+02  0.51100000000E-03 0. -1.
        -11    1    3    3    0    0  0.41165737423E+01  0.13778228921E+02  0.60210127572E+01  0.15589687824E+02  0.51100000000E-03 0.  1.
         12    1    3    3    0    0 -0.29317395240E+02 -0.10389324676E+02  0.36614202704E+01  0.31318584407E+02  0.00000000000E+00 0. -1.
</event>
<event>
 7    1  0.1284645E-011  0.5930189E+02  0.7816164E-02  0.1266605E+00
        -11   -1    0    0    0    0  0.00000000000E+00  0.00000000000E+00  0.45593999997E+02  0.45594000000E+02  0.51100000000E-03 0. -1.
         11   -1    0    0    0    0 -0.00000000000E+00 -0.00000000000E+00 -0.45593999997E+02  0.45594000000E+02  0.51100000000E-03 0.  1.
    9900012    2    1    2    0    0  0.17795761362E+02  0.25166822710E+02 -0.81649082588E+01  0.59301893078E+02  0.49999907080E+02 0.  0.
         12    1    1    2    0    0 -0.17795761362E+02 -0.25166822710E+02  0.81649082588E+01  0.31886106922E+02  0.00000000000E+00 0. -1.
         11    1    3    3    0    0  0.91749279916E+01  0.13556780417E+02 -0.10571081926E+02  0.19486235457E+02  0.51100000000E-03 0. -1.
        -11    1    3    3    0    0  0.36449021980E+01  0.48877739505E+01 -0.17334945209E+02  0.18375961794E+02  0.51100000000E-03 0.  1.
         12    1    3    3    0    0  0.49759311724E+01  0.67222683419E+01  0.19741118875E+02  0.21439695827E+02  0.00000000000E+00 0. -1.
</event>
<event>
 7    1  0.1284645E-011  0.5930198E+02  0.7816164E-02  0.1266605E+00
        -11   -1    0    0    0    0  0.00000000000E+00  0.00000000000E+00  0.45593999997E+02  0.45594000000E+02  0.51100000000E-03 0.  1.
         11   -1    0    0    0    0 -0.00000000000E+00 -0.00000000000E+00 -0.45593999997E+02  0.45594000000E+02  0.51100000000E-03 0. -1.
    9900012    2    1    2    0    0  0.20911963724E+02  0.13539400966E+02  0.19902069277E+02  0.59301984777E+02  0.50000074317E+02 0.  0.
         12    1    1    2    0    0 -0.20911963724E+02 -0.13539400966E+02 -0.19902069277E+02  0.31886015223E+02  0.00000000000E+00 0. -1.
         11    1    3    3    0    0  0.87518421784E+00  0.34715320103E+01 -0.10888961700E+02  0.11462415499E+02  0.51100000000E-03 0. -1.
        -11    1    3    3    0    0 -0.24151229074E+01  0.50367172116E+01 -0.34652978154E+01  0.65734030865E+01  0.51100000000E-03 0.  1.
        -12    1    3    3    0    0  0.22451902413E+02  0.50311517442E+01  0.34256328792E+02  0.41266166191E+02  0.00000000000E+00 0.  1.
</event>
<event>
 7    1  0.1284645E-011  0.5930202E+02  0.7816164E-02  0.1266605E+00
        -11   -1    0    0    0    0  0.00000000000E+00  0.00000000000E+00  0.45593999997E+02  0.45594000000E+02  0.51100000000E-03 0.  1.
         11   -1    0    0    0    0 -0.00000000000E+00 -0.00000000000E+00 -0.45593999997E+02  0.45594000000E+02  0.51100000000E-03 0. -1.
    9900012    2    1    2    0    0  0.41440255982E+01 -0.17337130745E+02  0.26437982022E+02  0.59302016496E+02  0.50000132164E+02 0.  0.
         12    1    1    2    0    0 -0.41440255982E+01  0.17337130745E+02 -0.26437982022E+02  0.31885983504E+02  0.00000000000E+00 0. -1.
         11    1    3    3    0    0  0.10261290404E+01 -0.65785536329E+00  0.40075965300E+01  0.41888595936E+01  0.51100000000E-03 0. -1.
        -11    1    3    3    0    0  0.80563120001E+01  0.57211644906E+01  0.29499378801E+02  0.31110275410E+02  0.51100000000E-03 0.  1.
         12    1    3    3    0    0 -0.49384154423E+01 -0.22400439872E+02 -0.70689933086E+01  0.24002881492E+02  0.00000000000E+00 0. -1.
</event>
<event>
 7    1  0.1284645E-011  0.5930194E+02  0.7816164E-02  0.1266605E+00
        -11   -1    0    0    0    0  0.00000000000E+00  0.00000000000E+00  0.45593999997E+02  0.45594000000E+02  0.51100000000E-03 0.  1.
         11   -1    0    0    0    0 -0.00000000000E+00 -0.00000000000E+00 -0.45593999997E+02  0.45594000000E+02  0.51100000000E-03 0. -1.
    9900012    2    1    2    0    0 -0.30693449062E+02 -0.13555549209E+01 -0.85320423072E+01  0.59301935796E+02  0.49999984987E+02 0.  0.
         12    1    1    2    0    0  0.30693449062E+02  0.13555549209E+01  0.85320423072E+01  0.31886064204E+02  0.00000000000E+00 0. -1.
         11    1    3    3    0    0 -0.56020617168E+01  0.14320550586E+02 -0.14156147841E+02  0.20901143187E+02  0.51100000000E-03 0. -1.
        -11    1    3    3    0    0  0.31193296652E+01 -0.77221782584E+01 -0.88772753610E+00  0.83755784908E+01  0.51100000000E-03 0.  1.
        -12    1    3    3    0    0 -0.28210717011E+02 -0.79539272483E+01  0.65118330695E+01  0.30025214119E+02  0.00000000000E+00 0.  1.
</event>
<event>
 7    1  0.1284645E-011  0.5930195E+02  0.7816164E-02  0.1266605E+00
        -11   -1    0    0    0    0  0.00000000000E+00  0.00000000000E+00  0.45593999997E+02  0.45594000000E+02  0.51100000000E-03 0.  1.
         11   -1    0    0    0    0 -0.00000000000E+00 -0.00000000000E+00 -0.45593999997E+02  0.45594000000E+02  0.51100000000E-03 0. -1.
    9900012    2    1    2    0    0  0.30923191483E+02 -0.39984204736E+01  0.66700192216E+01  0.59301948281E+02  0.50000007758E+02 0.  0.
         12    1    1    2    0    0 -0.30923191483E+02  0.39984204736E+01 -0.66700192216E+01  0.31886051719E+02  0.00000000000E+00 0. -1.
         11    1    3    3    0    0  0.13554723694E+02  0.55716779302E+00  0.23551189931E+01  0.13769079712E+02  0.51100000000E-03 0. -1.
        -11    1    3    3    0    0  0.26420391651E+02 -0.80500967928E+01  0.14726929431E+02  0.31300536802E+02  0.51100000000E-03 0.  1.
         12    1    3    3    0    0 -0.90519238615E+01  0.34945085262E+01 -0.10412029203E+02  0.14232331768E+02  0.00000000000E+00 0. -1.
</event>
<event>
 7    1  0.1284645E-011  0.5930193E+02  0.7816164E-02  0.1266605E+00
        -11   -1    0    0    0    0  0.00000000000E+00  0.00000000000E+00  0.45593999997E+02  0.45594000000E+02  0.51100000000E-03 0. -1.
         11   -1    0    0    0    0 -0.00000000000E+00 -0.00000000000E+00 -0.45593999997E+02  0.45594000000E+02  0.51100000000E-03 0.  1.
    9900012    2    1    2    0    0 -0.23999645537E+02 -0.18039246375E+02  0.10738896155E+02  0.59301932725E+02  0.49999979386E+02 0.  0.
         12    1    1    2    0    0  0.23999645537E+02  0.18039246375E+02 -0.10738896155E+02  0.31886067275E+02  0.00000000000E+00 0. -1.
         11    1    3    3    0    0 -0.15565599080E+02  0.24887141348E+01 -0.19120089100E+01  0.15878833430E+02  0.51100000000E-03 0. -1.
        -11    1    3    3    0    0 -0.15237877017E+02 -0.51995780517E+01 -0.70279176780E+01  0.17567587627E+02  0.51100000000E-03 0.  1.
         12    1    3    3    0    0  0.68038305595E+01 -0.15328382458E+02  0.19678822743E+02  0.25855511668E+02  0.00000000000E+00 0. -1.
</event>
<event>
 7    1  0.1284645E-011  0.5930194E+02  0.7816164E-02  0.1266605E+00
        -11   -1    0    0    0    0  0.00000000000E+00  0.00000000000E+00  0.45593999997E+02  0.45594000000E+02  0.51100000000E-03 0. -1.
         11   -1    0    0    0    0 -0.00000000000E+00 -0.00000000000E+00 -0.45593999997E+02  0.45594000000E+02  0.51100000000E-03 0.  1.
    9900012    2    1    2    0    0 -0.25423123125E+02  0.86497756450E+01 -0.17192058915E+02  0.59301941952E+02  0.49999996214E+02 0.  0.
         12    1    1    2    0    0  0.25423123125E+02 -0.86497756450E+01  0.17192058915E+02  0.31886058048E+02  0.00000000000E+00 0. -1.
         11    1    3    3    0    0 -0.91827823825E+01  0.34308947077E+00 -0.86428678440E+01  0.12615084918E+02  0.51100000000E-03 0. -1.
        -11    1    3    3    0    0 -0.25028782526E+02  0.35195506158E+01 -0.19447310874E+02  0.31890830841E+02  0.51100000000E-03 0.  1.
         12    1    3    3    0    0  0.87884417841E+01  0.47871355584E+01  0.10898119802E+02  0.14796026192E+02  0.00000000000E+00 0. -1.
</event>
<event>
 7    1  0.1284645E-011  0.5930195E+02  0.7816164E-02  0.1266605E+00
        -11   -1    0    0    0    0  0.00000000000E+00  0.00000000000E+00  0.45593999997E+02  0.45594000000E+02  0.51100000000E-03 0.  1.
         11   -1    0    0    0    0 -0.00000000000E+00 -0.00000000000E+00 -0.45593999997E+02  0.45594000000E+02  0.51100000000E-03 0. -1.
    9900012    2    1    2    0    0 -0.11828958701E+02 -0.76964824832E+01  0.28593005512E+02  0.59301951785E+02  0.50000014147E+02 0.  0.
         12    1    1    2    0    0  0.11828958701E+02  0.76964824832E+01 -0.28593005512E+02  0.31886048215E+02  0.00000000000E+00 0. -1.
         11    1    3    3    0    0 -0.12485425137E+02 -0.36839348717E+01  0.31402836845E+02  0.33994049173E+02  0.51100000000E-03 0. -1.
        -11    1    3    3    0    0  0.75075864046E+01  0.35055548299E+00  0.85239141008E+01  0.11364147774E+02  0.51100000000E-03 0.  1.
         12    1    3    3    0    0 -0.68511199689E+01 -0.43631030945E+01 -0.11333745434E+02  0.13943754839E+02  0.00000000000E+00 0. -1.
</event>
<event>
 7    1  0.1284645E-011  0.5930190E+02  0.7816164E-02  0.1266605E+00
        -11   -1    0    0    0    0  0.00000000000E+00  0.00000000000E+00  0.45593999997E+02  0.45594000000E+02  0.51100000000E-03 0.  1.
         11   -1    0    0    0    0 -0.00000000000E+00 -0.00000000000E+00 -0.45593999997E+02  0.45594000000E+02  0.51100000000E-03 0. -1.
    9900012    2    1    2    0    0 -0.18756172177E+02  0.17017682723E+02  0.19373374322E+02  0.59301903459E+02  0.49999926013E+02 0.  0.
         12    1    1    2    0    0  0.18756172177E+02 -0.17017682723E+02 -0.19373374322E+02  0.31886096541E+02  0.00000000000E+00 0. -1.
         11    1    3    3    0    0 -0.26618084852E+01  0.10684389932E+01  0.18913100299E+02  0.19129353086E+02  0.51100000000E-03 0. -1.
        -11    1    3    3    0    0 -0.13423374043E+02 -0.81190516615E+01  0.24371414217E+01  0.15875944984E+02  0.51100000000E-03 0.  1.
        -12    1    3    3    0    0 -0.26709896490E+01  0.24068295391E+02 -0.19768673990E+01  0.24296605389E+02  0.00000000000E+00 0.  1.
</event>
<event>
 7    1  0.1284645E-011  0.5930196E+02  0.7816164E-02  0.1266605E+00
        -11   -1    0    0    0    0  0.00000000000E+00  0.00000000000E+00  0.45593999997E+02  0.45594000000E+02  0.51100000000E-03 0.  1.
         11   -1    0    0    0    0 -0.00000000000E+00 -0.00000000000E+00 -0.45593999997E+02  0.45594000000E+02  0.51100000000E-03 0. -1.
    9900012    2    1    2    0    0  0.93468584206E+01  0.82830289737E+01  0.29338496421E+02  0.59301957543E+02  0.50000024649E+02 0.  0.
         12    1    1    2    0    0 -0.93468584206E+01 -0.82830289737E+01 -0.29338496421E+02  0.31886042457E+02  0.00000000000E+00 0. -1.
         11    1    3    3    0    0 -0.12482751079E+02  0.10185950289E+02  0.13898258029E+02  0.21277552357E+02  0.51100000000E-03 0. -1.
        -11    1    3    3    0    0  0.10839939620E+02 -0.10210817494E+01  0.22456079067E+02  0.24956409722E+02  0.51100000000E-03 0.  1.
        -12    1    3    3    0    0  0.10989669880E+02 -0.88183956555E+00 -0.70158406744E+01  0.13067995464E+02  0.00000000000E+00 0.  1.
</event>
<event>
 7    1  0.1284645E-011  0.5930192E+02  0.7816164E-02  0.1266605E+00
        -11   -1    0    0    0    0  0.00000000000E+00  0.00000000000E+00  0.45593999997E+02  0.45594000000E+02  0.51100000000E-03 0.  1.
         11   -1    0    0    0    0 -0.00000000000E+00 -0.00000000000E+00 -0.45593999997E+02  0.45594000000E+02  0.51100000000E-03 0. -1.
    9900012    2    1    2    0    0  0.12363069601E+02  0.18509795846E+02  0.22831205259E+02  0.59301922070E+02  0.49999959954E+02 0.  0.
         12    1    1    2    0    0 -0.12363069601E+02 -0.18509795846E+02 -0.22831205259E+02  0.31886077930E+02  0.00000000000E+00 0. -1.
         11    1    3    3    0    0 -0.93710560460E+01 -0.25935534782E+01 -0.61855339378E+00  0.97429882287E+01  0.51100000000E-03 0. -1.
        -11    1    3    3    0    0 -0.55880748034E+01 -0.37366874474E+01  0.32016835738E+01  0.74458170174E+01  0.51100000000E-03 0.  1.
        -12    1    3    3    0    0  0.27322200450E+02  0.24840036771E+02  0.20248075079E+02  0.42113116824E+02  0.00000000000E+00 0.  1.
</event>
<event>
 7    1  0.1284645E-011  0.5930195E+02  0.7816164E-02  0.1266605E+00
        -11   -1    0    0    0    0  0.00000000000E+00  0.00000000000E+00  0.45593999997E+02  0.45594000000E+02  0.51100000000E-03 0.  1.
         11   -1    0    0    0    0 -0.00000000000E+00 -0.00000000000E+00 -0.45593999997E+02  0.45594000000E+02  0.51100000000E-03 0. -1.
    9900012    2    1    2    0    0 -0.19767431138E+02 -0.64787565858E+01  0.24165984637E+02  0.59301946086E+02  0.50000003755E+02 0.  0.
         12    1    1    2    0    0  0.19767431138E+02  0.64787565858E+01 -0.24165984637E+02  0.31886053914E+02  0.00000000000E+00 0. -1.
         11    1    3    3    0    0 -0.30634202243E+02 -0.17961652086E+01  0.10941443708E+02  0.32579069158E+02  0.51100000000E-03 0. -1.
        -11    1    3    3    0    0 -0.38086168211E+01 -0.72562774508E+01  0.60484842459E+01  0.10185444834E+02  0.51100000000E-03 0.  1.
        -12    1    3    3    0    0  0.14675387926E+02  0.25736860736E+01  0.71760566829E+01  0.16537432095E+02  0.00000000000E+00 0.  1.
</event>
<event>
 7    1  0.1284645E-011  0.5930194E+02  0.7816164E-02  0.1266605E+00
        -11   -1    0    0    0    0  0.00000000000E+00  0.00000000000E+00  0.45593999997E+02  0.45594000000E+02  0.51100000000E-03 0.  1.
         11   -1    0    0    0    0 -0.00000000000E+00 -0.00000000000E+00 -0.45593999997E+02  0.45594000000E+02  0.51100000000E-03 0. -1.
    9900012    2    1    2    0    0  0.23966715363E+02 -0.15201895540E+02  0.14533395480E+02  0.59301942585E+02  0.49999997368E+02 0.  0.
         12    1    1    2    0    0 -0.23966715363E+02  0.15201895540E+02 -0.14533395480E+02  0.31886057415E+02  0.00000000000E+00 0. -1.
         11    1    3    3    0    0  0.78438460179E+01 -0.12594955781E+02  0.85052548214E+00  0.14862107029E+02  0.51100000000E-03 0. -1.
        -11    1    3    3    0    0  0.18639943727E+02 -0.18375792147E+02  0.67485653101E+01  0.27030730163E+02  0.51100000000E-03 0.  1.
        -12    1    3    3    0    0 -0.25170743817E+01  0.15768852388E+02  0.69343046880E+01  0.17409105393E+02  0.00000000000E+00 0.  1.
</event>
<event>
 7    1  0.1284645E-011  0.5930194E+02  0.7816164E-02  0.1266605E+00
        -11   -1    0    0    0    0  0.00000000000E+00  0.00000000000E+00  0.45593999997E+02  0.45594000000E+02  0.51100000000E-03 0. -1.
         11   -1    0    0    0    0 -0.00000000000E+00 -0.00000000000E+00 -0.45593999997E+02  0.45594000000E+02  0.51100000000E-03 0.  1.
    9900012    2    1    2    0    0 -0.26451144049E+02 -0.10602785092E+02 -0.14305198633E+02  0.59301940646E+02  0.49999993832E+02 0.  0.
         12    1    1    2    0    0  0.26451144049E+02  0.10602785092E+02  0.14305198633E+02  0.31886059354E+02  0.00000000000E+00 0. -1.
         11    1    3    3    0    0  0.14625114884E+01  0.95270529727E+01 -0.72779834842E+00  0.96660937765E+01  0.51100000000E-03 0. -1.
        -11    1    3    3    0    0 -0.57137369227E+01 -0.20100631839E+02 -0.17296454403E+02  0.27126546502E+02  0.51100000000E-03 0.  1.
         12    1    3    3    0    0 -0.22199918614E+02 -0.29206225768E-01  0.37190541183E+01  0.22509300367E+02  0.00000000000E+00 0. -1.
</event>
<event>
 7    1  0.1284645E-011  0.5930194E+02  0.7816164E-02  0.1266605E+00
        -11   -1    0    0    0    0  0.00000000000E+00  0.00000000000E+00  0.45593999997E+02  0.45594000000E+02  0.51100000000E-03 0. -1.
         11   -1    0    0    0    0 -0.00000000000E+00 -0.00000000000E+00 -0.45593999997E+02  0.45594000000E+02  0.51100000000E-03 0.  1.
    9900012    2    1    2    0    0 -0.90756680662E+01 -0.57822140591E+01 -0.30015314261E+02  0.59301939715E+02  0.49999992135E+02 0.  0.
         12    1    1    2    0    0  0.90756680662E+01  0.57822140591E+01  0.30015314261E+02  0.31886060285E+02  0.00000000000E+00 0. -1.
         11    1    3    3    0    0 -0.13826783683E+01 -0.15964868521E+02 -0.44347636192E+01  0.16626964696E+02  0.51100000000E-03 0. -1.
        -11    1    3    3    0    0  0.11611937171E+02  0.14835255600E+01 -0.14932136237E+02  0.18973840566E+02  0.51100000000E-03 0.  1.
         12    1    3    3    0    0 -0.19304926869E+02  0.86991289021E+01 -0.10648414405E+02  0.23701134454E+02  0.00000000000E+00 0. -1.
</event>
<event>
 7    1  0.1284645E-011  0.5930196E+02  0.7816164E-02  0.1266605E+00
        -11   -1    0    0    0    0  0.00000000000E+00  0.00000000000E+00  0.45593999997E+02  0.45594000000E+02  0.51100000000E-03 0.  1.
         11   -1    0    0    0    0 -0.00000000000E+00 -0.00000000000E+00 -0.45593999997E+02  0.45594000000E+02  0.51100000000E-03 0. -1.
    9900012    2    1    2    0    0 -0.18825233763E+02 -0.20026387152E+01  0.25657737457E+02  0.59301961057E+02  0.50000031058E+02 0.  0.
         12    1    1    2    0    0  0.18825233763E+02  0.20026387152E+01 -0.25657737457E+02  0.31886038943E+02  0.00000000000E+00 0. -1.
         11    1    3    3    0    0 -0.56198041417E+01  0.94608534192E+01 -0.57469946274E+01  0.12414422803E+02  0.51100000000E-03 0.  1.
        -11    1    3    3    0    0 -0.31179701848E+01  0.82070200364E+01  0.37340021737E+00  0.87872830804E+01  0.51100000000E-03 0. -1.
        -12    1    3    3    0    0 -0.10087459437E+02 -0.19670512171E+02  0.31031331867E+02  0.38100255174E+02  0.00000000000E+00 0.  1.
</event>
<event>
 7    1  0.1284645E-011  0.5930190E+02  0.7816164E-02  0.1266605E+00
        -11   -1    0    0    0    0  0.00000000000E+00  0.00000000000E+00  0.45593999997E+02  0.45594000000E+02  0.51100000000E-03 0.  1.
         11   -1    0    0    0    0 -0.00000000000E+00 -0.00000000000E+00 -0.45593999997E+02  0.45594000000E+02  0.51100000000E-03 0. -1.
    9900012    2    1    2    0    0  0.28292462208E+02  0.13936871222E+02  0.46929358904E+01  0.59301898881E+02  0.49999917664E+02 0.  0.
         12    1    1    2    0    0 -0.28292462208E+02 -0.13936871222E+02 -0.46929358904E+01  0.31886101119E+02  0.00000000000E+00 0. -1.
         11    1    3    3    0    0  0.14383555194E+01 -0.79727755862E+01 -0.59053471826E+01  0.10025325070E+02  0.51100000000E-03 0. -1.
        -11    1    3    3    0    0 -0.67404861141E+01  0.10063525022E+02  0.54592451376E+01  0.13285783630E+02  0.51100000000E-03 0.  1.
         12    1    3    3    0    0  0.33594592803E+02  0.11846121786E+02  0.51390379355E+01  0.35990790181E+02  0.00000000000E+00 0. -1.
</event>
<event>
 7    1  0.1284645E-011  0.5930194E+02  0.7816164E-02  0.1266605E+00
        -11   -1    0    0    0    0  0.00000000000E+00  0.00000000000E+00  0.45593999997E+02  0.45594000000E+02  0.51100000000E-03 0. -1.
         11   -1    0    0    0    0 -0.00000000000E+00 -0.00000000000E+00 -0.45593999997E+02  0.45594000000E+02  0.51100000000E-03 0.  1.
    9900012    2    1    2    0    0  0.81765958569E+00  0.51758454483E+01 -0.31452545563E+02  0.59301944024E+02  0.49999999993E+02 0.  0.
         12    1    1    2    0    0 -0.81765958569E+00 -0.51758454483E+01  0.31452545563E+02  0.31886055976E+02  0.00000000000E+00 0. -1.
         11    1    3    3    0    0 -0.31789576196E+01 -0.57380239422E+01 -0.16898366498E+02  0.18126926956E+02  0.51100000000E-03 0. -1.
        -11    1    3    3    0    0  0.12844375211E+02  0.12267272163E+02 -0.22870431358E+02  0.28957219681E+02  0.51100000000E-03 0.  1.
         12    1    3    3    0    0 -0.88477580058E+01 -0.13534027729E+01  0.83162522927E+01  0.12217797387E+02  0.00000000000E+00 0. -1.
</event>
<event>
 7    1  0.1284645E-011  0.5930194E+02  0.7816164E-02  0.1266605E+00
        -11   -1    0    0    0    0  0.00000000000E+00  0.00000000000E+00  0.45593999997E+02  0.45594000000E+02  0.51100000000E-03 0.  1.
         11   -1    0    0    0    0 -0.00000000000E+00 -0.00000000000E+00 -0.45593999997E+02  0.45594000000E+02  0.51100000000E-03 0. -1.
    9900012    2    1    2    0    0 -0.94839639357E+01  0.19239716775E+02  0.23592546130E+02  0.59301944954E+02  0.50000001689E+02 0.  0.
         12    1    1    2    0    0  0.94839639357E+01 -0.19239716775E+02 -0.23592546130E+02  0.31886055046E+02  0.00000000000E+00 0. -1.
         11    1    3    3    0    0 -0.54572877868E+01  0.25995779087E+01  0.15538398010E+00  0.60468123614E+01  0.51100000000E-03 0. -1.
        -11    1    3    3    0    0 -0.10527056937E+02  0.23897091388E+02 -0.18276779386E+01  0.26176904161E+02  0.51100000000E-03 0.  1.
        -12    1    3    3    0    0  0.65003807884E+01 -0.72569525214E+01  0.25264840088E+02  0.27078228431E+02  0.00000000000E+00 0.  1.
</event>
<event>
 7    1  0.1284645E-011  0.5930192E+02  0.7816164E-02  0.1266605E+00
        -11   -1    0    0    0    0  0.00000000000E+00  0.00000000000E+00  0.45593999997E+02  0.45594000000E+02  0.51100000000E-03 0.  1.
         11   -1    0    0    0    0 -0.00000000000E+00 -0.00000000000E+00 -0.45593999997E+02  0.45594000000E+02  0.51100000000E-03 0. -1.
    9900012    2    1    2    0    0 -0.29342875476E+02  0.12474509011E+02 -0.32354485508E+00  0.59301915299E+02  0.49999947606E+02 0.  0.
         12    1    1    2    0    0  0.29342875476E+02 -0.12474509011E+02  0.32354485508E+00  0.31886084701E+02  0.00000000000E+00 0. -1.
         11    1    3    3    0    0 -0.15650550078E+02 -0.14984822167E+02  0.35175340813E+01  0.21951256443E+02  0.51100000000E-03 0. -1.
        -11    1    3    3    0    0 -0.10899391749E+02  0.15727876535E+01  0.12842066314E+00  0.11013032899E+02  0.51100000000E-03 0.  1.
         12    1    3    3    0    0 -0.27929336488E+01  0.25886543525E+02 -0.39694995996E+01  0.26337625958E+02  0.00000000000E+00 0. -1.
</event>
<event>
 7    1  0.1284645E-011  0.5930194E+02  0.7816164E-02  0.1266605E+00
        -11   -1    0    0    0    0  0.00000000000E+00  0.00000000000E+00  0.45593999997E+02  0.45594000000E+02  0.51100000000E-03 0.  1.
         11   -1    0    0    0    0 -0.00000000000E+00 -0.00000000000E+00 -0.45593999997E+02  0.45594000000E+02  0.51100000000E-03 0. -1.
    9900012    2    1    2    0    0 -0.28488668960E+02 -0.20674293905E+01  0.14171883282E+02  0.59301940363E+02  0.49999993317E+02 0.  0.
         12    1    1    2    0    0  0.28488668960E+02  0.20674293905E+01 -0.14171883282E+02  0.31886059637E+02  0.00000000000E+00 0. -1.
         11    1    3    3    0    0 -0.10819620166E+02 -0.16624170501E+01 -0.90633072118E+01  0.14211662425E+02  0.51100000000E-03 0. -1.
        -11    1    3    3    0    0 -0.17120989552E+02 -0.76873714114E+01 -0.19490342062E+01  0.18868563725E+02  0.51100000000E-03 0.  1.
        -12    1    3    3    0    0 -0.54805924194E+00  0.72823590710E+01  0.25184224700E+02  0.26221714214E+02  0.00000000000E+00 0.  1.
</event>
<event>
 7    1  0.1284645E-011  0.5930196E+02  0.7816164E-02  0.1266605E+00
        -11   -1    0    0    0    0  0.00000000000E+00  0.00000000000E+00  0.45593999997E+02  0.45594000000E+02  0.51100000000E-03 0. -1.
         11   -1    0    0    0    0 -0.00000000000E+00 -0.00000000000E+00 -0.45593999997E+02  0.45594000000E+02  0.51100000000E-03 0.  1.
    9900012    2    1    2    0    0  0.94771892175E+01  0.21321107965E+02 -0.21732764659E+02  0.59301955716E+02  0.50000021317E+02 0.  0.
         12    1    1    2    0    0 -0.94771892175E+01 -0.21321107965E+02  0.21732764659E+02  0.31886044284E+02  0.00000000000E+00 0. -1.
         11    1    3    3    0    0 -0.31327346524E+01  0.46831829382E+01 -0.51154323438E+01  0.76101167639E+01  0.51100000000E-03 0. -1.
        -11    1    3    3    0    0 -0.42801626170E+01  0.28144538054E+02 -0.10736030994E+02  0.30425271996E+02  0.51100000000E-03 0.  1.
         12    1    3    3    0    0  0.16890086487E+02 -0.11506613027E+02 -0.58813013216E+01  0.21266566956E+02  0.00000000000E+00 0. -1.
</event>
<event>
 7    1  0.1284645E-011  0.5930187E+02  0.7816164E-02  0.1266605E+00
        -11   -1    0    0    0    0  0.00000000000E+00  0.00000000000E+00  0.45593999997E+02  0.45594000000E+02  0.51100000000E-03 0.  1.
         11   -1    0    0    0    0 -0.00000000000E+00 -0.00000000000E+00 -0.45593999997E+02  0.45594000000E+02  0.51100000000E-03 0. -1.
    9900012    2    1    2    0    0 -0.95929639972E+01 -0.12747277096E+02  0.27608104047E+02  0.59301867580E+02  0.49999860578E+02 0.  0.
         12    1    1    2    0    0  0.95929639972E+01  0.12747277096E+02 -0.27608104047E+02  0.31886132420E+02  0.00000000000E+00 0. -1.
         11    1    3    3    0    0 -0.35949177953E+01  0.46762590710E+01 -0.83829871342E+01  0.10250136897E+02  0.51100000000E-03 0. -1.
        -11    1    3    3    0    0 -0.67983506829E+01  0.48862089718E+01  0.19730887422E+02  0.21433630790E+02  0.51100000000E-03 0.  1.
        -12    1    3    3    0    0  0.80030448103E+00 -0.22309745139E+02  0.16260203759E+02  0.27618099893E+02  0.00000000000E+00 0.  1.
</event>
<event>
 7    1  0.1284645E-011  0.5930195E+02  0.7816164E-02  0.1266605E+00
        -11   -1    0    0    0    0  0.00000000000E+00  0.00000000000E+00  0.45593999997E+02  0.45594000000E+02  0.51100000000E-03 0.  1.
         11   -1    0    0    0    0 -0.00000000000E+00 -0.00000000000E+00 -0.45593999997E+02  0.45594000000E+02  0.51100000000E-03 0. -1.
    9900012    2    1    2    0    0 -0.11774572858E+02  0.19431833301E+01  0.29568622730E+02  0.59301953246E+02  0.50000016811E+02 0.  0.
         12    1    1    2    0    0  0.11774572858E+02 -0.19431833301E+01 -0.29568622730E+02  0.31886046754E+02  0.00000000000E+00 0. -1.
         11    1    3    3    0    0  0.20878375197E+01 -0.42813168184E+01  0.22238062146E+02  0.22742474525E+02  0.51100000000E-03 0. -1.
        -11    1    3    3    0    0 -0.10696965439E+02 -0.36332407890E+01  0.18280615230E+02  0.21489681284E+02  0.51100000000E-03 0.  1.
         12    1    3    3    0    0 -0.31654449395E+01  0.98577409376E+01 -0.10950054646E+02  0.15069797437E+02  0.00000000000E+00 0. -1.
</event>
<event>
 7    1  0.1284645E-011  0.5930196E+02  0.7816164E-02  0.1266605E+00
        -11   -1    0    0    0    0  0.00000000000E+00  0.00000000000E+00  0.45593999997E+02  0.45594000000E+02  0.51100000000E-03 0.  1.
         11   -1    0    0    0    0 -0.00000000000E+00 -0.00000000000E+00 -0.45593999997E+02  0.45594000000E+02  0.51100000000E-03 0. -1.
    9900012    2    1    2    0    0  0.60568873329E+01  0.30688188560E+01  0.31154712627E+02  0.59301958348E+02  0.50000026117E+02 0.  0.
         12    1    1    2    0    0 -0.60568873329E+01 -0.30688188560E+01 -0.31154712627E+02  0.31886041652E+02  0.00000000000E+00 0. -1.
         11    1    3    3    0    0 -0.41506765549E+01 -0.10370204206E+02  0.28196377922E+01  0.11520399676E+02  0.51100000000E-03 0. -1.
        -11    1    3    3    0    0  0.22062026852E+02  0.27546320219E+01  0.13616517681E+02  0.26071643224E+02  0.51100000000E-03 0.  1.
        -12    1    3    3    0    0 -0.11854462964E+02  0.10684391041E+02  0.14718557154E+02  0.21709915448E+02  0.00000000000E+00 0.  1.
</event>
<event>
 7    1  0.1284645E-011  0.5930193E+02  0.7816164E-02  0.1266605E+00
        -11   -1    0    0    0    0  0.00000000000E+00  0.00000000000E+00  0.45593999997E+02  0.45594000000E+02  0.51100000000E-03 0.  1.
         11   -1    0    0    0    0 -0.00000000000E+00 -0.00000000000E+00 -0.45593999997E+02  0.45594000000E+02  0.51100000000E-03 0. -1.
    9900012    2    1    2    0    0  0.15135781256E+02  0.24844937982E+00  0.28063637425E+02  0.59301931776E+02  0.49999977655E+02 0.  0.
         12    1    1    2    0    0 -0.15135781256E+02 -0.24844937982E+00 -0.28063637425E+02  0.31886068224E+02  0.00000000000E+00 0. -1.
         11    1    3    3    0    0  0.13763232074E+02  0.90143782270E+01 -0.98754580848E+00  0.16482136358E+02  0.51100000000E-03 0. -1.
        -11    1    3    3    0    0  0.15512242577E+02 -0.65484415886E+01  0.12706043814E+02  0.21093963750E+02  0.51100000000E-03 0.  1.
        -12    1    3    3    0    0 -0.14139693395E+02 -0.22174872586E+01  0.16345139419E+02  0.21725831668E+02  0.00000000000E+00 0.  1.
</event>
<event>
 7    1  0.1284645E-011  0.5930194E+02  0.7816164E-02  0.1266605E+00
        -11   -1    0    0    0    0  0.00000000000E+00  0.00000000000E+00  0.45593999997E+02  0.45594000000E+02  0.51100000000E-03 0.  1.
         11   -1    0    0    0    0 -0.00000000000E+00 -0.00000000000E+00 -0.45593999997E+02  0.45594000000E+02  0.51100000000E-03 0. -1.
    9900012    2    1    2    0    0 -0.93281065051E+01 -0.19460557938E+02  0.23473257278E+02  0.59301942021E+02  0.49999996340E+02 0.  0.
         12    1    1    2    0    0  0.93281065051E+01  0.19460557938E+02 -0.23473257278E+02  0.31886057979E+02  0.00000000000E+00 0. -1.
         11    1    3    3    0    0  0.12941563366E+02  0.28525931670E+01 -0.49811986741E+01  0.14157460599E+02  0.51100000000E-03 0. -1.
        -11    1    3    3    0    0 -0.97505561824E+00 -0.14193163305E+01 -0.19135031142E+01  0.25742351746E+01  0.51100000000E-03 0.  1.
        -12    1    3    3    0    0 -0.21294614252E+02 -0.20893834774E+02  0.30367959066E+02  0.42570246247E+02  0.00000000000E+00 0.  1.
</event>
<event>
 7    1  0.1284645E-011  0.5930195E+02  0.7816164E-02  0.1266605E+00
        -11   -1    0    0    0    0  0.00000000000E+00  0.00000000000E+00  0.45593999997E+02  0.45594000000E+02  0.51100000000E-03 0.  1.
         11   -1    0    0    0    0 -0.00000000000E+00 -0.00000000000E+00 -0.45593999997E+02  0.45594000000E+02  0.51100000000E-03 0. -1.
    9900012    2    1    2    0    0 -0.65271302593E+01  0.10751480241E+02  0.29300556572E+02  0.59301947058E+02  0.50000005526E+02 0.  0.
         12    1    1    2    0    0  0.65271302593E+01 -0.10751480241E+02 -0.29300556572E+02  0.31886052942E+02  0.00000000000E+00 0. -1.
         11    1    3    3    0    0  0.14761144580E+02  0.10256253247E+02  0.11744346479E+02  0.21471185213E+02  0.51100000000E-03 0. -1.
        -11    1    3    3    0    0 -0.31243490139E+01 -0.11384161678E+02  0.60069553326E+01  0.13245535342E+02  0.51100000000E-03 0.  1.
        -12    1    3    3    0    0 -0.18163925826E+02  0.11879388672E+02  0.11549254761E+02  0.24585226502E+02  0.00000000000E+00 0.  1.
</event>
<event>
 7    1  0.1284645E-011  0.5930194E+02  0.7816164E-02  0.1266605E+00
        -11   -1    0    0    0    0  0.00000000000E+00  0.00000000000E+00  0.45593999997E+02  0.45594000000E+02  0.51100000000E-03 0. -1.
         11   -1    0    0    0    0 -0.00000000000E+00 -0.00000000000E+00 -0.45593999997E+02  0.45594000000E+02  0.51100000000E-03 0.  1.
    9900012    2    1    2    0    0 -0.20720727654E+02  0.24163118403E+02 -0.18751021484E+01  0.59301939510E+02  0.49999991761E+02 0.  0.
         12    1    1    2    0    0  0.20720727654E+02 -0.24163118403E+02  0.18751021484E+01  0.31886060490E+02  0.00000000000E+00 0. -1.
         11    1    3    3    0    0 -0.68269769735E+01  0.18763746577E+02 -0.22928056169E+01  0.20098327245E+02  0.51100000000E-03 0. -1.
        -11    1    3    3    0    0 -0.87189489577E+01  0.20933910311E+02 -0.14516913117E+01  0.22723469800E+02  0.51100000000E-03 0.  1.
         12    1    3    3    0    0 -0.51748017232E+01 -0.15534538485E+02  0.18693947802E+01  0.16480142465E+02  0.00000000000E+00 0. -1.
</event>
<event>
 7    1  0.1284645E-011  0.5930198E+02  0.7816164E-02  0.1266605E+00
        -11   -1    0    0    0    0  0.00000000000E+00  0.00000000000E+00  0.45593999997E+02  0.45594000000E+02  0.51100000000E-03 0.  1.
         11   -1    0    0    0    0 -0.00000000000E+00 -0.00000000000E+00 -0.45593999997E+02  0.45594000000E+02  0.51100000000E-03 0. -1.
    9900012    2    1    2    0    0  0.17698507507E+02  0.15872998833E+02  0.21249209001E+02  0.59301982012E+02  0.50000069275E+02 0.  0.
         12    1    1    2    0    0 -0.17698507507E+02 -0.15872998833E+02 -0.21249209001E+02  0.31886017988E+02  0.00000000000E+00 0. -1.
         11    1    3    3    0    0  0.18634120900E+02  0.90748595126E+01  0.17418172711E+02  0.27073534637E+02  0.51100000000E-03 0. -1.
        -11    1    3    3    0    0 -0.26552646530E+01  0.15632484130E+02  0.12147153381E+02  0.19974441819E+02  0.51100000000E-03 0.  1.
         12    1    3    3    0    0  0.17196512603E+01 -0.88343448098E+01 -0.83161170917E+01  0.12254005556E+02  0.00000000000E+00 0. -1.
</event>
<event>
 7    1  0.1284645E-011  0.5930192E+02  0.7816164E-02  0.1266605E+00
        -11   -1    0    0    0    0  0.00000000000E+00  0.00000000000E+00  0.45593999997E+02  0.45594000000E+02  0.51100000000E-03 0.  1.
         11   -1    0    0    0    0 -0.00000000000E+00 -0.00000000000E+00 -0.45593999997E+02  0.45594000000E+02  0.51100000000E-03 0. -1.
    9900012    2    1    2    0    0 -0.22435565636E+02  0.12601702192E+01  0.22622540566E+02  0.59301921908E+02  0.49999959659E+02 0.  0.
         12    1    1    2    0    0  0.22435565636E+02 -0.12601702192E+01 -0.22622540566E+02  0.31886078092E+02  0.00000000000E+00 0. -1.
         11    1    3    3    0    0 -0.10381461712E+02  0.57589209030E+01 -0.46152574761E+01  0.12737367038E+02  0.51100000000E-03 0. -1.
        -11    1    3    3    0    0 -0.21906291381E+02  0.65282619477E+01  0.18344157530E+02  0.29308905163E+02  0.51100000000E-03 0.  1.
        -12    1    3    3    0    0  0.98521874557E+01 -0.11027012631E+02  0.88936405124E+01  0.17255649707E+02  0.00000000000E+00 0.  1.
</event>
<event>
 7    1  0.1284645E-011  0.5930195E+02  0.7816164E-02  0.1266605E+00
        -11   -1    0    0    0    0  0.00000000000E+00  0.00000000000E+00  0.45593999997E+02  0.45594000000E+02  0.51100000000E-03 0.  1.
         11   -1    0    0    0    0 -0.00000000000E+00 -0.00000000000E+00 -0.45593999997E+02  0.45594000000E+02  0.51100000000E-03 0. -1.
    9900012    2    1    2    0    0 -0.26594107978E+02  0.11825923020E+02  0.13023871209E+02  0.59301948886E+02  0.50000008860E+02 0.  0.
         12    1    1    2    0    0  0.26594107978E+02 -0.11825923020E+02 -0.13023871209E+02  0.31886051114E+02  0.00000000000E+00 0. -1.
         11    1    3    3    0    0 -0.11277027191E+01  0.12339406436E+02  0.12613429616E+01  0.12454864549E+02  0.51100000000E-03 0. -1.
        -11    1    3    3    0    0 -0.45084927292E+01  0.15672597550E+02  0.12193967685E+02  0.20362948432E+02  0.51100000000E-03 0.  1.
         12    1    3    3    0    0 -0.20957912529E+02 -0.16186080966E+02 -0.43143943820E+00  0.26484135905E+02  0.00000000000E+00 0. -1.
</event>
<event>
 7    1  0.1284645E-011  0.5930194E+02  0.7816164E-02  0.1266605E+00
        -11   -1    0    0    0    0  0.00000000000E+00  0.00000000000E+00  0.45593999997E+02  0.45594000000E+02  0.51100000000E-03 0.  1.
         11   -1    0    0    0    0 -0.00000000000E+00 -0.00000000000E+00 -0.45593999997E+02  0.45594000000E+02  0.51100000000E-03 0. -1.
    9900012    2    1    2    0    0 -0.11266701008E+02 -0.14377185026E+02  0.26135772428E+02  0.59301943466E+02  0.49999998975E+02 0.  0.
         12    1    1    2    0    0  0.11266701008E+02  0.14377185026E+02 -0.26135772428E+02  0.31886056534E+02  0.00000000000E+00 0. -1.
         11    1    3    3    0    0 -0.24728887891E+01 -0.27939469446E+00  0.80505938098E+01  0.84264643422E+01  0.51100000000E-03 0. -1.
        -11    1    3    3    0    0 -0.79805853238E+01  0.13934536877E+02  0.16134439832E+02  0.22763593940E+02  0.51100000000E-03 0.  1.
         12    1    3    3    0    0 -0.81322689521E+00 -0.28032327209E+02  0.19507387861E+01  0.28111885183E+02  0.00000000000E+00 0. -1.
</event>
<event>
 7    1  0.1284645E-011  0.5930194E+02  0.7816164E-02  0.1266605E+00
        -11   -1    0    0    0    0  0.00000000000E+00  0.00000000000E+00  0.45593999997E+02  0.45594000000E+02  0.51100000000E-03 0. -1.
         11   -1    0    0    0    0 -0.00000000000E+00 -0.00000000000E+00 -0.45593999997E+02  0.45594000000E+02  0.51100000000E-03 0.  1.
    9900012    2    1    2    0    0 -0.30693597948E+02 -0.75721457704E+01 -0.41576902975E+01  0.59301941366E+02  0.49999995146E+02 0.  0.
         12    1    1    2    0    0  0.30693597948E+02  0.75721457704E+01  0.41576902975E+01  0.31886058634E+02  0.00000000000E+00 0. -1.
         11    1    3    3    0    0  0.33164242650E+01 -0.27829021346E+01  0.93881062633E+00  0.44299638655E+01  0.51100000000E-03 0. -1.
        -11    1    3    3    0    0  0.95672559269E+01 -0.55313952893E+01 -0.10309257579E+01  0.11099167897E+02  0.51100000000E-03 0.  1.
        -12    1    3    3    0    0 -0.43577278140E+02  0.74215165354E+00 -0.40655751659E+01  0.43772809604E+02  0.00000000000E+00 0.  1.
</event>
<event>
 7    1  0.1284645E-011  0.5930193E+02  0.7816164E-02  0.1266605E+00
        -11   -1    0    0    0    0  0.00000000000E+00  0.00000000000E+00  0.45593999997E+02  0.45594000000E+02  0.51100000000E-03 0.  1.
         11   -1    0    0    0    0 -0.00000000000E+00 -0.00000000000E+00 -0.45593999997E+02  0.45594000000E+02  0.51100000000E-03 0. -1.
    9900012    2    1    2    0    0 -0.11295495864E+02 -0.34970996750E+01  0.29612557098E+02  0.59301929831E+02  0.49999974109E+02 0.  0.
         12    1    1    2    0    0  0.11295495864E+02  0.34970996750E+01 -0.29612557098E+02  0.31886070169E+02  0.00000000000E+00 0. -1.
         11    1    3    3    0    0 -0.76059624717E+01  0.69870289157E+01 -0.19581924011E+00  0.10329936284E+02  0.51100000000E-03 0. -1.
        -11    1    3    3    0    0 -0.21390305279E+01 -0.16100569336E+02 -0.22422358711E+01  0.16396078998E+02  0.51100000000E-03 0.  1.
         12    1    3    3    0    0 -0.15505028641E+01  0.56164407452E+01  0.32050612209E+02  0.32575914550E+02  0.00000000000E+00 0. -1.
</event>
<event>
 7    1  0.1284645E-011  0.5930194E+02  0.7816164E-02  0.1266605E+00
        -11   -1    0    0    0    0  0.00000000000E+00  0.00000000000E+00  0.45593999997E+02  0.45594000000E+02  0.51100000000E-03 0.  1.
         11   -1    0    0    0    0 -0.00000000000E+00 -0.00000000000E+00 -0.45593999997E+02  0.45594000000E+02  0.51100000000E-03 0. -1.
    9900012    2    1    2    0    0  0.61713280980E+01 -0.28054456968E+02  0.13841350041E+02  0.59301940080E+02  0.49999992800E+02 0.  0.
         12    1    1    2    0    0 -0.61713280980E+01  0.28054456968E+02 -0.13841350041E+02  0.31886059920E+02  0.00000000000E+00 0. -1.
         11    1    3    3    0    0  0.95412854825E+01  0.89299998171E+01  0.86615197223E+01  0.15678104144E+02  0.51100000000E-03 0.  1.
        -11    1    3    3    0    0  0.28096143475E+00 -0.93255783564E+00 -0.57053847028E+01  0.57879200334E+01  0.51100000000E-03 0. -1.
        -12    1    3    3    0    0 -0.36509188192E+01 -0.36051898950E+02  0.10885215021E+02  0.37835915902E+02  0.00000000000E+00 0.  1.
</event>
<event>
 7    1  0.1284645E-011  0.5930194E+02  0.7816164E-02  0.1266605E+00
        -11   -1    0    0    0    0  0.00000000000E+00  0.00000000000E+00  0.45593999997E+02  0.45594000000E+02  0.51100000000E-03 0.  1.
         11   -1    0    0    0    0 -0.00000000000E+00 -0.00000000000E+00 -0.45593999997E+02  0.45594000000E+02  0.51100000000E-03 0. -1.
    9900012    2    1    2    0    0  0.16346386608E+02  0.26729386954E+02  0.59208396073E+01  0.59301939978E+02  0.49999992615E+02 0.  0.
         12    1    1    2    0    0 -0.16346386608E+02 -0.26729386954E+02 -0.59208396073E+01  0.31886060022E+02  0.00000000000E+00 0. -1.
         11    1    3    3    0    0  0.18369671716E+02  0.37821180279E+01  0.49535821352E+01  0.19398124444E+02  0.51100000000E-03 0.  1.
        -11    1    3    3    0    0  0.10971242185E+02  0.98389862386E+01 -0.10571313113E+02  0.18136330017E+02  0.51100000000E-03 0. -1.
         12    1    3    3    0    0 -0.12994527293E+02  0.13108282687E+02  0.11538570585E+02  0.21767485517E+02  0.00000000000E+00 0. -1.
</event>
<event>
 7    1  0.1284645E-011  0.5930196E+02  0.7816164E-02  0.1266605E+00
        -11   -1    0    0    0    0  0.00000000000E+00  0.00000000000E+00  0.45593999997E+02  0.45594000000E+02  0.51100000000E-03 0. -1.
         11   -1    0    0    0    0 -0.00000000000E+00 -0.00000000000E+00 -0.45593999997E+02  0.45594000000E+02  0.51100000000E-03 0.  1.
    9900012    2    1    2    0    0 -0.94509213644E+00 -0.18534519786E+02 -0.25928708276E+02  0.59301960175E+02  0.50000029449E+02 0.  0.
         12    1    1    2    0    0  0.94509213644E+00  0.18534519786E+02  0.25928708276E+02  0.31886039825E+02  0.00000000000E+00 0. -1.
         11    1    3    3    0    0 -0.96011868735E+01 -0.71713286197E+01 -0.43114922553E+01  0.12735764966E+02  0.51100000000E-03 0.  1.
        -11    1    3    3    0    0  0.88229244922E+01  0.43860158835E+01 -0.27915624727E+02  0.29603432843E+02  0.51100000000E-03 0. -1.
         12    1    3    3    0    0 -0.16682975514E+00 -0.15749207049E+02  0.62984087063E+01  0.16962762366E+02  0.00000000000E+00 0. -1.
</event>
<event>
 7    1  0.1284645E-011  0.5930195E+02  0.7816164E-02  0.1266605E+00
        -11   -1    0    0    0    0  0.00000000000E+00  0.00000000000E+00  0.45593999997E+02  0.45594000000E+02  0.51100000000E-03 0.  1.
         11   -1    0    0    0    0 -0.00000000000E+00 -0.00000000000E+00 -0.45593999997E+02  0.45594000000E+02  0.51100000000E-03 0. -1.
    9900012    2    1    2    0    0  0.24257496518E+02  0.19617612651E+02  0.65911729738E+01  0.59301946237E+02  0.50000004029E+02 0.  0.
         12    1    1    2    0    0 -0.24257496518E+02 -0.19617612651E+02 -0.65911729738E+01  0.31886053763E+02  0.00000000000E+00 0. -1.
         11    1    3    3    0    0 -0.14616779724E+01  0.62203508298E+01  0.80622562992E+01  0.10287334146E+02  0.51100000000E-03 0. -1.
        -11    1    3    3    0    0  0.76326177582E+01 -0.13020951377E+02 -0.68062803492E+01  0.16556795616E+02  0.51100000000E-03 0.  1.
         12    1    3    3    0    0  0.18086556732E+02  0.26418213199E+02  0.53351970238E+01  0.32457816475E+02  0.00000000000E+00 0. -1.
</event>
<event>
 7    1  0.1284645E-011  0.5930195E+02  0.7816164E-02  0.1266605E+00
        -11   -1    0    0    0    0  0.00000000000E+00  0.00000000000E+00  0.45593999997E+02  0.45594000000E+02  0.51100000000E-03 0. -1.
         11   -1    0    0    0    0 -0.00000000000E+00 -0.00000000000E+00 -0.45593999997E+02  0.45594000000E+02  0.51100000000E-03 0.  1.
    9900012    2    1    2    0    0 -0.14913332827E+02 -0.27955598223E+02 -0.35773558999E+01  0.59301945944E+02  0.50000003495E+02 0.  0.
         12    1    1    2    0    0  0.14913332827E+02  0.27955598223E+02  0.35773558999E+01  0.31886054056E+02  0.00000000000E+00 0. -1.
         11    1    3    3    0    0 -0.53890810844E+01  0.75155920624E+00  0.66215495063E+01  0.85704115596E+01  0.51100000000E-03 0. -1.
        -11    1    3    3    0    0 -0.10501648676E+02 -0.35886846554E+02  0.98579402946E+00  0.37404841540E+02  0.51100000000E-03 0.  1.
         12    1    3    3    0    0  0.97739693348E+00  0.71796891249E+01 -0.11184699436E+02  0.13326692844E+02  0.00000000000E+00 0. -1.
</event>
<event>
 7    1  0.1284645E-011  0.5930205E+02  0.7816164E-02  0.1266604E+00
        -11   -1    0    0    0    0  0.00000000000E+00  0.00000000000E+00  0.45593999997E+02  0.45594000000E+02  0.51100000000E-03 0. -1.
         11   -1    0    0    0    0 -0.00000000000E+00 -0.00000000000E+00 -0.45593999997E+02  0.45594000000E+02  0.51100000000E-03 0.  1.
    9900012    2    1    2    0    0 -0.24047602436E+02  0.54984247855E+01  0.20203814420E+02  0.59302047370E+02  0.50000188471E+02 0.  0.
         12    1    1    2    0    0  0.24047602436E+02 -0.54984247855E+01 -0.20203814420E+02  0.31885952630E+02  0.00000000000E+00 0. -1.
         11    1    3    3    0    0  0.27527779097E+01  0.39585170712E+01 -0.33013023521E+01  0.58434785107E+01  0.51100000000E-03 0. -1.
        -11    1    3    3    0    0 -0.31295522729E+02  0.13952685580E+02  0.20465729152E+02  0.39911567844E+02  0.51100000000E-03 0.  1.
         12    1    3    3    0    0  0.44951423837E+01 -0.12412777866E+02  0.30393876197E+01  0.13547001015E+02  0.00000000000E+00 0. -1.
</event>
<event>
 7    1  0.1284645E-011  0.5930196E+02  0.7816164E-02  0.1266605E+00
        -11   -1    0    0    0    0  0.00000000000E+00  0.00000000000E+00  0.45593999997E+02  0.45594000000E+02  0.51100000000E-03 0. -1.
         11   -1    0    0    0    0 -0.00000000000E+00 -0.00000000000E+00 -0.45593999997E+02  0.45594000000E+02  0.51100000000E-03 0.  1.
    9900012    2    1    2    0    0 -0.11331106589E+02 -0.25585767399E+02 -0.15287048373E+02  0.59301963591E+02  0.50000035678E+02 0.  0.
         12    1    1    2    0    0  0.11331106589E+02  0.25585767399E+02  0.15287048373E+02  0.31886036409E+02  0.00000000000E+00 0. -1.
         11    1    3    3    0    0 -0.92998496639E+01  0.21103348691E+01  0.71855450729E+01  0.11940384219E+02  0.51100000000E-03 0. -1.
        -11    1    3    3    0    0 -0.14634771025E+02 -0.20568596528E+02 -0.70552693839E+01  0.26211076140E+02  0.51100000000E-03 0.  1.
         12    1    3    3    0    0  0.12603514100E+02 -0.71275057402E+01 -0.15417324062E+02  0.21150503232E+02  0.00000000000E+00 0. -1.
</event>
<event>
 7    1  0.1284645E-011  0.5930214E+02  0.7816164E-02  0.1266604E+00
        -11   -1    0    0    0    0  0.00000000000E+00  0.00000000000E+00  0.45593999997E+02  0.45594000000E+02  0.51100000000E-03 0.  1.
         11   -1    0    0    0    0 -0.00000000000E+00 -0.00000000000E+00 -0.45593999997E+02  0.45594000000E+02  0.51100000000E-03 0. -1.
    9900012    2    1    2    0    0 -0.88879581018E+01  0.15626976939E+02  0.26334577878E+02  0.59302137937E+02  0.50000353644E+02 0.  0.
         12    1    1    2    0    0  0.88879581018E+01 -0.15626976939E+02 -0.26334577878E+02  0.31885862063E+02  0.00000000000E+00 0. -1.
         11    1    3    3    0    0 -0.92316988703E+01  0.11475716828E+02 -0.20398897984E+01  0.14868674837E+02  0.51100000000E-03 0.  1.
        -11    1    3    3    0    0  0.55764711861E+01  0.17433270054E+02  0.90796795743E+01  0.20431752669E+02  0.51100000000E-03 0. -1.
         12    1    3    3    0    0 -0.52327304176E+01 -0.13282009944E+02  0.19294788102E+02  0.24001710432E+02  0.00000000000E+00 0. -1.
</event>
<event>
 7    1  0.1284645E-011  0.5930194E+02  0.7816164E-02  0.1266605E+00
        -11   -1    0    0    0    0  0.00000000000E+00  0.00000000000E+00  0.45593999997E+02  0.45594000000E+02  0.51100000000E-03 0.  1.
         11   -1    0    0    0    0 -0.00000000000E+00 -0.00000000000E+00 -0.45593999997E+02  0.45594000000E+02  0.51100000000E-03 0. -1.
    9900012    2    1    2    0    0 -0.17733717146E+02  0.11136414335E+02  0.24046133153E+02  0.59301937721E+02  0.49999988497E+02 0.  0.
         12    1    1    2    0    0  0.17733717146E+02 -0.11136414335E+02 -0.24046133153E+02  0.31886062279E+02  0.00000000000E+00 0. -1.
         11    1    3    3    0    0 -0.36376525871E+01 -0.18308357922E+01 -0.11904820431E+02  0.12582099419E+02  0.51100000000E-03 0. -1.
        -11    1    3    3    0    0  0.44260716999E+01  0.30202456684E+01  0.34411922325E+00  0.53693959521E+01  0.51100000000E-03 0.  1.
        -12    1    3    3    0    0 -0.18522136259E+02  0.99470044593E+01  0.35606834361E+02  0.41350442349E+02  0.00000000000E+00 0.  1.
</event>
<event>
 7    1  0.1284645E-011  0.5930194E+02  0.7816164E-02  0.1266605E+00
        -11   -1    0    0    0    0  0.00000000000E+00  0.00000000000E+00  0.45593999997E+02  0.45594000000E+02  0.51100000000E-03 0. -1.
         11   -1    0    0    0    0 -0.00000000000E+00 -0.00000000000E+00 -0.45593999997E+02  0.45594000000E+02  0.51100000000E-03 0.  1.
    9900012    2    1    2    0    0 -0.11167522181E+02 -0.72833776996E+01 -0.28964802568E+02  0.59301938309E+02  0.49999989570E+02 0.  0.
         12    1    1    2    0    0  0.11167522181E+02  0.72833776996E+01  0.28964802568E+02  0.31886061691E+02  0.00000000000E+00 0. -1.
         11    1    3    3    0    0  0.13989865218E+02  0.80168093894E+01 -0.21410062857E+02  0.26802543786E+02  0.51100000000E-03 0.  1.
        -11    1    3    3    0    0 -0.28992409957E+01 -0.82128226860E+00  0.26892584575E+01  0.40388382275E+01  0.51100000000E-03 0. -1.
        -12    1    3    3    0    0 -0.22258146404E+02 -0.14478904820E+02 -0.10243998169E+02  0.28460556295E+02  0.00000000000E+00 0.  1.
</event>
<event>
 7    1  0.1284645E-011  0.5930195E+02  0.7816164E-02  0.1266605E+00
        -11   -1    0    0    0    0  0.00000000000E+00  0.00000000000E+00  0.45593999997E+02  0.45594000000E+02  0.51100000000E-03 0.  1.
         11   -1    0    0    0    0 -0.00000000000E+00 -0.00000000000E+00 -0.45593999997E+02  0.45594000000E+02  0.51100000000E-03 0. -1.
    9900012    2    1    2    0    0 -0.20313107454E+02 -0.10063567250E+02  0.22423702934E+02  0.59301950175E+02  0.50000011210E+02 0.  0.
         12    1    1    2    0    0  0.20313107454E+02  0.10063567250E+02 -0.22423702934E+02  0.31886049825E+02  0.00000000000E+00 0. -1.
         11    1    3    3    0    0  0.88271799824E+01  0.71757132992E+01  0.73353306694E+00  0.11399475375E+02  0.51100000000E-03 0.  1.
        -11    1    3    3    0    0 -0.19402109740E+02 -0.20649153581E+01 -0.23837256046E+00  0.19513138127E+02  0.51100000000E-03 0. -1.
        -12    1    3    3    0    0 -0.97381776958E+01 -0.15174365191E+02  0.21928542427E+02  0.28389336673E+02  0.00000000000E+00 0.  1.
</event>
<event>
 7    1  0.1284645E-011  0.5930193E+02  0.7816164E-02  0.1266605E+00
        -11   -1    0    0    0    0  0.00000000000E+00  0.00000000000E+00  0.45593999997E+02  0.45594000000E+02  0.51100000000E-03 0. -1.
         11   -1    0    0    0    0 -0.00000000000E+00 -0.00000000000E+00 -0.45593999997E+02  0.45594000000E+02  0.51100000000E-03 0.  1.
    9900012    2    1    2    0    0  0.14650319036E+02  0.17553558658E+02 -0.22225257703E+02  0.59301931735E+02  0.49999977581E+02 0.  0.
         12    1    1    2    0    0 -0.14650319036E+02 -0.17553558658E+02  0.22225257703E+02  0.31886068265E+02  0.00000000000E+00 0. -1.
         11    1    3    3    0    0 -0.11809257686E+02  0.10552826659E+02 -0.73840481333E+01  0.17474120427E+02  0.51100000000E-03 0. -1.
        -11    1    3    3    0    0  0.36816838809E+01  0.12587077871E+02  0.15629229534E+01  0.13207272768E+02  0.51100000000E-03 0.  1.
        -12    1    3    3    0    0  0.22777892842E+02 -0.55863458724E+01 -0.16404132523E+02  0.28620538541E+02  0.00000000000E+00 0.  1.
</event>
<event>
 7    1  0.1284645E-011  0.5930191E+02  0.7816164E-02  0.1266605E+00
        -11   -1    0    0    0    0  0.00000000000E+00  0.00000000000E+00  0.45593999997E+02  0.45594000000E+02  0.51100000000E-03 0.  1.
         11   -1    0    0    0    0 -0.00000000000E+00 -0.00000000000E+00 -0.45593999997E+02  0.45594000000E+02  0.51100000000E-03 0. -1.
    9900012    2    1    2    0    0 -0.26540944847E+01  0.29353389939E+02  0.12167880837E+02  0.59301905186E+02  0.49999929162E+02 0.  0.
         12    1    1    2    0    0  0.26540944847E+01 -0.29353389939E+02 -0.12167880837E+02  0.31886094814E+02  0.00000000000E+00 0. -1.
         11    1    3    3    0    0 -0.47423453459E+01  0.23360310334E+02 -0.48144906916E+01  0.24318167266E+02  0.51100000000E-03 0. -1.
        -11    1    3    3    0    0 -0.33219268094E+01  0.13941742821E+02 -0.12344451287E+01  0.14385104993E+02  0.51100000000E-03 0.  1.
        -12    1    3    3    0    0  0.54101776706E+01 -0.79486632166E+01  0.18216816657E+02  0.20598632928E+02  0.00000000000E+00 0.  1.
</event>
<event>
 7    1  0.1284645E-011  0.5930193E+02  0.7816164E-02  0.1266605E+00
        -11   -1    0    0    0    0  0.00000000000E+00  0.00000000000E+00  0.45593999997E+02  0.45594000000E+02  0.51100000000E-03 0.  1.
         11   -1    0    0    0    0 -0.00000000000E+00 -0.00000000000E+00 -0.45593999997E+02  0.45594000000E+02  0.51100000000E-03 0. -1.
    9900012    2    1    2    0    0  0.18336514641E+02  0.26009728834E+02  0.19969225837E+01  0.59301929954E+02  0.49999974333E+02 0.  0.
         12    1    1    2    0    0 -0.18336514641E+02 -0.26009728834E+02 -0.19969225837E+01  0.31886070046E+02  0.00000000000E+00 0. -1.
         11    1    3    3    0    0 -0.79794765561E+00 -0.70890195165E+01  0.57755908790E+01  0.91786909976E+01  0.51100000000E-03 0. -1.
        -11    1    3    3    0    0  0.12565247448E+02  0.15890921322E+02  0.13919278730E+02  0.24579526938E+02  0.51100000000E-03 0.  1.
        -12    1    3    3    0    0  0.65692148479E+01  0.17207827028E+02 -0.17697947025E+02  0.25543712018E+02  0.00000000000E+00 0.  1.
</event>
<event>
 7    1  0.1284645E-011  0.5930190E+02  0.7816164E-02  0.1266605E+00
        -11   -1    0    0    0    0  0.00000000000E+00  0.00000000000E+00  0.45593999997E+02  0.45594000000E+02  0.51100000000E-03 0. -1.
         11   -1    0    0    0    0 -0.00000000000E+00 -0.00000000000E+00 -0.45593999997E+02  0.45594000000E+02  0.51100000000E-03 0.  1.
    9900012    2    1    2    0    0 -0.21552710409E+02  0.23462362438E+02 -0.13120492262E+01  0.59301901927E+02  0.49999923218E+02 0.  0.
         12    1    1    2    0    0  0.21552710409E+02 -0.23462362438E+02  0.13120492262E+01  0.31886098073E+02  0.00000000000E+00 0. -1.
         11    1    3    3    0    0  0.84512784123E+00 -0.83578186653E+01  0.57319398168E+01  0.10169685749E+02  0.51100000000E-03 0. -1.
        -11    1    3    3    0    0 -0.26782034281E+01 -0.51603050650E+01  0.21981604603E+01  0.62155797507E+01  0.51100000000E-03 0.  1.
        -12    1    3    3    0    0 -0.19719634822E+02  0.36980486169E+02 -0.92421495033E+01  0.42916636427E+02  0.00000000000E+00 0.  1.
</event>
<event>
 7    1  0.1284645E-011  0.5930193E+02  0.7816164E-02  0.1266605E+00
        -11   -1    0    0    0    0  0.00000000000E+00  0.00000000000E+00  0.45593999997E+02  0.45594000000E+02  0.51100000000E-03 0.  1.
         11   -1    0    0    0    0 -0.00000000000E+00 -0.00000000000E+00 -0.45593999997E+02  0.45594000000E+02  0.51100000000E-03 0. -1.
    9900012    2    1    2    0    0 -0.21086232472E+02  0.23748411491E+02  0.28469501568E+01  0.59301931359E+02  0.49999976895E+02 0.  0.
         12    1    1    2    0    0  0.21086232472E+02 -0.23748411491E+02 -0.28469501568E+01  0.31886068641E+02  0.00000000000E+00 0. -1.
         11    1    3    3    0    0  0.69782555067E+01  0.27384880509E+02  0.20931919020E+01  0.28337416661E+02  0.51100000000E-03 0. -1.
        -11    1    3    3    0    0 -0.62167086439E+01 -0.24346974306E+01 -0.49984466518E+01  0.83402450284E+01  0.51100000000E-03 0.  1.
        -12    1    3    3    0    0 -0.21847779335E+02 -0.12017715871E+01  0.57522049067E+01  0.22624269670E+02  0.00000000000E+00 0.  1.
</event>
<event>
 7    1  0.1284645E-011  0.5930194E+02  0.7816164E-02  0.1266605E+00
        -11   -1    0    0    0    0  0.00000000000E+00  0.00000000000E+00  0.45593999997E+02  0.45594000000E+02  0.51100000000E-03 0. -1.
         11   -1    0    0    0    0 -0.00000000000E+00 -0.00000000000E+00 -0.45593999997E+02  0.45594000000E+02  0.51100000000E-03 0.  1.
    9900012    2    1    2    0    0 -0.20619715310E+02 -0.19193818237E+02  0.14938056426E+02  0.59301939602E+02  0.49999991928E+02 0.  0.
         12    1    1    2    0    0  0.20619715310E+02  0.19193818237E+02 -0.14938056426E+02  0.31886060398E+02  0.00000000000E+00 0. -1.
         11    1    3    3    0    0 -0.20212841024E+02  0.42020598137E+01  0.18927706384E+02  0.28008468687E+02  0.51100000000E-03 0. -1.
        -11    1    3    3    0    0 -0.50009056473E+01  0.73965019200E+00  0.28328600514E+01  0.57949319264E+01  0.51100000000E-03 0.  1.
        -12    1    3    3    0    0  0.45940313621E+01 -0.24135528242E+02 -0.68225100099E+01  0.25498538988E+02  0.00000000000E+00 0.  1.
</event>
<event>
 7    1  0.1284645E-011  0.5930191E+02  0.7816164E-02  0.1266605E+00
        -11   -1    0    0    0    0  0.00000000000E+00  0.00000000000E+00  0.45593999997E+02  0.45594000000E+02  0.51100000000E-03 0. -1.
         11   -1    0    0    0    0 -0.00000000000E+00 -0.00000000000E+00 -0.45593999997E+02  0.45594000000E+02  0.51100000000E-03 0.  1.
    9900012    2    1    2    0    0 -0.28783383441E+02  0.69592827278E+01 -0.11824034957E+02  0.59301912422E+02  0.49999942359E+02 0.  0.
         12    1    1    2    0    0  0.28783383441E+02 -0.69592827278E+01  0.11824034957E+02  0.31886087578E+02  0.00000000000E+00 0. -1.
         11    1    3    3    0    0  0.56021783280E+01  0.14660993011E+01  0.31350545528E+01  0.65850145398E+01  0.51100000000E-03 0. -1.
        -11    1    3    3    0    0 -0.17497101341E+02  0.21066394189E+02 -0.10417421062E+02  0.29299559405E+02  0.51100000000E-03 0.  1.
         12    1    3    3    0    0 -0.16888460427E+02 -0.15573210763E+02 -0.45416684482E+01  0.23417338477E+02  0.00000000000E+00 0. -1.
</event>
<event>
 7    1  0.1284645E-011  0.5930195E+02  0.7816164E-02  0.1266605E+00
        -11   -1    0    0    0    0  0.00000000000E+00  0.00000000000E+00  0.45593999997E+02  0.45594000000E+02  0.51100000000E-03 0.  1.
         11   -1    0    0    0    0 -0.00000000000E+00 -0.00000000000E+00 -0.45593999997E+02  0.45594000000E+02  0.51100000000E-03 0. -1.
    9900012    2    1    2    0    0  0.21959279530E+02  0.16824431262E+02 -0.15857144534E+02  0.59301945407E+02  0.50000002515E+02 0.  0.
         12    1    1    2    0    0 -0.21959279530E+02 -0.16824431262E+02  0.15857144534E+02  0.31886054593E+02  0.00000000000E+00 0. -1.
         11    1    3    3    0    0  0.66636600096E+01 -0.26408472399E+01 -0.10699029941E+02  0.12878186239E+02  0.51100000000E-03 0. -1.
        -11    1    3    3    0    0 -0.18290788503E+01 -0.62920542586E+00 -0.17268971454E+02  0.17376961882E+02  0.51100000000E-03 0.  1.
        -12    1    3    3    0    0  0.17124698371E+02  0.20094483928E+02  0.12110856862E+02  0.29046797285E+02  0.00000000000E+00 0.  1.
</event>
<event>
 7    1  0.1284645E-011  0.5930196E+02  0.7816164E-02  0.1266605E+00
        -11   -1    0    0    0    0  0.00000000000E+00  0.00000000000E+00  0.45593999997E+02  0.45594000000E+02  0.51100000000E-03 0. -1.
         11   -1    0    0    0    0 -0.00000000000E+00 -0.00000000000E+00 -0.45593999997E+02  0.45594000000E+02  0.51100000000E-03 0.  1.
    9900012    2    1    2    0    0  0.21291207048E+02  0.19419469939E+02 -0.13648743236E+02  0.59301960701E+02  0.50000030408E+02 0.  0.
         12    1    1    2    0    0 -0.21291207048E+02 -0.19419469939E+02  0.13648743236E+02  0.31886039299E+02  0.00000000000E+00 0. -1.
         11    1    3    3    0    0  0.11279845881E+02 -0.27906028408E+00  0.68903892493E+01  0.13220826828E+02  0.51100000000E-03 0. -1.
        -11    1    3    3    0    0  0.16354440018E+02  0.24323078325E+02 -0.65392823414E+01  0.30030685328E+02  0.51100000000E-03 0.  1.
        -12    1    3    3    0    0 -0.63430788508E+01 -0.46245481012E+01 -0.13999850144E+02  0.16050448545E+02  0.00000000000E+00 0.  1.
</event>
<event>
 7    1  0.1284645E-011  0.5930202E+02  0.7816164E-02  0.1266604E+00
        -11   -1    0    0    0    0  0.00000000000E+00  0.00000000000E+00  0.45593999997E+02  0.45594000000E+02  0.51100000000E-03 0. -1.
         11   -1    0    0    0    0 -0.00000000000E+00 -0.00000000000E+00 -0.45593999997E+02  0.45594000000E+02  0.51100000000E-03 0.  1.
    9900012    2    1    2    0    0  0.11690757939E+02 -0.38126422968E+01 -0.29419478140E+02  0.59302019437E+02  0.50000137527E+02 0.  0.
         12    1    1    2    0    0 -0.11690757939E+02  0.38126422968E+01  0.29419478140E+02  0.31885980563E+02  0.00000000000E+00 0. -1.
         11    1    3    3    0    0  0.81595410838E+01 -0.75133393098E+01  0.48343222555E+01  0.12099547521E+02  0.51100000000E-03 0. -1.
        -11    1    3    3    0    0  0.20743939266E+01  0.17726664774E+02 -0.14860711569E+02  0.23224523736E+02  0.51100000000E-03 0.  1.
         12    1    3    3    0    0  0.14568229289E+01 -0.14025967761E+02 -0.19393088826E+02  0.23977948179E+02  0.00000000000E+00 0. -1.
</event>
<event>
 7    1  0.1284645E-011  0.5930195E+02  0.7816164E-02  0.1266605E+00
        -11   -1    0    0    0    0  0.00000000000E+00  0.00000000000E+00  0.45593999997E+02  0.45594000000E+02  0.51100000000E-03 0.  1.
         11   -1    0    0    0    0 -0.00000000000E+00 -0.00000000000E+00 -0.45593999997E+02  0.45594000000E+02  0.51100000000E-03 0. -1.
    9900012    2    1    2    0    0 -0.12525441900E+02 -0.85197523444E+01  0.28057925295E+02  0.59301952164E+02  0.50000014838E+02 0.  0.
         12    1    1    2    0    0  0.12525441900E+02  0.85197523444E+01 -0.28057925295E+02  0.31886047836E+02  0.00000000000E+00 0. -1.
         11    1    3    3    0    0  0.97148795717E+00 -0.14663462746E+01 -0.76018071286E+00  0.19162033361E+01  0.51100000000E-03 0. -1.
        -11    1    3    3    0    0  0.13696283430E+02 -0.68294635247E+01  0.25835728996E+02  0.30028563816E+02  0.51100000000E-03 0.  1.
         12    1    3    3    0    0 -0.27193213287E+02 -0.22394254505E+00  0.29823770117E+01  0.27357185012E+02  0.00000000000E+00 0. -1.
</event>
<event>
 7    1  0.1284645E-011  0.5930196E+02  0.7816164E-02  0.1266605E+00
        -11   -1    0    0    0    0  0.00000000000E+00  0.00000000000E+00  0.45593999997E+02  0.45594000000E+02  0.51100000000E-03 0.  1.
         11   -1    0    0    0    0 -0.00000000000E+00 -0.00000000000E+00 -0.45593999997E+02  0.45594000000E+02  0.51100000000E-03 0. -1.
    9900012    2    1    2    0    0  0.95684166864E+01 -0.30384913454E+02  0.13864134861E+01  0.59301957507E+02  0.50000024583E+02 0.  0.
         12    1    1    2    0    0 -0.95684166864E+01  0.30384913454E+02 -0.13864134861E+01  0.31886042493E+02  0.00000000000E+00 0. -1.
         11    1    3    3    0    0  0.33130875319E+01 -0.12677884004E+02 -0.10811360159E+02  0.16987960459E+02  0.51100000000E-03 0. -1.
        -11    1    3    3    0    0  0.96545239917E+01  0.85908875514E+01 -0.45906788292E+00  0.12931509038E+02  0.51100000000E-03 0.  1.
        -12    1    3    3    0    0 -0.33991948373E+01 -0.26297917001E+02  0.12656841528E+02  0.29382488009E+02  0.00000000000E+00 0.  1.
</event>
<event>
 7    1  0.1284645E-011  0.5930195E+02  0.7816164E-02  0.1266605E+00
        -11   -1    0    0    0    0  0.00000000000E+00  0.00000000000E+00  0.45593999997E+02  0.45594000000E+02  0.51100000000E-03 0. -1.
         11   -1    0    0    0    0 -0.00000000000E+00 -0.00000000000E+00 -0.45593999997E+02  0.45594000000E+02  0.51100000000E-03 0.  1.
    9900012    2    1    2    0    0 -0.17059038200E+01 -0.31414512124E+02 -0.51902142571E+01  0.59301952834E+02  0.50000016061E+02 0.  0.
         12    1    1    2    0    0  0.17059038200E+01  0.31414512124E+02  0.51902142571E+01  0.31886047166E+02  0.00000000000E+00 0. -1.
         11    1    3    3    0    0 -0.49884222991E+01  0.56241069760E+01  0.12343266461E+02  0.14452375704E+02  0.51100000000E-03 0. -1.
        -11    1    3    3    0    0  0.76450729268E+01 -0.56620850984E+01 -0.53072951550E+01  0.10893747282E+02  0.51100000000E-03 0.  1.
        -12    1    3    3    0    0 -0.43625544477E+01 -0.31376534002E+02 -0.12226185563E+02  0.33955829848E+02  0.00000000000E+00 0.  1.
</event>
<event>
 7    1  0.1284645E-011  0.5930196E+02  0.7816164E-02  0.1266605E+00
        -11   -1    0    0    0    0  0.00000000000E+00  0.00000000000E+00  0.45593999997E+02  0.45594000000E+02  0.51100000000E-03 0. -1.
         11   -1    0    0    0    0 -0.00000000000E+00 -0.00000000000E+00 -0.45593999997E+02  0.45594000000E+02  0.51100000000E-03 0.  1.
    9900012    2    1    2    0    0 -0.25049184139E+02 -0.18953319624E+02  0.54799269762E+01  0.59301959943E+02  0.50000029026E+02 0.  0.
         12    1    1    2    0    0  0.25049184139E+02  0.18953319624E+02 -0.54799269762E+01  0.31886040057E+02  0.00000000000E+00 0. -1.
         11    1    3    3    0    0  0.31707306464E+00 -0.57869494571E+01 -0.12979044305E+02  0.14214250268E+02  0.51100000000E-03 0. -1.
        -11    1    3    3    0    0  0.58861971224E+01  0.21368144400E+01  0.18530092296E+01  0.65304621568E+01  0.51100000000E-03 0.  1.
         12    1    3    3    0    0 -0.31252454327E+02 -0.15303184607E+02  0.16605962052E+02  0.38557247519E+02  0.00000000000E+00 0. -1.
</event>
<event>
 7    1  0.1284645E-011  0.5930203E+02  0.7816164E-02  0.1266604E+00
        -11   -1    0    0    0    0  0.00000000000E+00  0.00000000000E+00  0.45593999997E+02  0.45594000000E+02  0.51100000000E-03 0. -1.
         11   -1    0    0    0    0 -0.00000000000E+00 -0.00000000000E+00 -0.45593999997E+02  0.45594000000E+02  0.51100000000E-03 0.  1.
    9900012    2    1    2    0    0  0.22954327891E+02 -0.35354388524E+01 -0.21847525485E+02  0.59302033391E+02  0.50000162976E+02 0.  0.
         12    1    1    2    0    0 -0.22954327891E+02  0.35354388524E+01  0.21847525485E+02  0.31885966609E+02  0.00000000000E+00 0. -1.
         11    1    3    3    0    0 -0.78256200712E+01 -0.17335634798E+01 -0.57337499043E+01  0.98550220732E+01  0.51100000000E-03 0. -1.
        -11    1    3    3    0    0  0.25295174435E+00 -0.13512020335E+02 -0.81979249275E+01  0.15806474986E+02  0.51100000000E-03 0.  1.
        -12    1    3    3    0    0  0.30526996218E+02  0.11710144962E+02 -0.79158506528E+01  0.33640536331E+02  0.00000000000E+00 0.  1.
</event>
<event>
 7    1  0.1284645E-011  0.5930192E+02  0.7816164E-02  0.1266605E+00
        -11   -1    0    0    0    0  0.00000000000E+00  0.00000000000E+00  0.45593999997E+02  0.45594000000E+02  0.51100000000E-03 0.  1.
         11   -1    0    0    0    0 -0.00000000000E+00 -0.00000000000E+00 -0.45593999997E+02  0.45594000000E+02  0.51100000000E-03 0. -1.
    9900012    2    1    2    0    0  0.78915567882E+01 -0.28011538493E+02  0.13030700608E+02  0.59301919720E+02  0.49999955668E+02 0.  0.
         12    1    1    2    0    0 -0.78915567882E+01  0.28011538493E+02 -0.13030700608E+02  0.31886080280E+02  0.00000000000E+00 0. -1.
         11    1    3    3    0    0  0.19872296258E+00 -0.20695717920E+00  0.33004414743E+01  0.33128894151E+01  0.51100000000E-03 0. -1.
        -11    1    3    3    0    0  0.50688536881E+01 -0.13987614512E+02  0.28728081536E+02  0.32351959855E+02  0.51100000000E-03 0.  1.
         12    1    3    3    0    0  0.26239801375E+01 -0.13816966803E+02 -0.18997822403E+02  0.23637070450E+02  0.00000000000E+00 0. -1.
</event>
<event>
 7    1  0.1284645E-011  0.5930194E+02  0.7816164E-02  0.1266605E+00
        -11   -1    0    0    0    0  0.00000000000E+00  0.00000000000E+00  0.45593999997E+02  0.45594000000E+02  0.51100000000E-03 0.  1.
         11   -1    0    0    0    0 -0.00000000000E+00 -0.00000000000E+00 -0.45593999997E+02  0.45594000000E+02  0.51100000000E-03 0. -1.
    9900012    2    1    2    0    0  0.22588280868E+02  0.22456894947E+02  0.14759809404E+01  0.59301935913E+02  0.49999985200E+02 0.  0.
         12    1    1    2    0    0 -0.22588280868E+02 -0.22456894947E+02 -0.14759809404E+01  0.31886064087E+02  0.00000000000E+00 0. -1.
         11    1    3    3    0    0 -0.35512833795E+01  0.78592242115E+01 -0.59534466901E+01  0.10479625308E+02  0.51100000000E-03 0. -1.
        -11    1    3    3    0    0  0.26144893451E+02  0.23477212693E+02  0.13949157714E+02  0.37806268932E+02  0.51100000000E-03 0.  1.
         12    1    3    3    0    0 -0.53292037807E-02 -0.88795419569E+01 -0.65197300832E+01  0.11016041672E+02  0.00000000000E+00 0. -1.
</event>
<event>
 7    1  0.1284645E-011  0.5930194E+02  0.7816164E-02  0.1266605E+00
        -11   -1    0    0    0    0  0.00000000000E+00  0.00000000000E+00  0.45593999997E+02  0.45594000000E+02  0.51100000000E-03 0.  1.
         11   -1    0    0    0    0 -0.00000000000E+00 -0.00000000000E+00 -0.45593999997E+02  0.45594000000E+02  0.51100000000E-03 0. -1.
    9900012    2    1    2    0    0 -0.64315240674E+01 -0.22076690074E+02  0.22090176439E+02  0.59301942835E+02  0.49999997824E+02 0.  0.
         12    1    1    2    0    0  0.64315240674E+01  0.22076690074E+02 -0.22090176439E+02  0.31886057165E+02  0.00000000000E+00 0. -1.
         11    1    3    3    0    0 -0.69093208371E+01  0.93123772845E+01  0.12067926678E+02  0.16736007280E+02  0.51100000000E-03 0. -1.
        -11    1    3    3    0    0  0.20227740752E+01  0.41697076041E+01  0.46595681797E+01  0.65718834702E+01  0.51100000000E-03 0.  1.
        -12    1    3    3    0    0 -0.15449773055E+01 -0.35558774963E+02  0.53626815814E+01  0.35994052084E+02  0.00000000000E+00 0.  1.
</event>
<event>
 7    1  0.1284645E-011  0.5930190E+02  0.7816164E-02  0.1266605E+00
        -11   -1    0    0    0    0  0.00000000000E+00  0.00000000000E+00  0.45593999997E+02  0.45594000000E+02  0.51100000000E-03 0. -1.
         11   -1    0    0    0    0 -0.00000000000E+00 -0.00000000000E+00 -0.45593999997E+02  0.45594000000E+02  0.51100000000E-03 0.  1.
    9900012    2    1    2    0    0  0.30436827982E+02 -0.76986426079E+01 -0.55725929266E+01  0.59301899775E+02  0.49999919294E+02 0.  0.
         12    1    1    2    0    0 -0.30436827982E+02  0.76986426079E+01  0.55725929266E+01  0.31886100225E+02  0.00000000000E+00 0. -1.
         11    1    3    3    0    0 -0.19960061806E+01 -0.97215759931E+01 -0.36409953637E+00  0.99310447183E+01  0.51100000000E-03 0. -1.
        -11    1    3    3    0    0  0.17353530481E+02  0.17905384304E+02  0.46312440509E+01  0.25361313628E+02  0.51100000000E-03 0.  1.
         12    1    3    3    0    0  0.15079303682E+02 -0.15882450918E+02 -0.98397374411E+01  0.24009541429E+02  0.00000000000E+00 0. -1.
</event>
<event>
 7    1  0.1284645E-011  0.5930194E+02  0.7816164E-02  0.1266605E+00
        -11   -1    0    0    0    0  0.00000000000E+00  0.00000000000E+00  0.45593999997E+02  0.45594000000E+02  0.51100000000E-03 0.  1.
         11   -1    0    0    0    0 -0.00000000000E+00 -0.00000000000E+00 -0.45593999997E+02  0.45594000000E+02  0.51100000000E-03 0. -1.
    9900012    2    1    2    0    0 -0.90793946601E-01 -0.15618961943E+02  0.27798566323E+02  0.59301944971E+02  0.50000001720E+02 0.  0.
         12    1    1    2    0    0  0.90793946601E-01  0.15618961943E+02 -0.27798566323E+02  0.31886055029E+02  0.00000000000E+00 0. -1.
         11    1    3    3    0    0 -0.66067441535E+01 -0.29968109661E+01 -0.90669039640E+01  0.11612006374E+02  0.51100000000E-03 0. -1.
        -11    1    3    3    0    0 -0.78177911923E+01 -0.11546822653E+01  0.24016740771E+02  0.25283492397E+02  0.51100000000E-03 0.  1.
        -12    1    3    3    0    0  0.14333741399E+02 -0.11467468712E+02  0.12848729516E+02  0.22406446200E+02  0.00000000000E+00 0.  1.
</event>
<event>
 7    1  0.1284645E-011  0.5930194E+02  0.7816164E-02  0.1266605E+00
        -11   -1    0    0    0    0  0.00000000000E+00  0.00000000000E+00  0.45593999997E+02  0.45594000000E+02  0.51100000000E-03 0.  1.
         11   -1    0    0    0    0 -0.00000000000E+00 -0.00000000000E+00 -0.45593999997E+02  0.45594000000E+02  0.51100000000E-03 0. -1.
    9900012    2    1    2    0    0 -0.11588382806E+02  0.26867054286E+02 -0.12672469034E+02  0.59301942020E+02  0.49999996338E+02 0.  0.
         12    1    1    2    0    0  0.11588382806E+02 -0.26867054286E+02  0.12672469034E+02  0.31886057980E+02  0.00000000000E+00 0. -1.
         11    1    3    3    0    0  0.20433419309E+01  0.30379197605E+02 -0.14163411830E+02  0.33580844663E+02  0.51100000000E-03 0. -1.
        -11    1    3    3    0    0  0.12394833195E+01  0.20612984894E+01  0.81519985010E+01  0.84994323448E+01  0.51100000000E-03 0.  1.
        -12    1    3    3    0    0 -0.14871208057E+02 -0.55734418086E+01 -0.66610557056E+01  0.17221665012E+02  0.00000000000E+00 0.  1.
</event>
<event>
 7    1  0.1284645E-011  0.5930192E+02  0.7816164E-02  0.1266605E+00
        -11   -1    0    0    0    0  0.00000000000E+00  0.00000000000E+00  0.45593999997E+02  0.45594000000E+02  0.51100000000E-03 0. -1.
         11   -1    0    0    0    0 -0.00000000000E+00 -0.00000000000E+00 -0.45593999997E+02  0.45594000000E+02  0.51100000000E-03 0.  1.
    9900012    2    1    2    0    0 -0.28356285120E+02 -0.42644641105E+01 -0.13944800442E+02  0.59301921230E+02  0.49999958422E+02 0.  0.
         12    1    1    2    0    0  0.28356285120E+02  0.42644641105E+01  0.13944800442E+02  0.31886078770E+02  0.00000000000E+00 0. -1.
         11    1    3    3    0    0 -0.95743543860E+01  0.27379071539E+01 -0.13087868792E+02  0.16445568013E+02  0.51100000000E-03 0. -1.
        -11    1    3    3    0    0 -0.16338835065E+02  0.11588917602E+02 -0.95460654570E+01  0.22189815421E+02  0.51100000000E-03 0.  1.
         12    1    3    3    0    0 -0.24430956693E+01 -0.18591288866E+02  0.86891338065E+01  0.20666537796E+02  0.00000000000E+00 0. -1.
</event>
<event>
 7    1  0.1284645E-011  0.5930193E+02  0.7816164E-02  0.1266605E+00
        -11   -1    0    0    0    0  0.00000000000E+00  0.00000000000E+00  0.45593999997E+02  0.45594000000E+02  0.51100000000E-03 0.  1.
         11   -1    0    0    0    0 -0.00000000000E+00 -0.00000000000E+00 -0.45593999997E+02  0.45594000000E+02  0.51100000000E-03 0. -1.
    9900012    2    1    2    0    0  0.16526356638E+02 -0.26088734570E+02  0.79359400806E+01  0.59301926548E+02  0.49999968122E+02 0.  0.
         12    1    1    2    0    0 -0.16526356638E+02  0.26088734570E+02 -0.79359400806E+01  0.31886073452E+02  0.00000000000E+00 0. -1.
         11    1    3    3    0    0 -0.60276487713E+01 -0.15893237304E+02 -0.50492144922E+01  0.17731951640E+02  0.51100000000E-03 0. -1.
        -11    1    3    3    0    0 -0.67785045393E+00 -0.15561722076E+02  0.39277809050E+01  0.16064063568E+02  0.51100000000E-03 0.  1.
         12    1    3    3    0    0  0.23231855863E+02  0.53662248101E+01  0.90573736679E+01  0.25505911340E+02  0.00000000000E+00 0. -1.
</event>
<event>
 7    1  0.1284645E-011  0.5930228E+02  0.7816164E-02  0.1266604E+00
        -11   -1    0    0    0    0  0.00000000000E+00  0.00000000000E+00  0.45593999997E+02  0.45594000000E+02  0.51100000000E-03 0.  1.
         11   -1    0    0    0    0 -0.00000000000E+00 -0.00000000000E+00 -0.45593999997E+02  0.45594000000E+02  0.51100000000E-03 0. -1.
    9900012    2    1    2    0    0  0.47497802820E+01 -0.10060694075E+02  0.29881790381E+02  0.59302276323E+02  0.50000606024E+02 0.  0.
         12    1    1    2    0    0 -0.47497802820E+01  0.10060694075E+02 -0.29881790381E+02  0.31885723677E+02  0.00000000000E+00 0. -1.
         11    1    3    3    0    0 -0.18291575165E+02 -0.97812843891E+01 -0.15864342890E+00  0.20743201641E+02  0.51100000000E-03 0. -1.
        -11    1    3    3    0    0  0.80498327945E+01  0.29142163583E+01  0.80323933856E+01  0.11739327441E+02  0.51100000000E-03 0.  1.
        -12    1    3    3    0    0  0.14991522653E+02 -0.31936260443E+01  0.22008040424E+02  0.26819747241E+02  0.00000000000E+00 0.  1.
</event>
<event>
 7    1  0.1284645E-011  0.5930173E+02  0.7816164E-02  0.1266606E+00
        -11   -1    0    0    0    0  0.00000000000E+00  0.00000000000E+00  0.45593999997E+02  0.45594000000E+02  0.51100000000E-03 0.  1.
         11   -1    0    0    0    0 -0.00000000000E+00 -0.00000000000E+00 -0.45593999997E+02  0.45594000000E+02  0.51100000000E-03 0. -1.
    9900012    2    1    2    0    0  0.41621841198E+01 -0.18577102419E+02  0.25579321543E+02  0.59301730204E+02  0.49999610035E+02 0.  0.
         12    1    1    2    0    0 -0.41621841198E+01  0.18577102419E+02 -0.25579321543E+02  0.31886269796E+02  0.00000000000E+00 0. -1.
         11    1    3    3    0    0 -0.36594986629E+00 -0.69528609856E+01 -0.71433626729E+01  0.99751604362E+01  0.51100000000E-03 0. -1.
        -11    1    3    3    0    0 -0.21239582048E+01 -0.16136275467E+02  0.67844956333E+00  0.16289594178E+02  0.51100000000E-03 0.  1.
         12    1    3    3    0    0  0.66520921909E+01  0.45120340338E+01  0.32044234652E+02  0.33036975589E+02  0.00000000000E+00 0. -1.
</event>
<event>
 7    1  0.1284645E-011  0.5930190E+02  0.7816164E-02  0.1266605E+00
        -11   -1    0    0    0    0  0.00000000000E+00  0.00000000000E+00  0.45593999997E+02  0.45594000000E+02  0.51100000000E-03 0.  1.
         11   -1    0    0    0    0 -0.00000000000E+00 -0.00000000000E+00 -0.45593999997E+02  0.45594000000E+02  0.51100000000E-03 0. -1.
    9900012    2    1    2    0    0  0.23522134535E+02  0.70951561093E+01  0.20324644776E+02  0.59301902112E+02  0.49999923555E+02 0.  0.
         12    1    1    2    0    0 -0.23522134535E+02 -0.70951561093E+01 -0.20324644776E+02  0.31886097888E+02  0.00000000000E+00 0. -1.
         11    1    3    3    0    0 -0.82179239822E+00  0.98989761326E+01  0.40195226423E+01  0.10715485698E+02  0.51100000000E-03 0. -1.
        -11    1    3    3    0    0 -0.33862055484E+01 -0.68541546609E+01  0.18953438844E+02  0.20437188369E+02  0.51100000000E-03 0.  1.
         12    1    3    3    0    0  0.27730132481E+02  0.40503346376E+01 -0.26483167110E+01  0.28149228045E+02  0.00000000000E+00 0. -1.
</event>
<event>
 7    1  0.1284645E-011  0.5930185E+02  0.7816164E-02  0.1266605E+00
        -11   -1    0    0    0    0  0.00000000000E+00  0.00000000000E+00  0.45593999997E+02  0.45594000000E+02  0.51100000000E-03 0.  1.
         11   -1    0    0    0    0 -0.00000000000E+00 -0.00000000000E+00 -0.45593999997E+02  0.45594000000E+02  0.51100000000E-03 0. -1.
    9900012    2    1    2    0    0  0.11308685075E+02 -0.24730783390E+02  0.16650176464E+02  0.59301852828E+02  0.49999833673E+02 0.  0.
         12    1    1    2    0    0 -0.11308685075E+02  0.24730783390E+02 -0.16650176464E+02  0.31886147172E+02  0.00000000000E+00 0. -1.
         11    1    3    3    0    0 -0.93194681502E+01 -0.45063478971E+01  0.40311377009E+01  0.11108993177E+02  0.51100000000E-03 0. -1.
        -11    1    3    3    0    0 -0.98251793782E+01 -0.89590870461E+01 -0.16245602451E+00  0.13297585598E+02  0.51100000000E-03 0.  1.
         12    1    3    3    0    0  0.30453332603E+02 -0.11265348447E+02  0.12781494788E+02  0.34895274054E+02  0.00000000000E+00 0. -1.
</event>
<event>
 7    1  0.1284645E-011  0.5930199E+02  0.7816164E-02  0.1266605E+00
        -11   -1    0    0    0    0  0.00000000000E+00  0.00000000000E+00  0.45593999997E+02  0.45594000000E+02  0.51100000000E-03 0.  1.
         11   -1    0    0    0    0 -0.00000000000E+00 -0.00000000000E+00 -0.45593999997E+02  0.45594000000E+02  0.51100000000E-03 0. -1.
    9900012    2    1    2    0    0 -0.16745947805E+01  0.18148766707E+02  0.26163626238E+02  0.59301994628E+02  0.50000092283E+02 0.  0.
         12    1    1    2    0    0  0.16745947805E+01 -0.18148766707E+02 -0.26163626238E+02  0.31886005372E+02  0.00000000000E+00 0. -1.
         11    1    3    3    0    0  0.15244099947E+02  0.33215706015E+00  0.98842728468E+01  0.18171179419E+02  0.51100000000E-03 0. -1.
        -11    1    3    3    0    0  0.42422915777E+01 -0.19137670179E+01  0.10696144810E+02  0.11664778442E+02  0.51100000000E-03 0.  1.
        -12    1    3    3    0    0 -0.21160986305E+02  0.19730376664E+02  0.55832085807E+01  0.29466036768E+02  0.00000000000E+00 0.  1.
</event>
<event>
 7    1  0.1284645E-011  0.5930196E+02  0.7816164E-02  0.1266605E+00
        -11   -1    0    0    0    0  0.00000000000E+00  0.00000000000E+00  0.45593999997E+02  0.45594000000E+02  0.51100000000E-03 0.  1.
         11   -1    0    0    0    0 -0.00000000000E+00 -0.00000000000E+00 -0.45593999997E+02  0.45594000000E+02  0.51100000000E-03 0. -1.
    9900012    2    1    2    0    0  0.27313078406E+02 -0.16350491900E+02  0.18375645479E+01  0.59301961035E+02  0.50000031017E+02 0.  0.
         12    1    1    2    0    0 -0.27313078406E+02  0.16350491900E+02 -0.18375645479E+01  0.31886038965E+02  0.00000000000E+00 0. -1.
         11    1    3    3    0    0  0.13688004146E+02 -0.11546064037E+01 -0.66541360233E+00  0.13752721511E+02  0.51100000000E-03 0. -1.
        -11    1    3    3    0    0  0.26114187961E+02 -0.82973614950E+01 -0.71557719903E+01  0.28319641482E+02  0.51100000000E-03 0.  1.
         12    1    3    3    0    0 -0.12489113700E+02 -0.68985240012E+01  0.96587501405E+01  0.17229598042E+02  0.00000000000E+00 0. -1.
</event>
<event>
 7    1  0.1284645E-011  0.5930195E+02  0.7816164E-02  0.1266605E+00
        -11   -1    0    0    0    0  0.00000000000E+00  0.00000000000E+00  0.45593999997E+02  0.45594000000E+02  0.51100000000E-03 0. -1.
         11   -1    0    0    0    0 -0.00000000000E+00 -0.00000000000E+00 -0.45593999997E+02  0.45594000000E+02  0.51100000000E-03 0.  1.
    9900012    2    1    2    0    0 -0.12677263530E+02  0.19904659090E+01 -0.29189816248E+02  0.59301947598E+02  0.50000006512E+02 0.  0.
         12    1    1    2    0    0  0.12677263530E+02 -0.19904659090E+01  0.29189816248E+02  0.31886052402E+02  0.00000000000E+00 0. -1.
         11    1    3    3    0    0 -0.14030310923E+02  0.13348324863E+02 -0.24852634043E+01  0.19524444568E+02  0.51100000000E-03 0. -1.
        -11    1    3    3    0    0 -0.12573615326E+02 -0.35113698462E+01 -0.86343469960E+01  0.15651756095E+02  0.51100000000E-03 0.  1.
        -12    1    3    3    0    0  0.13926662718E+02 -0.78464891083E+01 -0.18070205848E+02  0.24125746935E+02  0.00000000000E+00 0.  1.
</event>
<event>
 7    1  0.1284645E-011  0.5930202E+02  0.7816164E-02  0.1266605E+00
        -11   -1    0    0    0    0  0.00000000000E+00  0.00000000000E+00  0.45593999997E+02  0.45594000000E+02  0.51100000000E-03 0.  1.
         11   -1    0    0    0    0 -0.00000000000E+00 -0.00000000000E+00 -0.45593999997E+02  0.45594000000E+02  0.51100000000E-03 0. -1.
    9900012    2    1    2    0    0 -0.10547448319E+02 -0.16082796681E+02  0.25432477985E+02  0.59302016377E+02  0.50000131948E+02 0.  0.
         12    1    1    2    0    0  0.10547448319E+02  0.16082796681E+02 -0.25432477985E+02  0.31885983623E+02  0.00000000000E+00 0. -1.
         11    1    3    3    0    0 -0.61544066476E+01  0.63811711464E+01 -0.18539804107E+01  0.90572241889E+01  0.51100000000E-03 0. -1.
        -11    1    3    3    0    0 -0.71282054534E+01 -0.16690745363E+02 -0.37712693151E+01  0.18536848876E+02  0.51100000000E-03 0.  1.
         12    1    3    3    0    0  0.27351637820E+01 -0.57732224646E+01  0.31057727711E+02  0.31707943312E+02  0.00000000000E+00 0. -1.
</event>
<event>
 7    1  0.1284645E-011  0.5930195E+02  0.7816164E-02  0.1266605E+00
        -11   -1    0    0    0    0  0.00000000000E+00  0.00000000000E+00  0.45593999997E+02  0.45594000000E+02  0.51100000000E-03 0. -1.
         11   -1    0    0    0    0 -0.00000000000E+00 -0.00000000000E+00 -0.45593999997E+02  0.45594000000E+02  0.51100000000E-03 0.  1.
    9900012    2    1    2    0    0 -0.40590224128E+01 -0.29432442623E+02 -0.11574804204E+02  0.59301946088E+02  0.50000003758E+02 0.  0.
         12    1    1    2    0    0  0.40590224128E+01  0.29432442623E+02  0.11574804204E+02  0.31886053912E+02  0.00000000000E+00 0. -1.
         11    1    3    3    0    0 -0.10059472338E+02 -0.21265722863E+02 -0.25209597747E+02  0.34481121957E+02  0.51100000000E-03 0.  1.
        -11    1    3    3    0    0 -0.58372370765E+01  0.79729496605E+00  0.39317478176E+01  0.70829130385E+01  0.51100000000E-03 0. -1.
        -12    1    3    3    0    0  0.11837687002E+02 -0.89640147266E+01  0.97030457253E+01  0.17737911092E+02  0.00000000000E+00 0.  1.
</event>
<event>
 7    1  0.1284645E-011  0.5930197E+02  0.7816164E-02  0.1266605E+00
        -11   -1    0    0    0    0  0.00000000000E+00  0.00000000000E+00  0.45593999997E+02  0.45594000000E+02  0.51100000000E-03 0. -1.
         11   -1    0    0    0    0 -0.00000000000E+00 -0.00000000000E+00 -0.45593999997E+02  0.45594000000E+02  0.51100000000E-03 0.  1.
    9900012    2    1    2    0    0 -0.27079200537E+02 -0.26736750200E+00  0.16833426965E+02  0.59301970920E+02  0.50000049045E+02 0.  0.
         12    1    1    2    0    0  0.27079200537E+02  0.26736750200E+00 -0.16833426965E+02  0.31886029080E+02  0.00000000000E+00 0. -1.
         11    1    3    3    0    0  0.17340783832E+00 -0.10374062285E+02  0.75595718807E+01  0.12837381581E+02  0.51100000000E-03 0. -1.
        -11    1    3    3    0    0 -0.16596885893E+02 -0.11480561037E+02  0.96912226777E+01  0.22387043135E+02  0.51100000000E-03 0.  1.
        -12    1    3    3    0    0 -0.10655722483E+02  0.21587255821E+02 -0.41736759339E+00  0.24077546204E+02  0.00000000000E+00 0.  1.
</event>
<event>
 7    1  0.1284645E-011  0.5930212E+02  0.7816164E-02  0.1266604E+00
        -11   -1    0    0    0    0  0.00000000000E+00  0.00000000000E+00  0.45593999997E+02  0.45594000000E+02  0.51100000000E-03 0.  1.
         11   -1    0    0    0    0 -0.00000000000E+00 -0.00000000000E+00 -0.45593999997E+02  0.45594000000E+02  0.51100000000E-03 0. -1.
    9900012    2    1    2    0    0  0.73496239941E+01 -0.79762509271E+01  0.29984522801E+02  0.59302122887E+02  0.50000326194E+02 0.  0.
         12    1    1    2    0    0 -0.73496239941E+01  0.79762509271E+01 -0.29984522801E+02  0.31885877113E+02  0.00000000000E+00 0. -1.
         11    1    3    3    0    0 -0.77574531071E+01  0.62642391291E+01 -0.10491115771E+00  0.99714480988E+01  0.51100000000E-03 0. -1.
        -11    1    3    3    0    0  0.78116619002E+00 -0.31836469548E+01  0.31036703925E+02  0.31209338656E+02  0.51100000000E-03 0.  1.
         12    1    3    3    0    0  0.14325910911E+02 -0.11056843101E+02 -0.94726996675E+00  0.18121336132E+02  0.00000000000E+00 0. -1.
</event>
<event>
 7    1  0.1284645E-011  0.5930194E+02  0.7816164E-02  0.1266605E+00
        -11   -1    0    0    0    0  0.00000000000E+00  0.00000000000E+00  0.45593999997E+02  0.45594000000E+02  0.51100000000E-03 0.  1.
         11   -1    0    0    0    0 -0.00000000000E+00 -0.00000000000E+00 -0.45593999997E+02  0.45594000000E+02  0.51100000000E-03 0. -1.
    9900012    2    1    2    0    0  0.26219271916E+02  0.11031399309E+02  0.14407599186E+02  0.59301938706E+02  0.49999990294E+02 0.  0.
         12    1    1    2    0    0 -0.26219271916E+02 -0.11031399309E+02 -0.14407599186E+02  0.31886061294E+02  0.00000000000E+00 0. -1.
         11    1    3    3    0    0  0.40401079202E+01 -0.37048322837E+01  0.19513849916E+02  0.20269153733E+02  0.51100000000E-03 0. -1.
        -11    1    3    3    0    0  0.20854173129E+02  0.83538154070E+01  0.84412016850E+01  0.23998680274E+02  0.51100000000E-03 0.  1.
         12    1    3    3    0    0  0.13249908670E+01  0.63824161861E+01 -0.13547452414E+02  0.15034104699E+02  0.00000000000E+00 0. -1.
</event>
<event>
 7    1  0.1284645E-011  0.5930194E+02  0.7816164E-02  0.1266605E+00
        -11   -1    0    0    0    0  0.00000000000E+00  0.00000000000E+00  0.45593999997E+02  0.45594000000E+02  0.51100000000E-03 0.  1.
         11   -1    0    0    0    0 -0.00000000000E+00 -0.00000000000E+00 -0.45593999997E+02  0.45594000000E+02  0.51100000000E-03 0. -1.
    9900012    2    1    2    0    0 -0.19995535002E+02  0.21552813027E+02  0.12344063068E+02  0.59301936235E+02  0.49999985788E+02 0.  0.
         12    1    1    2    0    0  0.19995535002E+02 -0.21552813027E+02 -0.12344063068E+02  0.31886063765E+02  0.00000000000E+00 0. -1.
         11    1    3    3    0    0  0.29841696916E+01 -0.16931111723E+01 -0.34006622429E+01  0.48307761428E+01  0.51100000000E-03 0. -1.
        -11    1    3    3    0    0 -0.28696683995E+02  0.66475452730E+01 -0.19813593322E+01  0.29523131872E+02  0.51100000000E-03 0.  1.
        -12    1    3    3    0    0  0.57169793011E+01  0.16598378926E+02  0.17726084643E+02  0.24948028221E+02  0.00000000000E+00 0.  1.
</event>
<event>
 7    1  0.1284645E-011  0.5930196E+02  0.7816164E-02  0.1266605E+00
        -11   -1    0    0    0    0  0.00000000000E+00  0.00000000000E+00  0.45593999997E+02  0.45594000000E+02  0.51100000000E-03 0. -1.
         11   -1    0    0    0    0 -0.00000000000E+00 -0.00000000000E+00 -0.45593999997E+02  0.45594000000E+02  0.51100000000E-03 0.  1.
    9900012    2    1    2    0    0 -0.97966512535E+01 -0.12834613265E+02 -0.27495779287E+02  0.59301959919E+02  0.50000028982E+02 0.  0.
         12    1    1    2    0    0  0.97966512535E+01  0.12834613265E+02  0.27495779287E+02  0.31886040081E+02  0.00000000000E+00 0. -1.
         11    1    3    3    0    0  0.13112221948E+01 -0.52613272062E+01 -0.24677287067E+02  0.25265972470E+02  0.51100000000E-03 0. -1.
        -11    1    3    3    0    0  0.16245923903E+01 -0.52311533154E+01 -0.15178767149E+02  0.16136890588E+02  0.51100000000E-03 0.  1.
         12    1    3    3    0    0 -0.12732465839E+02 -0.23421327439E+01  0.12360274929E+02  0.17899096861E+02  0.00000000000E+00 0. -1.
</event>
<event>
 7    1  0.1284645E-011  0.5930192E+02  0.7816164E-02  0.1266605E+00
        -11   -1    0    0    0    0  0.00000000000E+00  0.00000000000E+00  0.45593999997E+02  0.45594000000E+02  0.51100000000E-03 0.  1.
         11   -1    0    0    0    0 -0.00000000000E+00 -0.00000000000E+00 -0.45593999997E+02  0.45594000000E+02  0.51100000000E-03 0. -1.
    9900012    2    1    2    0    0  0.28515014085E+02  0.10762168646E+02  0.93697382156E+01  0.59301916884E+02  0.49999950496E+02 0.  0.
         12    1    1    2    0    0 -0.28515014085E+02 -0.10762168646E+02 -0.93697382156E+01  0.31886083116E+02  0.00000000000E+00 0. -1.
         11    1    3    3    0    0 -0.24741845521E+00  0.49911787816E+01  0.17227669948E+02  0.17937828565E+02  0.51100000000E-03 0. -1.
        -11    1    3    3    0    0  0.69459928017E+01  0.62271594260E+01  0.96243772353E+01  0.13403468504E+02  0.51100000000E-03 0.  1.
         12    1    3    3    0    0  0.21816439739E+02 -0.45616956175E+00 -0.17482308968E+02  0.27960619814E+02  0.00000000000E+00 0. -1.
</event>
<event>
 7    1  0.1284645E-011  0.5930193E+02  0.7816164E-02  0.1266605E+00
        -11   -1    0    0    0    0  0.00000000000E+00  0.00000000000E+00  0.45593999997E+02  0.45594000000E+02  0.51100000000E-03 0.  1.
         11   -1    0    0    0    0 -0.00000000000E+00 -0.00000000000E+00 -0.45593999997E+02  0.45594000000E+02  0.51100000000E-03 0. -1.
    9900012    2    1    2    0    0  0.89186231802E+01  0.17464030089E+02  0.25143332119E+02  0.59301931939E+02  0.49999977952E+02 0.  0.
         12    1    1    2    0    0 -0.89186231802E+01 -0.17464030089E+02 -0.25143332119E+02  0.31886068061E+02  0.00000000000E+00 0. -1.
         11    1    3    3    0    0  0.32457062778E+01 -0.59209432120E+01 -0.75522205656E+00  0.67943019050E+01  0.51100000000E-03 0. -1.
        -11    1    3    3    0    0 -0.10057816491E+02 -0.60103390348E+01  0.10698489803E+02  0.15866364808E+02  0.51100000000E-03 0.  1.
        -12    1    3    3    0    0  0.15730733394E+02  0.29395312336E+02  0.15200064372E+02  0.36641265226E+02  0.00000000000E+00 0.  1.
</event>
<event>
 7    1  0.1340786E-011  0.5930195E+02  0.7816164E-02  0.1266605E+00
        -11   -1    0    0    0    0  0.00000000000E+00  0.00000000000E+00  0.45593999997E+02  0.45594000000E+02  0.51100000000E-03 0. -1.
         11   -1    0    0    0    0 -0.00000000000E+00 -0.00000000000E+00 -0.45593999997E+02  0.45594000000E+02  0.51100000000E-03 0.  1.
    9900012    2    1    2    0    0 -0.15582753439E+02  0.17245658700E+02 -0.21828536147E+02  0.59301953851E+02  0.50000017915E+02 0.  0.
         12    1    1    2    0    0  0.15582753439E+02 -0.17245658700E+02  0.21828536147E+02  0.31886046149E+02  0.00000000000E+00 0. -1.
         11    1    3    3    0    0 -0.25237602530E+02 -0.28623881453E+00 -0.11712670893E+02  0.27824542653E+02  0.51100000000E-03 0. -1.
        -11    1    3    3    0    0  0.60351660879E+01  0.36639513648E+00 -0.12391032175E+02  0.13787499908E+02  0.51100000000E-03 0.  1.
        -12    1    3    3    0    0  0.36196830030E+01  0.17165502378E+02  0.22751669208E+01  0.17689911290E+02  0.00000000000E+00 0.  1.
</event>
<event>
 7    1  0.1284645E-011  0.5930193E+02  0.7816164E-02  0.1266605E+00
        -11   -1    0    0    0    0  0.00000000000E+00  0.00000000000E+00  0.45593999997E+02  0.45594000000E+02  0.51100000000E-03 0. -1.
         11   -1    0    0    0    0 -0.00000000000E+00 -0.00000000000E+00 -0.45593999997E+02  0.45594000000E+02  0.51100000000E-03 0.  1.
    9900012    2    1    2    0    0 -0.19308915338E+02  0.22796068147E+02 -0.11145701145E+02  0.59301927986E+02  0.49999970743E+02 0.  0.
         12    1    1    2    0    0  0.19308915338E+02 -0.22796068147E+02  0.11145701145E+02  0.31886072014E+02  0.00000000000E+00 0. -1.
         11    1    3    3    0    0 -0.96180225003E+01  0.42571149434E+01  0.49349929879E+01  0.11618241713E+02  0.51100000000E-03 0. -1.
        -11    1    3    3    0    0 -0.21196253485E+02 -0.20041610522E+01 -0.64690738636E+01  0.22251892959E+02  0.51100000000E-03 0.  1.
        -12    1    3    3    0    0  0.11505360648E+02  0.20543114255E+02 -0.96116202691E+01  0.25431793314E+02  0.00000000000E+00 0.  1.
</event>
<event>
 7    1  0.1284645E-011  0.5930194E+02  0.7816164E-02  0.1266605E+00
        -11   -1    0    0    0    0  0.00000000000E+00  0.00000000000E+00  0.45593999997E+02  0.45594000000E+02  0.51100000000E-03 0. -1.
         11   -1    0    0    0    0 -0.00000000000E+00 -0.00000000000E+00 -0.45593999997E+02  0.45594000000E+02  0.51100000000E-03 0.  1.
    9900012    2    1    2    0    0 -0.27220272433E+02  0.16266245499E+02 -0.33446368027E+01  0.59301943968E+02  0.49999999890E+02 0.  0.
         12    1    1    2    0    0  0.27220272433E+02 -0.16266245499E+02  0.33446368027E+01  0.31886056032E+02  0.00000000000E+00 0. -1.
         11    1    3    3    0    0 -0.35492990885E+02  0.18047393265E+02 -0.54980151407E+01  0.40195633798E+02  0.51100000000E-03 0. -1.
        -11    1    3    3    0    0  0.35233956227E+01  0.74913826218E+01 -0.68972415868E+00  0.83072769290E+01  0.51100000000E-03 0.  1.
        -12    1    3    3    0    0  0.47493228295E+01 -0.92725303880E+01  0.28431024967E+01  0.10799033241E+02  0.00000000000E+00 0.  1.
</event>
<event>
 7    1  0.1284645E-011  0.5930194E+02  0.7816164E-02  0.1266605E+00
        -11   -1    0    0    0    0  0.00000000000E+00  0.00000000000E+00  0.45593999997E+02  0.45594000000E+02  0.51100000000E-03 0. -1.
         11   -1    0    0    0    0 -0.00000000000E+00 -0.00000000000E+00 -0.45593999997E+02  0.45594000000E+02  0.51100000000E-03 0.  1.
    9900012    2    1    2    0    0  0.11559456403E+02  0.91641859967E+00 -0.29702857550E+02  0.59301943455E+02  0.49999998956E+02 0.  0.
         12    1    1    2    0    0 -0.11559456403E+02 -0.91641859967E+00  0.29702857550E+02  0.31886056545E+02  0.00000000000E+00 0. -1.
         11    1    3    3    0    0  0.71154668638E+01  0.93671792329E+01 -0.45552571731E+01  0.12614447417E+02  0.51100000000E-03 0. -1.
        -11    1    3    3    0    0  0.69557837998E+01  0.61311341339E+01 -0.29774067908E+02  0.31184432881E+02  0.51100000000E-03 0.  1.
         12    1    3    3    0    0 -0.25117942610E+01 -0.14581894767E+02  0.46264675320E+01  0.15503063157E+02  0.00000000000E+00 0. -1.
</event>
<event>
 7    1  0.1284645E-011  0.5930196E+02  0.7816164E-02  0.1266605E+00
        -11   -1    0    0    0    0  0.00000000000E+00  0.00000000000E+00  0.45593999997E+02  0.45594000000E+02  0.51100000000E-03 0.  1.
         11   -1    0    0    0    0 -0.00000000000E+00 -0.00000000000E+00 -0.45593999997E+02  0.45594000000E+02  0.51100000000E-03 0. -1.
    9900012    2    1    2    0    0  0.56838461997E+01 -0.12351143647E+02  0.28842026327E+02  0.59301963250E+02  0.50000035057E+02 0.  0.
         12    1    1    2    0    0 -0.56838461997E+01  0.12351143647E+02 -0.28842026327E+02  0.31886036750E+02  0.00000000000E+00 0. -1.
         11    1    3    3    0    0  0.40336850372E+01 -0.21570106187E+02  0.82971341942E+01  0.23460232991E+02  0.51100000000E-03 0. -1.
        -11    1    3    3    0    0  0.11910732685E+02  0.49158227203E+00  0.18797330796E+02  0.22258635437E+02  0.51100000000E-03 0.  1.
        -12    1    3    3    0    0 -0.10260571522E+02  0.87273802685E+01  0.17475613367E+01  0.13583094822E+02  0.00000000000E+00 0.  1.
</event>
<event>
 7    1  0.1284645E-011  0.5930194E+02  0.7816164E-02  0.1266605E+00
        -11   -1    0    0    0    0  0.00000000000E+00  0.00000000000E+00  0.45593999997E+02  0.45594000000E+02  0.51100000000E-03 0.  1.
         11   -1    0    0    0    0 -0.00000000000E+00 -0.00000000000E+00 -0.45593999997E+02  0.45594000000E+02  0.51100000000E-03 0. -1.
    9900012    2    1    2    0    0 -0.10473314023E+02 -0.29577160601E+02  0.56764735308E+01  0.59301935840E+02  0.49999985068E+02 0.  0.
         12    1    1    2    0    0  0.10473314023E+02  0.29577160601E+02 -0.56764735308E+01  0.31886064160E+02  0.00000000000E+00 0. -1.
         11    1    3    3    0    0 -0.18525051931E+02 -0.31907475951E+01  0.67445247293E+00  0.18809925722E+02  0.51100000000E-03 0. -1.
        -11    1    3    3    0    0 -0.70679590221E+01 -0.15570108640E+02 -0.68772098911E+01  0.18430418984E+02  0.51100000000E-03 0.  1.
         12    1    3    3    0    0  0.15119696930E+02 -0.10816304367E+02  0.11879230949E+02  0.22061591134E+02  0.00000000000E+00 0. -1.
</event>
<event>
 7    1  0.1284645E-011  0.5930192E+02  0.7816164E-02  0.1266605E+00
        -11   -1    0    0    0    0  0.00000000000E+00  0.00000000000E+00  0.45593999997E+02  0.45594000000E+02  0.51100000000E-03 0. -1.
         11   -1    0    0    0    0 -0.00000000000E+00 -0.00000000000E+00 -0.45593999997E+02  0.45594000000E+02  0.51100000000E-03 0.  1.
    9900012    2    1    2    0    0  0.23146472407E+02  0.30167478543E+01 -0.21722389326E+02  0.59301919173E+02  0.49999954670E+02 0.  0.
         12    1    1    2    0    0 -0.23146472407E+02 -0.30167478543E+01  0.21722389326E+02  0.31886080827E+02  0.00000000000E+00 0. -1.
         11    1    3    3    0    0 -0.20290153484E+01 -0.17356904743E+02 -0.14509425985E+02  0.22713486924E+02  0.51100000000E-03 0. -1.
        -11    1    3    3    0    0  0.83266707005E+01  0.10857271891E+02  0.39596648267E+01  0.14244042392E+02  0.51100000000E-03 0.  1.
        -12    1    3    3    0    0  0.16848817054E+02  0.95163807071E+01 -0.11172628168E+02  0.22344389857E+02  0.00000000000E+00 0.  1.
</event>
<event>
 7    1  0.1284645E-011  0.5930195E+02  0.7816164E-02  0.1266605E+00
        -11   -1    0    0    0    0  0.00000000000E+00  0.00000000000E+00  0.45593999997E+02  0.45594000000E+02  0.51100000000E-03 0.  1.
         11   -1    0    0    0    0 -0.00000000000E+00 -0.00000000000E+00 -0.45593999997E+02  0.45594000000E+02  0.51100000000E-03 0. -1.
    9900012    2    1    2    0    0 -0.24393686333E+02 -0.97672510423E+01  0.18062921603E+02  0.59301948776E+02  0.50000008660E+02 0.  0.
         12    1    1    2    0    0  0.24393686333E+02  0.97672510423E+01 -0.18062921603E+02  0.31886051224E+02  0.00000000000E+00 0. -1.
         11    1    3    3    0    0  0.55991366932E+01  0.26031444016E+01  0.12096530544E+02  0.13581338077E+02  0.51100000000E-03 0. -1.
        -11    1    3    3    0    0  0.13293760564E+01 -0.13675182719E+02  0.39980380113E+01  0.14309513315E+02  0.51100000000E-03 0.  1.
        -12    1    3    3    0    0 -0.31322199082E+02  0.13047872755E+01  0.19683530469E+01  0.31411097384E+02  0.00000000000E+00 0.  1.
</event>
<event>
 7    1  0.1284645E-011  0.5930199E+02  0.7816164E-02  0.1266605E+00
        -11   -1    0    0    0    0  0.00000000000E+00  0.00000000000E+00  0.45593999997E+02  0.45594000000E+02  0.51100000000E-03 0. -1.
         11   -1    0    0    0    0 -0.00000000000E+00 -0.00000000000E+00 -0.45593999997E+02  0.45594000000E+02  0.51100000000E-03 0.  1.
    9900012    2    1    2    0    0  0.16315378349E+02  0.27337068114E+02  0.17918457734E+01  0.59301990921E+02  0.50000085521E+02 0.  0.
         12    1    1    2    0    0 -0.16315378349E+02 -0.27337068114E+02 -0.17918457734E+01  0.31886009079E+02  0.00000000000E+00 0. -1.
         11    1    3    3    0    0 -0.10661691866E+02  0.51467133127E+01 -0.89003733610E+00  0.11872341727E+02  0.51100000000E-03 0. -1.
        -11    1    3    3    0    0 -0.61663694465E+01 -0.74237854975E+00  0.34771354252E+01  0.71179849036E+01  0.51100000000E-03 0.  1.
        -12    1    3    3    0    0  0.33143439662E+02  0.22932733351E+02 -0.79525231565E+00  0.40311664290E+02  0.00000000000E+00 0.  1.
</event>
<event>
 7    1  0.1284645E-011  0.5930193E+02  0.7816164E-02  0.1266605E+00
        -11   -1    0    0    0    0  0.00000000000E+00  0.00000000000E+00  0.45593999997E+02  0.45594000000E+02  0.51100000000E-03 0.  1.
         11   -1    0    0    0    0 -0.00000000000E+00 -0.00000000000E+00 -0.45593999997E+02  0.45594000000E+02  0.51100000000E-03 0. -1.
    9900012    2    1    2    0    0  0.26948146621E+02 -0.25730087717E+01  0.16849291523E+02  0.59301927723E+02  0.49999970264E+02 0.  0.
         12    1    1    2    0    0 -0.26948146621E+02  0.25730087717E+01 -0.16849291523E+02  0.31886072277E+02  0.00000000000E+00 0. -1.
         11    1    3    3    0    0  0.14341902318E+01  0.25657939382E+01 -0.30890406940E+01  0.42640793643E+01  0.51100000000E-03 0. -1.
        -11    1    3    3    0    0  0.23888264576E+02  0.63932540268E+01 -0.69909344029E+01  0.25698172028E+02  0.51100000000E-03 0.  1.
         12    1    3    3    0    0  0.16256918125E+01 -0.11532056737E+02  0.26929266620E+02  0.29339676330E+02  0.00000000000E+00 0. -1.
</event>
<event>
 7    1  0.1284645E-011  0.5930185E+02  0.7816164E-02  0.1266605E+00
        -11   -1    0    0    0    0  0.00000000000E+00  0.00000000000E+00  0.45593999997E+02  0.45594000000E+02  0.51100000000E-03 0. -1.
         11   -1    0    0    0    0 -0.00000000000E+00 -0.00000000000E+00 -0.45593999997E+02  0.45594000000E+02  0.51100000000E-03 0.  1.
    9900012    2    1    2    0    0 -0.31180567138E+01 -0.20103327565E+02  0.24553215575E+02  0.59301851723E+02  0.49999831658E+02 0.  0.
         12    1    1    2    0    0  0.31180567138E+01  0.20103327565E+02 -0.24553215575E+02  0.31886148277E+02  0.00000000000E+00 0. -1.
         11    1    3    3    0    0  0.80584905680E+01 -0.60160987882E+00 -0.84642861209E+01  0.11702364910E+02  0.51100000000E-03 0.  1.
        -11    1    3    3    0    0  0.56930246250E+01  0.16624244327E+01  0.11809729825E+02  0.13215290506E+02  0.51100000000E-03 0. -1.
        -12    1    3    3    0    0 -0.16869571907E+02 -0.21164142119E+02  0.21207771871E+02  0.34384196307E+02  0.00000000000E+00 0.  1.
</event>
<event>
 7    1  0.1284645E-011  0.5930199E+02  0.7816164E-02  0.1266605E+00
        -11   -1    0    0    0    0  0.00000000000E+00  0.00000000000E+00  0.45593999997E+02  0.45594000000E+02  0.51100000000E-03 0.  1.
         11   -1    0    0    0    0 -0.00000000000E+00 -0.00000000000E+00 -0.45593999997E+02  0.45594000000E+02  0.51100000000E-03 0. -1.
    9900012    2    1    2    0    0  0.52119945609E+01 -0.25644840261E+02  0.18217977744E+02  0.59301993157E+02  0.50000089600E+02 0.  0.
         12    1    1    2    0    0 -0.52119945609E+01  0.25644840261E+02 -0.18217977744E+02  0.31886006843E+02  0.00000000000E+00 0. -1.
         11    1    3    3    0    0 -0.65489080903E+01 -0.30710012371E+00  0.18573218405E+01  0.68141142008E+01  0.51100000000E-03 0. -1.
        -11    1    3    3    0    0 -0.35993341270E+01 -0.17657692286E+02  0.26870525325E+02  0.32353893654E+02  0.51100000000E-03 0.  1.
         12    1    3    3    0    0  0.15360236778E+02 -0.76800478518E+01 -0.10509869423E+02  0.20133985303E+02  0.00000000000E+00 0. -1.
</event>
<event>
 7    1  0.1284645E-011  0.5930192E+02  0.7816164E-02  0.1266605E+00
        -11   -1    0    0    0    0  0.00000000000E+00  0.00000000000E+00  0.45593999997E+02  0.45594000000E+02  0.51100000000E-03 0.  1.
         11   -1    0    0    0    0 -0.00000000000E+00 -0.00000000000E+00 -0.45593999997E+02  0.45594000000E+02  0.51100000000E-03 0. -1.
    9900012    2    1    2    0    0  0.29040904185E+02  0.12828452401E+02  0.29628887301E+01  0.59301921274E+02  0.49999958503E+02 0.  0.
         12    1    1    2    0    0 -0.29040904185E+02 -0.12828452401E+02 -0.29628887301E+01  0.31886078726E+02  0.00000000000E+00 0. -1.
         11    1    3    3    0    0 -0.26526910921E+01 -0.57096710310E+01 -0.87689202968E+01  0.10794956079E+02  0.51100000000E-03 0. -1.
        -11    1    3    3    0    0  0.67421405899E+01  0.42366396305E+01  0.17453257912E+02  0.19183893950E+02  0.51100000000E-03 0.  1.
        -12    1    3    3    0    0  0.24951454687E+02  0.14301483801E+02 -0.57214488848E+01  0.29323071245E+02  0.00000000000E+00 0.  1.
</event>
<event>
 7    1  0.1284645E-011  0.5930194E+02  0.7816164E-02  0.1266605E+00
        -11   -1    0    0    0    0  0.00000000000E+00  0.00000000000E+00  0.45593999997E+02  0.45594000000E+02  0.51100000000E-03 0. -1.
         11   -1    0    0    0    0 -0.00000000000E+00 -0.00000000000E+00 -0.45593999997E+02  0.45594000000E+02  0.51100000000E-03 0.  1.
    9900012    2    1    2    0    0 -0.55281823366E+01  0.31363728483E+02 -0.15737722412E+01  0.59301936848E+02  0.49999986906E+02 0.  0.
         12    1    1    2    0    0  0.55281823366E+01 -0.31363728483E+02  0.15737722412E+01  0.31886063152E+02  0.00000000000E+00 0. -1.
         11    1    3    3    0    0 -0.15403237236E+02  0.83716588917E+01 -0.28241768629E+00  0.17533515049E+02  0.51100000000E-03 0. -1.
        -11    1    3    3    0    0 -0.11296516912E+02  0.71440658697E+01 -0.64228667185E+01  0.14829099387E+02  0.51100000000E-03 0.  1.
         12    1    3    3    0    0  0.21171571812E+02  0.15848003721E+02  0.51315121636E+01  0.26939322412E+02  0.00000000000E+00 0. -1.
</event>
<event>
 7    1  0.1284645E-011  0.5930188E+02  0.7816164E-02  0.1266605E+00
        -11   -1    0    0    0    0  0.00000000000E+00  0.00000000000E+00  0.45593999997E+02  0.45594000000E+02  0.51100000000E-03 0. -1.
         11   -1    0    0    0    0 -0.00000000000E+00 -0.00000000000E+00 -0.45593999997E+02  0.45594000000E+02  0.51100000000E-03 0.  1.
    9900012    2    1    2    0    0  0.57134034780E+01  0.31161991100E+02 -0.36072434742E+01  0.59301876465E+02  0.49999876782E+02 0.  0.
         12    1    1    2    0    0 -0.57134034780E+01 -0.31161991100E+02  0.36072434742E+01  0.31886123535E+02  0.00000000000E+00 0. -1.
         11    1    3    3    0    0 -0.40591969568E+01  0.56546486699E+01 -0.26896869708E+01  0.74623419766E+01  0.51100000000E-03 0. -1.
        -11    1    3    3    0    0  0.20255273875E+02 -0.14437437440E+01  0.76173968740E+01  0.21688366724E+02  0.51100000000E-03 0.  1.
         12    1    3    3    0    0 -0.10482673440E+02  0.26951086174E+02 -0.85349533774E+01  0.30151167764E+02  0.00000000000E+00 0. -1.
</event>
<event>
 7    1  0.1284645E-011  0.5930182E+02  0.7816164E-02  0.1266605E+00
        -11   -1    0    0    0    0  0.00000000000E+00  0.00000000000E+00  0.45593999997E+02  0.45594000000E+02  0.51100000000E-03 0. -1.
         11   -1    0    0    0    0 -0.00000000000E+00 -0.00000000000E+00 -0.45593999997E+02  0.45594000000E+02  0.51100000000E-03 0.  1.
    9900012    2    1    2    0    0  0.24376854579E+02  0.17396658949E+02 -0.10947780156E+02  0.59301816909E+02  0.49999768166E+02 0.  0.
         12    1    1    2    0    0 -0.24376854579E+02 -0.17396658949E+02  0.10947780156E+02  0.31886183091E+02  0.00000000000E+00 0. -1.
         11    1    3    3    0    0  0.14720341694E+02  0.22731478066E+02 -0.38018216474E+01  0.27347073020E+02  0.51100000000E-03 0.  1.
        -11    1    3    3    0    0  0.20059894738E+02 -0.22577123659E+01 -0.33603614853E+01  0.20464326805E+02  0.51100000000E-03 0. -1.
         12    1    3    3    0    0 -0.10403381853E+02 -0.30771067518E+01 -0.37855970235E+01  0.11490417084E+02  0.00000000000E+00 0. -1.
</event>
<event>
 7    1  0.1284645E-011  0.5930201E+02  0.7816164E-02  0.1266605E+00
        -11   -1    0    0    0    0  0.00000000000E+00  0.00000000000E+00  0.45593999997E+02  0.45594000000E+02  0.51100000000E-03 0.  1.
         11   -1    0    0    0    0 -0.00000000000E+00 -0.00000000000E+00 -0.45593999997E+02  0.45594000000E+02  0.51100000000E-03 0. -1.
    9900012    2    1    2    0    0 -0.23232512795E+02  0.91727173187E+01  0.19819891769E+02  0.59302007723E+02  0.50000116164E+02 0.  0.
         12    1    1    2    0    0  0.23232512795E+02 -0.91727173187E+01 -0.19819891769E+02  0.31885992277E+02  0.00000000000E+00 0. -1.
         11    1    3    3    0    0 -0.21446226435E+02 -0.77363077081E+01  0.60197638708E+01  0.23580259595E+02  0.51100000000E-03 0. -1.
        -11    1    3    3    0    0 -0.30804055004E+01 -0.86170341744E+00  0.17274698047E+02  0.17568341519E+02  0.51100000000E-03 0.  1.
         12    1    3    3    0    0  0.12941191402E+01  0.17770728444E+02 -0.34745701496E+01  0.18153406609E+02  0.00000000000E+00 0. -1.
</event>
<event>
 7    1  0.1284645E-011  0.5930197E+02  0.7816164E-02  0.1266605E+00
        -11   -1    0    0    0    0  0.00000000000E+00  0.00000000000E+00  0.45593999997E+02  0.45594000000E+02  0.51100000000E-03 0.  1.
         11   -1    0    0    0    0 -0.00000000000E+00 -0.00000000000E+00 -0.45593999997E+02  0.45594000000E+02  0.51100000000E-03 0. -1.
    9900012    2    1    2    0    0 -0.13029990076E+02  0.23441475846E+02  0.17246326144E+02  0.59301965491E+02  0.50000039144E+02 0.  0.
         12    1    1    2    0    0  0.13029990076E+02 -0.23441475846E+02 -0.17246326144E+02  0.31886034509E+02  0.00000000000E+00 0. -1.
         11    1    3    3    0    0 -0.15220095766E+02  0.12367620612E+02 -0.12681018841E+01  0.19652415561E+02  0.51100000000E-03 0. -1.
        -11    1    3    3    0    0 -0.99923141141E+01  0.13570935942E+02  0.21042689906E+02  0.26959440692E+02  0.51100000000E-03 0.  1.
         12    1    3    3    0    0  0.12182419804E+02 -0.24970807080E+01 -0.25282618782E+01  0.12690109238E+02  0.00000000000E+00 0. -1.
</event>
<event>
 7    1  0.1284645E-011  0.5930204E+02  0.7816164E-02  0.1266604E+00
        -11   -1    0    0    0    0  0.00000000000E+00  0.00000000000E+00  0.45593999997E+02  0.45594000000E+02  0.51100000000E-03 0.  1.
         11   -1    0    0    0    0 -0.00000000000E+00 -0.00000000000E+00 -0.45593999997E+02  0.45594000000E+02  0.51100000000E-03 0. -1.
    9900012    2    1    2    0    0 -0.12608341464E+02 -0.28722447457E+02 -0.57240947331E+01  0.59302038780E+02  0.50000172806E+02 0.  0.
         12    1    1    2    0    0  0.12608341464E+02  0.28722447457E+02  0.57240947331E+01  0.31885961220E+02  0.00000000000E+00 0. -1.
         11    1    3    3    0    0  0.86237238312E+01  0.19992176916E+00 -0.66711335658E+01  0.10904705624E+02  0.51100000000E-03 0. -1.
        -11    1    3    3    0    0 -0.79861505945E+01  0.65778811100E+01  0.17742353535E+01  0.10497382177E+02  0.51100000000E-03 0.  1.
        -12    1    3    3    0    0 -0.13245914700E+02 -0.35500250336E+02 -0.82719652086E+00  0.37899950980E+02  0.00000000000E+00 0.  1.
</event>
<event>
 7    1  0.1284645E-011  0.5930200E+02  0.7816164E-02  0.1266605E+00
        -11   -1    0    0    0    0  0.00000000000E+00  0.00000000000E+00  0.45593999997E+02  0.45594000000E+02  0.51100000000E-03 0. -1.
         11   -1    0    0    0    0 -0.00000000000E+00 -0.00000000000E+00 -0.45593999997E+02  0.45594000000E+02  0.51100000000E-03 0.  1.
    9900012    2    1    2    0    0  0.50459418781E+01 -0.19469560394E+02  0.24742508033E+02  0.59301999700E+02  0.50000101533E+02 0.  0.
         12    1    1    2    0    0 -0.50459418781E+01  0.19469560394E+02 -0.24742508033E+02  0.31886000300E+02  0.00000000000E+00 0. -1.
         11    1    3    3    0    0 -0.40223534300E+01 -0.11886590449E+02  0.15326331028E+02  0.19808250368E+02  0.51100000000E-03 0. -1.
        -11    1    3    3    0    0 -0.85060854269E+01 -0.14626756447E+02 -0.25273837350E+01  0.17107985336E+02  0.51100000000E-03 0.  1.
         12    1    3    3    0    0  0.17574380735E+02  0.70437865024E+01  0.11943560740E+02  0.22385763996E+02  0.00000000000E+00 0. -1.
</event>
<event>
 7    1  0.1284645E-011  0.5930193E+02  0.7816164E-02  0.1266605E+00
        -11   -1    0    0    0    0  0.00000000000E+00  0.00000000000E+00  0.45593999997E+02  0.45594000000E+02  0.51100000000E-03 0.  1.
         11   -1    0    0    0    0 -0.00000000000E+00 -0.00000000000E+00 -0.45593999997E+02  0.45594000000E+02  0.51100000000E-03 0. -1.
    9900012    2    1    2    0    0 -0.18592041843E+02  0.21651349654E+02  0.14222403184E+02  0.59301926017E+02  0.49999967153E+02 0.  0.
         12    1    1    2    0    0  0.18592041843E+02 -0.21651349654E+02 -0.14222403184E+02  0.31886073983E+02  0.00000000000E+00 0. -1.
         11    1    3    3    0    0 -0.17509537190E+02  0.15832429266E+02  0.64854895435E+01  0.24480835034E+02  0.51100000000E-03 0. -1.
        -11    1    3    3    0    0  0.18533919054E+00 -0.98078584247E+00  0.20382756757E+02  0.20407181696E+02  0.51100000000E-03 0.  1.
         12    1    3    3    0    0 -0.12678438436E+01  0.67997062296E+01 -0.12645843116E+02  0.14413909287E+02  0.00000000000E+00 0. -1.
</event>
<event>
 7    1  0.1284645E-011  0.5930197E+02  0.7816164E-02  0.1266605E+00
        -11   -1    0    0    0    0  0.00000000000E+00  0.00000000000E+00  0.45593999997E+02  0.45594000000E+02  0.51100000000E-03 0.  1.
         11   -1    0    0    0    0 -0.00000000000E+00 -0.00000000000E+00 -0.45593999997E+02  0.45594000000E+02  0.51100000000E-03 0. -1.
    9900012    2    1    2    0    0 -0.29620933002E+02 -0.11767187791E+02 -0.92329063197E+00  0.59301970991E+02  0.50000049174E+02 0.  0.
         12    1    1    2    0    0  0.29620933002E+02  0.11767187791E+02  0.92329063197E+00  0.31886029009E+02  0.00000000000E+00 0. -1.
         11    1    3    3    0    0 -0.60740580871E+01 -0.13747752840E+02 -0.18129543007E+02  0.23549420793E+02  0.51100000000E-03 0. -1.
        -11    1    3    3    0    0  0.21985613889E+01  0.66219059531E+00 -0.24325135967E+01  0.33450397941E+01  0.51100000000E-03 0.  1.
        -12    1    3    3    0    0 -0.25745436303E+02  0.13183744540E+01  0.19638765972E+02  0.32407510403E+02  0.00000000000E+00 0.  1.
</event>
<event>
 7    1  0.1284645E-011  0.5930194E+02  0.7816164E-02  0.1266605E+00
        -11   -1    0    0    0    0  0.00000000000E+00  0.00000000000E+00  0.45593999997E+02  0.45594000000E+02  0.51100000000E-03 0. -1.
         11   -1    0    0    0    0 -0.00000000000E+00 -0.00000000000E+00 -0.45593999997E+02  0.45594000000E+02  0.51100000000E-03 0.  1.
    9900012    2    1    2    0    0 -0.20974932957E+02  0.71450128891E+01 -0.22928623499E+02  0.59301940393E+02  0.49999993370E+02 0.  0.
         12    1    1    2    0    0  0.20974932957E+02 -0.71450128891E+01  0.22928623499E+02  0.31886059607E+02  0.00000000000E+00 0. -1.
         11    1    3    3    0    0  0.54718809474E+01  0.13570749120E+02 -0.11712173606E+02  0.18742511135E+02  0.51100000000E-03 0. -1.
        -11    1    3    3    0    0 -0.22785198157E+02  0.76183047528E+01 -0.99049558381E+01  0.25986765339E+02  0.51100000000E-03 0.  1.
        -12    1    3    3    0    0 -0.36616157472E+01 -0.14044040984E+02 -0.13114940545E+01  0.14572663919E+02  0.00000000000E+00 0.  1.
</event>
<event>
 7    1  0.1284645E-011  0.5930195E+02  0.7816164E-02  0.1266605E+00
        -11   -1    0    0    0    0  0.00000000000E+00  0.00000000000E+00  0.45593999997E+02  0.45594000000E+02  0.51100000000E-03 0.  1.
         11   -1    0    0    0    0 -0.00000000000E+00 -0.00000000000E+00 -0.45593999997E+02  0.45594000000E+02  0.51100000000E-03 0. -1.
    9900012    2    1    2    0    0  0.23262000306E+02  0.12977125635E+02  0.17526934737E+02  0.59301954632E+02  0.50000019339E+02 0.  0.
         12    1    1    2    0    0 -0.23262000306E+02 -0.12977125635E+02 -0.17526934737E+02  0.31886045368E+02  0.00000000000E+00 0. -1.
         11    1    3    3    0    0  0.11607991861E+02  0.16300022372E+02  0.67639768066E+01  0.21123152863E+02  0.51100000000E-03 0. -1.
        -11    1    3    3    0    0  0.85129644387E+01  0.14619786614E+02  0.10596824474E+02  0.19962500179E+02  0.51100000000E-03 0.  1.
         12    1    3    3    0    0  0.31410440062E+01 -0.17942683351E+02  0.16613345640E+00  0.18216301590E+02  0.00000000000E+00 0. -1.
</event>
<event>
 7    1  0.1284645E-011  0.5930190E+02  0.7816164E-02  0.1266605E+00
        -11   -1    0    0    0    0  0.00000000000E+00  0.00000000000E+00  0.45593999997E+02  0.45594000000E+02  0.51100000000E-03 0.  1.
         11   -1    0    0    0    0 -0.00000000000E+00 -0.00000000000E+00 -0.45593999997E+02  0.45594000000E+02  0.51100000000E-03 0. -1.
    9900012    2    1    2    0    0 -0.30260619791E+02 -0.57087988815E+01  0.82721292535E+01  0.59301896174E+02  0.49999912726E+02 0.  0.
         12    1    1    2    0    0  0.30260619791E+02  0.57087988815E+01 -0.82721292535E+01  0.31886103826E+02  0.00000000000E+00 0. -1.
         11    1    3    3    0    0 -0.18249967984E+02 -0.12614962860E+02  0.19337821806E+02  0.29430425954E+02  0.51100000000E-03 0. -1.
        -11    1    3    3    0    0 -0.44142857987E+01  0.83370591538E+01  0.59700912167E+01  0.11163980645E+02  0.51100000000E-03 0.  1.
         12    1    3    3    0    0 -0.75963660091E+01 -0.14308951755E+01 -0.17035783770E+02  0.18707489575E+02  0.00000000000E+00 0. -1.
</event>
<event>
 7    1  0.1284645E-011  0.5930193E+02  0.7816164E-02  0.1266605E+00
        -11   -1    0    0    0    0  0.00000000000E+00  0.00000000000E+00  0.45593999997E+02  0.45594000000E+02  0.51100000000E-03 0.  1.
         11   -1    0    0    0    0 -0.00000000000E+00 -0.00000000000E+00 -0.45593999997E+02  0.45594000000E+02  0.51100000000E-03 0. -1.
    9900012    2    1    2    0    0  0.30084830244E+01  0.30966809093E+02 -0.69804870212E+01  0.59301930400E+02  0.49999975145E+02 0.  0.
         12    1    1    2    0    0 -0.30084830244E+01 -0.30966809093E+02  0.69804870212E+01  0.31886069600E+02  0.00000000000E+00 0. -1.
         11    1    3    3    0    0 -0.45436705373E+01  0.90714535215E+01 -0.14513094042E+02  0.17707797996E+02  0.51100000000E-03 0. -1.
        -11    1    3    3    0    0  0.17574540712E+01 -0.86605285757E+01  0.55397173061E+01  0.10429854655E+02  0.51100000000E-03 0.  1.
         12    1    3    3    0    0  0.57946994904E+01  0.30555884147E+02  0.19928897144E+01  0.31164277749E+02  0.00000000000E+00 0. -1.
</event>
<event>
 7    1  0.1284645E-011  0.5930192E+02  0.7816164E-02  0.1266605E+00
        -11   -1    0    0    0    0  0.00000000000E+00  0.00000000000E+00  0.45593999997E+02  0.45594000000E+02  0.51100000000E-03 0. -1.
         11   -1    0    0    0    0 -0.00000000000E+00 -0.00000000000E+00 -0.45593999997E+02  0.45594000000E+02  0.51100000000E-03 0.  1.
    9900012    2    1    2    0    0 -0.25569283291E+02  0.17879914271E+02 -0.65758876106E+01  0.59301923411E+02  0.49999962400E+02 0.  0.
         12    1    1    2    0    0  0.25569283291E+02 -0.17879914271E+02  0.65758876106E+01  0.31886076589E+02  0.00000000000E+00 0. -1.
         11    1    3    3    0    0 -0.17549333378E+02  0.20946432611E+02  0.45236765132E+01  0.27698299417E+02  0.51100000000E-03 0. -1.
        -11    1    3    3    0    0 -0.14103338617E+02  0.79117709516E+01 -0.24374946913E+01  0.16353643642E+02  0.51100000000E-03 0.  1.
        -12    1    3    3    0    0  0.60833887037E+01 -0.10978289291E+02 -0.86620694326E+01  0.15249980352E+02  0.00000000000E+00 0.  1.
</event>
<event>
 7    1  0.1284645E-011  0.5930195E+02  0.7816164E-02  0.1266605E+00
        -11   -1    0    0    0    0  0.00000000000E+00  0.00000000000E+00  0.45593999997E+02  0.45594000000E+02  0.51100000000E-03 0. -1.
         11   -1    0    0    0    0 -0.00000000000E+00 -0.00000000000E+00 -0.45593999997E+02  0.45594000000E+02  0.51100000000E-03 0.  1.
    9900012    2    1    2    0    0 -0.23731595618E+02 -0.24419751403E+01 -0.21155810913E+02  0.59301949624E+02  0.50000010207E+02 0.  0.
         12    1    1    2    0    0  0.23731595618E+02  0.24419751403E+01  0.21155810913E+02  0.31886050376E+02  0.00000000000E+00 0. -1.
         11    1    3    3    0    0 -0.47329516053E+01  0.13850378840E+00 -0.54133136474E+01  0.71919384803E+01  0.51100000000E-03 0. -1.
        -11    1    3    3    0    0 -0.28339161967E+02 -0.22281121149E+00 -0.25698239813E+02  0.38256467107E+02  0.51100000000E-03 0.  1.
         12    1    3    3    0    0  0.93405179542E+01 -0.23576677173E+01  0.99557425467E+01  0.13853544037E+02  0.00000000000E+00 0. -1.
</event>
<event>
 7    1  0.1284645E-011  0.5930195E+02  0.7816164E-02  0.1266605E+00
        -11   -1    0    0    0    0  0.00000000000E+00  0.00000000000E+00  0.45593999997E+02  0.45594000000E+02  0.51100000000E-03 0. -1.
         11   -1    0    0    0    0 -0.00000000000E+00 -0.00000000000E+00 -0.45593999997E+02  0.45594000000E+02  0.51100000000E-03 0.  1.
    9900012    2    1    2    0    0 -0.61844655496E+01 -0.29478158476E+02  0.10464730383E+02  0.59301952530E+02  0.50000015506E+02 0.  0.
         12    1    1    2    0    0  0.61844655496E+01  0.29478158476E+02 -0.10464730383E+02  0.31886047470E+02  0.00000000000E+00 0. -1.
         11    1    3    3    0    0  0.39541077868E+01 -0.65693058025E+01 -0.30217291722E+01  0.82414558524E+01  0.51100000000E-03 0. -1.
        -11    1    3    3    0    0 -0.70000116317E+01 -0.42093235920E+01 -0.14860061300E+02  0.16957004159E+02  0.51100000000E-03 0.  1.
         12    1    3    3    0    0 -0.31385617046E+01 -0.18699529081E+02  0.28346520854E+02  0.34103492519E+02  0.00000000000E+00 0. -1.
</event>
<event>
 7    1  0.1284645E-011  0.5930193E+02  0.7816164E-02  0.1266605E+00
        -11   -1    0    0    0    0  0.00000000000E+00  0.00000000000E+00  0.45593999997E+02  0.45594000000E+02  0.51100000000E-03 0. -1.
         11   -1    0    0    0    0 -0.00000000000E+00 -0.00000000000E+00 -0.45593999997E+02  0.45594000000E+02  0.51100000000E-03 0.  1.
    9900012    2    1    2    0    0  0.18989942468E+02  0.12700429122E+02 -0.22244163767E+02  0.59301927233E+02  0.49999969370E+02 0.  0.
         12    1    1    2    0    0 -0.18989942468E+02 -0.12700429122E+02  0.22244163767E+02  0.31886072767E+02  0.00000000000E+00 0. -1.
         11    1    3    3    0    0  0.48304490064E+01  0.10983943896E+01  0.47477749119E+01  0.68615650338E+01  0.51100000000E-03 0. -1.
        -11    1    3    3    0    0 -0.96124735801E+01  0.10573044025E+02  0.25420637187E+01  0.14513820879E+02  0.51100000000E-03 0.  1.
         12    1    3    3    0    0  0.23771967042E+02  0.10289907070E+01 -0.29534002398E+02  0.37926541320E+02  0.00000000000E+00 0. -1.
</event>
<event>
 7    1  0.1284645E-011  0.5930190E+02  0.7816164E-02  0.1266605E+00
        -11   -1    0    0    0    0  0.00000000000E+00  0.00000000000E+00  0.45593999997E+02  0.45594000000E+02  0.51100000000E-03 0.  1.
         11   -1    0    0    0    0 -0.00000000000E+00 -0.00000000000E+00 -0.45593999997E+02  0.45594000000E+02  0.51100000000E-03 0. -1.
    9900012    2    1    2    0    0  0.25919580591E+02 -0.95091280858E+01  0.15952278287E+02  0.59301900246E+02  0.49999920153E+02 0.  0.
         12    1    1    2    0    0 -0.25919580591E+02  0.95091280858E+01 -0.15952278287E+02  0.31886099754E+02  0.00000000000E+00 0. -1.
         11    1    3    3    0    0  0.83588108894E+01 -0.56137385153E+01  0.10213293356E+02  0.14342075897E+02  0.51100000000E-03 0.  1.
        -11    1    3    3    0    0  0.16567258275E+02  0.15363336440E+02  0.10770097882E+02  0.25030005233E+02  0.51100000000E-03 0. -1.
         12    1    3    3    0    0  0.99351142699E+00 -0.19258726010E+02 -0.50311129507E+01  0.19929819116E+02  0.00000000000E+00 0. -1.
</event>
<event>
 7    1  0.1284645E-011  0.5930193E+02  0.7816164E-02  0.1266605E+00
        -11   -1    0    0    0    0  0.00000000000E+00  0.00000000000E+00  0.45593999997E+02  0.45594000000E+02  0.51100000000E-03 0.  1.
         11   -1    0    0    0    0 -0.00000000000E+00 -0.00000000000E+00 -0.45593999997E+02  0.45594000000E+02  0.51100000000E-03 0. -1.
    9900012    2    1    2    0    0 -0.31479315368E+02  0.49080071040E+01 -0.12982259698E+01  0.59301933757E+02  0.49999981268E+02 0.  0.
         12    1    1    2    0    0  0.31479315368E+02 -0.49080071040E+01  0.12982259698E+01  0.31886066243E+02  0.00000000000E+00 0. -1.
         11    1    3    3    0    0 -0.13946469869E+02 -0.12580881867E+02  0.42327265580E+01  0.19253534345E+02  0.51100000000E-03 0. -1.
        -11    1    3    3    0    0 -0.91139279324E+01 -0.50143220763E+01  0.73974759124E+01  0.12764394164E+02  0.51100000000E-03 0.  1.
         12    1    3    3    0    0 -0.84189175666E+01  0.22503211048E+02 -0.12928428440E+02  0.27284005248E+02  0.00000000000E+00 0. -1.
</event>
<event>
 7    1  0.1284645E-011  0.5930193E+02  0.7816164E-02  0.1266605E+00
        -11   -1    0    0    0    0  0.00000000000E+00  0.00000000000E+00  0.45593999997E+02  0.45594000000E+02  0.51100000000E-03 0. -1.
         11   -1    0    0    0    0 -0.00000000000E+00 -0.00000000000E+00 -0.45593999997E+02  0.45594000000E+02  0.51100000000E-03 0.  1.
    9900012    2    1    2    0    0  0.13087504153E+02  0.22459212643E+02 -0.18466794701E+02  0.59301929310E+02  0.49999973159E+02 0.  0.
         12    1    1    2    0    0 -0.13087504153E+02 -0.22459212643E+02  0.18466794701E+02  0.31886070690E+02  0.00000000000E+00 0. -1.
         11    1    3    3    0    0  0.46796717332E+00  0.26118332321E+02  0.38552410452E+01  0.26405475953E+02  0.51100000000E-03 0. -1.
        -11    1    3    3    0    0  0.86351322183E+01  0.75836993486E+01 -0.69176942841E+01  0.13413892004E+02  0.51100000000E-03 0.  1.
         12    1    3    3    0    0  0.39844047612E+01 -0.11242819027E+02 -0.15404341463E+02  0.19482561353E+02  0.00000000000E+00 0. -1.
</event>
<event>
 7    1  0.1284645E-011  0.5930192E+02  0.7816164E-02  0.1266605E+00
        -11   -1    0    0    0    0  0.00000000000E+00  0.00000000000E+00  0.45593999997E+02  0.45594000000E+02  0.51100000000E-03 0.  1.
         11   -1    0    0    0    0 -0.00000000000E+00 -0.00000000000E+00 -0.45593999997E+02  0.45594000000E+02  0.51100000000E-03 0. -1.
    9900012    2    1    2    0    0  0.91996399930E+01 -0.15512980051E+02  0.26295172187E+02  0.59301921432E+02  0.49999958791E+02 0.  0.
         12    1    1    2    0    0 -0.91996399930E+01  0.15512980051E+02 -0.26295172187E+02  0.31886078568E+02  0.00000000000E+00 0. -1.
         11    1    3    3    0    0  0.34283334604E+01 -0.60616408024E+01  0.10237983687E+02  0.12381973581E+02  0.51100000000E-03 0. -1.
        -11    1    3    3    0    0  0.45910694329E+01 -0.21891518021E+02  0.23444930847E+02  0.32403414364E+02  0.51100000000E-03 0.  1.
         12    1    3    3    0    0  0.11802370996E+01  0.12440178772E+02 -0.73877423462E+01  0.14516533487E+02  0.00000000000E+00 0. -1.
</event>
<event>
 7    1  0.1284645E-011  0.5930195E+02  0.7816164E-02  0.1266605E+00
        -11   -1    0    0    0    0  0.00000000000E+00  0.00000000000E+00  0.45593999997E+02  0.45594000000E+02  0.51100000000E-03 0. -1.
         11   -1    0    0    0    0 -0.00000000000E+00 -0.00000000000E+00 -0.45593999997E+02  0.45594000000E+02  0.51100000000E-03 0.  1.
    9900012    2    1    2    0    0 -0.29948805648E+02  0.21107698494E+01 -0.10739360560E+02  0.59301950161E+02  0.50000011186E+02 0.  0.
         12    1    1    2    0    0  0.29948805648E+02 -0.21107698494E+01  0.10739360560E+02  0.31886049839E+02  0.00000000000E+00 0. -1.
         11    1    3    3    0    0  0.64744788973E+01  0.90465541760E+01  0.57979165465E+01  0.12544913551E+02  0.51100000000E-03 0. -1.
        -11    1    3    3    0    0  0.29313470480E+01 -0.24863678622E+01 -0.30874328326E+01  0.49302193074E+01  0.51100000000E-03 0.  1.
        -12    1    3    3    0    0 -0.39354631593E+02 -0.44494164644E+01 -0.13449844274E+02  0.41826817303E+02  0.00000000000E+00 0.  1.
</event>
<event>
 7    1  0.1284645E-011  0.5930191E+02  0.7816164E-02  0.1266605E+00
        -11   -1    0    0    0    0  0.00000000000E+00  0.00000000000E+00  0.45593999997E+02  0.45594000000E+02  0.51100000000E-03 0. -1.
         11   -1    0    0    0    0 -0.00000000000E+00 -0.00000000000E+00 -0.45593999997E+02  0.45594000000E+02  0.51100000000E-03 0.  1.
    9900012    2    1    2    0    0 -0.11024000208E+02  0.22000485801E+02 -0.20277392941E+02  0.59301911803E+02  0.49999941229E+02 0.  0.
         12    1    1    2    0    0  0.11024000208E+02 -0.22000485801E+02  0.20277392941E+02  0.31886088197E+02  0.00000000000E+00 0. -1.
         11    1    3    3    0    0 -0.32622611936E-01 -0.37010827868E+01  0.76325894378E+01  0.84826587705E+01  0.51100000000E-03 0. -1.
        -11    1    3    3    0    0 -0.10556968690E+02 -0.21294440450E+01  0.84064241562E+00  0.10802351587E+02  0.51100000000E-03 0.  1.
        -12    1    3    3    0    0 -0.43440890595E+00  0.27831012633E+02 -0.28750624794E+02  0.40016901445E+02  0.00000000000E+00 0.  1.
</event>
<event>
 7    1  0.1284645E-011  0.5930195E+02  0.7816164E-02  0.1266605E+00
        -11   -1    0    0    0    0  0.00000000000E+00  0.00000000000E+00  0.45593999997E+02  0.45594000000E+02  0.51100000000E-03 0.  1.
         11   -1    0    0    0    0 -0.00000000000E+00 -0.00000000000E+00 -0.45593999997E+02  0.45594000000E+02  0.51100000000E-03 0. -1.
    9900012    2    1    2    0    0 -0.29287500288E+02 -0.11959842002E+02  0.39905680097E+01  0.59301950905E+02  0.50000012543E+02 0.  0.
         12    1    1    2    0    0  0.29287500288E+02  0.11959842002E+02 -0.39905680097E+01  0.31886049095E+02  0.00000000000E+00 0. -1.
         11    1    3    3    0    0 -0.38388028680E+01 -0.71717004286E+01  0.54468844426E+01  0.97897009601E+01  0.51100000000E-03 0. -1.
        -11    1    3    3    0    0 -0.33148178127E+02  0.32594299876E+01  0.87147939701E+01  0.34429249646E+02  0.51100000000E-03 0.  1.
         12    1    3    3    0    0  0.76994807070E+01 -0.80475715608E+01 -0.10171110403E+02  0.15083000299E+02  0.00000000000E+00 0. -1.
</event>
<event>
 7    1  0.1284645E-011  0.5930196E+02  0.7816164E-02  0.1266605E+00
        -11   -1    0    0    0    0  0.00000000000E+00  0.00000000000E+00  0.45593999997E+02  0.45594000000E+02  0.51100000000E-03 0.  1.
         11   -1    0    0    0    0 -0.00000000000E+00 -0.00000000000E+00 -0.45593999997E+02  0.45594000000E+02  0.51100000000E-03 0. -1.
    9900012    2    1    2    0    0 -0.30775322314E+02  0.60017830692E+01  0.57946079616E+01  0.59301963167E+02  0.50000034905E+02 0.  0.
         12    1    1    2    0    0  0.30775322314E+02 -0.60017830692E+01 -0.57946079616E+01  0.31886036833E+02  0.00000000000E+00 0. -1.
         11    1    3    3    0    0  0.38550051511E+00  0.50007867824E+01  0.78654273981E+01  0.93285276173E+01  0.51100000000E-03 0. -1.
        -11    1    3    3    0    0  0.79908051806E+01  0.51916387970E+01  0.36107698428E+01  0.10190374868E+02  0.51100000000E-03 0.  1.
         12    1    3    3    0    0 -0.39151628009E+02 -0.41906425103E+01 -0.56815892794E+01  0.39783060681E+02  0.00000000000E+00 0. -1.
</event>
<event>
 7    1  0.1284645E-011  0.5930182E+02  0.7816164E-02  0.1266605E+00
        -11   -1    0    0    0    0  0.00000000000E+00  0.00000000000E+00  0.45593999997E+02  0.45594000000E+02  0.51100000000E-03 0.  1.
         11   -1    0    0    0    0 -0.00000000000E+00 -0.00000000000E+00 -0.45593999997E+02  0.45594000000E+02  0.51100000000E-03 0. -1.
    9900012    2    1    2    0    0  0.24614250894E+02 -0.71227355027E+01  0.18977192560E+02  0.59301818893E+02  0.49999771784E+02 0.  0.
         12    1    1    2    0    0 -0.24614250894E+02  0.71227355027E+01 -0.18977192560E+02  0.31886181107E+02  0.00000000000E+00 0. -1.
         11    1    3    3    0    0 -0.33732277396E+01 -0.95398614475E+01 -0.78150127641E+01  0.12785227670E+02  0.51100000000E-03 0. -1.
        -11    1    3    3    0    0  0.91086383347E+01  0.11405830253E+02  0.31093091962E+01  0.14924076521E+02  0.51100000000E-03 0.  1.
        -12    1    3    3    0    0  0.18878840299E+02 -0.89887043083E+01  0.23682896128E+02  0.31592514702E+02  0.00000000000E+00 0.  1.
</event>
<event>
 7    1  0.1284645E-011  0.5930192E+02  0.7816164E-02  0.1266605E+00
        -11   -1    0    0    0    0  0.00000000000E+00  0.00000000000E+00  0.45593999997E+02  0.45594000000E+02  0.51100000000E-03 0.  1.
         11   -1    0    0    0    0 -0.00000000000E+00 -0.00000000000E+00 -0.45593999997E+02  0.45594000000E+02  0.51100000000E-03 0. -1.
    9900012    2    1    2    0    0 -0.24301888295E+01 -0.25156831999E+02  0.19440932705E+02  0.59301923440E+02  0.49999962452E+02 0.  0.
         12    1    1    2    0    0  0.24301888295E+01  0.25156831999E+02 -0.19440932705E+02  0.31886076560E+02  0.00000000000E+00 0. -1.
         11    1    3    3    0    0  0.99089196354E+01 -0.10756485625E+02 -0.86935480531E+01  0.17013713567E+02  0.51100000000E-03 0. -1.
        -11    1    3    3    0    0  0.43568392574E+01  0.30073241411E+01  0.85568903895E-01  0.52946547672E+01  0.51100000000E-03 0.  1.
        -12    1    3    3    0    0 -0.16695947722E+02 -0.17407670516E+02  0.28048911854E+02  0.36993555105E+02  0.00000000000E+00 0.  1.
</event>
<event>
 7    1  0.1284645E-011  0.5930195E+02  0.7816164E-02  0.1266605E+00
        -11   -1    0    0    0    0  0.00000000000E+00  0.00000000000E+00  0.45593999997E+02  0.45594000000E+02  0.51100000000E-03 0. -1.
         11   -1    0    0    0    0 -0.00000000000E+00 -0.00000000000E+00 -0.45593999997E+02  0.45594000000E+02  0.51100000000E-03 0.  1.
    9900012    2    1    2    0    0 -0.55005585869E+01  0.17351992275E+02 -0.26179619670E+02  0.59301948712E+02  0.50000008543E+02 0.  0.
         12    1    1    2    0    0  0.55005585869E+01 -0.17351992275E+02  0.26179619670E+02  0.31886051288E+02  0.00000000000E+00 0. -1.
         11    1    3    3    0    0 -0.10063276404E+02 -0.10168765761E+02 -0.15111549115E+02  0.20809426854E+02  0.51100000000E-03 0. -1.
        -11    1    3    3    0    0  0.61597893817E+01  0.80864682865E+01 -0.15461572839E+02  0.18503897144E+02  0.51100000000E-03 0.  1.
         12    1    3    3    0    0 -0.15970715649E+01  0.19434289750E+02  0.43935022842E+01  0.19988624714E+02  0.00000000000E+00 0. -1.
</event>
<event>
 7    1  0.1284645E-011  0.5930206E+02  0.7816164E-02  0.1266604E+00
        -11   -1    0    0    0    0  0.00000000000E+00  0.00000000000E+00  0.45593999997E+02  0.45594000000E+02  0.51100000000E-03 0. -1.
         11   -1    0    0    0    0 -0.00000000000E+00 -0.00000000000E+00 -0.45593999997E+02  0.45594000000E+02  0.51100000000E-03 0.  1.
    9900012    2    1    2    0    0  0.31574919267E+01 -0.10008592006E+02 -0.30109325412E+02  0.59302060371E+02  0.50000212183E+02 0.  0.
         12    1    1    2    0    0 -0.31574919267E+01  0.10008592006E+02  0.30109325412E+02  0.31885939629E+02  0.00000000000E+00 0. -1.
         11    1    3    3    0    0  0.23883757850E+01  0.23975340843E+01 -0.54896060546E+01  0.64488978494E+01  0.51100000000E-03 0. -1.
        -11    1    3    3    0    0  0.15368355595E+02  0.11179846823E+02 -0.10870083819E+02  0.21893698892E+02  0.51100000000E-03 0.  1.
        -12    1    3    3    0    0 -0.14599239453E+02 -0.23585972913E+02 -0.13749635539E+02  0.30959463630E+02  0.00000000000E+00 0.  1.
</event>
<event>
 7    1  0.1284645E-011  0.5930191E+02  0.7816164E-02  0.1266605E+00
        -11   -1    0    0    0    0  0.00000000000E+00  0.00000000000E+00  0.45593999997E+02  0.45594000000E+02  0.51100000000E-03 0.  1.
         11   -1    0    0    0    0 -0.00000000000E+00 -0.00000000000E+00 -0.45593999997E+02  0.45594000000E+02  0.51100000000E-03 0. -1.
    9900012    2    1    2    0    0 -0.11913398273E+01 -0.53523656040E+01  0.31411078655E+02  0.59301906316E+02  0.49999931222E+02 0.  0.
         12    1    1    2    0    0  0.11913398273E+01  0.53523656040E+01 -0.31411078655E+02  0.31886093684E+02  0.00000000000E+00 0. -1.
         11    1    3    3    0    0  0.50432279151E+01  0.23342758017E+01  0.80144693182E+01  0.97526770702E+01  0.51100000000E-03 0. -1.
        -11    1    3    3    0    0 -0.73415502750E+01 -0.10778871879E+02  0.35073256206E+02  0.37419456711E+02  0.51100000000E-03 0.  1.
         12    1    3    3    0    0  0.11069825326E+01  0.30922304736E+01 -0.11676646869E+02  0.12129772534E+02  0.00000000000E+00 0. -1.
</event>
<event>
 7    1  0.1284645E-011  0.5930194E+02  0.7816164E-02  0.1266605E+00
        -11   -1    0    0    0    0  0.00000000000E+00  0.00000000000E+00  0.45593999997E+02  0.45594000000E+02  0.51100000000E-03 0. -1.
         11   -1    0    0    0    0 -0.00000000000E+00 -0.00000000000E+00 -0.45593999997E+02  0.45594000000E+02  0.51100000000E-03 0.  1.
    9900012    2    1    2    0    0 -0.20429307199E+02  0.48514124063E+01 -0.23996421086E+02  0.59301936901E+02  0.49999987003E+02 0.  0.
         12    1    1    2    0    0  0.20429307199E+02 -0.48514124063E+01  0.23996421086E+02  0.31886063099E+02  0.00000000000E+00 0. -1.
         11    1    3    3    0    0 -0.48789773369E+01  0.16971486796E+02 -0.18747531562E+02  0.25754722360E+02  0.51100000000E-03 0. -1.
        -11    1    3    3    0    0 -0.16990953917E+02  0.24158094239E+01  0.19324071253E+01  0.17270288004E+02  0.51100000000E-03 0.  1.
         12    1    3    3    0    0  0.14406240545E+01 -0.14535883814E+02 -0.71812966501E+01  0.16276926537E+02  0.00000000000E+00 0. -1.
</event>
<event>
 7    1  0.1284645E-011  0.5930190E+02  0.7816164E-02  0.1266605E+00
        -11   -1    0    0    0    0  0.00000000000E+00  0.00000000000E+00  0.45593999997E+02  0.45594000000E+02  0.51100000000E-03 0. -1.
         11   -1    0    0    0    0 -0.00000000000E+00 -0.00000000000E+00 -0.45593999997E+02  0.45594000000E+02  0.51100000000E-03 0.  1.
    9900012    2    1    2    0    0 -0.23740601142E+02 -0.18400911708E+02 -0.10701095627E+02  0.59301903627E+02  0.49999926319E+02 0.  0.
         12    1    1    2    0    0  0.23740601142E+02  0.18400911708E+02  0.10701095627E+02  0.31886096373E+02  0.00000000000E+00 0. -1.
         11    1    3    3    0    0  0.41274632996E+01 -0.54025230536E+01  0.22981379608E+01  0.71766738105E+01  0.51100000000E-03 0. -1.
        -11    1    3    3    0    0 -0.13716666385E+01 -0.19289779944E+02  0.43680241029E+01  0.19825657984E+02  0.51100000000E-03 0.  1.
        -12    1    3    3    0    0 -0.26496397803E+02  0.62913912895E+01 -0.17367257691E+02  0.32299571833E+02  0.00000000000E+00 0.  1.
</event>
<event>
 7    1  0.1284645E-011  0.5930193E+02  0.7816164E-02  0.1266605E+00
        -11   -1    0    0    0    0  0.00000000000E+00  0.00000000000E+00  0.45593999997E+02  0.45594000000E+02  0.51100000000E-03 0.  1.
         11   -1    0    0    0    0 -0.00000000000E+00 -0.00000000000E+00 -0.45593999997E+02  0.45594000000E+02  0.51100000000E-03 0. -1.
    9900012    2    1    2    0    0  0.15765631818E+02 -0.44804571041E+01  0.27351264312E+02  0.59301932479E+02  0.49999978938E+02 0.  0.
         12    1    1    2    0    0 -0.15765631818E+02  0.44804571041E+01 -0.27351264312E+02  0.31886067521E+02  0.00000000000E+00 0. -1.
         11    1    3    3    0    0  0.34688386605E+01 -0.98138870767E+01  0.27768719007E+01  0.10772940129E+02  0.51100000000E-03 0.  1.
        -11    1    3    3    0    0  0.73110234450E+01  0.22657787388E+02  0.13426561271E+02  0.27333110708E+02  0.51100000000E-03 0. -1.
         12    1    3    3    0    0  0.49857697122E+01 -0.17324357415E+02  0.11147831140E+02  0.21195881643E+02  0.00000000000E+00 0. -1.
</event>
<event>
 7    1  0.1284645E-011  0.5930193E+02  0.7816164E-02  0.1266605E+00
        -11   -1    0    0    0    0  0.00000000000E+00  0.00000000000E+00  0.45593999997E+02  0.45594000000E+02  0.51100000000E-03 0. -1.
         11   -1    0    0    0    0 -0.00000000000E+00 -0.00000000000E+00 -0.45593999997E+02  0.45594000000E+02  0.51100000000E-03 0.  1.
    9900012    2    1    2    0    0  0.16380941663E+02 -0.26373536605E+02 -0.72679274792E+01  0.59301930115E+02  0.49999974627E+02 0.  0.
         12    1    1    2    0    0 -0.16380941663E+02  0.26373536605E+02  0.72679274792E+01  0.31886069885E+02  0.00000000000E+00 0. -1.
         11    1    3    3    0    0  0.27149891616E+01  0.10226803491E+02 -0.10069836444E+02  0.14606857365E+02  0.51100000000E-03 0.  1.
        -11    1    3    3    0    0  0.14668873639E+02 -0.94741040095E+01  0.11161570542E+01  0.17498008671E+02  0.51100000000E-03 0. -1.
        -12    1    3    3    0    0 -0.10029211373E+01 -0.27126236087E+02  0.16857519109E+01  0.27197064080E+02  0.00000000000E+00 0.  1.
</event>
<event>
 7    1  0.1318522E-011  0.5930194E+02  0.7816164E-02  0.1266605E+00
        -11   -1    0    0    0    0  0.00000000000E+00  0.00000000000E+00  0.45593999997E+02  0.45594000000E+02  0.51100000000E-03 0. -1.
         11   -1    0    0    0    0 -0.00000000000E+00 -0.00000000000E+00 -0.45593999997E+02  0.45594000000E+02  0.51100000000E-03 0.  1.
    9900012    2    1    2    0    0 -0.15106407531E+02 -0.12741462564E+01 -0.28051630617E+02  0.59301937568E+02  0.49999988219E+02 0.  0.
         12    1    1    2    0    0  0.15106407531E+02  0.12741462564E+01  0.28051630617E+02  0.31886062432E+02  0.00000000000E+00 0. -1.
         11    1    3    3    0    0  0.27207945578E+01  0.50726472508E+01  0.33714157989E+01  0.66709008318E+01  0.51100000000E-03 0. -1.
        -11    1    3    3    0    0 -0.18721810052E+02  0.11335925838E+02 -0.80737354341E+01  0.23327978702E+02  0.51100000000E-03 0.  1.
        -12    1    3    3    0    0  0.89460796258E+00 -0.17682719345E+02 -0.23349310981E+02  0.29303058034E+02  0.00000000000E+00 0.  1.
</event>
<event>
 7    1  0.1284645E-011  0.5930195E+02  0.7816164E-02  0.1266605E+00
        -11   -1    0    0    0    0  0.00000000000E+00  0.00000000000E+00  0.45593999997E+02  0.45594000000E+02  0.51100000000E-03 0.  1.
         11   -1    0    0    0    0 -0.00000000000E+00 -0.00000000000E+00 -0.45593999997E+02  0.45594000000E+02  0.51100000000E-03 0. -1.
    9900012    2    1    2    0    0 -0.19173521499E+02 -0.37695356493E+01  0.25196956715E+02  0.59301953626E+02  0.50000017505E+02 0.  0.
         12    1    1    2    0    0  0.19173521499E+02  0.37695356493E+01 -0.25196956715E+02  0.31886046374E+02  0.00000000000E+00 0. -1.
         11    1    3    3    0    0 -0.89362861561E+01  0.78741350609E+00 -0.52317479373E+01  0.10385009246E+02  0.51100000000E-03 0. -1.
        -11    1    3    3    0    0 -0.12872046734E+02  0.91718179071E+01  0.41898983005E+00  0.15810989330E+02  0.51100000000E-03 0.  1.
        -12    1    3    3    0    0  0.26348113917E+01 -0.13728767063E+02  0.30009714822E+02  0.33105955051E+02  0.00000000000E+00 0.  1.
</event>
<event>
 7    1  0.1284645E-011  0.5930194E+02  0.7816164E-02  0.1266605E+00
        -11   -1    0    0    0    0  0.00000000000E+00  0.00000000000E+00  0.45593999997E+02  0.45594000000E+02  0.51100000000E-03 0. -1.
         11   -1    0    0    0    0 -0.00000000000E+00 -0.00000000000E+00 -0.45593999997E+02  0.45594000000E+02  0.51100000000E-03 0.  1.
    9900012    2    1    2    0    0  0.27591470802E+01 -0.29149069396E+02 -0.12626948100E+02  0.59301937879E+02  0.49999988786E+02 0.  0.
         12    1    1    2    0    0 -0.27591470802E+01  0.29149069396E+02  0.12626948100E+02  0.31886062121E+02  0.00000000000E+00 0. -1.
         11    1    3    3    0    0  0.76023610154E+01 -0.20821816795E+02  0.26297914173E+01  0.22321732702E+02  0.51100000000E-03 0. -1.
        -11    1    3    3    0    0  0.91313138376E+00 -0.19516256200E+02 -0.14581775723E+02  0.24379217553E+02  0.51100000000E-03 0.  1.
         12    1    3    3    0    0 -0.57563453190E+01  0.11189003599E+02 -0.67496379401E+00  0.12600987624E+02  0.00000000000E+00 0. -1.
</event>
<event>
 7    1  0.1284645E-011  0.5930194E+02  0.7816164E-02  0.1266605E+00
        -11   -1    0    0    0    0  0.00000000000E+00  0.00000000000E+00  0.45593999997E+02  0.45594000000E+02  0.51100000000E-03 0. -1.
         11   -1    0    0    0    0 -0.00000000000E+00 -0.00000000000E+00 -0.45593999997E+02  0.45594000000E+02  0.51100000000E-03 0.  1.
    9900012    2    1    2    0    0  0.14197869764E+01  0.58753360346E+01 -0.31307910617E+02  0.59301942925E+02  0.49999997990E+02 0.  0.
         12    1    1    2    0    0 -0.14197869764E+01 -0.58753360346E+01  0.31307910617E+02  0.31886057075E+02  0.00000000000E+00 0. -1.
         11    1    3    3    0    0 -0.89002882511E+01 -0.61166384588E+01 -0.18798822969E+02  0.21680040181E+02  0.51100000000E-03 0. -1.
        -11    1    3    3    0    0 -0.11312051998E+02  0.33479556216E+01 -0.68781253208E+01  0.13655765648E+02  0.51100000000E-03 0.  1.
        -12    1    3    3    0    0  0.21632127226E+02  0.86440188717E+01 -0.56309623274E+01  0.23966137096E+02  0.00000000000E+00 0.  1.
</event>
<event>
 7    1  0.1284645E-011  0.5930195E+02  0.7816164E-02  0.1266605E+00
        -11   -1    0    0    0    0  0.00000000000E+00  0.00000000000E+00  0.45593999997E+02  0.45594000000E+02  0.51100000000E-03 0.  1.
         11   -1    0    0    0    0 -0.00000000000E+00 -0.00000000000E+00 -0.45593999997E+02  0.45594000000E+02  0.51100000000E-03 0. -1.
    9900012    2    1    2    0    0  0.10433916340E+02  0.10785181879E+02 -0.28134205540E+02  0.59301948509E+02  0.50000008172E+02 0.  0.
         12    1    1    2    0    0 -0.10433916340E+02 -0.10785181879E+02  0.28134205540E+02  0.31886051491E+02  0.00000000000E+00 0. -1.
         11    1    3    3    0    0  0.57876554288E+00  0.13842803485E+01  0.11121320333E+02  0.11222075024E+02  0.51100000000E-03 0. -1.
        -11    1    3    3    0    0  0.91424885084E+01  0.74253243018E+01 -0.35341023836E+01  0.12296764494E+02  0.51100000000E-03 0.  1.
        -12    1    3    3    0    0  0.71266228825E+00  0.19755772290E+01 -0.35721423489E+02  0.35783108990E+02  0.00000000000E+00 0.  1.
</event>
<event>
 7    1  0.1284645E-011  0.5930195E+02  0.7816164E-02  0.1266605E+00
        -11   -1    0    0    0    0  0.00000000000E+00  0.00000000000E+00  0.45593999997E+02  0.45594000000E+02  0.51100000000E-03 0.  1.
         11   -1    0    0    0    0 -0.00000000000E+00 -0.00000000000E+00 -0.45593999997E+02  0.45594000000E+02  0.51100000000E-03 0. -1.
    9900012    2    1    2    0    0  0.25232556224E+02  0.17952871661E+02  0.75982192199E+01  0.59301946155E+02  0.50000003880E+02 0.  0.
         12    1    1    2    0    0 -0.25232556224E+02 -0.17952871661E+02 -0.75982192199E+01  0.31886053845E+02  0.00000000000E+00 0. -1.
         11    1    3    3    0    0  0.11006665234E+02  0.74806518707E+01  0.10580670713E+02  0.17001688886E+02  0.51100000000E-03 0. -1.
        -11    1    3    3    0    0 -0.54338366932E+01 -0.11194818601E+02  0.20562809261E+01  0.12612645886E+02  0.51100000000E-03 0.  1.
         12    1    3    3    0    0  0.19659727683E+02  0.21667038392E+02 -0.50387324193E+01  0.29687611383E+02  0.00000000000E+00 0. -1.
</event>
<event>
 7    1  0.1284645E-011  0.5930193E+02  0.7816164E-02  0.1266605E+00
        -11   -1    0    0    0    0  0.00000000000E+00  0.00000000000E+00  0.45593999997E+02  0.45594000000E+02  0.51100000000E-03 0. -1.
         11   -1    0    0    0    0 -0.00000000000E+00 -0.00000000000E+00 -0.45593999997E+02  0.45594000000E+02  0.51100000000E-03 0.  1.
    9900012    2    1    2    0    0  0.22944748363E+02  0.19302417050E+02 -0.10847891470E+02  0.59301928891E+02  0.49999972394E+02 0.  0.
         12    1    1    2    0    0 -0.22944748363E+02 -0.19302417050E+02  0.10847891470E+02  0.31886071109E+02  0.00000000000E+00 0. -1.
         11    1    3    3    0    0  0.42158242692E+01 -0.98486634086E+01 -0.15023529249E+02  0.18451985708E+02  0.51100000000E-03 0. -1.
        -11    1    3    3    0    0 -0.25621354473E+01  0.18973098800E+01  0.53698663271E+01  0.62449809818E+01  0.51100000000E-03 0.  1.
        -12    1    3    3    0    0  0.21291059541E+02  0.27253770579E+02 -0.11942285481E+01  0.34604962202E+02  0.00000000000E+00 0.  1.
</event>
<event>
 7    1  0.1284645E-011  0.5930194E+02  0.7816164E-02  0.1266605E+00
        -11   -1    0    0    0    0  0.00000000000E+00  0.00000000000E+00  0.45593999997E+02  0.45594000000E+02  0.51100000000E-03 0. -1.
         11   -1    0    0    0    0 -0.00000000000E+00 -0.00000000000E+00 -0.45593999997E+02  0.45594000000E+02  0.51100000000E-03 0.  1.
    9900012    2    1    2    0    0 -0.28765525379E+02  0.13715469370E+02 -0.10730104771E+01  0.59301938753E+02  0.49999990380E+02 0.  0.
         12    1    1    2    0    0  0.28765525379E+02 -0.13715469370E+02  0.10730104771E+01  0.31886061247E+02  0.00000000000E+00 0. -1.
         11    1    3    3    0    0 -0.48539982576E+01 -0.46592198903E+01 -0.11224459764E+01  0.68212545988E+01  0.51100000000E-03 0. -1.
        -11    1    3    3    0    0 -0.86294706071E+01 -0.14003232068E+02 -0.22593155098E+01  0.16603095439E+02  0.51100000000E-03 0.  1.
        -12    1    3    3    0    0 -0.15282056514E+02  0.32377921328E+02  0.23087510092E+01  0.35877588716E+02  0.00000000000E+00 0.  1.
</event>
<event>
 7    1  0.1284645E-011  0.5930197E+02  0.7816164E-02  0.1266605E+00
        -11   -1    0    0    0    0  0.00000000000E+00  0.00000000000E+00  0.45593999997E+02  0.45594000000E+02  0.51100000000E-03 0.  1.
         11   -1    0    0    0    0 -0.00000000000E+00 -0.00000000000E+00 -0.45593999997E+02  0.45594000000E+02  0.51100000000E-03 0. -1.
    9900012    2    1    2    0    0 -0.30064256670E+02  0.78248926835E+00 -0.10594679033E+02  0.59301967911E+02  0.50000043557E+02 0.  0.
         12    1    1    2    0    0  0.30064256670E+02 -0.78248926835E+00  0.10594679033E+02  0.31886032089E+02  0.00000000000E+00 0. -1.
         11    1    3    3    0    0  0.36195721028E+01 -0.76208371591E+01 -0.46692707169E+01  0.96426422988E+01  0.51100000000E-03 0. -1.
        -11    1    3    3    0    0 -0.77650787367E+01  0.28291304646E+01  0.14162234692E+02  0.16397235093E+02  0.51100000000E-03 0.  1.
        -12    1    3    3    0    0 -0.25918750036E+02  0.55741959629E+01 -0.20087643008E+02  0.33262090519E+02  0.00000000000E+00 0.  1.
</event>
<event>
 7    1  0.1284645E-011  0.5930199E+02  0.7816164E-02  0.1266605E+00
        -11   -1    0    0    0    0  0.00000000000E+00  0.00000000000E+00  0.45593999997E+02  0.45594000000E+02  0.51100000000E-03 0.  1.
         11   -1    0    0    0    0 -0.00000000000E+00 -0.00000000000E+00 -0.45593999997E+02  0.45594000000E+02  0.51100000000E-03 0. -1.
    9900012    2    1    2    0    0  0.11791799343E+02  0.20494576359E+02  0.21392606171E+02  0.59301987539E+02  0.50000079355E+02 0.  0.
         12    1    1    2    0    0 -0.11791799343E+02 -0.20494576359E+02 -0.21392606171E+02  0.31886012461E+02  0.00000000000E+00 0. -1.
         11    1    3    3    0    0 -0.36279992670E+01 -0.69475933422E+01 -0.34324226648E+00  0.78453328447E+01  0.51100000000E-03 0. -1.
        -11    1    3    3    0    0  0.19861498738E+01  0.44606634547E+01 -0.93392936563E+01  0.10538724593E+02  0.51100000000E-03 0.  1.
        -12    1    3    3    0    0  0.13433648736E+02  0.22981506246E+02  0.31075142094E+02  0.40917930102E+02  0.00000000000E+00 0.  1.
</event>
<event>
 7    1  0.1284645E-011  0.5930196E+02  0.7816164E-02  0.1266605E+00
        -11   -1    0    0    0    0  0.00000000000E+00  0.00000000000E+00  0.45593999997E+02  0.45594000000E+02  0.51100000000E-03 0.  1.
         11   -1    0    0    0    0 -0.00000000000E+00 -0.00000000000E+00 -0.45593999997E+02  0.45594000000E+02  0.51100000000E-03 0. -1.
    9900012    2    1    2    0    0 -0.20178483668E+02 -0.10142044980E+02  0.22509714806E+02  0.59301960105E+02  0.50000029321E+02 0.  0.
         12    1    1    2    0    0  0.20178483668E+02  0.10142044980E+02 -0.22509714806E+02  0.31886039895E+02  0.00000000000E+00 0. -1.
         11    1    3    3    0    0 -0.87699039762E+01 -0.59621833073E+01  0.24123960913E+02  0.26351932300E+02  0.51100000000E-03 0. -1.
        -11    1    3    3    0    0 -0.52173791471E+01 -0.81458712463E+01  0.13227268106E+02  0.16387095085E+02  0.51100000000E-03 0.  1.
         12    1    3    3    0    0 -0.61912005451E+01  0.39660095737E+01 -0.14841514213E+02  0.16562932719E+02  0.00000000000E+00 0. -1.
</event>
<event>
 7    1  0.1284645E-011  0.5930197E+02  0.7816164E-02  0.1266605E+00
        -11   -1    0    0    0    0  0.00000000000E+00  0.00000000000E+00  0.45593999997E+02  0.45594000000E+02  0.51100000000E-03 0.  1.
         11   -1    0    0    0    0 -0.00000000000E+00 -0.00000000000E+00 -0.45593999997E+02  0.45594000000E+02  0.51100000000E-03 0. -1.
    9900012    2    1    2    0    0  0.35334778453E+01  0.26831819706E+02  0.16860809342E+02  0.59301970049E+02  0.50000047456E+02 0.  0.
         12    1    1    2    0    0 -0.35334778453E+01 -0.26831819706E+02 -0.16860809342E+02  0.31886029951E+02  0.00000000000E+00 0. -1.
         11    1    3    3    0    0 -0.17485763383E+02  0.19346463889E+01  0.62716817786E+01  0.18676958273E+02  0.51100000000E-03 0. -1.
        -11    1    3    3    0    0  0.30904792493E+01 -0.38979115094E+01 -0.34353773795E+00  0.49862605792E+01  0.51100000000E-03 0.  1.
        -12    1    3    3    0    0  0.17928761979E+02  0.28795084826E+02  0.10932665301E+02  0.35638751196E+02  0.00000000000E+00 0.  1.
</event>
<event>
 7    1  0.1284645E-011  0.5930194E+02  0.7816164E-02  0.1266605E+00
        -11   -1    0    0    0    0  0.00000000000E+00  0.00000000000E+00  0.45593999997E+02  0.45594000000E+02  0.51100000000E-03 0.  1.
         11   -1    0    0    0    0 -0.00000000000E+00 -0.00000000000E+00 -0.45593999997E+02  0.45594000000E+02  0.51100000000E-03 0. -1.
    9900012    2    1    2    0    0  0.27106026345E+01  0.55436740974E+00  0.31765799602E+02  0.59301941695E+02  0.49999995745E+02 0.  0.
         12    1    1    2    0    0 -0.27106026345E+01 -0.55436740974E+00 -0.31765799602E+02  0.31886058305E+02  0.00000000000E+00 0. -1.
         11    1    3    3    0    0  0.94800854991E+01 -0.10766571288E+02  0.61006425676E+01  0.15588743322E+02  0.51100000000E-03 0. -1.
        -11    1    3    3    0    0  0.40256059743E+01  0.18227313546E+02  0.24562485401E+02  0.30850545407E+02  0.51100000000E-03 0.  1.
         12    1    3    3    0    0 -0.10795088839E+02 -0.69063748482E+01  0.11026716333E+01  0.12862652966E+02  0.00000000000E+00 0. -1.
</event>
<event>
 7    1  0.1284645E-011  0.5930194E+02  0.7816164E-02  0.1266605E+00
        -11   -1    0    0    0    0  0.00000000000E+00  0.00000000000E+00  0.45593999997E+02  0.45594000000E+02  0.51100000000E-03 0. -1.
         11   -1    0    0    0    0 -0.00000000000E+00 -0.00000000000E+00 -0.45593999997E+02  0.45594000000E+02  0.51100000000E-03 0.  1.
    9900012    2    1    2    0    0  0.22869013175E+02 -0.20612781966E+02 -0.82971097709E+01  0.59301943885E+02  0.49999999741E+02 0.  0.
         12    1    1    2    0    0 -0.22869013175E+02  0.20612781966E+02  0.82971097709E+01  0.31886056115E+02  0.00000000000E+00 0. -1.
         11    1    3    3    0    0  0.38450223587E+00 -0.11287265916E+02 -0.18234369713E+02  0.21448600255E+02  0.51100000000E-03 0. -1.
        -11    1    3    3    0    0 -0.27266163427E+01 -0.64030879935E+01 -0.48472950730E+01  0.84811698674E+01  0.51100000000E-03 0.  1.
         12    1    3    3    0    0  0.25211127282E+02 -0.29224280574E+01  0.14784555015E+02  0.29372173763E+02  0.00000000000E+00 0. -1.
</event>
<event>
 7    1  0.1284645E-011  0.5930188E+02  0.7816164E-02  0.1266605E+00
        -11   -1    0    0    0    0  0.00000000000E+00  0.00000000000E+00  0.45593999997E+02  0.45594000000E+02  0.51100000000E-03 0.  1.
         11   -1    0    0    0    0 -0.00000000000E+00 -0.00000000000E+00 -0.45593999997E+02  0.45594000000E+02  0.51100000000E-03 0. -1.
    9900012    2    1    2    0    0 -0.14891789463E+02 -0.20565521138E+02 -0.19287781394E+02  0.59301881325E+02  0.49999885645E+02 0.  0.
         12    1    1    2    0    0  0.14891789463E+02  0.20565521138E+02  0.19287781394E+02  0.31886118675E+02  0.00000000000E+00 0. -1.
         11    1    3    3    0    0  0.11061569697E+01  0.82795736209E+01 -0.45694668180E+00  0.83656274790E+01  0.51100000000E-03 0. -1.
        -11    1    3    3    0    0  0.29209115500E+01  0.39616723823E+01  0.43205998431E+01  0.65493629929E+01  0.51100000000E-03 0.  1.
        -12    1    3    3    0    0 -0.18918857983E+02 -0.32806767141E+02 -0.23151434555E+02  0.44386890853E+02  0.00000000000E+00 0.  1.
</event>
<event>
 7    1  0.1284645E-011  0.5930194E+02  0.7816164E-02  0.1266605E+00
        -11   -1    0    0    0    0  0.00000000000E+00  0.00000000000E+00  0.45593999997E+02  0.45594000000E+02  0.51100000000E-03 0. -1.
         11   -1    0    0    0    0 -0.00000000000E+00 -0.00000000000E+00 -0.45593999997E+02  0.45594000000E+02  0.51100000000E-03 0.  1.
    9900012    2    1    2    0    0 -0.31605513611E+02  0.40368345736E+01 -0.12314557101E+01  0.59301937102E+02  0.49999987368E+02 0.  0.
         12    1    1    2    0    0  0.31605513611E+02 -0.40368345736E+01  0.12314557101E+01  0.31886062898E+02  0.00000000000E+00 0. -1.
         11    1    3    3    0    0 -0.10378576897E+02 -0.14707402407E+02 -0.78578410896E+01  0.19640982939E+02  0.51100000000E-03 0. -1.
        -11    1    3    3    0    0 -0.25537116701E+02  0.17088818960E+02 -0.10024302451E+01  0.30743729922E+02  0.51100000000E-03 0.  1.
         12    1    3    3    0    0  0.43101799863E+01  0.16554180203E+01  0.76288156246E+01  0.89172242413E+01  0.00000000000E+00 0. -1.
</event>
<event>
 7    1  0.1284645E-011  0.5930192E+02  0.7816164E-02  0.1266605E+00
        -11   -1    0    0    0    0  0.00000000000E+00  0.00000000000E+00  0.45593999997E+02  0.45594000000E+02  0.51100000000E-03 0. -1.
         11   -1    0    0    0    0 -0.00000000000E+00 -0.00000000000E+00 -0.45593999997E+02  0.45594000000E+02  0.51100000000E-03 0.  1.
    9900012    2    1    2    0    0  0.43419533355E+01 -0.29014988000E+02 -0.12490004715E+02  0.59301916747E+02  0.49999950247E+02 0.  0.
         12    1    1    2    0    0 -0.43419533355E+01  0.29014988000E+02  0.12490004715E+02  0.31886083253E+02  0.00000000000E+00 0. -1.
         11    1    3    3    0    0  0.18275485118E+02 -0.87312714486E+01 -0.15877973153E+02  0.25735937696E+02  0.51100000000E-03 0. -1.
        -11    1    3    3    0    0  0.16290072107E+01 -0.14942643566E+02 -0.39632311422E+01  0.15544885416E+02  0.51100000000E-03 0.  1.
        -12    1    3    3    0    0 -0.15562538993E+02 -0.53410729852E+01  0.73511995801E+01  0.18021093635E+02  0.00000000000E+00 0.  1.
</event>
<event>
 7    1  0.1284645E-011  0.5930196E+02  0.7816164E-02  0.1266605E+00
        -11   -1    0    0    0    0  0.00000000000E+00  0.00000000000E+00  0.45593999997E+02  0.45594000000E+02  0.51100000000E-03 0. -1.
         11   -1    0    0    0    0 -0.00000000000E+00 -0.00000000000E+00 -0.45593999997E+02  0.45594000000E+02  0.51100000000E-03 0.  1.
    9900012    2    1    2    0    0 -0.31282689703E+02  0.15766092589E+01  0.59688673620E+01  0.59301956824E+02  0.50000023337E+02 0.  0.
         12    1    1    2    0    0  0.31282689703E+02 -0.15766092589E+01 -0.59688673620E+01  0.31886043176E+02  0.00000000000E+00 0. -1.
         11    1    3    3    0    0  0.35274190632E+01  0.28345526433E+01 -0.12617407629E+02  0.13404340696E+02  0.51100000000E-03 0. -1.
        -11    1    3    3    0    0 -0.18268343317E+02 -0.33509549904E+01 -0.27964342931E+01  0.18782473530E+02  0.51100000000E-03 0.  1.
         12    1    3    3    0    0 -0.16541765450E+02  0.20930116060E+01  0.21382709285E+02  0.27115142598E+02  0.00000000000E+00 0. -1.
</event>
<event>
 7    1  0.1284645E-011  0.5930191E+02  0.7816164E-02  0.1266605E+00
        -11   -1    0    0    0    0  0.00000000000E+00  0.00000000000E+00  0.45593999997E+02  0.45594000000E+02  0.51100000000E-03 0. -1.
         11   -1    0    0    0    0 -0.00000000000E+00 -0.00000000000E+00 -0.45593999997E+02  0.45594000000E+02  0.51100000000E-03 0.  1.
    9900012    2    1    2    0    0  0.12647938527E+01  0.30875080304E+02  0.78646265394E+01  0.59301911531E+02  0.49999940733E+02 0.  0.
         12    1    1    2    0    0 -0.12647938527E+01 -0.30875080304E+02 -0.78646265394E+01  0.31886088469E+02  0.00000000000E+00 0. -1.
         11    1    3    3    0    0 -0.33280174808E+01  0.16976709471E+02 -0.16768177814E+01  0.17380911454E+02  0.51100000000E-03 0. -1.
        -11    1    3    3    0    0 -0.16240129323E+02  0.95360126791E+00  0.30803742523E+01  0.16557169493E+02  0.51100000000E-03 0.  1.
         12    1    3    3    0    0  0.20832940657E+02  0.12944769565E+02  0.64610700685E+01  0.25363830584E+02  0.00000000000E+00 0. -1.
</event>
<event>
 7    1  0.1284645E-011  0.5930196E+02  0.7816164E-02  0.1266605E+00
        -11   -1    0    0    0    0  0.00000000000E+00  0.00000000000E+00  0.45593999997E+02  0.45594000000E+02  0.51100000000E-03 0.  1.
         11   -1    0    0    0    0 -0.00000000000E+00 -0.00000000000E+00 -0.45593999997E+02  0.45594000000E+02  0.51100000000E-03 0. -1.
    9900012    2    1    2    0    0  0.16824048749E+02  0.12854272030E+02  0.23841944433E+02  0.59301964811E+02  0.50000037904E+02 0.  0.
         12    1    1    2    0    0 -0.16824048749E+02 -0.12854272030E+02 -0.23841944433E+02  0.31886035189E+02  0.00000000000E+00 0. -1.
         11    1    3    3    0    0  0.55837379028E+01 -0.10179809739E+02 -0.92839260218E+01  0.14865999392E+02  0.51100000000E-03 0. -1.
        -11    1    3    3    0    0  0.45490948095E+01 -0.32316929469E+00  0.95402312852E+01  0.10574247738E+02  0.51100000000E-03 0.  1.
        -12    1    3    3    0    0  0.66912160366E+01  0.23357251064E+02  0.23585639170E+02  0.33861717681E+02  0.00000000000E+00 0.  1.
</event>
<event>
 7    1  0.1284645E-011  0.5930194E+02  0.7816164E-02  0.1266605E+00
        -11   -1    0    0    0    0  0.00000000000E+00  0.00000000000E+00  0.45593999997E+02  0.45594000000E+02  0.51100000000E-03 0.  1.
         11   -1    0    0    0    0 -0.00000000000E+00 -0.00000000000E+00 -0.45593999997E+02  0.45594000000E+02  0.51100000000E-03 0. -1.
    9900012    2    1    2    0    0 -0.29373060541E+02  0.97032426304E+01  0.77324834615E+01  0.59301938726E+02  0.49999990330E+02 0.  0.
         12    1    1    2    0    0  0.29373060541E+02 -0.97032426304E+01 -0.77324834615E+01  0.31886061274E+02  0.00000000000E+00 0. -1.
         11    1    3    3    0    0  0.23319732335E+00 -0.37272244523E+01 -0.41531133738E+01  0.55852425253E+01  0.51100000000E-03 0. -1.
        -11    1    3    3    0    0 -0.33359208618E+02  0.54292424039E+01 -0.54724963012E+01  0.34238307328E+02  0.51100000000E-03 0.  1.
         12    1    3    3    0    0  0.37529507528E+01  0.80012246788E+01  0.17358093137E+02  0.19478388872E+02  0.00000000000E+00 0. -1.
</event>
<event>
 7    1  0.1284645E-011  0.5930192E+02  0.7816164E-02  0.1266605E+00
        -11   -1    0    0    0    0  0.00000000000E+00  0.00000000000E+00  0.45593999997E+02  0.45594000000E+02  0.51100000000E-03 0. -1.
         11   -1    0    0    0    0 -0.00000000000E+00 -0.00000000000E+00 -0.45593999997E+02  0.45594000000E+02  0.51100000000E-03 0.  1.
    9900012    2    1    2    0    0  0.15341939741E+02  0.19562749203E+02 -0.19966121653E+02  0.59301917060E+02  0.49999950817E+02 0.  0.
         12    1    1    2    0    0 -0.15341939741E+02 -0.19562749203E+02  0.19966121653E+02  0.31886082940E+02  0.00000000000E+00 0. -1.
         11    1    3    3    0    0 -0.19147251058E+01  0.44015775953E+01 -0.45659785292E+00  0.48216739229E+01  0.51100000000E-03 0. -1.
        -11    1    3    3    0    0  0.17239619516E+02  0.30570679798E+02 -0.16490927494E+02  0.38777849789E+02  0.51100000000E-03 0.  1.
         12    1    3    3    0    0  0.17045330423E-01 -0.15409508190E+02 -0.30185963062E+01  0.15702393348E+02  0.00000000000E+00 0. -1.
</event>
<event>
 7    1  0.1284645E-011  0.5930193E+02  0.7816164E-02  0.1266605E+00
        -11   -1    0    0    0    0  0.00000000000E+00  0.00000000000E+00  0.45593999997E+02  0.45594000000E+02  0.51100000000E-03 0.  1.
         11   -1    0    0    0    0 -0.00000000000E+00 -0.00000000000E+00 -0.45593999997E+02  0.45594000000E+02  0.51100000000E-03 0. -1.
    9900012    2    1    2    0    0 -0.30424850686E+02 -0.78044087135E+01 -0.54900843427E+01  0.59301931557E+02  0.49999977256E+02 0.  0.
         12    1    1    2    0    0  0.30424850686E+02  0.78044087135E+01  0.54900843427E+01  0.31886068443E+02  0.00000000000E+00 0. -1.
         11    1    3    3    0    0  0.37591588380E+01  0.12784689501E+01 -0.50159681266E+01  0.63973193241E+01  0.51100000000E-03 0. -1.
        -11    1    3    3    0    0 -0.56531048579E+01 -0.75519597183E+01  0.16979116284E+02  0.19423698931E+02  0.51100000000E-03 0.  1.
        -12    1    3    3    0    0 -0.28530904667E+02 -0.15309179452E+01 -0.17453232500E+02  0.33480913302E+02  0.00000000000E+00 0.  1.
</event>
<event>
 7    1  0.1284645E-011  0.5930193E+02  0.7816164E-02  0.1266605E+00
        -11   -1    0    0    0    0  0.00000000000E+00  0.00000000000E+00  0.45593999997E+02  0.45594000000E+02  0.51100000000E-03 0. -1.
         11   -1    0    0    0    0 -0.00000000000E+00 -0.00000000000E+00 -0.45593999997E+02  0.45594000000E+02  0.51100000000E-03 0.  1.
    9900012    2    1    2    0    0 -0.21170850741E+02  0.22312802100E+02 -0.84056732176E+01  0.59301930928E+02  0.49999976108E+02 0.  0.
         12    1    1    2    0    0  0.21170850741E+02 -0.22312802100E+02  0.84056732176E+01  0.31886069072E+02  0.00000000000E+00 0. -1.
         11    1    3    3    0    0 -0.21597746084E+02 -0.93238406831E+01 -0.56840926262E+01  0.24201354306E+02  0.51100000000E-03 0. -1.
        -11    1    3    3    0    0 -0.41840989773E+01  0.10812358967E+02 -0.67198609178E+01  0.13400385132E+02  0.51100000000E-03 0.  1.
        -12    1    3    3    0    0  0.46109943206E+01  0.20824283817E+02  0.39982803264E+01  0.21700191489E+02  0.00000000000E+00 0.  1.
</event>
<event>
 7    1  0.1284645E-011  0.5930194E+02  0.7816164E-02  0.1266605E+00
        -11   -1    0    0    0    0  0.00000000000E+00  0.00000000000E+00  0.45593999997E+02  0.45594000000E+02  0.51100000000E-03 0.  1.
         11   -1    0    0    0    0 -0.00000000000E+00 -0.00000000000E+00 -0.45593999997E+02  0.45594000000E+02  0.51100000000E-03 0. -1.
    9900012    2    1    2    0    0 -0.41463584251E+01 -0.17019232413E+02  0.26643460697E+02  0.59301944144E+02  0.50000000213E+02 0.  0.
         12    1    1    2    0    0  0.41463584251E+01  0.17019232413E+02 -0.26643460697E+02  0.31886055856E+02  0.00000000000E+00 0. -1.
         11    1    3    3    0    0  0.12704510924E+02  0.21303211719E+00  0.31231756293E+00  0.12710134658E+02  0.51100000000E-03 0. -1.
        -11    1    3    3    0    0 -0.18603527623E+01 -0.22091485621E+02  0.11604018926E+02  0.25022947565E+02  0.51100000000E-03 0.  1.
         12    1    3    3    0    0 -0.14990516587E+02  0.48592210907E+01  0.14727124208E+02  0.21568861921E+02  0.00000000000E+00 0. -1.
</event>
<event>
 7    1  0.1284645E-011  0.5930194E+02  0.7816164E-02  0.1266605E+00
        -11   -1    0    0    0    0  0.00000000000E+00  0.00000000000E+00  0.45593999997E+02  0.45594000000E+02  0.51100000000E-03 0.  1.
         11   -1    0    0    0    0 -0.00000000000E+00 -0.00000000000E+00 -0.45593999997E+02  0.45594000000E+02  0.51100000000E-03 0. -1.
    9900012    2    1    2    0    0 -0.13487772107E+02  0.28159066073E+02  0.64705355444E+01  0.59301939900E+02  0.49999992471E+02 0.  0.
         12    1    1    2    0    0  0.13487772107E+02 -0.28159066073E+02 -0.64705355444E+01  0.31886060100E+02  0.00000000000E+00 0. -1.
         11    1    3    3    0    0  0.19018326586E+01  0.13904779601E+02  0.11666970490E+02  0.18250426403E+02  0.51100000000E-03 0. -1.
        -11    1    3    3    0    0  0.10921779371E+02  0.83690226807E+01 -0.16995235746E+01  0.13864133075E+02  0.51100000000E-03 0.  1.
         12    1    3    3    0    0 -0.26311384137E+02  0.58852637914E+01 -0.34969113708E+01  0.27187380422E+02  0.00000000000E+00 0. -1.
</event>
<event>
 7    1  0.1284645E-011  0.5930193E+02  0.7816164E-02  0.1266605E+00
        -11   -1    0    0    0    0  0.00000000000E+00  0.00000000000E+00  0.45593999997E+02  0.45594000000E+02  0.51100000000E-03 0.  1.
         11   -1    0    0    0    0 -0.00000000000E+00 -0.00000000000E+00 -0.45593999997E+02  0.45594000000E+02  0.51100000000E-03 0. -1.
    9900012    2    1    2    0    0  0.31179040552E+02 -0.45582893053E+01  0.48796539330E+01  0.59301927905E+02  0.49999970597E+02 0.  0.
         12    1    1    2    0    0 -0.31179040552E+02  0.45582893053E+01 -0.48796539330E+01  0.31886072095E+02  0.00000000000E+00 0. -1.
         11    1    3    3    0    0  0.29986613195E+02  0.55863320085E+01  0.10765181359E+02  0.32346455852E+02  0.51100000000E-03 0. -1.
        -11    1    3    3    0    0  0.12206421239E+02 -0.68705515932E+01  0.83073308813E-01  0.14007430174E+02  0.51100000000E-03 0.  1.
         12    1    3    3    0    0 -0.11013993882E+02 -0.32740697206E+01 -0.59686007345E+01  0.12948041879E+02  0.00000000000E+00 0. -1.
</event>
<event>
 7    1  0.1284645E-011  0.5930198E+02  0.7816164E-02  0.1266605E+00
        -11   -1    0    0    0    0  0.00000000000E+00  0.00000000000E+00  0.45593999997E+02  0.45594000000E+02  0.51100000000E-03 0.  1.
         11   -1    0    0    0    0 -0.00000000000E+00 -0.00000000000E+00 -0.45593999997E+02  0.45594000000E+02  0.51100000000E-03 0. -1.
    9900012    2    1    2    0    0 -0.21829436944E+02 -0.12520211623E+02  0.19581587247E+02  0.59301975232E+02  0.50000056909E+02 0.  0.
         12    1    1    2    0    0  0.21829436944E+02  0.12520211623E+02 -0.19581587247E+02  0.31886024768E+02  0.00000000000E+00 0. -1.
         11    1    3    3    0    0 -0.13537054169E+02 -0.13637090439E+02 -0.87774061702E+00  0.19235189109E+02  0.51100000000E-03 0.  1.
        -11    1    3    3    0    0 -0.36738028171E+01 -0.88401921829E+00 -0.92196869428E+01  0.99639823716E+01  0.51100000000E-03 0. -1.
         12    1    3    3    0    0 -0.46185799579E+01  0.20008980344E+01  0.29679014807E+02  0.30102803751E+02  0.00000000000E+00 0. -1.
</event>
<event>
 7    1  0.1284645E-011  0.5930201E+02  0.7816164E-02  0.1266605E+00
        -11   -1    0    0    0    0  0.00000000000E+00  0.00000000000E+00  0.45593999997E+02  0.45594000000E+02  0.51100000000E-03 0.  1.
         11   -1    0    0    0    0 -0.00000000000E+00 -0.00000000000E+00 -0.45593999997E+02  0.45594000000E+02  0.51100000000E-03 0. -1.
    9900012    2    1    2    0    0  0.17881762269E+02  0.13092977051E+02  0.22924507168E+02  0.59302007796E+02  0.50000116298E+02 0.  0.
         12    1    1    2    0    0 -0.17881762269E+02 -0.13092977051E+02 -0.22924507168E+02  0.31885992204E+02  0.00000000000E+00 0. -1.
         11    1    3    3    0    0 -0.21424611749E+01  0.46743453003E+01 -0.40923596677E+01  0.65716856121E+01  0.51100000000E-03 0. -1.
        -11    1    3    3    0    0 -0.10297093632E+02  0.90646606237E+01  0.29961789956E+01  0.14041912203E+02  0.51100000000E-03 0.  1.
        -12    1    3    3    0    0  0.30321317076E+02 -0.64602887322E+00  0.24020687841E+02  0.38688409981E+02  0.00000000000E+00 0.  1.
</event>
<event>
 7    1  0.1284645E-011  0.5930195E+02  0.7816164E-02  0.1266605E+00
        -11   -1    0    0    0    0  0.00000000000E+00  0.00000000000E+00  0.45593999997E+02  0.45594000000E+02  0.51100000000E-03 0.  1.
         11   -1    0    0    0    0 -0.00000000000E+00 -0.00000000000E+00 -0.45593999997E+02  0.45594000000E+02  0.51100000000E-03 0. -1.
    9900012    2    1    2    0    0 -0.19977046592E+02  0.24472522655E+02 -0.43282337863E+01  0.59301947197E+02  0.50000005781E+02 0.  0.
         12    1    1    2    0    0  0.19977046592E+02 -0.24472522655E+02  0.43282337863E+01  0.31886052803E+02  0.00000000000E+00 0. -1.
         11    1    3    3    0    0 -0.13697428346E+02  0.93237094951E+01 -0.10857455820E+02  0.19809983574E+02  0.51100000000E-03 0. -1.
        -11    1    3    3    0    0  0.87007171027E+01  0.46471759480E+01 -0.10564896255E+02  0.14453918345E+02  0.51100000000E-03 0.  1.
         12    1    3    3    0    0 -0.14980335348E+02  0.10501637212E+02  0.17094118289E+02  0.25038045278E+02  0.00000000000E+00 0. -1.
</event>
<event>
 7    1  0.1284645E-011  0.5930193E+02  0.7816164E-02  0.1266605E+00
        -11   -1    0    0    0    0  0.00000000000E+00  0.00000000000E+00  0.45593999997E+02  0.45594000000E+02  0.51100000000E-03 0. -1.
         11   -1    0    0    0    0 -0.00000000000E+00 -0.00000000000E+00 -0.45593999997E+02  0.45594000000E+02  0.51100000000E-03 0.  1.
    9900012    2    1    2    0    0  0.31473359646E+02 -0.50584824620E+01 -0.74870234305E+00  0.59301934589E+02  0.49999982785E+02 0.  0.
         12    1    1    2    0    0 -0.31473359646E+02  0.50584824620E+01  0.74870234305E+00  0.31886065411E+02  0.00000000000E+00 0. -1.
         11    1    3    3    0    0 -0.33075058515E+01  0.11445031473E+02  0.86937861175E+01  0.14748228968E+02  0.51100000000E-03 0. -1.
        -11    1    3    3    0    0  0.44235560678E+01 -0.81575267615E+01  0.42681009125E+01  0.10214194868E+02  0.51100000000E-03 0.  1.
        -12    1    3    3    0    0  0.30357309430E+02 -0.83459871738E+01 -0.13710589373E+02  0.34339510752E+02  0.00000000000E+00 0.  1.
</event>
<event>
 7    1  0.1284645E-011  0.5930199E+02  0.7816164E-02  0.1266605E+00
        -11   -1    0    0    0    0  0.00000000000E+00  0.00000000000E+00  0.45593999997E+02  0.45594000000E+02  0.51100000000E-03 0. -1.
         11   -1    0    0    0    0 -0.00000000000E+00 -0.00000000000E+00 -0.45593999997E+02  0.45594000000E+02  0.51100000000E-03 0.  1.
    9900012    2    1    2    0    0  0.80042557112E+01 -0.13379226283E+01 -0.30836005016E+02  0.59301994421E+02  0.50000091905E+02 0.  0.
         12    1    1    2    0    0 -0.80042557112E+01  0.13379226283E+01  0.30836005016E+02  0.31886005579E+02  0.00000000000E+00 0. -1.
         11    1    3    3    0    0 -0.46134742140E+01  0.31484680170E+01  0.95756934941E+01  0.11085616867E+02  0.51100000000E-03 0. -1.
        -11    1    3    3    0    0  0.12916857874E+01  0.86137671221E+01 -0.10388265038E+02  0.13556603076E+02  0.51100000000E-03 0.  1.
         12    1    3    3    0    0  0.11326044138E+02 -0.13100157767E+02 -0.30023433472E+02  0.34659774477E+02  0.00000000000E+00 0. -1.
</event>
<event>
 7    1  0.1284645E-011  0.5930193E+02  0.7816164E-02  0.1266605E+00
        -11   -1    0    0    0    0  0.00000000000E+00  0.00000000000E+00  0.45593999997E+02  0.45594000000E+02  0.51100000000E-03 0. -1.
         11   -1    0    0    0    0 -0.00000000000E+00 -0.00000000000E+00 -0.45593999997E+02  0.45594000000E+02  0.51100000000E-03 0.  1.
    9900012    2    1    2    0    0 -0.25335460204E+02  0.15974052134E+02 -0.10939177050E+02  0.59301929689E+02  0.49999973849E+02 0.  0.
         12    1    1    2    0    0  0.25335460204E+02 -0.15974052134E+02  0.10939177050E+02  0.31886070311E+02  0.00000000000E+00 0. -1.
         11    1    3    3    0    0  0.35412242715E+01  0.14733772761E+01 -0.33971616225E+01  0.51236527292E+01  0.51100000000E-03 0. -1.
        -11    1    3    3    0    0 -0.19466656089E+02 -0.21873379467E+01 -0.22528972437E+02  0.29854476146E+02  0.51100000000E-03 0.  1.
        -12    1    3    3    0    0 -0.94100283864E+01  0.16688012805E+02  0.14986957010E+02  0.24323800814E+02  0.00000000000E+00 0.  1.
</event>
<event>
 7    1  0.1284645E-011  0.5930195E+02  0.7816164E-02  0.1266605E+00
        -11   -1    0    0    0    0  0.00000000000E+00  0.00000000000E+00  0.45593999997E+02  0.45594000000E+02  0.51100000000E-03 0.  1.
         11   -1    0    0    0    0 -0.00000000000E+00 -0.00000000000E+00 -0.45593999997E+02  0.45594000000E+02  0.51100000000E-03 0. -1.
    9900012    2    1    2    0    0  0.26307362114E+02  0.14132389745E+02  0.11176680618E+02  0.59301953978E+02  0.50000018146E+02 0.  0.
         12    1    1    2    0    0 -0.26307362114E+02 -0.14132389745E+02 -0.11176680618E+02  0.31886046022E+02  0.00000000000E+00 0. -1.
         11    1    3    3    0    0  0.14282278799E+02  0.18813111928E+02  0.12876575474E+02  0.26902097768E+02  0.51100000000E-03 0. -1.
        -11    1    3    3    0    0  0.51907646266E+01  0.10689555284E+02  0.66530585005E+01  0.13618877239E+02  0.51100000000E-03 0.  1.
         12    1    3    3    0    0  0.68343186878E+01 -0.15370277467E+02 -0.83529533561E+01  0.18780978971E+02  0.00000000000E+00 0. -1.
</event>
<event>
 7    1  0.1284645E-011  0.5930194E+02  0.7816164E-02  0.1266605E+00
        -11   -1    0    0    0    0  0.00000000000E+00  0.00000000000E+00  0.45593999997E+02  0.45594000000E+02  0.51100000000E-03 0.  1.
         11   -1    0    0    0    0 -0.00000000000E+00 -0.00000000000E+00 -0.45593999997E+02  0.45594000000E+02  0.51100000000E-03 0. -1.
    9900012    2    1    2    0    0 -0.48525089168E+01  0.51593187374E+01  0.31089470625E+02  0.59301943543E+02  0.49999999117E+02 0.  0.
         12    1    1    2    0    0  0.48525089168E+01 -0.51593187374E+01 -0.31089470625E+02  0.31886056457E+02  0.00000000000E+00 0. -1.
         11    1    3    3    0    0  0.13100921210E+02  0.10094907140E+02  0.22345297079E+02  0.27800244397E+02  0.51100000000E-03 0. -1.
        -11    1    3    3    0    0 -0.75755745115E+00 -0.76162985213E+01 -0.51558836341E+01  0.92284902756E+01  0.51100000000E-03 0.  1.
        -12    1    3    3    0    0 -0.17195872675E+02  0.26807101188E+01  0.13900057180E+02  0.22273208871E+02  0.00000000000E+00 0.  1.
</event>
<event>
 7    1  0.1284645E-011  0.5930195E+02  0.7816164E-02  0.1266605E+00
        -11   -1    0    0    0    0  0.00000000000E+00  0.00000000000E+00  0.45593999997E+02  0.45594000000E+02  0.51100000000E-03 0. -1.
         11   -1    0    0    0    0 -0.00000000000E+00 -0.00000000000E+00 -0.45593999997E+02  0.45594000000E+02  0.51100000000E-03 0.  1.
    9900012    2    1    2    0    0  0.25983113692E+02 -0.18460944499E+02 -0.88957815611E+00  0.59301952609E+02  0.50000015650E+02 0.  0.
         12    1    1    2    0    0 -0.25983113692E+02  0.18460944499E+02  0.88957815611E+00  0.31886047391E+02  0.00000000000E+00 0. -1.
         11    1    3    3    0    0  0.11292245015E+02  0.41202667180E+01 -0.34492052269E+00  0.12025405013E+02  0.51100000000E-03 0.  1.
        -11    1    3    3    0    0  0.30186851509E+01 -0.25389471383E+02  0.13407458948E+02  0.28870359763E+02  0.51100000000E-03 0. -1.
         12    1    3    3    0    0  0.11672183526E+02  0.28082601659E+01 -0.13952116581E+02  0.18406187832E+02  0.00000000000E+00 0. -1.
</event>
<event>
 7    1  0.1284645E-011  0.5930179E+02  0.7816164E-02  0.1266605E+00
        -11   -1    0    0    0    0  0.00000000000E+00  0.00000000000E+00  0.45593999997E+02  0.45594000000E+02  0.51100000000E-03 0.  1.
         11   -1    0    0    0    0 -0.00000000000E+00 -0.00000000000E+00 -0.45593999997E+02  0.45594000000E+02  0.51100000000E-03 0. -1.
    9900012    2    1    2    0    0 -0.15172458299E+02 -0.16421015160E+02  0.22734934026E+02  0.59301788953E+02  0.49999717181E+02 0.  0.
         12    1    1    2    0    0  0.15172458299E+02  0.16421015160E+02 -0.22734934026E+02  0.31886211047E+02  0.00000000000E+00 0. -1.
         11    1    3    3    0    0 -0.19748740966E+02 -0.91308982552E+01  0.19576846865E+02  0.29268396029E+02  0.51100000000E-03 0. -1.
        -11    1    3    3    0    0 -0.31575766337E+01 -0.17090697853E+02  0.20257832553E+01  0.17497601017E+02  0.51100000000E-03 0.  1.
         12    1    3    3    0    0  0.77338593002E+01  0.98005809483E+01  0.11323039055E+01  0.12535791907E+02  0.00000000000E+00 0. -1.
</event>
<event>
 7    1  0.1284645E-011  0.5930194E+02  0.7816164E-02  0.1266605E+00
        -11   -1    0    0    0    0  0.00000000000E+00  0.00000000000E+00  0.45593999997E+02  0.45594000000E+02  0.51100000000E-03 0.  1.
         11   -1    0    0    0    0 -0.00000000000E+00 -0.00000000000E+00 -0.45593999997E+02  0.45594000000E+02  0.51100000000E-03 0. -1.
    9900012    2    1    2    0    0  0.29453216061E+02  0.15486414090E+01  0.12117379168E+02  0.59301935576E+02  0.49999984587E+02 0.  0.
         12    1    1    2    0    0 -0.29453216061E+02 -0.15486414090E+01 -0.12117379168E+02  0.31886064424E+02  0.00000000000E+00 0. -1.
         11    1    3    3    0    0  0.11132898148E+02  0.63638735280E+01 -0.30937970719E+01  0.13191356566E+02  0.51100000000E-03 0. -1.
        -11    1    3    3    0    0  0.26869843712E+02 -0.93394988966E+01  0.43512493384E+00  0.28450027675E+02  0.51100000000E-03 0.  1.
        -12    1    3    3    0    0 -0.85495257997E+01  0.45242667775E+01  0.14776051306E+02  0.17660551335E+02  0.00000000000E+00 0.  1.
</event>
<event>
 7    1  0.1284645E-011  0.5930193E+02  0.7816164E-02  0.1266605E+00
        -11   -1    0    0    0    0  0.00000000000E+00  0.00000000000E+00  0.45593999997E+02  0.45594000000E+02  0.51100000000E-03 0.  1.
         11   -1    0    0    0    0 -0.00000000000E+00 -0.00000000000E+00 -0.45593999997E+02  0.45594000000E+02  0.51100000000E-03 0. -1.
    9900012    2    1    2    0    0  0.29306486834E+02 -0.47906448563E+01  0.11614685028E+02  0.59301931616E+02  0.49999977364E+02 0.  0.
         12    1    1    2    0    0 -0.29306486834E+02  0.47906448563E+01 -0.11614685028E+02  0.31886068384E+02  0.00000000000E+00 0. -1.
         11    1    3    3    0    0  0.64727089589E+01 -0.10439484743E+02 -0.69542058616E+01  0.14115232283E+02  0.51100000000E-03 0. -1.
        -11    1    3    3    0    0 -0.65263867028E+01  0.87041863939E+01  0.12202579410E+01  0.10947402152E+02  0.51100000000E-03 0.  1.
        -12    1    3    3    0    0  0.29360164578E+02 -0.30553465073E+01  0.17348632949E+02  0.34239297182E+02  0.00000000000E+00 0.  1.
</event>
<event>
 7    1  0.1284645E-011  0.5930194E+02  0.7816164E-02  0.1266605E+00
        -11   -1    0    0    0    0  0.00000000000E+00  0.00000000000E+00  0.45593999997E+02  0.45594000000E+02  0.51100000000E-03 0. -1.
         11   -1    0    0    0    0 -0.00000000000E+00 -0.00000000000E+00 -0.45593999997E+02  0.45594000000E+02  0.51100000000E-03 0.  1.
    9900012    2    1    2    0    0  0.30276422706E+02 -0.23327918334E+01 -0.97271453939E+01  0.59301936475E+02  0.49999986226E+02 0.  0.
         12    1    1    2    0    0 -0.30276422706E+02  0.23327918334E+01  0.97271453939E+01  0.31886063525E+02  0.00000000000E+00 0. -1.
         11    1    3    3    0    0  0.33214675629E+01  0.71157587676E+01  0.19111344243E+01  0.80819926168E+01  0.51100000000E-03 0. -1.
        -11    1    3    3    0    0  0.18496899633E+02  0.13427362329E+02  0.25585263202E+01  0.22999465480E+02  0.51100000000E-03 0.  1.
        -12    1    3    3    0    0  0.84580555098E+01 -0.22875912930E+02 -0.14196806138E+02  0.28220478379E+02  0.00000000000E+00 0.  1.
</event>
<event>
 7    1  0.1284645E-011  0.5930193E+02  0.7816164E-02  0.1266605E+00
        -11   -1    0    0    0    0  0.00000000000E+00  0.00000000000E+00  0.45593999997E+02  0.45594000000E+02  0.51100000000E-03 0.  1.
         11   -1    0    0    0    0 -0.00000000000E+00 -0.00000000000E+00 -0.45593999997E+02  0.45594000000E+02  0.51100000000E-03 0. -1.
    9900012    2    1    2    0    0  0.12046041081E+02  0.20899535681E+02  0.20852435489E+02  0.59301925246E+02  0.49999965747E+02 0.  0.
         12    1    1    2    0    0 -0.12046041081E+02 -0.20899535681E+02 -0.20852435489E+02  0.31886074754E+02  0.00000000000E+00 0. -1.
         11    1    3    3    0    0  0.10218472256E+02 -0.91562470958E+01  0.30769871685E+01  0.14061361471E+02  0.51100000000E-03 0. -1.
        -11    1    3    3    0    0  0.12199195196E+02  0.69134225885E+01 -0.41984011621E+00  0.14028258670E+02  0.51100000000E-03 0.  1.
        -12    1    3    3    0    0 -0.10371626372E+02  0.23142360188E+02  0.18195288436E+02  0.31212305105E+02  0.00000000000E+00 0.  1.
</event>
<event>
 7    1  0.1284645E-011  0.5930181E+02  0.7816164E-02  0.1266605E+00
        -11   -1    0    0    0    0  0.00000000000E+00  0.00000000000E+00  0.45593999997E+02  0.45594000000E+02  0.51100000000E-03 0. -1.
         11   -1    0    0    0    0 -0.00000000000E+00 -0.00000000000E+00 -0.45593999997E+02  0.45594000000E+02  0.51100000000E-03 0.  1.
    9900012    2    1    2    0    0 -0.27065745780E+02 -0.14100304896E+02 -0.92388187706E+01  0.59301812315E+02  0.49999759788E+02 0.  0.
         12    1    1    2    0    0  0.27065745780E+02  0.14100304896E+02  0.92388187706E+01  0.31886187685E+02  0.00000000000E+00 0. -1.
         11    1    3    3    0    0 -0.12162875776E+02 -0.13584949149E+02 -0.62013746080E+01  0.19259891947E+02  0.51100000000E-03 0. -1.
        -11    1    3    3    0    0 -0.25502131569E+02 -0.39635733061E+01  0.50154808946E+01  0.26291133044E+02  0.51100000000E-03 0.  1.
        -12    1    3    3    0    0  0.10599261564E+02  0.34482175597E+01 -0.80529250572E+01  0.13750787324E+02  0.00000000000E+00 0.  1.
</event>
<event>
 7    1  0.1284645E-011  0.5930196E+02  0.7816164E-02  0.1266605E+00
        -11   -1    0    0    0    0  0.00000000000E+00  0.00000000000E+00  0.45593999997E+02  0.45594000000E+02  0.51100000000E-03 0.  1.
         11   -1    0    0    0    0 -0.00000000000E+00 -0.00000000000E+00 -0.45593999997E+02  0.45594000000E+02  0.51100000000E-03 0. -1.
    9900012    2    1    2    0    0 -0.11661890878E+02  0.14306886846E+02  0.26000633456E+02  0.59301958380E+02  0.50000026176E+02 0.  0.
         12    1    1    2    0    0  0.11661890878E+02 -0.14306886846E+02 -0.26000633456E+02  0.31886041620E+02  0.00000000000E+00 0. -1.
         11    1    3    3    0    0 -0.20671097857E+02  0.13110387857E+02  0.79551240926E+01  0.25738309112E+02  0.51100000000E-03 0. -1.
        -11    1    3    3    0    0 -0.18621731864E+01 -0.10573447637E+02  0.20627509197E+01  0.10932539756E+02  0.51100000000E-03 0.  1.
         12    1    3    3    0    0  0.10871380165E+02  0.11769946626E+02  0.15982758443E+02  0.22631109511E+02  0.00000000000E+00 0. -1.
</event>
<event>
 7    1  0.1284645E-011  0.5930191E+02  0.7816164E-02  0.1266605E+00
        -11   -1    0    0    0    0  0.00000000000E+00  0.00000000000E+00  0.45593999997E+02  0.45594000000E+02  0.51100000000E-03 0.  1.
         11   -1    0    0    0    0 -0.00000000000E+00 -0.00000000000E+00 -0.45593999997E+02  0.45594000000E+02  0.51100000000E-03 0. -1.
    9900012    2    1    2    0    0 -0.29339094960E+02  0.10830619743E+02  0.62159600879E+01  0.59301906215E+02  0.49999931038E+02 0.  0.
         12    1    1    2    0    0  0.29339094960E+02 -0.10830619743E+02 -0.62159600879E+01  0.31886093785E+02  0.00000000000E+00 0. -1.
         11    1    3    3    0    0 -0.27963711637E+02  0.23814993250E+02  0.18092278547E+02  0.40944518746E+02  0.51100000000E-03 0.  1.
        -11    1    3    3    0    0 -0.96212758778E+00 -0.59142485486E+01 -0.22368126289E+01  0.63958858955E+01  0.51100000000E-03 0. -1.
        -12    1    3    3    0    0 -0.41325573497E+00 -0.70701249592E+01 -0.96395058304E+01  0.11961501574E+02  0.00000000000E+00 0.  1.
</event>
<event>
 7    1  0.1284645E-011  0.5930204E+02  0.7816164E-02  0.1266604E+00
        -11   -1    0    0    0    0  0.00000000000E+00  0.00000000000E+00  0.45593999997E+02  0.45594000000E+02  0.51100000000E-03 0. -1.
         11   -1    0    0    0    0 -0.00000000000E+00 -0.00000000000E+00 -0.45593999997E+02  0.45594000000E+02  0.51100000000E-03 0.  1.
    9900012    2    1    2    0    0  0.24709243089E+01 -0.20121013617E+02 -0.24612071112E+02  0.59302035998E+02  0.50000167731E+02 0.  0.
         12    1    1    2    0    0 -0.24709243089E+01  0.20121013617E+02  0.24612071112E+02  0.31885964002E+02  0.00000000000E+00 0. -1.
         11    1    3    3    0    0 -0.55904631425E+01  0.83856861265E+01  0.37478558625E+01  0.10752647757E+02  0.51100000000E-03 0. -1.
        -11    1    3    3    0    0  0.12408385177E+02 -0.68632247484E+01 -0.20882216649E+02  0.25241609479E+02  0.51100000000E-03 0.  1.
         12    1    3    3    0    0 -0.43469977257E+01 -0.21643474995E+02 -0.74777103254E+01  0.23307778762E+02  0.00000000000E+00 0. -1.
</event>
<event>
 7    1  0.1284645E-011  0.5930193E+02  0.7816164E-02  0.1266605E+00
        -11   -1    0    0    0    0  0.00000000000E+00  0.00000000000E+00  0.45593999997E+02  0.45594000000E+02  0.51100000000E-03 0.  1.
         11   -1    0    0    0    0 -0.00000000000E+00 -0.00000000000E+00 -0.45593999997E+02  0.45594000000E+02  0.51100000000E-03 0. -1.
    9900012    2    1    2    0    0  0.19114852262E+02 -0.96354965395E+01  0.23632630397E+02  0.59301927962E+02  0.49999970700E+02 0.  0.
         12    1    1    2    0    0 -0.19114852262E+02  0.96354965395E+01 -0.23632630397E+02  0.31886072038E+02  0.00000000000E+00 0. -1.
         11    1    3    3    0    0  0.59440834389E+01 -0.26617770457E+02  0.95998869882E+00  0.27290280515E+02  0.51100000000E-03 0. -1.
        -11    1    3    3    0    0  0.39219366923E+01  0.95183135248E+00  0.49568497514E+01  0.63920208120E+01  0.51100000000E-03 0.  1.
        -12    1    3    3    0    0  0.92488321308E+01  0.16030442565E+02  0.17715791946E+02  0.25619626635E+02  0.00000000000E+00 0.  1.
</event>
<event>
 7    1  0.1284645E-011  0.5930193E+02  0.7816164E-02  0.1266605E+00
        -11   -1    0    0    0    0  0.00000000000E+00  0.00000000000E+00  0.45593999997E+02  0.45594000000E+02  0.51100000000E-03 0. -1.
         11   -1    0    0    0    0 -0.00000000000E+00 -0.00000000000E+00 -0.45593999997E+02  0.45594000000E+02  0.51100000000E-03 0.  1.
    9900012    2    1    2    0    0 -0.26262230794E+02  0.12703907778E+02 -0.12869638937E+02  0.59301927092E+02  0.49999969113E+02 0.  0.
         12    1    1    2    0    0  0.26262230794E+02 -0.12703907778E+02  0.12869638937E+02  0.31886072908E+02  0.00000000000E+00 0. -1.
         11    1    3    3    0    0 -0.16653671925E+02 -0.30549264291E+01  0.57361820827E+01  0.17876832752E+02  0.51100000000E-03 0. -1.
        -11    1    3    3    0    0  0.69874430173E+01  0.25008380675E+01  0.55433711548E+01  0.92632345852E+01  0.51100000000E-03 0.  1.
        -12    1    3    3    0    0 -0.16596001886E+02  0.13257996139E+02 -0.24149192174E+02  0.32161859755E+02  0.00000000000E+00 0.  1.
</event>
<event>
 7    1  0.1284645E-011  0.5930193E+02  0.7816164E-02  0.1266605E+00
        -11   -1    0    0    0    0  0.00000000000E+00  0.00000000000E+00  0.45593999997E+02  0.45594000000E+02  0.51100000000E-03 0.  1.
         11   -1    0    0    0    0 -0.00000000000E+00 -0.00000000000E+00 -0.45593999997E+02  0.45594000000E+02  0.51100000000E-03 0. -1.
    9900012    2    1    2    0    0  0.15112902885E+02  0.27981696498E+02 -0.23121771193E+01  0.59301931952E+02  0.49999977978E+02 0.  0.
         12    1    1    2    0    0 -0.15112902885E+02 -0.27981696498E+02  0.23121771193E+01  0.31886068048E+02  0.00000000000E+00 0. -1.
         11    1    3    3    0    0  0.57591754160E+01  0.15701340642E+02 -0.60513070095E+01  0.17785345546E+02  0.51100000000E-03 0. -1.
        -11    1    3    3    0    0 -0.98490197903E+01  0.26661921538E+01 -0.11356270521E+02  0.15266848130E+02  0.51100000000E-03 0.  1.
        -12    1    3    3    0    0  0.19202747259E+02  0.96141637023E+01  0.15095400411E+02  0.26249738276E+02  0.00000000000E+00 0.  1.
</event>
<event>
 7    1  0.1284645E-011  0.5930206E+02  0.7816164E-02  0.1266604E+00
        -11   -1    0    0    0    0  0.00000000000E+00  0.00000000000E+00  0.45593999997E+02  0.45594000000E+02  0.51100000000E-03 0.  1.
         11   -1    0    0    0    0 -0.00000000000E+00 -0.00000000000E+00 -0.45593999997E+02  0.45594000000E+02  0.51100000000E-03 0. -1.
    9900012    2    1    2    0    0 -0.20012141435E+02  0.19497019136E+02  0.15365327590E+02  0.59302064982E+02  0.50000220591E+02 0.  0.
         12    1    1    2    0    0  0.20012141435E+02 -0.19497019136E+02 -0.15365327590E+02  0.31885935018E+02  0.00000000000E+00 0. -1.
         11    1    3    3    0    0 -0.11480944006E+02  0.95344061495E+01 -0.21514752077E+01  0.15077991303E+02  0.51100000000E-03 0. -1.
        -11    1    3    3    0    0 -0.68938962128E+01 -0.92755060950E+01 -0.66171744593E+01  0.13317200021E+02  0.51100000000E-03 0.  1.
        -12    1    3    3    0    0 -0.16373012159E+01  0.19238119082E+02  0.24133977257E+02  0.30906873659E+02  0.00000000000E+00 0.  1.
</event>
<event>
 7    1  0.1284645E-011  0.5930199E+02  0.7816164E-02  0.1266605E+00
        -11   -1    0    0    0    0  0.00000000000E+00  0.00000000000E+00  0.45593999997E+02  0.45594000000E+02  0.51100000000E-03 0.  1.
         11   -1    0    0    0    0 -0.00000000000E+00 -0.00000000000E+00 -0.45593999997E+02  0.45594000000E+02  0.51100000000E-03 0. -1.
    9900012    2    1    2    0    0  0.69667754664E+01  0.28133103113E+02 -0.13293248293E+02  0.59301985804E+02  0.50000076189E+02 0.  0.
         12    1    1    2    0    0 -0.69667754664E+01 -0.28133103113E+02  0.13293248293E+02  0.31886014196E+02  0.00000000000E+00 0. -1.
         11    1    3    3    0    0 -0.11365455690E+02  0.34363215602E+01  0.90290245251E-01  0.11873922751E+02  0.51100000000E-03 0. -1.
        -11    1    3    3    0    0 -0.69779002551E+01 -0.30013407196E+00  0.37680654221E+01  0.79359618017E+01  0.51100000000E-03 0.  1.
        -12    1    3    3    0    0  0.25310131412E+02  0.24996915624E+02 -0.17151603961E+02  0.39492101251E+02  0.00000000000E+00 0.  1.
</event>
<event>
 7    1  0.1284645E-011  0.5930209E+02  0.7816164E-02  0.1266604E+00
        -11   -1    0    0    0    0  0.00000000000E+00  0.00000000000E+00  0.45593999997E+02  0.45594000000E+02  0.51100000000E-03 0. -1.
         11   -1    0    0    0    0 -0.00000000000E+00 -0.00000000000E+00 -0.45593999997E+02  0.45594000000E+02  0.51100000000E-03 0.  1.
    9900012    2    1    2    0    0 -0.20741460635E+02 -0.24120411295E+02 -0.21699559395E+01  0.59302091842E+02  0.50000269576E+02 0.  0.
         12    1    1    2    0    0  0.20741460635E+02  0.24120411295E+02  0.21699559395E+01  0.31885908158E+02  0.00000000000E+00 0. -1.
         11    1    3    3    0    0 -0.49477270077E+01  0.30109365044E+01  0.10196455976E+01  0.58809368796E+01  0.51100000000E-03 0. -1.
        -11    1    3    3    0    0 -0.22785306329E+01  0.11850494328E+02 -0.70032270782E+00  0.12087860432E+02  0.51100000000E-03 0.  1.
         12    1    3    3    0    0 -0.13515202994E+02 -0.38981842127E+02 -0.24892788293E+01  0.41333294530E+02  0.00000000000E+00 0. -1.
</event>
<event>
 7    1  0.1284645E-011  0.5930195E+02  0.7816164E-02  0.1266605E+00
        -11   -1    0    0    0    0  0.00000000000E+00  0.00000000000E+00  0.45593999997E+02  0.45594000000E+02  0.51100000000E-03 0.  1.
         11   -1    0    0    0    0 -0.00000000000E+00 -0.00000000000E+00 -0.45593999997E+02  0.45594000000E+02  0.51100000000E-03 0. -1.
    9900012    2    1    2    0    0 -0.26943267681E+02  0.10822294772E+02  0.13177941140E+02  0.59301954931E+02  0.50000019884E+02 0.  0.
         12    1    1    2    0    0  0.26943267681E+02 -0.10822294772E+02 -0.13177941140E+02  0.31886045069E+02  0.00000000000E+00 0. -1.
         11    1    3    3    0    0 -0.24842228931E+02  0.96675451863E+01  0.67671633225E+00  0.26665627940E+02  0.51100000000E-03 0. -1.
        -11    1    3    3    0    0  0.40334509082E+01  0.73279908912E+01 -0.72394061273E+01  0.11062421890E+02  0.51100000000E-03 0.  1.
         12    1    3    3    0    0 -0.61344896587E+01 -0.61732413054E+01  0.19740630935E+02  0.21573905101E+02  0.00000000000E+00 0. -1.
</event>
<event>
 7    1  0.1284645E-011  0.5930192E+02  0.7816164E-02  0.1266605E+00
        -11   -1    0    0    0    0  0.00000000000E+00  0.00000000000E+00  0.45593999997E+02  0.45594000000E+02  0.51100000000E-03 0.  1.
         11   -1    0    0    0    0 -0.00000000000E+00 -0.00000000000E+00 -0.45593999997E+02  0.45594000000E+02  0.51100000000E-03 0. -1.
    9900012    2    1    2    0    0  0.27744749342E+02  0.15158343679E+02  0.41443181454E+01  0.59301923539E+02  0.49999962634E+02 0.  0.
         12    1    1    2    0    0 -0.27744749342E+02 -0.15158343679E+02 -0.41443181454E+01  0.31886076461E+02  0.00000000000E+00 0. -1.
         11    1    3    3    0    0 -0.59430743297E+01 -0.46478069956E+01  0.15019859846E+01  0.76927371277E+01  0.51100000000E-03 0. -1.
        -11    1    3    3    0    0  0.18428564573E+02  0.54328811065E+01 -0.14869259581E+02  0.24294506994E+02  0.51100000000E-03 0.  1.
        -12    1    3    3    0    0  0.15259259099E+02  0.14373269569E+02  0.17511591742E+02  0.27314679418E+02  0.00000000000E+00 0.  1.
</event>
<event>
 7    1  0.1284645E-011  0.5930194E+02  0.7816164E-02  0.1266605E+00
        -11   -1    0    0    0    0  0.00000000000E+00  0.00000000000E+00  0.45593999997E+02  0.45594000000E+02  0.51100000000E-03 0.  1.
         11   -1    0    0    0    0 -0.00000000000E+00 -0.00000000000E+00 -0.45593999997E+02  0.45594000000E+02  0.51100000000E-03 0. -1.
    9900012    2    1    2    0    0 -0.15326042466E+02 -0.10634515174E+01  0.27941045599E+02  0.59301944490E+02  0.50000000843E+02 0.  0.
         12    1    1    2    0    0  0.15326042466E+02  0.10634515174E+01 -0.27941045599E+02  0.31886055510E+02  0.00000000000E+00 0. -1.
         11    1    3    3    0    0 -0.17524667653E+02 -0.71444264808E+00 -0.19880048968E+00  0.17540351380E+02  0.51100000000E-03 0. -1.
        -11    1    3    3    0    0 -0.59155903149E+01  0.17757457956E+01  0.31955346954E+02  0.32546761454E+02  0.51100000000E-03 0.  1.
         12    1    3    3    0    0  0.81142155017E+01 -0.21247546650E+01 -0.38155008654E+01  0.92148316560E+01  0.00000000000E+00 0. -1.
</event>
<event>
 7    1  0.1284645E-011  0.5930203E+02  0.7816164E-02  0.1266604E+00
        -11   -1    0    0    0    0  0.00000000000E+00  0.00000000000E+00  0.45593999997E+02  0.45594000000E+02  0.51100000000E-03 0.  1.
         11   -1    0    0    0    0 -0.00000000000E+00 -0.00000000000E+00 -0.45593999997E+02  0.45594000000E+02  0.51100000000E-03 0. -1.
    9900012    2    1    2    0    0  0.26018455772E+00 -0.11241091803E+02  0.29837649684E+02  0.59302028482E+02  0.50000154025E+02 0.  0.
         12    1    1    2    0    0 -0.26018455772E+00  0.11241091803E+02 -0.29837649684E+02  0.31885971518E+02  0.00000000000E+00 0. -1.
         11    1    3    3    0    0  0.10769953247E+02  0.22662763887E+01  0.18900145972E+02  0.21871063523E+02  0.51100000000E-03 0. -1.
        -11    1    3    3    0    0 -0.49467819180E+01 -0.86011305478E+01  0.21987326070E+02  0.24122450249E+02  0.51100000000E-03 0.  1.
         12    1    3    3    0    0 -0.55629867711E+01 -0.49062376439E+01 -0.11049822358E+02  0.13308514710E+02  0.00000000000E+00 0. -1.
</event>
<event>
 7    1  0.1284645E-011  0.5930188E+02  0.7816164E-02  0.1266605E+00
        -11   -1    0    0    0    0  0.00000000000E+00  0.00000000000E+00  0.45593999997E+02  0.45594000000E+02  0.51100000000E-03 0. -1.
         11   -1    0    0    0    0 -0.00000000000E+00 -0.00000000000E+00 -0.45593999997E+02  0.45594000000E+02  0.51100000000E-03 0.  1.
    9900012    2    1    2    0    0 -0.24221287870E+02 -0.19155085521E+02 -0.79458343336E+01  0.59301884359E+02  0.49999891179E+02 0.  0.
         12    1    1    2    0    0  0.24221287870E+02  0.19155085521E+02  0.79458343336E+01  0.31886115641E+02  0.00000000000E+00 0. -1.
         11    1    3    3    0    0  0.32307278711E+00  0.28285799987E+01  0.18627857375E+00  0.28530581493E+01  0.51100000000E-03 0. -1.
        -11    1    3    3    0    0  0.66073826812E+01 -0.18918141127E+02  0.75800555700E+01  0.21424537622E+02  0.51100000000E-03 0.  1.
        -12    1    3    3    0    0 -0.31151743339E+02 -0.30655243921E+01 -0.15712168477E+02  0.35024288588E+02  0.00000000000E+00 0.  1.
</event>
<event>
 7    1  0.1284645E-011  0.5930192E+02  0.7816164E-02  0.1266605E+00
        -11   -1    0    0    0    0  0.00000000000E+00  0.00000000000E+00  0.45593999997E+02  0.45594000000E+02  0.51100000000E-03 0. -1.
         11   -1    0    0    0    0 -0.00000000000E+00 -0.00000000000E+00 -0.45593999997E+02  0.45594000000E+02  0.51100000000E-03 0.  1.
    9900012    2    1    2    0    0  0.20516542047E+02  0.13798327283E+02 -0.20134542148E+02  0.59301919637E+02  0.49999955518E+02 0.  0.
         12    1    1    2    0    0 -0.20516542047E+02 -0.13798327283E+02  0.20134542148E+02  0.31886080363E+02  0.00000000000E+00 0. -1.
         11    1    3    3    0    0  0.15503709871E+02  0.17437136648E+02 -0.17811026018E+02  0.29353899270E+02  0.51100000000E-03 0. -1.
        -11    1    3    3    0    0 -0.98013647064E+01  0.63551963296E+01 -0.30161091166E+01  0.12064501024E+02  0.51100000000E-03 0.  1.
         12    1    3    3    0    0  0.14814196882E+02 -0.99940056944E+01  0.69259298613E+00  0.17883519344E+02  0.00000000000E+00 0. -1.
</event>
<event>
 7    1  0.1284645E-011  0.5930193E+02  0.7816164E-02  0.1266605E+00
        -11   -1    0    0    0    0  0.00000000000E+00  0.00000000000E+00  0.45593999997E+02  0.45594000000E+02  0.51100000000E-03 0.  1.
         11   -1    0    0    0    0 -0.00000000000E+00 -0.00000000000E+00 -0.45593999997E+02  0.45594000000E+02  0.51100000000E-03 0. -1.
    9900012    2    1    2    0    0  0.58403287385E+01  0.30599735234E+02 -0.68020757843E+01  0.59301929826E+02  0.49999974099E+02 0.  0.
         12    1    1    2    0    0 -0.58403287385E+01 -0.30599735234E+02  0.68020757843E+01  0.31886070174E+02  0.00000000000E+00 0. -1.
         11    1    3    3    0    0 -0.88434475198E+01  0.15077362190E+02 -0.15463116735E+01  0.17547777486E+02  0.51100000000E-03 0. -1.
        -11    1    3    3    0    0 -0.11715888629E+02  0.68872814227E+01 -0.27461384412E+01  0.13864990745E+02  0.51100000000E-03 0.  1.
        -12    1    3    3    0    0  0.26399664887E+02  0.86350916221E+01 -0.25096256696E+01  0.27889161595E+02  0.00000000000E+00 0.  1.
</event>
<event>
 7    1  0.1284645E-011  0.5930196E+02  0.7816164E-02  0.1266605E+00
        -11   -1    0    0    0    0  0.00000000000E+00  0.00000000000E+00  0.45593999997E+02  0.45594000000E+02  0.51100000000E-03 0.  1.
         11   -1    0    0    0    0 -0.00000000000E+00 -0.00000000000E+00 -0.45593999997E+02  0.45594000000E+02  0.51100000000E-03 0. -1.
    9900012    2    1    2    0    0 -0.90075648023E+01  0.20629664184E+02  0.22583183905E+02  0.59301961310E+02  0.50000031519E+02 0.  0.
         12    1    1    2    0    0  0.90075648023E+01 -0.20629664184E+02 -0.22583183905E+02  0.31886038690E+02  0.00000000000E+00 0. -1.
         11    1    3    3    0    0 -0.12060715604E+02 -0.65282419578E+01  0.13581321714E+01  0.13781267257E+02  0.51100000000E-03 0. -1.
        -11    1    3    3    0    0 -0.85143892534E+01  0.18876266614E+01 -0.23987124609E+01  0.90449864844E+01  0.51100000000E-03 0.  1.
         12    1    3    3    0    0  0.11567540055E+02  0.25270279480E+02  0.23623764195E+02  0.36475707569E+02  0.00000000000E+00 0. -1.
</event>
<event>
 7    1  0.1284645E-011  0.5930192E+02  0.7816164E-02  0.1266605E+00
        -11   -1    0    0    0    0  0.00000000000E+00  0.00000000000E+00  0.45593999997E+02  0.45594000000E+02  0.51100000000E-03 0.  1.
         11   -1    0    0    0    0 -0.00000000000E+00 -0.00000000000E+00 -0.45593999997E+02  0.45594000000E+02  0.51100000000E-03 0. -1.
    9900012    2    1    2    0    0  0.22955395134E+02 -0.18598990623E+02  0.11993719702E+02  0.59301922627E+02  0.49999960970E+02 0.  0.
         12    1    1    2    0    0 -0.22955395134E+02  0.18598990623E+02 -0.11993719702E+02  0.31886077373E+02  0.00000000000E+00 0. -1.
         11    1    3    3    0    0  0.26492904395E+01 -0.12467405160E+02 -0.12626250622E+02  0.17940934655E+02  0.51100000000E-03 0. -1.
        -11    1    3    3    0    0 -0.36283772174E+01  0.39405350786E+01 -0.30743872770E+00  0.53653943723E+01  0.51100000000E-03 0.  1.
        -12    1    3    3    0    0  0.23934481912E+02 -0.10072120542E+02  0.24927409052E+02  0.35995593600E+02  0.00000000000E+00 0.  1.
</event>
<event>
 7    1  0.1284645E-011  0.5930187E+02  0.7816164E-02  0.1266605E+00
        -11   -1    0    0    0    0  0.00000000000E+00  0.00000000000E+00  0.45593999997E+02  0.45594000000E+02  0.51100000000E-03 0.  1.
         11   -1    0    0    0    0 -0.00000000000E+00 -0.00000000000E+00 -0.45593999997E+02  0.45594000000E+02  0.51100000000E-03 0. -1.
    9900012    2    1    2    0    0  0.21262304661E+02  0.16647279401E+02  0.16956049081E+02  0.59301872744E+02  0.49999869996E+02 0.  0.
         12    1    1    2    0    0 -0.21262304661E+02 -0.16647279401E+02 -0.16956049081E+02  0.31886127256E+02  0.00000000000E+00 0. -1.
         11    1    3    3    0    0  0.13815949325E+01 -0.72240354154E+01  0.88303131197E+01  0.11492167867E+02  0.51100000000E-03 0. -1.
        -11    1    3    3    0    0  0.40252718889E+01 -0.66439316176E+01  0.10815430986E+02  0.13316087593E+02  0.51100000000E-03 0.  1.
        -12    1    3    3    0    0  0.15855437839E+02  0.30515246434E+02 -0.26896950252E+01  0.34493617284E+02  0.00000000000E+00 0.  1.
</event>
<event>
 7    1  0.1284645E-011  0.5930194E+02  0.7816164E-02  0.1266605E+00
        -11   -1    0    0    0    0  0.00000000000E+00  0.00000000000E+00  0.45593999997E+02  0.45594000000E+02  0.51100000000E-03 0.  1.
         11   -1    0    0    0    0 -0.00000000000E+00 -0.00000000000E+00 -0.45593999997E+02  0.45594000000E+02  0.51100000000E-03 0. -1.
    9900012    2    1    2    0    0  0.21424891485E+02  0.21233303304E+02  0.10336429225E+02  0.59301938571E+02  0.49999990048E+02 0.  0.
         12    1    1    2    0    0 -0.21424891485E+02 -0.21233303304E+02 -0.10336429225E+02  0.31886061429E+02  0.00000000000E+00 0. -1.
         11    1    3    3    0    0  0.67405179962E+01  0.26591351130E+02  0.17429145732E+02  0.32500917817E+02  0.51100000000E-03 0. -1.
        -11    1    3    3    0    0  0.44500089078E+01  0.67114196106E+01  0.23307482358E+01  0.83832046420E+01  0.51100000000E-03 0.  1.
         12    1    3    3    0    0  0.10234364581E+02 -0.12069467436E+02 -0.94234647429E+01  0.18417816112E+02  0.00000000000E+00 0. -1.
</event>
<event>
 7    1  0.1284645E-011  0.5930194E+02  0.7816164E-02  0.1266605E+00
        -11   -1    0    0    0    0  0.00000000000E+00  0.00000000000E+00  0.45593999997E+02  0.45594000000E+02  0.51100000000E-03 0.  1.
         11   -1    0    0    0    0 -0.00000000000E+00 -0.00000000000E+00 -0.45593999997E+02  0.45594000000E+02  0.51100000000E-03 0. -1.
    9900012    2    1    2    0    0  0.31827215884E+02  0.19274442366E+01  0.18528637194E+00  0.59301936536E+02  0.49999986337E+02 0.  0.
         12    1    1    2    0    0 -0.31827215884E+02 -0.19274442366E+01 -0.18528637194E+00  0.31886063464E+02  0.00000000000E+00 0. -1.
         11    1    3    3    0    0 -0.57554055285E+01  0.23940488120E+01  0.88608127335E+01  0.10833751200E+02  0.51100000000E-03 0. -1.
        -11    1    3    3    0    0  0.37082267469E+02 -0.76295764063E+00  0.25967615978E+01  0.37180906875E+02  0.51100000000E-03 0.  1.
         12    1    3    3    0    0  0.50035394309E+00  0.29635306527E+00 -0.11272287959E+02  0.11287278461E+02  0.00000000000E+00 0. -1.
</event>
<event>
 7    1  0.1284645E-011  0.5930194E+02  0.7816164E-02  0.1266605E+00
        -11   -1    0    0    0    0  0.00000000000E+00  0.00000000000E+00  0.45593999997E+02  0.45594000000E+02  0.51100000000E-03 0. -1.
         11   -1    0    0    0    0 -0.00000000000E+00 -0.00000000000E+00 -0.45593999997E+02  0.45594000000E+02  0.51100000000E-03 0.  1.
    9900012    2    1    2    0    0 -0.14159967500E+02  0.78285105305E+01 -0.27475996887E+02  0.59301942519E+02  0.49999997249E+02 0.  0.
         12    1    1    2    0    0  0.14159967500E+02 -0.78285105305E+01  0.27475996887E+02  0.31886057481E+02  0.00000000000E+00 0. -1.
         11    1    3    3    0    0 -0.10727787621E+02 -0.82519597468E+01 -0.95017419053E+01  0.16536727802E+02  0.51100000000E-03 0. -1.
        -11    1    3    3    0    0  0.48238237577E+01 -0.84747831884E+01 -0.13218638303E+02  0.16426308916E+02  0.51100000000E-03 0.  1.
        -12    1    3    3    0    0 -0.82560036371E+01  0.24555253466E+02 -0.47556166783E+01  0.26338905801E+02  0.00000000000E+00 0.  1.
</event>
<event>
 7    1  0.1284645E-011  0.5930195E+02  0.7816164E-02  0.1266605E+00
        -11   -1    0    0    0    0  0.00000000000E+00  0.00000000000E+00  0.45593999997E+02  0.45594000000E+02  0.51100000000E-03 0.  1.
         11   -1    0    0    0    0 -0.00000000000E+00 -0.00000000000E+00 -0.45593999997E+02  0.45594000000E+02  0.51100000000E-03 0. -1.
    9900012    2    1    2    0    0  0.60913118942E+01 -0.19054432217E+01  0.31240768192E+02  0.59301946753E+02  0.50000004970E+02 0.  0.
         12    1    1    2    0    0 -0.60913118942E+01  0.19054432217E+01 -0.31240768192E+02  0.31886053247E+02  0.00000000000E+00 0. -1.
         11    1    3    3    0    0 -0.11830545036E+02 -0.82444200395E+01 -0.14601160201E+01  0.14493591574E+02  0.51100000000E-03 0. -1.
        -11    1    3    3    0    0  0.52892634235E+01  0.12409508056E+02  0.25960917586E+02  0.29256476889E+02  0.51100000000E-03 0.  1.
        -12    1    3    3    0    0  0.12632593507E+02 -0.60705312386E+01  0.67399666257E+01  0.15551878290E+02  0.00000000000E+00 0.  1.
</event>
<event>
 7    1  0.1284645E-011  0.5930195E+02  0.7816164E-02  0.1266605E+00
        -11   -1    0    0    0    0  0.00000000000E+00  0.00000000000E+00  0.45593999997E+02  0.45594000000E+02  0.51100000000E-03 0.  1.
         11   -1    0    0    0    0 -0.00000000000E+00 -0.00000000000E+00 -0.45593999997E+02  0.45594000000E+02  0.51100000000E-03 0. -1.
    9900012    2    1    2    0    0 -0.17695053982E+02 -0.52081406182E+01  0.26009238557E+02  0.59301950473E+02  0.50000011755E+02 0.  0.
         12    1    1    2    0    0  0.17695053982E+02  0.52081406182E+01 -0.26009238557E+02  0.31886049527E+02  0.00000000000E+00 0. -1.
         11    1    3    3    0    0 -0.56644418059E+01 -0.15221030049E+02 -0.12678080464E+01  0.16290272994E+02  0.51100000000E-03 0. -1.
        -11    1    3    3    0    0  0.82484497821E+01  0.67115107148E+00  0.70661147206E+00  0.83058213081E+01  0.51100000000E-03 0.  1.
        -12    1    3    3    0    0 -0.20279061958E+02  0.93417383593E+01  0.26570435131E+02  0.34705856171E+02  0.00000000000E+00 0.  1.
</event>
<event>
 7    1  0.1284645E-011  0.5930192E+02  0.7816164E-02  0.1266605E+00
        -11   -1    0    0    0    0  0.00000000000E+00  0.00000000000E+00  0.45593999997E+02  0.45594000000E+02  0.51100000000E-03 0. -1.
         11   -1    0    0    0    0 -0.00000000000E+00 -0.00000000000E+00 -0.45593999997E+02  0.45594000000E+02  0.51100000000E-03 0.  1.
    9900012    2    1    2    0    0  0.17094433642E+02  0.26896925654E+02 -0.10286065979E+01  0.59301916786E+02  0.49999950318E+02 0.  0.
         12    1    1    2    0    0 -0.17094433642E+02 -0.26896925654E+02  0.10286065979E+01  0.31886083214E+02  0.00000000000E+00 0. -1.
         11    1    3    3    0    0 -0.13443021495E+01  0.99927535125E+00  0.22048466829E+01  0.27689435987E+01  0.51100000000E-03 0. -1.
        -11    1    3    3    0    0  0.43940796156E+01  0.29436635977E+02  0.14933428410E+02  0.33299110464E+02  0.51100000000E-03 0.  1.
        -12    1    3    3    0    0  0.14044656176E+02 -0.35389856742E+01 -0.18166881691E+02  0.23233862724E+02  0.00000000000E+00 0.  1.
</event>
<event>
 7    1  0.1284645E-011  0.5930195E+02  0.7816164E-02  0.1266605E+00
        -11   -1    0    0    0    0  0.00000000000E+00  0.00000000000E+00  0.45593999997E+02  0.45594000000E+02  0.51100000000E-03 0. -1.
         11   -1    0    0    0    0 -0.00000000000E+00 -0.00000000000E+00 -0.45593999997E+02  0.45594000000E+02  0.51100000000E-03 0.  1.
    9900012    2    1    2    0    0 -0.31486528128E+01 -0.29744344216E+02 -0.11048989042E+02  0.59301949974E+02  0.50000010845E+02 0.  0.
         12    1    1    2    0    0  0.31486528128E+01  0.29744344216E+02  0.11048989042E+02  0.31886050026E+02  0.00000000000E+00 0. -1.
         11    1    3    3    0    0  0.21671782070E+02 -0.19901306459E+02 -0.21911208869E+01  0.29504730941E+02  0.51100000000E-03 0.  1.
        -11    1    3    3    0    0 -0.13698685628E+02 -0.16402801955E+00 -0.45922390248E+01  0.14448859908E+02  0.51100000000E-03 0. -1.
        -12    1    3    3    0    0 -0.11121749255E+02 -0.96790097372E+01 -0.42656291301E+01  0.15348359126E+02  0.00000000000E+00 0.  1.
</event>
<event>
 7    1  0.1284645E-011  0.5930194E+02  0.7816164E-02  0.1266605E+00
        -11   -1    0    0    0    0  0.00000000000E+00  0.00000000000E+00  0.45593999997E+02  0.45594000000E+02  0.51100000000E-03 0.  1.
         11   -1    0    0    0    0 -0.00000000000E+00 -0.00000000000E+00 -0.45593999997E+02  0.45594000000E+02  0.51100000000E-03 0. -1.
    9900012    2    1    2    0    0  0.65704082299E+01  0.16110462950E+02  0.26720846616E+02  0.59301938395E+02  0.49999989727E+02 0.  0.
         12    1    1    2    0    0 -0.65704082299E+01 -0.16110462950E+02 -0.26720846616E+02  0.31886061605E+02  0.00000000000E+00 0. -1.
         11    1    3    3    0    0  0.10570656374E+02 -0.14689242188E+01 -0.60703335836E+01  0.12277844461E+02  0.51100000000E-03 0. -1.
        -11    1    3    3    0    0 -0.61543235627E+01  0.15567551802E+02  0.29015727209E+01  0.16989511239E+02  0.51100000000E-03 0.  1.
        -12    1    3    3    0    0  0.21540754190E+01  0.20118353677E+01  0.29889607479E+02  0.30034582696E+02  0.00000000000E+00 0.  1.
</event>
<event>
 7    1  0.1284645E-011  0.5930198E+02  0.7816164E-02  0.1266605E+00
        -11   -1    0    0    0    0  0.00000000000E+00  0.00000000000E+00  0.45593999997E+02  0.45594000000E+02  0.51100000000E-03 0.  1.
         11   -1    0    0    0    0 -0.00000000000E+00 -0.00000000000E+00 -0.45593999997E+02  0.45594000000E+02  0.51100000000E-03 0. -1.
    9900012    2    1    2    0    0 -0.16726307939E+02  0.14465923004E+02  0.22971419991E+02  0.59301977325E+02  0.50000060726E+02 0.  0.
         12    1    1    2    0    0  0.16726307939E+02 -0.14465923004E+02 -0.22971419991E+02  0.31886022675E+02  0.00000000000E+00 0. -1.
         11    1    3    3    0    0 -0.46643994903E+01 -0.15864005385E+02  0.40053547042E+00  0.16540366332E+02  0.51100000000E-03 0. -1.
        -11    1    3    3    0    0 -0.13614448390E+02  0.13794782171E+02  0.15006831477E+02  0.24512327742E+02  0.51100000000E-03 0.  1.
        -12    1    3    3    0    0  0.15525399415E+01  0.16535146218E+02  0.75640530438E+01  0.18249283251E+02  0.00000000000E+00 0.  1.
</event>
<event>
 7    1  0.1284645E-011  0.5930192E+02  0.7816164E-02  0.1266605E+00
        -11   -1    0    0    0    0  0.00000000000E+00  0.00000000000E+00  0.45593999997E+02  0.45594000000E+02  0.51100000000E-03 0.  1.
         11   -1    0    0    0    0 -0.00000000000E+00 -0.00000000000E+00 -0.45593999997E+02  0.45594000000E+02  0.51100000000E-03 0. -1.
    9900012    2    1    2    0    0 -0.16571229677E+02  0.17376443265E+02  0.20980358691E+02  0.59301923346E+02  0.49999962282E+02 0.  0.
         12    1    1    2    0    0  0.16571229677E+02 -0.17376443265E+02 -0.20980358691E+02  0.31886076654E+02  0.00000000000E+00 0. -1.
         11    1    3    3    0    0  0.11275072277E+02  0.56039134869E+01  0.12640947341E+02  0.17841654944E+02  0.51100000000E-03 0. -1.
        -11    1    3    3    0    0  0.21479106882E+01  0.91275299888E+01  0.62672043299E+01  0.11278438473E+02  0.51100000000E-03 0.  1.
        -12    1    3    3    0    0 -0.29994212642E+02  0.26449997897E+01  0.20722070208E+01  0.30181829929E+02  0.00000000000E+00 0.  1.
</event>
<event>
 7    1  0.1284645E-011  0.5930193E+02  0.7816164E-02  0.1266605E+00
        -11   -1    0    0    0    0  0.00000000000E+00  0.00000000000E+00  0.45593999997E+02  0.45594000000E+02  0.51100000000E-03 0. -1.
         11   -1    0    0    0    0 -0.00000000000E+00 -0.00000000000E+00 -0.45593999997E+02  0.45594000000E+02  0.51100000000E-03 0.  1.
    9900012    2    1    2    0    0 -0.25596149092E+02  0.60862778604E+01 -0.18014318802E+02  0.59301932377E+02  0.49999978752E+02 0.  0.
         12    1    1    2    0    0  0.25596149092E+02 -0.60862778604E+01  0.18014318802E+02  0.31886067623E+02  0.00000000000E+00 0. -1.
         11    1    3    3    0    0 -0.17048505969E+02  0.68046826030E+01 -0.22355962803E+00  0.18357702478E+02  0.51100000000E-03 0. -1.
        -11    1    3    3    0    0 -0.91432488813E+00  0.16628312457E+02 -0.30405649049E+01  0.16928727075E+02  0.51100000000E-03 0.  1.
        -12    1    3    3    0    0 -0.76333182346E+01 -0.17346717200E+02 -0.14750194269E+02  0.24015502824E+02  0.00000000000E+00 0.  1.
</event>
<event>
 7    1  0.1284645E-011  0.5930193E+02  0.7816164E-02  0.1266605E+00
        -11   -1    0    0    0    0  0.00000000000E+00  0.00000000000E+00  0.45593999997E+02  0.45594000000E+02  0.51100000000E-03 0. -1.
         11   -1    0    0    0    0 -0.00000000000E+00 -0.00000000000E+00 -0.45593999997E+02  0.45594000000E+02  0.51100000000E-03 0.  1.
    9900012    2    1    2    0    0  0.10816090069E+02  0.29545309101E+02 -0.51776614014E+01  0.59301932951E+02  0.49999979798E+02 0.  0.
         12    1    1    2    0    0 -0.10816090069E+02 -0.29545309101E+02  0.51776614014E+01  0.31886067049E+02  0.00000000000E+00 0. -1.
         11    1    3    3    0    0  0.74764866307E+01 -0.28637891666E+01 -0.54234595287E+01  0.96702147986E+01  0.51100000000E-03 0. -1.
        -11    1    3    3    0    0  0.19872502179E+02  0.21259491929E+02 -0.36000496402E+01  0.29323074492E+02  0.51100000000E-03 0.  1.
        -12    1    3    3    0    0 -0.16532898741E+02  0.11149606338E+02  0.38458477674E+01  0.20308643661E+02  0.00000000000E+00 0.  1.
</event>
<event>
 7    1  0.1284645E-011  0.5930195E+02  0.7816164E-02  0.1266605E+00
        -11   -1    0    0    0    0  0.00000000000E+00  0.00000000000E+00  0.45593999997E+02  0.45594000000E+02  0.51100000000E-03 0. -1.
         11   -1    0    0    0    0 -0.00000000000E+00 -0.00000000000E+00 -0.45593999997E+02  0.45594000000E+02  0.51100000000E-03 0.  1.
    9900012    2    1    2    0    0 -0.99982071807E+01  0.11791878437E+02 -0.27887415697E+02  0.59301945084E+02  0.50000001926E+02 0.  0.
         12    1    1    2    0    0  0.99982071807E+01 -0.11791878437E+02  0.27887415697E+02  0.31886054916E+02  0.00000000000E+00 0. -1.
         11    1    3    3    0    0 -0.87659922964E+01 -0.38493863261E+01  0.93650167401E+00  0.96196378141E+01  0.51100000000E-03 0. -1.
        -11    1    3    3    0    0 -0.13600139505E+01  0.15886295119E+02  0.43342358035E+01  0.16523002476E+02  0.51100000000E-03 0.  1.
        -12    1    3    3    0    0  0.12779906628E+00 -0.24503035573E+00 -0.33158153174E+02  0.33159304793E+02  0.00000000000E+00 0.  1.
</event>
<event>
 7    1  0.1284645E-011  0.5930196E+02  0.7816164E-02  0.1266605E+00
        -11   -1    0    0    0    0  0.00000000000E+00  0.00000000000E+00  0.45593999997E+02  0.45594000000E+02  0.51100000000E-03 0. -1.
         11   -1    0    0    0    0 -0.00000000000E+00 -0.00000000000E+00 -0.45593999997E+02  0.45594000000E+02  0.51100000000E-03 0.  1.
    9900012    2    1    2    0    0  0.12731354149E+02  0.23651995723E+02 -0.17181829091E+02  0.59301960248E+02  0.50000029581E+02 0.  0.
         12    1    1    2    0    0 -0.12731354149E+02 -0.23651995723E+02  0.17181829091E+02  0.31886039752E+02  0.00000000000E+00 0. -1.
         11    1    3    3    0    0  0.61421365693E+01 -0.54007512115E+00 -0.50406649956E+01  0.79640333144E+01  0.51100000000E-03 0. -1.
        -11    1    3    3    0    0  0.23512944690E+02  0.22649857038E+02 -0.55784403478E+01  0.33120893539E+02  0.51100000000E-03 0.  1.
        -12    1    3    3    0    0 -0.16923727110E+02  0.15422138060E+01 -0.65627237476E+01  0.18217033395E+02  0.00000000000E+00 0.  1.
</event>
<event>
 7    1  0.1284645E-011  0.5930194E+02  0.7816164E-02  0.1266605E+00
        -11   -1    0    0    0    0  0.00000000000E+00  0.00000000000E+00  0.45593999997E+02  0.45594000000E+02  0.51100000000E-03 0.  1.
         11   -1    0    0    0    0 -0.00000000000E+00 -0.00000000000E+00 -0.45593999997E+02  0.45594000000E+02  0.51100000000E-03 0. -1.
    9900012    2    1    2    0    0  0.82541099966E+01  0.24639026801E+02 -0.18479956459E+02  0.59301940911E+02  0.49999994315E+02 0.  0.
         12    1    1    2    0    0 -0.82541099966E+01 -0.24639026801E+02  0.18479956459E+02  0.31886059089E+02  0.00000000000E+00 0. -1.
         11    1    3    3    0    0  0.71118971454E+01  0.31730044410E+02 -0.81221924471E+01  0.33516336460E+02  0.51100000000E-03 0. -1.
        -11    1    3    3    0    0 -0.18930763612E+01 -0.32109383640E+01  0.68978625381E+01  0.78405593641E+01  0.51100000000E-03 0.  1.
         12    1    3    3    0    0  0.30352892124E+01 -0.38800792453E+01 -0.17255626549E+02  0.17945045087E+02  0.00000000000E+00 0. -1.
</event>
<event>
 7    1  0.1284645E-011  0.5930194E+02  0.7816164E-02  0.1266605E+00
        -11   -1    0    0    0    0  0.00000000000E+00  0.00000000000E+00  0.45593999997E+02  0.45594000000E+02  0.51100000000E-03 0.  1.
         11   -1    0    0    0    0 -0.00000000000E+00 -0.00000000000E+00 -0.45593999997E+02  0.45594000000E+02  0.51100000000E-03 0. -1.
    9900012    2    1    2    0    0 -0.17445175908E+02  0.76572930926E+01 -0.25568580401E+02  0.59301943429E+02  0.49999998908E+02 0.  0.
         12    1    1    2    0    0  0.17445175908E+02 -0.76572930926E+01  0.25568580401E+02  0.31886056571E+02  0.00000000000E+00 0. -1.
         11    1    3    3    0    0 -0.70663827558E+00 -0.11933500407E+00 -0.26794928643E+02  0.26804510437E+02  0.51100000000E-03 0. -1.
        -11    1    3    3    0    0 -0.14185462692E+02 -0.40710062500E+01 -0.84347128541E+01  0.16998377125E+02  0.51100000000E-03 0.  1.
         12    1    3    3    0    0 -0.25530749397E+01  0.11847634347E+02  0.96610610966E+01  0.15499055867E+02  0.00000000000E+00 0. -1.
</event>
<event>
 7    1  0.1284645E-011  0.5930195E+02  0.7816164E-02  0.1266605E+00
        -11   -1    0    0    0    0  0.00000000000E+00  0.00000000000E+00  0.45593999997E+02  0.45594000000E+02  0.51100000000E-03 0. -1.
         11   -1    0    0    0    0 -0.00000000000E+00 -0.00000000000E+00 -0.45593999997E+02  0.45594000000E+02  0.51100000000E-03 0.  1.
    9900012    2    1    2    0    0  0.47686339322E+01  0.30766792525E+02 -0.68836737753E+01  0.59301947305E+02  0.50000005976E+02 0.  0.
         12    1    1    2    0    0 -0.47686339322E+01 -0.30766792525E+02  0.68836737753E+01  0.31886052695E+02  0.00000000000E+00 0. -1.
         11    1    3    3    0    0  0.11359382848E+01  0.66192233721E+01 -0.76545102594E+00  0.67594666484E+01  0.51100000000E-03 0. -1.
        -11    1    3    3    0    0 -0.66811163822E+01  0.27868303458E+02 -0.19930701930E+02  0.34907198876E+02  0.51100000000E-03 0.  1.
         12    1    3    3    0    0  0.10313812030E+02 -0.37207343048E+01  0.13812479180E+02  0.17635281780E+02  0.00000000000E+00 0. -1.
</event>
<event>
 7    1  0.1284645E-011  0.5930195E+02  0.7816164E-02  0.1266605E+00
        -11   -1    0    0    0    0  0.00000000000E+00  0.00000000000E+00  0.45593999997E+02  0.45594000000E+02  0.51100000000E-03 0. -1.
         11   -1    0    0    0    0 -0.00000000000E+00 -0.00000000000E+00 -0.45593999997E+02  0.45594000000E+02  0.51100000000E-03 0.  1.
    9900012    2    1    2    0    0  0.10173556579E+02 -0.23836598506E+01 -0.30125358997E+02  0.59301947525E+02  0.50000006378E+02 0.  0.
         12    1    1    2    0    0 -0.10173556579E+02  0.23836598506E+01  0.30125358997E+02  0.31886052475E+02  0.00000000000E+00 0. -1.
         11    1    3    3    0    0 -0.26279922517E+01 -0.45645124659E+00  0.13052371761E+02  0.13322128203E+02  0.51100000000E-03 0. -1.
        -11    1    3    3    0    0 -0.18841509116E+00 -0.90313765602E+00 -0.47012554973E-01  0.92377936422E+00  0.51100000000E-03 0.  1.
        -12    1    3    3    0    0  0.12989963922E+02 -0.10240709480E+01 -0.43130718203E+02  0.45056039958E+02  0.00000000000E+00 0.  1.
</event>
<event>
 7    1  0.1284645E-011  0.5930202E+02  0.7816164E-02  0.1266604E+00
        -11   -1    0    0    0    0  0.00000000000E+00  0.00000000000E+00  0.45593999997E+02  0.45594000000E+02  0.51100000000E-03 0. -1.
         11   -1    0    0    0    0 -0.00000000000E+00 -0.00000000000E+00 -0.45593999997E+02  0.45594000000E+02  0.51100000000E-03 0.  1.
    9900012    2    1    2    0    0 -0.18369180989E+02  0.23837794908E+02 -0.10537947776E+02  0.59302021583E+02  0.50000141443E+02 0.  0.
         12    1    1    2    0    0  0.18369180989E+02 -0.23837794908E+02  0.10537947776E+02  0.31885978417E+02  0.00000000000E+00 0. -1.
         11    1    3    3    0    0 -0.96094885183E+01 -0.91928229134E+01 -0.10672730837E+02  0.17051611258E+02  0.51100000000E-03 0. -1.
        -11    1    3    3    0    0 -0.24604503249E+01  0.10151729371E+02  0.11840992050E+02  0.15789886574E+02  0.51100000000E-03 0.  1.
        -12    1    3    3    0    0 -0.62992421454E+01  0.22878888450E+02 -0.11706208989E+02  0.26460523752E+02  0.00000000000E+00 0.  1.
</event>
<event>
 7    1  0.1284645E-011  0.5930198E+02  0.7816164E-02  0.1266605E+00
        -11   -1    0    0    0    0  0.00000000000E+00  0.00000000000E+00  0.45593999997E+02  0.45594000000E+02  0.51100000000E-03 0.  1.
         11   -1    0    0    0    0 -0.00000000000E+00 -0.00000000000E+00 -0.45593999997E+02  0.45594000000E+02  0.51100000000E-03 0. -1.
    9900012    2    1    2    0    0  0.45994954415E+01 -0.17102634888E+02  0.26515332936E+02  0.59301978625E+02  0.50000063097E+02 0.  0.
         12    1    1    2    0    0 -0.45994954415E+01  0.17102634888E+02 -0.26515332936E+02  0.31886021375E+02  0.00000000000E+00 0. -1.
         11    1    3    3    0    0 -0.19290720294E+01 -0.14276794862E+02 -0.34358100331E+01  0.14810569917E+02  0.51100000000E-03 0. -1.
        -11    1    3    3    0    0  0.12340462890E+01 -0.11960200244E+02  0.31595749196E+02  0.33806221729E+02  0.51100000000E-03 0.  1.
         12    1    3    3    0    0  0.52945211819E+01  0.91343602177E+01 -0.16446062268E+01  0.10685186979E+02  0.00000000000E+00 0. -1.
</event>
<event>
 7    1  0.1284645E-011  0.5930193E+02  0.7816164E-02  0.1266605E+00
        -11   -1    0    0    0    0  0.00000000000E+00  0.00000000000E+00  0.45593999997E+02  0.45594000000E+02  0.51100000000E-03 0.  1.
         11   -1    0    0    0    0 -0.00000000000E+00 -0.00000000000E+00 -0.45593999997E+02  0.45594000000E+02  0.51100000000E-03 0. -1.
    9900012    2    1    2    0    0  0.74152690146E+01  0.37024315326E+01  0.30790048566E+02  0.59301932439E+02  0.49999978866E+02 0.  0.
         12    1    1    2    0    0 -0.74152690146E+01 -0.37024315326E+01 -0.30790048566E+02  0.31886067561E+02  0.00000000000E+00 0. -1.
         11    1    3    3    0    0  0.18941437019E+02 -0.10927682467E+02  0.20586495211E+02  0.30033249338E+02  0.51100000000E-03 0. -1.
        -11    1    3    3    0    0  0.34548437627E+01  0.96994882854E+01  0.86005724875E+01  0.13415881104E+02  0.51100000000E-03 0.  1.
         12    1    3    3    0    0 -0.14981011768E+02  0.49306257141E+01  0.16029808673E+01  0.15852801998E+02  0.00000000000E+00 0. -1.
</event>
<event>
 7    1  0.1284645E-011  0.5930194E+02  0.7816164E-02  0.1266605E+00
        -11   -1    0    0    0    0  0.00000000000E+00  0.00000000000E+00  0.45593999997E+02  0.45594000000E+02  0.51100000000E-03 0.  1.
         11   -1    0    0    0    0 -0.00000000000E+00 -0.00000000000E+00 -0.45593999997E+02  0.45594000000E+02  0.51100000000E-03 0. -1.
    9900012    2    1    2    0    0 -0.22315519566E+02  0.13358160713E+02  0.18447165234E+02  0.59301940722E+02  0.49999993971E+02 0.  0.
         12    1    1    2    0    0  0.22315519566E+02 -0.13358160713E+02 -0.18447165234E+02  0.31886059278E+02  0.00000000000E+00 0. -1.
         11    1    3    3    0    0 -0.36598094742E+01  0.27173299232E+01 -0.11610153126E+02  0.12472920394E+02  0.51100000000E-03 0. -1.
        -11    1    3    3    0    0  0.50501336476E+01  0.99410418456E+01  0.46735091288E+01  0.12090072401E+02  0.51100000000E-03 0.  1.
        -12    1    3    3    0    0 -0.23705843740E+02  0.69978894376E+00  0.25383809230E+02  0.34738947926E+02  0.00000000000E+00 0.  1.
</event>
<event>
 7    1  0.1284645E-011  0.5930178E+02  0.7816164E-02  0.1266605E+00
        -11   -1    0    0    0    0  0.00000000000E+00  0.00000000000E+00  0.45593999997E+02  0.45594000000E+02  0.51100000000E-03 0. -1.
         11   -1    0    0    0    0 -0.00000000000E+00 -0.00000000000E+00 -0.45593999997E+02  0.45594000000E+02  0.51100000000E-03 0.  1.
    9900012    2    1    2    0    0 -0.49159773605E+01 -0.27068706086E+02 -0.16119842346E+02  0.59301780408E+02  0.49999701597E+02 0.  0.
         12    1    1    2    0    0  0.49159773605E+01  0.27068706086E+02  0.16119842346E+02  0.31886219592E+02  0.00000000000E+00 0. -1.
         11    1    3    3    0    0  0.65720102917E+01 -0.72998228554E+01 -0.18168530718E+02  0.20653673807E+02  0.51100000000E-03 0. -1.
        -11    1    3    3    0    0 -0.46414509791E+01 -0.23079306557E+02 -0.90271009599E+01  0.25212814408E+02  0.51100000000E-03 0.  1.
         12    1    3    3    0    0 -0.68465366731E+01  0.33104233269E+01  0.11075789332E+02  0.13435292194E+02  0.00000000000E+00 0. -1.
</event>
<event>
 7    1  0.1284645E-011  0.5930198E+02  0.7816164E-02  0.1266605E+00
        -11   -1    0    0    0    0  0.00000000000E+00  0.00000000000E+00  0.45593999997E+02  0.45594000000E+02  0.51100000000E-03 0. -1.
         11   -1    0    0    0    0 -0.00000000000E+00 -0.00000000000E+00 -0.45593999997E+02  0.45594000000E+02  0.51100000000E-03 0.  1.
    9900012    2    1    2    0    0 -0.16798805262E+01 -0.26963439712E+02 -0.16937220952E+02  0.59301975894E+02  0.50000058116E+02 0.  0.
         12    1    1    2    0    0  0.16798805262E+01  0.26963439712E+02  0.16937220952E+02  0.31886024106E+02  0.00000000000E+00 0. -1.
         11    1    3    3    0    0  0.10993332556E+02  0.96475636686E+00  0.56055552838E+01  0.12377655910E+02  0.51100000000E-03 0. -1.
        -11    1    3    3    0    0  0.45578844082E+01 -0.59543317094E+01  0.39127550212E+01  0.84580156362E+01  0.51100000000E-03 0.  1.
        -12    1    3    3    0    0 -0.17231097490E+02 -0.21973864370E+02 -0.26455531257E+02  0.38466304348E+02  0.00000000000E+00 0.  1.
</event>
<event>
 7    1  0.1284645E-011  0.5930200E+02  0.7816164E-02  0.1266605E+00
        -11   -1    0    0    0    0  0.00000000000E+00  0.00000000000E+00  0.45593999997E+02  0.45594000000E+02  0.51100000000E-03 0.  1.
         11   -1    0    0    0    0 -0.00000000000E+00 -0.00000000000E+00 -0.45593999997E+02  0.45594000000E+02  0.51100000000E-03 0. -1.
    9900012    2    1    2    0    0 -0.81843693618E+01 -0.29923636033E+02  0.73694640920E+01  0.59302001564E+02  0.50000104932E+02 0.  0.
         12    1    1    2    0    0  0.81843693618E+01  0.29923636033E+02 -0.73694640920E+01  0.31885998436E+02  0.00000000000E+00 0. -1.
         11    1    3    3    0    0  0.96276519942E+01 -0.20148386221E+02 -0.51859206405E+01  0.22924722973E+02  0.51100000000E-03 0. -1.
        -11    1    3    3    0    0  0.86880236928E+00 -0.69642942087E+01 -0.64848131853E+01  0.95555750058E+01  0.51100000000E-03 0.  1.
        -12    1    3    3    0    0 -0.18680823725E+02 -0.28109556031E+01  0.19040197918E+02  0.26821703585E+02  0.00000000000E+00 0.  1.
</event>
<event>
 7    1  0.1284645E-011  0.5930195E+02  0.7816164E-02  0.1266605E+00
        -11   -1    0    0    0    0  0.00000000000E+00  0.00000000000E+00  0.45593999997E+02  0.45594000000E+02  0.51100000000E-03 0.  1.
         11   -1    0    0    0    0 -0.00000000000E+00 -0.00000000000E+00 -0.45593999997E+02  0.45594000000E+02  0.51100000000E-03 0. -1.
    9900012    2    1    2    0    0  0.24209109273E+02 -0.86502321909E+01  0.18863003306E+02  0.59301946898E+02  0.50000005234E+02 0.  0.
         12    1    1    2    0    0 -0.24209109273E+02  0.86502321909E+01 -0.18863003306E+02  0.31886053102E+02  0.00000000000E+00 0. -1.
         11    1    3    3    0    0  0.64281701464E+01 -0.20037546760E+02  0.96809903409E+01  0.23163467483E+02  0.51100000000E-03 0. -1.
        -11    1    3    3    0    0 -0.59617935411E+01  0.16474414225E+01 -0.39217169780E+01  0.73237223995E+01  0.51100000000E-03 0.  1.
        -12    1    3    3    0    0  0.23742732667E+02  0.97398731468E+01  0.13103729943E+02  0.28814757015E+02  0.00000000000E+00 0.  1.
</event>
<event>
 7    1  0.1284645E-011  0.5930194E+02  0.7816164E-02  0.1266605E+00
        -11   -1    0    0    0    0  0.00000000000E+00  0.00000000000E+00  0.45593999997E+02  0.45594000000E+02  0.51100000000E-03 0.  1.
         11   -1    0    0    0    0 -0.00000000000E+00 -0.00000000000E+00 -0.45593999997E+02  0.45594000000E+02  0.51100000000E-03 0. -1.
    9900012    2    1    2    0    0 -0.57619787384E+01  0.11000568937E+02  0.29368482141E+02  0.59301942558E+02  0.49999997319E+02 0.  0.
         12    1    1    2    0    0  0.57619787384E+01 -0.11000568937E+02 -0.29368482141E+02  0.31886057442E+02  0.00000000000E+00 0. -1.
         11    1    3    3    0    0  0.92923395825E+00 -0.51164498270E+01 -0.64267619305E+01  0.82670916140E+01  0.51100000000E-03 0. -1.
        -11    1    3    3    0    0  0.95440438571E+01 -0.40745220337E+01  0.11897680082E+02  0.15787504380E+02  0.51100000000E-03 0.  1.
         12    1    3    3    0    0 -0.16235256554E+02  0.20191540798E+02  0.23897563990E+02  0.35247346564E+02  0.00000000000E+00 0. -1.
</event>
<event>
 7    1  0.1284645E-011  0.5930188E+02  0.7816164E-02  0.1266605E+00
        -11   -1    0    0    0    0  0.00000000000E+00  0.00000000000E+00  0.45593999997E+02  0.45594000000E+02  0.51100000000E-03 0.  1.
         11   -1    0    0    0    0 -0.00000000000E+00 -0.00000000000E+00 -0.45593999997E+02  0.45594000000E+02  0.51100000000E-03 0. -1.
    9900012    2    1    2    0    0 -0.24269309750E+02 -0.99833960838E+01  0.18112338423E+02  0.59301883958E+02  0.49999890447E+02 0.  0.
         12    1    1    2    0    0  0.24269309750E+02  0.99833960838E+01 -0.18112338423E+02  0.31886116042E+02  0.00000000000E+00 0. -1.
         11    1    3    3    0    0 -0.96119811596E+01  0.50033605414E-01 -0.10678647182E+02  0.14367539492E+02  0.51100000000E-03 0. -1.
        -11    1    3    3    0    0 -0.64472227286E+00  0.85563007053E+01  0.16527845456E+02  0.18622449470E+02  0.51100000000E-03 0.  1.
         12    1    3    3    0    0 -0.14012606317E+02 -0.18589730394E+02  0.12263140149E+02  0.26311894995E+02  0.00000000000E+00 0. -1.
</event>
<event>
 7    1  0.1284645E-011  0.5930195E+02  0.7816164E-02  0.1266605E+00
        -11   -1    0    0    0    0  0.00000000000E+00  0.00000000000E+00  0.45593999997E+02  0.45594000000E+02  0.51100000000E-03 0. -1.
         11   -1    0    0    0    0 -0.00000000000E+00 -0.00000000000E+00 -0.45593999997E+02  0.45594000000E+02  0.51100000000E-03 0.  1.
    9900012    2    1    2    0    0 -0.96513489582E+01  0.23351177211E+02 -0.19449779709E+02  0.59301953763E+02  0.50000017756E+02 0.  0.
         12    1    1    2    0    0  0.96513489582E+01 -0.23351177211E+02  0.19449779709E+02  0.31886046237E+02  0.00000000000E+00 0. -1.
         11    1    3    3    0    0  0.83981761046E+01  0.16057711620E+01  0.25771703080E+01  0.89302670714E+01  0.51100000000E-03 0. -1.
        -11    1    3    3    0    0 -0.38705127923E+01  0.22020330662E+02  0.20256907189E+01  0.22449482286E+02  0.51100000000E-03 0.  1.
        -12    1    3    3    0    0 -0.14179012271E+02 -0.27492461325E+00 -0.24052640736E+02  0.27922204406E+02  0.00000000000E+00 0.  1.
</event>
<event>
 7    1  0.1284645E-011  0.5930174E+02  0.7816164E-02  0.1266605E+00
        -11   -1    0    0    0    0  0.00000000000E+00  0.00000000000E+00  0.45593999997E+02  0.45594000000E+02  0.51100000000E-03 0.  1.
         11   -1    0    0    0    0 -0.00000000000E+00 -0.00000000000E+00 -0.45593999997E+02  0.45594000000E+02  0.51100000000E-03 0. -1.
    9900012    2    1    2    0    0 -0.24318853982E+02 -0.15241238628E+02 -0.13893588855E+02  0.59301736105E+02  0.49999620797E+02 0.  0.
         12    1    1    2    0    0  0.24318853982E+02  0.15241238628E+02  0.13893588855E+02  0.31886263895E+02  0.00000000000E+00 0. -1.
         11    1    3    3    0    0 -0.15041623313E+02  0.77597237817E+01 -0.91674747917E+01  0.19248541227E+02  0.51100000000E-03 0.  1.
        -11    1    3    3    0    0  0.27285277500E+01 -0.11147567437E+02 -0.16052093742E+02  0.19732785845E+02  0.51100000000E-03 0. -1.
        -12    1    3    3    0    0 -0.12005758419E+02 -0.11853394972E+02  0.11325979678E+02  0.20320409032E+02  0.00000000000E+00 0.  1.
</event>
<event>
 7    1  0.1284645E-011  0.5930194E+02  0.7816164E-02  0.1266605E+00
        -11   -1    0    0    0    0  0.00000000000E+00  0.00000000000E+00  0.45593999997E+02  0.45594000000E+02  0.51100000000E-03 0.  1.
         11   -1    0    0    0    0 -0.00000000000E+00 -0.00000000000E+00 -0.45593999997E+02  0.45594000000E+02  0.51100000000E-03 0. -1.
    9900012    2    1    2    0    0 -0.11474964592E+02  0.88215984223E+01  0.28411714987E+02  0.59301937847E+02  0.49999988729E+02 0.  0.
         12    1    1    2    0    0  0.11474964592E+02 -0.88215984223E+01 -0.28411714987E+02  0.31886062153E+02  0.00000000000E+00 0. -1.
         11    1    3    3    0    0 -0.25865188288E+01 -0.31788990371E+01  0.93474872088E+01  0.10206419358E+02  0.51100000000E-03 0.  1.
        -11    1    3    3    0    0  0.16071416299E+02 -0.23526531130E+01  0.91577833579E+01  0.18646457969E+02  0.51100000000E-03 0. -1.
         12    1    3    3    0    0 -0.24959862062E+02  0.14353150572E+02  0.99064444200E+01  0.30449060520E+02  0.00000000000E+00 0. -1.
</event>
<event>
 7    1  0.1284645E-011  0.5930195E+02  0.7816164E-02  0.1266605E+00
        -11   -1    0    0    0    0  0.00000000000E+00  0.00000000000E+00  0.45593999997E+02  0.45594000000E+02  0.51100000000E-03 0. -1.
         11   -1    0    0    0    0 -0.00000000000E+00 -0.00000000000E+00 -0.45593999997E+02  0.45594000000E+02  0.51100000000E-03 0.  1.
    9900012    2    1    2    0    0 -0.32585365845E+01  0.68127860654E+01 -0.30978830198E+02  0.59301952345E+02  0.50000015168E+02 0.  0.
         12    1    1    2    0    0  0.32585365845E+01 -0.68127860654E+01  0.30978830198E+02  0.31886047655E+02  0.00000000000E+00 0. -1.
         11    1    3    3    0    0  0.12296770271E+02  0.12608775351E+02 -0.26065233616E+01  0.17804093329E+02  0.51100000000E-03 0. -1.
        -11    1    3    3    0    0  0.61731942736E+01 -0.16642879410E+01 -0.12744264986E+01  0.65193822600E+01  0.51100000000E-03 0.  1.
        -12    1    3    3    0    0 -0.21728501130E+02 -0.41317013450E+01 -0.27097880338E+02  0.34978476756E+02  0.00000000000E+00 0.  1.
</event>
<event>
 7    1  0.1284645E-011  0.5930197E+02  0.7816164E-02  0.1266605E+00
        -11   -1    0    0    0    0  0.00000000000E+00  0.00000000000E+00  0.45593999997E+02  0.45594000000E+02  0.51100000000E-03 0. -1.
         11   -1    0    0    0    0 -0.00000000000E+00 -0.00000000000E+00 -0.45593999997E+02  0.45594000000E+02  0.51100000000E-03 0.  1.
    9900012    2    1    2    0    0  0.87311918175E+01 -0.22872651643E+02 -0.20428589825E+02  0.59301965659E+02  0.50000039451E+02 0.  0.
         12    1    1    2    0    0 -0.87311918175E+01  0.22872651643E+02  0.20428589825E+02  0.31886034341E+02  0.00000000000E+00 0. -1.
         11    1    3    3    0    0  0.15053700531E+02  0.89410822102E+01 -0.13220277294E+01  0.17558604966E+02  0.51100000000E-03 0. -1.
        -11    1    3    3    0    0 -0.34560860659E+01 -0.68520564449E+01 -0.14202824597E+02  0.16143588052E+02  0.51100000000E-03 0.  1.
        -12    1    3    3    0    0 -0.28664226476E+01 -0.24961677408E+02 -0.49037374994E+01  0.25599772641E+02  0.00000000000E+00 0.  1.
</event>
<event>
 7    1  0.1284645E-011  0.5930192E+02  0.7816164E-02  0.1266605E+00
        -11   -1    0    0    0    0  0.00000000000E+00  0.00000000000E+00  0.45593999997E+02  0.45594000000E+02  0.51100000000E-03 0. -1.
         11   -1    0    0    0    0 -0.00000000000E+00 -0.00000000000E+00 -0.45593999997E+02  0.45594000000E+02  0.51100000000E-03 0.  1.
    9900012    2    1    2    0    0  0.50379689891E+01 -0.31390486379E+02  0.24450661432E+01  0.59301919728E+02  0.49999955683E+02 0.  0.
         12    1    1    2    0    0 -0.50379689891E+01  0.31390486379E+02 -0.24450661432E+01  0.31886080272E+02  0.00000000000E+00 0. -1.
         11    1    3    3    0    0 -0.58870704691E+01  0.10933120078E+01  0.18041620609E+02  0.19009287318E+02  0.51100000000E-03 0. -1.
        -11    1    3    3    0    0  0.18804787000E+00 -0.32186717153E+01  0.26491226548E+01  0.41728959624E+01  0.51100000000E-03 0.  1.
        -12    1    3    3    0    0  0.10736991588E+02 -0.29265126672E+02 -0.18245677121E+02  0.36119736448E+02  0.00000000000E+00 0.  1.
</event>
<event>
 7    1  0.1284645E-011  0.5930194E+02  0.7816164E-02  0.1266605E+00
        -11   -1    0    0    0    0  0.00000000000E+00  0.00000000000E+00  0.45593999997E+02  0.45594000000E+02  0.51100000000E-03 0. -1.
         11   -1    0    0    0    0 -0.00000000000E+00 -0.00000000000E+00 -0.45593999997E+02  0.45594000000E+02  0.51100000000E-03 0.  1.
    9900012    2    1    2    0    0 -0.23548875827E+02 -0.19966125019E+02 -0.79702702586E+01  0.59301938641E+02  0.49999990176E+02 0.  0.
         12    1    1    2    0    0  0.23548875827E+02  0.19966125019E+02  0.79702702586E+01  0.31886061359E+02  0.00000000000E+00 0. -1.
         11    1    3    3    0    0 -0.25378797588E+02 -0.23450300653E+02  0.52261140785E+01  0.34947277953E+02  0.51100000000E-03 0. -1.
        -11    1    3    3    0    0 -0.64648297880E+01 -0.42207764317E+01 -0.99170542340E+01  0.12568092250E+02  0.51100000000E-03 0.  1.
         12    1    3    3    0    0  0.82947515488E+01  0.77049520660E+01 -0.32793301030E+01  0.11786568437E+02  0.00000000000E+00 0. -1.
</event>
<event>
 7    1  0.1284645E-011  0.5930196E+02  0.7816164E-02  0.1266605E+00
        -11   -1    0    0    0    0  0.00000000000E+00  0.00000000000E+00  0.45593999997E+02  0.45594000000E+02  0.51100000000E-03 0.  1.
         11   -1    0    0    0    0 -0.00000000000E+00 -0.00000000000E+00 -0.45593999997E+02  0.45594000000E+02  0.51100000000E-03 0. -1.
    9900012    2    1    2    0    0 -0.18157322938E+02 -0.24232990060E+02  0.99896737314E+01  0.59301956583E+02  0.50000022897E+02 0.  0.
         12    1    1    2    0    0  0.18157322938E+02  0.24232990060E+02 -0.99896737314E+01  0.31886043417E+02  0.00000000000E+00 0. -1.
         11    1    3    3    0    0  0.10510751202E+02 -0.17485769279E+02  0.33494629472E+01  0.20674789489E+02  0.51100000000E-03 0. -1.
        -11    1    3    3    0    0 -0.17081485451E+01 -0.46376008662E+01  0.10216770508E+02  0.11349339766E+02  0.51100000000E-03 0.  1.
         12    1    3    3    0    0 -0.26959925595E+02 -0.21096199150E+01 -0.35765597236E+01  0.27277827328E+02  0.00000000000E+00 0. -1.
</event>
<event>
 7    1  0.1284645E-011  0.5930194E+02  0.7816164E-02  0.1266605E+00
        -11   -1    0    0    0    0  0.00000000000E+00  0.00000000000E+00  0.45593999997E+02  0.45594000000E+02  0.51100000000E-03 0. -1.
         11   -1    0    0    0    0 -0.00000000000E+00 -0.00000000000E+00 -0.45593999997E+02  0.45594000000E+02  0.51100000000E-03 0.  1.
    9900012    2    1    2    0    0  0.27442343548E+02 -0.88705283121E+01 -0.13599722156E+02  0.59301938238E+02  0.49999989442E+02 0.  0.
         12    1    1    2    0    0 -0.27442343548E+02  0.88705283121E+01  0.13599722156E+02  0.31886061762E+02  0.00000000000E+00 0. -1.
         11    1    3    3    0    0 -0.52065205668E+01 -0.91006424059E+01 -0.47321492586E+01  0.11503164151E+02  0.51100000000E-03 0. -1.
        -11    1    3    3    0    0 -0.22022378956E+01 -0.48610578757E+01 -0.11297003210E+02  0.12494079286E+02  0.51100000000E-03 0.  1.
        -12    1    3    3    0    0  0.34851102010E+02  0.50911719695E+01  0.24294303129E+01  0.35304694801E+02  0.00000000000E+00 0.  1.
</event>
<event>
 7    1  0.1284645E-011  0.5930165E+02  0.7816164E-02  0.1266606E+00
        -11   -1    0    0    0    0  0.00000000000E+00  0.00000000000E+00  0.45593999997E+02  0.45594000000E+02  0.51100000000E-03 0. -1.
         11   -1    0    0    0    0 -0.00000000000E+00 -0.00000000000E+00 -0.45593999997E+02  0.45594000000E+02  0.51100000000E-03 0.  1.
    9900012    2    1    2    0    0  0.12900029150E+02  0.57230400136E+01 -0.28593270983E+02  0.59301653634E+02  0.49999470389E+02 0.  0.
         12    1    1    2    0    0 -0.12900029150E+02 -0.57230400136E+01  0.28593270983E+02  0.31886346366E+02  0.00000000000E+00 0. -1.
         11    1    3    3    0    0  0.23704642927E+02  0.11514434480E+02 -0.12885526960E+02  0.29334776342E+02  0.51100000000E-03 0. -1.
        -11    1    3    3    0    0  0.47174991185E+01  0.33625548960E+01 -0.90713870189E+01  0.10763439788E+02  0.51100000000E-03 0.  1.
         12    1    3    3    0    0 -0.15522112896E+02 -0.91539493629E+01 -0.66363570044E+01  0.19203437504E+02  0.00000000000E+00 0. -1.
</event>
<event>
 7    1  0.1284645E-011  0.5930195E+02  0.7816164E-02  0.1266605E+00
        -11   -1    0    0    0    0  0.00000000000E+00  0.00000000000E+00  0.45593999997E+02  0.45594000000E+02  0.51100000000E-03 0.  1.
         11   -1    0    0    0    0 -0.00000000000E+00 -0.00000000000E+00 -0.45593999997E+02  0.45594000000E+02  0.51100000000E-03 0. -1.
    9900012    2    1    2    0    0  0.71910790407E+01  0.25399169172E+02 -0.17885488238E+02  0.59301951297E+02  0.50000013257E+02 0.  0.
         12    1    1    2    0    0 -0.71910790407E+01 -0.25399169172E+02  0.17885488238E+02  0.31886048703E+02  0.00000000000E+00 0. -1.
         11    1    3    3    0    0 -0.98125192194E+00 -0.19918135238E+01 -0.15001322658E+00  0.22254619019E+01  0.51100000000E-03 0. -1.
        -11    1    3    3    0    0  0.12499174526E+02 -0.95226223035E+01  0.40666879924E+00  0.15718622050E+02  0.51100000000E-03 0.  1.
        -12    1    3    3    0    0 -0.43268435635E+01  0.36913604999E+02 -0.18142143811E+02  0.41357867345E+02  0.00000000000E+00 0.  1.
</event>
<event>
 7    1  0.1284645E-011  0.5930193E+02  0.7816164E-02  0.1266605E+00
        -11   -1    0    0    0    0  0.00000000000E+00  0.00000000000E+00  0.45593999997E+02  0.45594000000E+02  0.51100000000E-03 0. -1.
         11   -1    0    0    0    0 -0.00000000000E+00 -0.00000000000E+00 -0.45593999997E+02  0.45594000000E+02  0.51100000000E-03 0.  1.
    9900012    2    1    2    0    0  0.21375848549E+02  0.22999090012E+02  0.55530368258E+01  0.59301933128E+02  0.49999980122E+02 0.  0.
         12    1    1    2    0    0 -0.21375848549E+02 -0.22999090012E+02 -0.55530368258E+01  0.31886066872E+02  0.00000000000E+00 0. -1.
         11    1    3    3    0    0  0.22119624010E+02  0.11147465431E+02 -0.85616872576E+01  0.26207751541E+02  0.51100000000E-03 0.  1.
        -11    1    3    3    0    0  0.32200124818E+00 -0.82254423222E+01 -0.48670558491E+00  0.82461184073E+01  0.51100000000E-03 0. -1.
        -12    1    3    3    0    0 -0.10657767091E+01  0.20077066903E+02  0.14601429668E+02  0.24848063180E+02  0.00000000000E+00 0.  1.
</event>
<event>
 7    1  0.1284645E-011  0.5930192E+02  0.7816164E-02  0.1266605E+00
        -11   -1    0    0    0    0  0.00000000000E+00  0.00000000000E+00  0.45593999997E+02  0.45594000000E+02  0.51100000000E-03 0. -1.
         11   -1    0    0    0    0 -0.00000000000E+00 -0.00000000000E+00 -0.45593999997E+02  0.45594000000E+02  0.51100000000E-03 0.  1.
    9900012    2    1    2    0    0  0.11691140931E+01 -0.25288805727E+02 -0.19386372466E+02  0.59301922156E+02  0.49999960112E+02 0.  0.
         12    1    1    2    0    0 -0.11691140931E+01  0.25288805727E+02  0.19386372466E+02  0.31886077844E+02  0.00000000000E+00 0. -1.
         11    1    3    3    0    0  0.10987166537E+01  0.78483432031E+01 -0.98959721101E+01  0.12678088720E+02  0.51100000000E-03 0.  1.
        -11    1    3    3    0    0  0.14583204868E+02 -0.18978612635E+02  0.67294307382E+00  0.23943902238E+02  0.51100000000E-03 0. -1.
         12    1    3    3    0    0 -0.14512807429E+02 -0.14158536295E+02 -0.10163343430E+02  0.22679931198E+02  0.00000000000E+00 0. -1.
</event>
<event>
 7    1  0.1284645E-011  0.5930194E+02  0.7816164E-02  0.1266605E+00
        -11   -1    0    0    0    0  0.00000000000E+00  0.00000000000E+00  0.45593999997E+02  0.45594000000E+02  0.51100000000E-03 0.  1.
         11   -1    0    0    0    0 -0.00000000000E+00 -0.00000000000E+00 -0.45593999997E+02  0.45594000000E+02  0.51100000000E-03 0. -1.
    9900012    2    1    2    0    0  0.14140430727E+02  0.21765805664E+02  0.18520757702E+02  0.59301944377E+02  0.50000000636E+02 0.  0.
         12    1    1    2    0    0 -0.14140430727E+02 -0.21765805664E+02 -0.18520757702E+02  0.31886055623E+02  0.00000000000E+00 0. -1.
         11    1    3    3    0    0 -0.97195235533E+01 -0.36507025771E+01 -0.31914472111E+01  0.10861956682E+02  0.51100000000E-03 0. -1.
        -11    1    3    3    0    0  0.99514211121E+01 -0.21957737557E+01 -0.75904392134E+00  0.10219019154E+02  0.51100000000E-03 0.  1.
        -12    1    3    3    0    0  0.13908533169E+02  0.27612281996E+02  0.22471248835E+02  0.38220968540E+02  0.00000000000E+00 0.  1.
</event>
<event>
 7    1  0.1284645E-011  0.5930194E+02  0.7816164E-02  0.1266605E+00
        -11   -1    0    0    0    0  0.00000000000E+00  0.00000000000E+00  0.45593999997E+02  0.45594000000E+02  0.51100000000E-03 0. -1.
         11   -1    0    0    0    0 -0.00000000000E+00 -0.00000000000E+00 -0.45593999997E+02  0.45594000000E+02  0.51100000000E-03 0.  1.
    9900012    2    1    2    0    0 -0.26985853239E+02  0.12097475419E+02 -0.11922064117E+02  0.59301940360E+02  0.49999993311E+02 0.  0.
         12    1    1    2    0    0  0.26985853239E+02 -0.12097475419E+02  0.11922064117E+02  0.31886059640E+02  0.00000000000E+00 0. -1.
         11    1    3    3    0    0 -0.21301114693E+02  0.13117866193E+02  0.10568263305E+02  0.27157026534E+02  0.51100000000E-03 0.  1.
        -11    1    3    3    0    0 -0.13309732617E+02 -0.31179791463E+01 -0.85678045398E+01  0.16133135194E+02  0.51100000000E-03 0. -1.
         12    1    3    3    0    0  0.76249940706E+01  0.20975883716E+01 -0.13922522882E+02  0.16011778632E+02  0.00000000000E+00 0. -1.
</event>
<event>
 7    1  0.1284645E-011  0.5930194E+02  0.7816164E-02  0.1266605E+00
        -11   -1    0    0    0    0  0.00000000000E+00  0.00000000000E+00  0.45593999997E+02  0.45594000000E+02  0.51100000000E-03 0. -1.
         11   -1    0    0    0    0 -0.00000000000E+00 -0.00000000000E+00 -0.45593999997E+02  0.45594000000E+02  0.51100000000E-03 0.  1.
    9900012    2    1    2    0    0 -0.12705041975E+02 -0.21012525069E+02 -0.20341490286E+02  0.59301944609E+02  0.50000001060E+02 0.  0.
         12    1    1    2    0    0  0.12705041975E+02  0.21012525069E+02  0.20341490286E+02  0.31886055391E+02  0.00000000000E+00 0. -1.
         11    1    3    3    0    0 -0.12368796170E+02 -0.31410943739E+01 -0.39170230465E+01  0.13349032263E+02  0.51100000000E-03 0. -1.
        -11    1    3    3    0    0 -0.29425560711E+01 -0.29570784707E+02 -0.65665520139E+01  0.30433691035E+02  0.51100000000E-03 0.  1.
        -12    1    3    3    0    0  0.26063102659E+01  0.11699354012E+02 -0.98579152253E+01  0.15519221311E+02  0.00000000000E+00 0.  1.
</event>
<event>
 7    1  0.1284645E-011  0.5930192E+02  0.7816164E-02  0.1266605E+00
        -11   -1    0    0    0    0  0.00000000000E+00  0.00000000000E+00  0.45593999997E+02  0.45594000000E+02  0.51100000000E-03 0.  1.
         11   -1    0    0    0    0 -0.00000000000E+00 -0.00000000000E+00 -0.45593999997E+02  0.45594000000E+02  0.51100000000E-03 0. -1.
    9900012    2    1    2    0    0  0.13108182298E+02  0.29063735613E+02 -0.44374965481E+00  0.59301920205E+02  0.49999956553E+02 0.  0.
         12    1    1    2    0    0 -0.13108182298E+02 -0.29063735613E+02  0.44374965481E+00  0.31886079795E+02  0.00000000000E+00 0. -1.
         11    1    3    3    0    0  0.10566603752E+01  0.11434607710E+02 -0.11098023108E+02  0.15969749585E+02  0.51100000000E-03 0. -1.
        -11    1    3    3    0    0  0.21281787347E+02 -0.85516196112E+00  0.63792045783E+01  0.22233758701E+02  0.51100000000E-03 0.  1.
         12    1    3    3    0    0 -0.92302654247E+01  0.18484289865E+02  0.42750688750E+01  0.21098411919E+02  0.00000000000E+00 0. -1.
</event>
<event>
 7    1  0.1284645E-011  0.5930195E+02  0.7816164E-02  0.1266605E+00
        -11   -1    0    0    0    0  0.00000000000E+00  0.00000000000E+00  0.45593999997E+02  0.45594000000E+02  0.51100000000E-03 0.  1.
         11   -1    0    0    0    0 -0.00000000000E+00 -0.00000000000E+00 -0.45593999997E+02  0.45594000000E+02  0.51100000000E-03 0. -1.
    9900012    2    1    2    0    0 -0.15191474559E+00  0.96572203072E+01  0.30388072430E+02  0.59301954021E+02  0.50000018226E+02 0.  0.
         12    1    1    2    0    0  0.15191474559E+00 -0.96572203072E+01 -0.30388072430E+02  0.31886045979E+02  0.00000000000E+00 0. -1.
         11    1    3    3    0    0 -0.16477206882E+02  0.17008552653E+02  0.50644723707E+01  0.24216483862E+02  0.51100000000E-03 0. -1.
        -11    1    3    3    0    0  0.86982966752E-01 -0.17277651446E+01  0.14871860565E+02  0.14972139972E+02  0.51100000000E-03 0.  1.
        -12    1    3    3    0    0  0.16238309170E+02 -0.56235672010E+01  0.10451739494E+02  0.20113330187E+02  0.00000000000E+00 0.  1.
</event>
<event>
 7    1  0.1284645E-011  0.5930195E+02  0.7816164E-02  0.1266605E+00
        -11   -1    0    0    0    0  0.00000000000E+00  0.00000000000E+00  0.45593999997E+02  0.45594000000E+02  0.51100000000E-03 0. -1.
         11   -1    0    0    0    0 -0.00000000000E+00 -0.00000000000E+00 -0.45593999997E+02  0.45594000000E+02  0.51100000000E-03 0.  1.
    9900012    2    1    2    0    0 -0.35147040747E+01  0.30240995380E+02 -0.94788779883E+01  0.59301951730E+02  0.50000014048E+02 0.  0.
         12    1    1    2    0    0  0.35147040747E+01 -0.30240995380E+02  0.94788779883E+01  0.31886048270E+02  0.00000000000E+00 0. -1.
         11    1    3    3    0    0 -0.55444724633E+01  0.34612913163E+01 -0.13759460335E+02  0.15233005660E+02  0.51100000000E-03 0. -1.
        -11    1    3    3    0    0  0.11995081975E+02  0.21019387755E+02 -0.96009592006E+01  0.26036034088E+02  0.51100000000E-03 0.  1.
         12    1    3    3    0    0 -0.99653135865E+01  0.57603163086E+01  0.13881541547E+02  0.18032911983E+02  0.00000000000E+00 0. -1.
</event>
<event>
 7    1  0.1284645E-011  0.5930189E+02  0.7816164E-02  0.1266605E+00
        -11   -1    0    0    0    0  0.00000000000E+00  0.00000000000E+00  0.45593999997E+02  0.45594000000E+02  0.51100000000E-03 0.  1.
         11   -1    0    0    0    0 -0.00000000000E+00 -0.00000000000E+00 -0.45593999997E+02  0.45594000000E+02  0.51100000000E-03 0. -1.
    9900012    2    1    2    0    0  0.26123407716E+02  0.16428211515E+02  0.80253110077E+01  0.59301887333E+02  0.49999896602E+02 0.  0.
         12    1    1    2    0    0 -0.26123407716E+02 -0.16428211515E+02 -0.80253110077E+01  0.31886112667E+02  0.00000000000E+00 0. -1.
         11    1    3    3    0    0  0.21741776830E+02  0.21500398685E+02 -0.80310103660E+01  0.31614381713E+02  0.51100000000E-03 0. -1.
        -11    1    3    3    0    0  0.10569857201E+02  0.36347866507E+01  0.47849078219E+01  0.12158490793E+02  0.51100000000E-03 0.  1.
         12    1    3    3    0    0 -0.61882263146E+01 -0.87069738213E+01  0.11271413552E+02  0.15529014827E+02  0.00000000000E+00 0. -1.
</event>
<event>
 7    1  0.1284645E-011  0.5930201E+02  0.7816164E-02  0.1266605E+00
        -11   -1    0    0    0    0  0.00000000000E+00  0.00000000000E+00  0.45593999997E+02  0.45594000000E+02  0.51100000000E-03 0.  1.
         11   -1    0    0    0    0 -0.00000000000E+00 -0.00000000000E+00 -0.45593999997E+02  0.45594000000E+02  0.51100000000E-03 0. -1.
    9900012    2    1    2    0    0 -0.30876036685E+02 -0.56696899249E+01 -0.55894208792E+01  0.59302005410E+02  0.50000111947E+02 0.  0.
         12    1    1    2    0    0  0.30876036685E+02  0.56696899249E+01  0.55894208792E+01  0.31885994590E+02  0.00000000000E+00 0. -1.
         11    1    3    3    0    0 -0.14348163070E+02 -0.92130562466E+01 -0.40142854660E+01  0.17517553395E+02  0.51100000000E-03 0. -1.
        -11    1    3    3    0    0 -0.23494230632E+02 -0.82430583623E+01 -0.86692873183E+01  0.26364434889E+02  0.51100000000E-03 0.  1.
         12    1    3    3    0    0  0.69663570170E+01  0.11786424684E+02  0.70941519051E+01  0.15420017126E+02  0.00000000000E+00 0. -1.
</event>
<event>
 7    1  0.1284645E-011  0.5930191E+02  0.7816164E-02  0.1266605E+00
        -11   -1    0    0    0    0  0.00000000000E+00  0.00000000000E+00  0.45593999997E+02  0.45594000000E+02  0.51100000000E-03 0.  1.
         11   -1    0    0    0    0 -0.00000000000E+00 -0.00000000000E+00 -0.45593999997E+02  0.45594000000E+02  0.51100000000E-03 0. -1.
    9900012    2    1    2    0    0 -0.17337635054E+02 -0.37238865158E+01  0.26500221872E+02  0.59301910881E+02  0.49999939548E+02 0.  0.
         12    1    1    2    0    0  0.17337635054E+02  0.37238865158E+01 -0.26500221872E+02  0.31886089119E+02  0.00000000000E+00 0. -1.
         11    1    3    3    0    0 -0.76089146408E+00 -0.15595221994E+02  0.20782211112E+02  0.25994041699E+02  0.51100000000E-03 0. -1.
        -11    1    3    3    0    0 -0.14005564626E+02 -0.48885148621E+01 -0.14380105112E+01  0.14903734181E+02  0.51100000000E-03 0.  1.
         12    1    3    3    0    0 -0.25711789641E+01  0.16759850341E+02  0.71560212711E+01  0.18404135001E+02  0.00000000000E+00 0. -1.
</event>
<event>
 7    1  0.1284645E-011  0.5930202E+02  0.7816164E-02  0.1266605E+00
        -11   -1    0    0    0    0  0.00000000000E+00  0.00000000000E+00  0.45593999997E+02  0.45594000000E+02  0.51100000000E-03 0. -1.
         11   -1    0    0    0    0 -0.00000000000E+00 -0.00000000000E+00 -0.45593999997E+02  0.45594000000E+02  0.51100000000E-03 0.  1.
    9900012    2    1    2    0    0  0.24271037363E+02 -0.65516585710E+01 -0.19613988271E+02  0.59302015295E+02  0.50000129974E+02 0.  0.
         12    1    1    2    0    0 -0.24271037363E+02  0.65516585710E+01  0.19613988271E+02  0.31885984705E+02  0.00000000000E+00 0. -1.
         11    1    3    3    0    0  0.17089639176E+02  0.10020654842E+02 -0.20062561804E+02  0.28195313033E+02  0.51100000000E-03 0. -1.
        -11    1    3    3    0    0  0.35596412398E+01  0.46727942503E+01 -0.62117755245E+01  0.85493980660E+01  0.51100000000E-03 0.  1.
         12    1    3    3    0    0  0.36217569480E+01 -0.21245107663E+02  0.66603490583E+01  0.22557304196E+02  0.00000000000E+00 0. -1.
</event>
<event>
 7    1  0.1284645E-011  0.5930195E+02  0.7816164E-02  0.1266605E+00
        -11   -1    0    0    0    0  0.00000000000E+00  0.00000000000E+00  0.45593999997E+02  0.45594000000E+02  0.51100000000E-03 0.  1.
         11   -1    0    0    0    0 -0.00000000000E+00 -0.00000000000E+00 -0.45593999997E+02  0.45594000000E+02  0.51100000000E-03 0. -1.
    9900012    2    1    2    0    0 -0.24229683911E+02  0.70465373305E+01  0.19493296657E+02  0.59301954693E+02  0.50000019450E+02 0.  0.
         12    1    1    2    0    0  0.24229683911E+02 -0.70465373305E+01 -0.19493296657E+02  0.31886045307E+02  0.00000000000E+00 0. -1.
         11    1    3    3    0    0 -0.58385023894E+01 -0.29260518513E+01  0.56301377255E+01  0.86225483853E+01  0.51100000000E-03 0.  1.
        -11    1    3    3    0    0 -0.26336535308E+02  0.21473323322E+02  0.55946336404E+01  0.34438592195E+02  0.51100000000E-03 0. -1.
         12    1    3    3    0    0  0.79453537859E+01 -0.11500734140E+02  0.82685252913E+01  0.16240814113E+02  0.00000000000E+00 0. -1.
</event>
<event>
 7    1  0.1284645E-011  0.5930202E+02  0.7816164E-02  0.1266604E+00
        -11   -1    0    0    0    0  0.00000000000E+00  0.00000000000E+00  0.45593999997E+02  0.45594000000E+02  0.51100000000E-03 0. -1.
         11   -1    0    0    0    0 -0.00000000000E+00 -0.00000000000E+00 -0.45593999997E+02  0.45594000000E+02  0.51100000000E-03 0.  1.
    9900012    2    1    2    0    0 -0.29648496061E+02 -0.96862353236E+01 -0.66226109978E+01  0.59302024245E+02  0.50000146297E+02 0.  0.
         12    1    1    2    0    0  0.29648496061E+02  0.96862353236E+01  0.66226109978E+01  0.31885975755E+02  0.00000000000E+00 0. -1.
         11    1    3    3    0    0 -0.96602340511E+01 -0.22461995693E+01  0.13456893215E+02  0.16716863034E+02  0.51100000000E-03 0. -1.
        -11    1    3    3    0    0 -0.11968031837E+02  0.11448213499E+02 -0.12340338110E+02  0.20653796825E+02  0.51100000000E-03 0.  1.
         12    1    3    3    0    0 -0.80202301732E+01 -0.18888249253E+02 -0.77391661030E+01  0.21931364386E+02  0.00000000000E+00 0. -1.
</event>
<event>
 7    1  0.1284645E-011  0.5930194E+02  0.7816164E-02  0.1266605E+00
        -11   -1    0    0    0    0  0.00000000000E+00  0.00000000000E+00  0.45593999997E+02  0.45594000000E+02  0.51100000000E-03 0.  1.
         11   -1    0    0    0    0 -0.00000000000E+00 -0.00000000000E+00 -0.45593999997E+02  0.45594000000E+02  0.51100000000E-03 0. -1.
    9900012    2    1    2    0    0  0.20588678570E+02  0.14600528287E+02  0.19484646174E+02  0.59301944301E+02  0.50000000498E+02 0.  0.
         12    1    1    2    0    0 -0.20588678570E+02 -0.14600528287E+02 -0.19484646174E+02  0.31886055699E+02  0.00000000000E+00 0. -1.
         11    1    3    3    0    0  0.60811861719E+01 -0.28178491380E+01 -0.64729828885E+01  0.93177576035E+01  0.51100000000E-03 0. -1.
        -11    1    3    3    0    0  0.23382099486E+02  0.20138092342E+02  0.11764238262E+02  0.33025181932E+02  0.51100000000E-03 0.  1.
        -12    1    3    3    0    0 -0.88746070874E+01 -0.27197149170E+01  0.14193390801E+02  0.16959004765E+02  0.00000000000E+00 0.  1.
</event>
<event>
 7    1  0.1284645E-011  0.5930195E+02  0.7816164E-02  0.1266605E+00
        -11   -1    0    0    0    0  0.00000000000E+00  0.00000000000E+00  0.45593999997E+02  0.45594000000E+02  0.51100000000E-03 0.  1.
         11   -1    0    0    0    0 -0.00000000000E+00 -0.00000000000E+00 -0.45593999997E+02  0.45594000000E+02  0.51100000000E-03 0. -1.
    9900012    2    1    2    0    0  0.26082607387E+02  0.14385149556E+02 -0.11379165502E+02  0.59301947510E+02  0.50000006352E+02 0.  0.
         12    1    1    2    0    0 -0.26082607387E+02 -0.14385149556E+02  0.11379165502E+02  0.31886052490E+02  0.00000000000E+00 0. -1.
         11    1    3    3    0    0  0.11862998347E+02 -0.59710659827E+01  0.82162563284E+01  0.15617017227E+02  0.51100000000E-03 0. -1.
        -11    1    3    3    0    0 -0.58430351144E+01  0.17491581521E+02 -0.64890604178E+01  0.19550048308E+02  0.51100000000E-03 0.  1.
         12    1    3    3    0    0  0.20062644154E+02  0.28646340173E+01 -0.13106361412E+02  0.24134881976E+02  0.00000000000E+00 0. -1.
</event>
<event>
 7    1  0.1284645E-011  0.5930195E+02  0.7816164E-02  0.1266605E+00
        -11   -1    0    0    0    0  0.00000000000E+00  0.00000000000E+00  0.45593999997E+02  0.45594000000E+02  0.51100000000E-03 0. -1.
         11   -1    0    0    0    0 -0.00000000000E+00 -0.00000000000E+00 -0.45593999997E+02  0.45594000000E+02  0.51100000000E-03 0.  1.
    9900012    2    1    2    0    0 -0.28530207094E+02  0.45742758288E+01 -0.13484188138E+02  0.59301952175E+02  0.50000014858E+02 0.  0.
         12    1    1    2    0    0  0.28530207094E+02 -0.45742758288E+01  0.13484188138E+02  0.31886047825E+02  0.00000000000E+00 0. -1.
         11    1    3    3    0    0  0.63468329563E+00 -0.93418409969E+01 -0.11793353206E+02  0.15058419446E+02  0.51100000000E-03 0. -1.
        -11    1    3    3    0    0 -0.22333225076E+02  0.76994953942E+00  0.10842437547E+02  0.24837959192E+02  0.51100000000E-03 0.  1.
         12    1    3    3    0    0 -0.68316653132E+01  0.13146167286E+02 -0.12533272479E+02  0.19405573537E+02  0.00000000000E+00 0. -1.
</event>
<event>
 7    1  0.1284645E-011  0.5930201E+02  0.7816164E-02  0.1266605E+00
        -11   -1    0    0    0    0  0.00000000000E+00  0.00000000000E+00  0.45593999997E+02  0.45594000000E+02  0.51100000000E-03 0. -1.
         11   -1    0    0    0    0 -0.00000000000E+00 -0.00000000000E+00 -0.45593999997E+02  0.45594000000E+02  0.51100000000E-03 0.  1.
    9900012    2    1    2    0    0  0.15523502017E+02  0.22701963532E+02 -0.16135622302E+02  0.59302006677E+02  0.50000114257E+02 0.  0.
         12    1    1    2    0    0 -0.15523502017E+02 -0.22701963532E+02  0.16135622302E+02  0.31885993323E+02  0.00000000000E+00 0. -1.
         11    1    3    3    0    0  0.35558180860E+01  0.22667548574E+02 -0.61140604798E+01  0.23745385582E+02  0.51100000000E-03 0. -1.
        -11    1    3    3    0    0  0.54487297464E+01  0.11903229099E+02 -0.16068861172E+02  0.20726403896E+02  0.51100000000E-03 0.  1.
         12    1    3    3    0    0  0.65189541850E+01 -0.11868814140E+02  0.60472993496E+01  0.14830217200E+02  0.00000000000E+00 0. -1.
</event>
<event>
 7    1  0.1284645E-011  0.5930196E+02  0.7816164E-02  0.1266605E+00
        -11   -1    0    0    0    0  0.00000000000E+00  0.00000000000E+00  0.45593999997E+02  0.45594000000E+02  0.51100000000E-03 0.  1.
         11   -1    0    0    0    0 -0.00000000000E+00 -0.00000000000E+00 -0.45593999997E+02  0.45594000000E+02  0.51100000000E-03 0. -1.
    9900012    2    1    2    0    0  0.27881725864E+02  0.14716294397E+02  0.47707286981E+01  0.59301955871E+02  0.50000021599E+02 0.  0.
         12    1    1    2    0    0 -0.27881725864E+02 -0.14716294397E+02 -0.47707286981E+01  0.31886044129E+02  0.00000000000E+00 0. -1.
         11    1    3    3    0    0  0.19654848962E+01  0.42474681467E+00 -0.61743704377E+01  0.64935653763E+01  0.51100000000E-03 0. -1.
        -11    1    3    3    0    0  0.28873668478E+02 -0.30285873354E+00 -0.67778234691E+01  0.29660063150E+02  0.51100000000E-03 0.  1.
         12    1    3    3    0    0 -0.29574275108E+01  0.14594406316E+02  0.17722922605E+02  0.23148327345E+02  0.00000000000E+00 0. -1.
</event>
<event>
 7    1  0.1284645E-011  0.5930196E+02  0.7816164E-02  0.1266605E+00
        -11   -1    0    0    0    0  0.00000000000E+00  0.00000000000E+00  0.45593999997E+02  0.45594000000E+02  0.51100000000E-03 0.  1.
         11   -1    0    0    0    0 -0.00000000000E+00 -0.00000000000E+00 -0.45593999997E+02  0.45594000000E+02  0.51100000000E-03 0. -1.
    9900012    2    1    2    0    0 -0.24484875727E+02  0.18207575461E+02  0.92571338891E+01  0.59301961184E+02  0.50000031289E+02 0.  0.
         12    1    1    2    0    0  0.24484875727E+02 -0.18207575461E+02 -0.92571338891E+01  0.31886038816E+02  0.00000000000E+00 0. -1.
         11    1    3    3    0    0 -0.11337015606E+02 -0.54408210217E+01  0.25405358378E+01  0.12829059936E+02  0.51100000000E-03 0. -1.
        -11    1    3    3    0    0 -0.12380115024E+02  0.33556798351E+02  0.31179204221E+01  0.35903306137E+02  0.51100000000E-03 0.  1.
         12    1    3    3    0    0 -0.76774509739E+00 -0.99084018687E+01  0.35986776293E+01  0.10569595111E+02  0.00000000000E+00 0. -1.
</event>
<event>
 7    1  0.1284645E-011  0.5930195E+02  0.7816164E-02  0.1266605E+00
        -11   -1    0    0    0    0  0.00000000000E+00  0.00000000000E+00  0.45593999997E+02  0.45594000000E+02  0.51100000000E-03 0.  1.
         11   -1    0    0    0    0 -0.00000000000E+00 -0.00000000000E+00 -0.45593999997E+02  0.45594000000E+02  0.51100000000E-03 0. -1.
    9900012    2    1    2    0    0 -0.27216129611E+02 -0.13020130968E+02 -0.10318852938E+02  0.59301949016E+02  0.50000009097E+02 0.  0.
         12    1    1    2    0    0  0.27216129611E+02  0.13020130968E+02  0.10318852938E+02  0.31886050984E+02  0.00000000000E+00 0. -1.
         11    1    3    3    0    0 -0.10334689686E+01 -0.20486689001E+02 -0.50122649124E+01  0.21116232717E+02  0.51100000000E-03 0. -1.
        -11    1    3    3    0    0  0.81655154648E+00  0.65720122870E+01 -0.87277685476E+01  0.10955913746E+02  0.51100000000E-03 0.  1.
        -12    1    3    3    0    0 -0.26999212189E+02  0.89454574579E+00  0.34211805221E+01  0.27229802553E+02  0.00000000000E+00 0.  1.
</event>
<event>
 7    1  0.1284645E-011  0.5930192E+02  0.7816164E-02  0.1266605E+00
        -11   -1    0    0    0    0  0.00000000000E+00  0.00000000000E+00  0.45593999997E+02  0.45594000000E+02  0.51100000000E-03 0.  1.
         11   -1    0    0    0    0 -0.00000000000E+00 -0.00000000000E+00 -0.45593999997E+02  0.45594000000E+02  0.51100000000E-03 0. -1.
    9900012    2    1    2    0    0 -0.77553032061E+01  0.24025789642E+02  0.19476618622E+02  0.59301922024E+02  0.49999959871E+02 0.  0.
         12    1    1    2    0    0  0.77553032061E+01 -0.24025789642E+02 -0.19476618622E+02  0.31886077976E+02  0.00000000000E+00 0. -1.
         11    1    3    3    0    0  0.13286047929E+02  0.10097685343E+02 -0.22068586507E+01  0.16833078869E+02  0.51100000000E-03 0. -1.
        -11    1    3    3    0    0  0.49098391526E+01 -0.22797128793E+01  0.91696545192E+00  0.54903949965E+01  0.51100000000E-03 0.  1.
        -12    1    3    3    0    0 -0.25951190288E+02  0.16207817178E+02  0.20766511821E+02  0.36978448159E+02  0.00000000000E+00 0.  1.
</event>
<event>
 7    1  0.1284645E-011  0.5930194E+02  0.7816164E-02  0.1266605E+00
        -11   -1    0    0    0    0  0.00000000000E+00  0.00000000000E+00  0.45593999997E+02  0.45594000000E+02  0.51100000000E-03 0. -1.
         11   -1    0    0    0    0 -0.00000000000E+00 -0.00000000000E+00 -0.45593999997E+02  0.45594000000E+02  0.51100000000E-03 0.  1.
    9900012    2    1    2    0    0 -0.29855934035E+02  0.10145389577E+02 -0.47344485502E+01  0.59301941450E+02  0.49999995299E+02 0.  0.
         12    1    1    2    0    0  0.29855934035E+02 -0.10145389577E+02  0.47344485502E+01  0.31886058550E+02  0.00000000000E+00 0. -1.
         11    1    3    3    0    0 -0.13899979501E+02 -0.92027610683E+01 -0.11850617921E+02  0.20453297699E+02  0.51100000000E-03 0. -1.
        -11    1    3    3    0    0 -0.17672656695E+02 -0.10609467230E+01  0.36335494032E+01  0.18073491199E+02  0.51100000000E-03 0.  1.
         12    1    3    3    0    0  0.17167021606E+01  0.20409097368E+02  0.34826199679E+01  0.20775152551E+02  0.00000000000E+00 0. -1.
</event>
<event>
 7    1  0.1284645E-011  0.5930195E+02  0.7816164E-02  0.1266605E+00
        -11   -1    0    0    0    0  0.00000000000E+00  0.00000000000E+00  0.45593999997E+02  0.45594000000E+02  0.51100000000E-03 0.  1.
         11   -1    0    0    0    0 -0.00000000000E+00 -0.00000000000E+00 -0.45593999997E+02  0.45594000000E+02  0.51100000000E-03 0. -1.
    9900012    2    1    2    0    0 -0.15665387822E+02 -0.18028474949E+02  0.21125579073E+02  0.59301947002E+02  0.50000005425E+02 0.  0.
         12    1    1    2    0    0  0.15665387822E+02  0.18028474949E+02 -0.21125579073E+02  0.31886052998E+02  0.00000000000E+00 0. -1.
         11    1    3    3    0    0  0.45217298061E+01 -0.19090261502E+02  0.13206844633E+01  0.19662866840E+02  0.51100000000E-03 0. -1.
        -11    1    3    3    0    0 -0.16969766854E+02 -0.11971997242E+02  0.13782985554E+02  0.24925336429E+02  0.51100000000E-03 0.  1.
        -12    1    3    3    0    0 -0.32173507744E+01  0.13033783794E+02  0.60219090551E+01  0.14713743734E+02  0.00000000000E+00 0.  1.
</event>
<event>
 7    1  0.1284645E-011  0.5930195E+02  0.7816164E-02  0.1266605E+00
        -11   -1    0    0    0    0  0.00000000000E+00  0.00000000000E+00  0.45593999997E+02  0.45594000000E+02  0.51100000000E-03 0. -1.
         11   -1    0    0    0    0 -0.00000000000E+00 -0.00000000000E+00 -0.45593999997E+02  0.45594000000E+02  0.51100000000E-03 0.  1.
    9900012    2    1    2    0    0 -0.26939680577E+02  0.10074710266E+02 -0.13764961185E+02  0.59301947674E+02  0.50000006649E+02 0.  0.
         12    1    1    2    0    0  0.26939680577E+02 -0.10074710266E+02  0.13764961185E+02  0.31886052326E+02  0.00000000000E+00 0. -1.
         11    1    3    3    0    0  0.35053264360E+01  0.67377551450E+01 -0.13117870724E+02  0.15157941496E+02  0.51100000000E-03 0.  1.
        -11    1    3    3    0    0  0.16988150252E+01  0.93223350569E+01 -0.57021311884E+01  0.11059213523E+02  0.51100000000E-03 0. -1.
        -12    1    3    3    0    0 -0.32143822038E+02 -0.59853799360E+01  0.50550407273E+01  0.33084792654E+02  0.00000000000E+00 0.  1.
</event>
<event>
 7    1  0.1284645E-011  0.5930195E+02  0.7816164E-02  0.1266605E+00
        -11   -1    0    0    0    0  0.00000000000E+00  0.00000000000E+00  0.45593999997E+02  0.45594000000E+02  0.51100000000E-03 0.  1.
         11   -1    0    0    0    0 -0.00000000000E+00 -0.00000000000E+00 -0.45593999997E+02  0.45594000000E+02  0.51100000000E-03 0. -1.
    9900012    2    1    2    0    0  0.26418391871E+02  0.55271089401E+01  0.16977621401E+02  0.59301953041E+02  0.50000016437E+02 0.  0.
         12    1    1    2    0    0 -0.26418391871E+02 -0.55271089401E+01 -0.16977621401E+02  0.31886046959E+02  0.00000000000E+00 0. -1.
         11    1    3    3    0    0  0.11332928187E+02 -0.41411372801E+01 -0.11814765334E+02  0.16887064855E+02  0.51100000000E-03 0. -1.
        -11    1    3    3    0    0  0.20917908855E+02  0.37686362056E+01  0.13988061168E+02  0.25444594421E+02  0.51100000000E-03 0.  1.
         12    1    3    3    0    0 -0.58324451713E+01  0.58996100145E+01  0.14804325566E+02  0.16970293765E+02  0.00000000000E+00 0. -1.
</event>
<event>
 7    1  0.1284645E-011  0.5930194E+02  0.7816164E-02  0.1266605E+00
        -11   -1    0    0    0    0  0.00000000000E+00  0.00000000000E+00  0.45593999997E+02  0.45594000000E+02  0.51100000000E-03 0. -1.
         11   -1    0    0    0    0 -0.00000000000E+00 -0.00000000000E+00 -0.45593999997E+02  0.45594000000E+02  0.51100000000E-03 0.  1.
    9900012    2    1    2    0    0 -0.23173210483E+02 -0.28812043759E+01 -0.21712244701E+02  0.59301943601E+02  0.49999999221E+02 0.  0.
         12    1    1    2    0    0  0.23173210483E+02  0.28812043759E+01  0.21712244701E+02  0.31886056399E+02  0.00000000000E+00 0. -1.
         11    1    3    3    0    0 -0.20969086716E+01  0.16373190838E+02 -0.49323175131E+00  0.16514287208E+02  0.51100000000E-03 0. -1.
        -11    1    3    3    0    0  0.48886887280E-01  0.49725775876E+01 -0.35278191026E+01  0.60970833744E+01  0.51100000000E-03 0.  1.
        -12    1    3    3    0    0 -0.21125188699E+02 -0.24226972801E+02 -0.17691193847E+02  0.36690573018E+02  0.00000000000E+00 0.  1.
</event>
<event>
 7    1  0.1284645E-011  0.5930196E+02  0.7816164E-02  0.1266605E+00
        -11   -1    0    0    0    0  0.00000000000E+00  0.00000000000E+00  0.45593999997E+02  0.45594000000E+02  0.51100000000E-03 0. -1.
         11   -1    0    0    0    0 -0.00000000000E+00 -0.00000000000E+00 -0.45593999997E+02  0.45594000000E+02  0.51100000000E-03 0.  1.
    9900012    2    1    2    0    0  0.15479938238E+02  0.11304386976E+02 -0.25481402415E+02  0.59301960393E+02  0.50000029846E+02 0.  0.
         12    1    1    2    0    0 -0.15479938238E+02 -0.11304386976E+02  0.25481402415E+02  0.31886039607E+02  0.00000000000E+00 0. -1.
         11    1    3    3    0    0  0.26591480432E+02 -0.27203695232E+01 -0.18921344980E+02  0.32749420423E+02  0.51100000000E-03 0. -1.
        -11    1    3    3    0    0 -0.34478269479E+01 -0.50063262671E+00 -0.92738583741E+01  0.99066943575E+01  0.51100000000E-03 0.  1.
         12    1    3    3    0    0 -0.76637152455E+01  0.14525389126E+02  0.27138009392E+01  0.16645845613E+02  0.00000000000E+00 0. -1.
</event>
<event>
 7    1  0.1284645E-011  0.5930194E+02  0.7816164E-02  0.1266605E+00
        -11   -1    0    0    0    0  0.00000000000E+00  0.00000000000E+00  0.45593999997E+02  0.45594000000E+02  0.51100000000E-03 0. -1.
         11   -1    0    0    0    0 -0.00000000000E+00 -0.00000000000E+00 -0.45593999997E+02  0.45594000000E+02  0.51100000000E-03 0.  1.
    9900012    2    1    2    0    0 -0.18336135570E+02  0.11424788917E+01 -0.26061502678E+02  0.59301936469E+02  0.49999986215E+02 0.  0.
         12    1    1    2    0    0  0.18336135570E+02 -0.11424788917E+01  0.26061502678E+02  0.31886063531E+02  0.00000000000E+00 0. -1.
         11    1    3    3    0    0 -0.14046045898E+02 -0.32788762738E+01 -0.46204318999E+01  0.15145653706E+02  0.51100000000E-03 0. -1.
        -11    1    3    3    0    0 -0.75237100330E+01 -0.51907261602E+01 -0.29701644341E+02  0.31076317792E+02  0.51100000000E-03 0.  1.
         12    1    3    3    0    0  0.32336203614E+01  0.96120813257E+01  0.82605735626E+01  0.13079964971E+02  0.00000000000E+00 0. -1.
</event>
<event>
 7    1  0.1284645E-011  0.5930184E+02  0.7816164E-02  0.1266605E+00
        -11   -1    0    0    0    0  0.00000000000E+00  0.00000000000E+00  0.45593999997E+02  0.45594000000E+02  0.51100000000E-03 0.  1.
         11   -1    0    0    0    0 -0.00000000000E+00 -0.00000000000E+00 -0.45593999997E+02  0.45594000000E+02  0.51100000000E-03 0. -1.
    9900012    2    1    2    0    0  0.94210901489E+01 -0.29004061277E+02 -0.93131497214E+01  0.59301838929E+02  0.49999808324E+02 0.  0.
         12    1    1    2    0    0 -0.94210901489E+01  0.29004061277E+02  0.93131497214E+01  0.31886161071E+02  0.00000000000E+00 0. -1.
         11    1    3    3    0    0 -0.17695127312E+01 -0.11117036586E+02 -0.15418773734E+01  0.11362088886E+02  0.51100000000E-03 0. -1.
        -11    1    3    3    0    0 -0.13687132722E+02  0.34144045565E+01  0.65500694574E+00  0.14121784412E+02  0.51100000000E-03 0.  1.
         12    1    3    3    0    0  0.24877735602E+02 -0.21301429247E+02 -0.84262792937E+01  0.33817965631E+02  0.00000000000E+00 0. -1.
</event>
<event>
 7    1  0.1284645E-011  0.5930195E+02  0.7816164E-02  0.1266605E+00
        -11   -1    0    0    0    0  0.00000000000E+00  0.00000000000E+00  0.45593999997E+02  0.45594000000E+02  0.51100000000E-03 0. -1.
         11   -1    0    0    0    0 -0.00000000000E+00 -0.00000000000E+00 -0.45593999997E+02  0.45594000000E+02  0.51100000000E-03 0.  1.
    9900012    2    1    2    0    0  0.68540871410E+01 -0.29445613179E+02  0.10133970562E+02  0.59301952811E+02  0.50000016018E+02 0.  0.
         12    1    1    2    0    0 -0.68540871410E+01  0.29445613179E+02 -0.10133970562E+02  0.31886047189E+02  0.00000000000E+00 0. -1.
         11    1    3    3    0    0 -0.15902619924E+02 -0.53466188552E+01  0.12631999823E+02  0.21001120766E+02  0.51100000000E-03 0. -1.
        -11    1    3    3    0    0  0.28866223576E+01 -0.21426869495E+01 -0.74548168837E+01  0.82763513114E+01  0.51100000000E-03 0.  1.
        -12    1    3    3    0    0  0.19870084707E+02 -0.21956307374E+02  0.49567876225E+01  0.30024480734E+02  0.00000000000E+00 0.  1.
</event>
<event>
 7    1  0.1284645E-011  0.5930194E+02  0.7816164E-02  0.1266605E+00
        -11   -1    0    0    0    0  0.00000000000E+00  0.00000000000E+00  0.45593999997E+02  0.45594000000E+02  0.51100000000E-03 0.  1.
         11   -1    0    0    0    0 -0.00000000000E+00 -0.00000000000E+00 -0.45593999997E+02  0.45594000000E+02  0.51100000000E-03 0. -1.
    9900012    2    1    2    0    0  0.18573374256E+02 -0.19697078426E+02  0.16845645099E+02  0.59301938961E+02  0.49999990760E+02 0.  0.
         12    1    1    2    0    0 -0.18573374256E+02  0.19697078426E+02 -0.16845645099E+02  0.31886061039E+02  0.00000000000E+00 0. -1.
         11    1    3    3    0    0  0.11451887741E+02 -0.27394139748E+02  0.99934058217E+01  0.31328146858E+02  0.51100000000E-03 0. -1.
        -11    1    3    3    0    0  0.85426157275E+01 -0.77888892928E+01  0.33005407225E+01  0.12022339589E+02  0.51100000000E-03 0.  1.
        -12    1    3    3    0    0 -0.14211292121E+01  0.15485950615E+02  0.35516985542E+01  0.15951452514E+02  0.00000000000E+00 0.  1.
</event>
<event>
 7    1  0.1284645E-011  0.5930194E+02  0.7816164E-02  0.1266605E+00
        -11   -1    0    0    0    0  0.00000000000E+00  0.00000000000E+00  0.45593999997E+02  0.45594000000E+02  0.51100000000E-03 0. -1.
         11   -1    0    0    0    0 -0.00000000000E+00 -0.00000000000E+00 -0.45593999997E+02  0.45594000000E+02  0.51100000000E-03 0.  1.
    9900012    2    1    2    0    0 -0.31885176320E+02 -0.10219416047E+00 -0.21431097391E+00  0.59301939695E+02  0.49999992097E+02 0.  0.
         12    1    1    2    0    0  0.31885176320E+02  0.10219416047E+00  0.21431097391E+00  0.31886060305E+02  0.00000000000E+00 0. -1.
         11    1    3    3    0    0 -0.18717436521E+02 -0.15035935888E+02  0.20861327967E+01  0.24099247877E+02  0.51100000000E-03 0. -1.
        -11    1    3    3    0    0 -0.52826511209E+01 -0.72622125228E+01  0.53296679187E+01  0.10442772332E+02  0.51100000000E-03 0.  1.
        -12    1    3    3    0    0 -0.78850886778E+01  0.22195954250E+02 -0.76301116894E+01  0.24759919485E+02  0.00000000000E+00 0.  1.
</event>
<event>
 7    1  0.1284645E-011  0.5930192E+02  0.7816164E-02  0.1266605E+00
        -11   -1    0    0    0    0  0.00000000000E+00  0.00000000000E+00  0.45593999997E+02  0.45594000000E+02  0.51100000000E-03 0.  1.
         11   -1    0    0    0    0 -0.00000000000E+00 -0.00000000000E+00 -0.45593999997E+02  0.45594000000E+02  0.51100000000E-03 0. -1.
    9900012    2    1    2    0    0 -0.70378539926E+01 -0.19335004519E+02  0.24358743846E+02  0.59301918548E+02  0.49999953532E+02 0.  0.
         12    1    1    2    0    0  0.70378539926E+01  0.19335004519E+02 -0.24358743846E+02  0.31886081452E+02  0.00000000000E+00 0. -1.
         11    1    3    3    0    0  0.10971943761E+02 -0.12123757601E+00  0.20606162996E+02  0.23345496399E+02  0.51100000000E-03 0. -1.
        -11    1    3    3    0    0  0.58477190505E+01 -0.26271140078E+01  0.24738236694E+01  0.68714881875E+01  0.51100000000E-03 0.  1.
         12    1    3    3    0    0 -0.23857516804E+02 -0.16586652935E+02  0.12787571810E+01  0.29084933962E+02  0.00000000000E+00 0. -1.
</event>
<event>
 7    1  0.1284645E-011  0.5930193E+02  0.7816164E-02  0.1266605E+00
        -11   -1    0    0    0    0  0.00000000000E+00  0.00000000000E+00  0.45593999997E+02  0.45594000000E+02  0.51100000000E-03 0. -1.
         11   -1    0    0    0    0 -0.00000000000E+00 -0.00000000000E+00 -0.45593999997E+02  0.45594000000E+02  0.51100000000E-03 0.  1.
    9900012    2    1    2    0    0  0.25298188354E+02  0.15304507930E+02 -0.11937140540E+02  0.59301927473E+02  0.49999969808E+02 0.  0.
         12    1    1    2    0    0 -0.25298188354E+02 -0.15304507930E+02  0.11937140540E+02  0.31886072527E+02  0.00000000000E+00 0. -1.
         11    1    3    3    0    0  0.81424522618E+01  0.81180477199E+01 -0.12495086831E+02  0.16980265687E+02  0.51100000000E-03 0. -1.
        -11    1    3    3    0    0  0.48935657852E+01  0.20627655025E+02 -0.74119321830E+01  0.22458492311E+02  0.51100000000E-03 0.  1.
         12    1    3    3    0    0  0.12262170307E+02 -0.13441194815E+02  0.79698784744E+01  0.19863169475E+02  0.00000000000E+00 0. -1.
</event>
<event>
 7    1  0.1284645E-011  0.5930195E+02  0.7816164E-02  0.1266605E+00
        -11   -1    0    0    0    0  0.00000000000E+00  0.00000000000E+00  0.45593999997E+02  0.45594000000E+02  0.51100000000E-03 0.  1.
         11   -1    0    0    0    0 -0.00000000000E+00 -0.00000000000E+00 -0.45593999997E+02  0.45594000000E+02  0.51100000000E-03 0. -1.
    9900012    2    1    2    0    0  0.24684749663E+02  0.16524468949E+02 -0.11589882739E+02  0.59301947848E+02  0.50000006966E+02 0.  0.
         12    1    1    2    0    0 -0.24684749663E+02 -0.16524468949E+02  0.11589882739E+02  0.31886052152E+02  0.00000000000E+00 0. -1.
         11    1    3    3    0    0  0.34880643772E+01  0.19480201160E+02 -0.11649194721E+02  0.22964071247E+02  0.51100000000E-03 0. -1.
        -11    1    3    3    0    0  0.34091078556E+01  0.81893511946E+01  0.97816888715E+01  0.13204882688E+02  0.51100000000E-03 0.  1.
        -12    1    3    3    0    0  0.17787577430E+02 -0.11145083406E+02 -0.97223768896E+01  0.23132993913E+02  0.00000000000E+00 0.  1.
</event>
<event>
 7    1  0.1284645E-011  0.5930193E+02  0.7816164E-02  0.1266605E+00
        -11   -1    0    0    0    0  0.00000000000E+00  0.00000000000E+00  0.45593999997E+02  0.45594000000E+02  0.51100000000E-03 0.  1.
         11   -1    0    0    0    0 -0.00000000000E+00 -0.00000000000E+00 -0.45593999997E+02  0.45594000000E+02  0.51100000000E-03 0. -1.
    9900012    2    1    2    0    0  0.30852654589E+02  0.65567881915E+00  0.80252909953E+01  0.59301929288E+02  0.49999973119E+02 0.  0.
         12    1    1    2    0    0 -0.30852654589E+02 -0.65567881915E+00 -0.80252909953E+01  0.31886070712E+02  0.00000000000E+00 0. -1.
         11    1    3    3    0    0  0.10235984760E-01 -0.19104679709E+02  0.63078153491E+01  0.20119081149E+02  0.51100000000E-03 0. -1.
        -11    1    3    3    0    0 -0.95329526262E-01  0.43197371224E+01 -0.11966543494E+01  0.44834360058E+01  0.51100000000E-03 0.  1.
        -12    1    3    3    0    0  0.30937748130E+02  0.15440621406E+02  0.29141299956E+01  0.34699412133E+02  0.00000000000E+00 0.  1.
</event>
<event>
 7    1  0.1284645E-011  0.5930194E+02  0.7816164E-02  0.1266605E+00
        -11   -1    0    0    0    0  0.00000000000E+00  0.00000000000E+00  0.45593999997E+02  0.45594000000E+02  0.51100000000E-03 0.  1.
         11   -1    0    0    0    0 -0.00000000000E+00 -0.00000000000E+00 -0.45593999997E+02  0.45594000000E+02  0.51100000000E-03 0. -1.
    9900012    2    1    2    0    0 -0.31493997066E+02 -0.49442134545E+01 -0.63549928075E+00  0.59301937885E+02  0.49999988797E+02 0.  0.
         12    1    1    2    0    0  0.31493997066E+02  0.49442134545E+01  0.63549928075E+00  0.31886062115E+02  0.00000000000E+00 0. -1.
         11    1    3    3    0    0 -0.90306920593E+01 -0.51754368014E+01  0.21811508669E+01  0.10634658646E+02  0.51100000000E-03 0. -1.
        -11    1    3    3    0    0 -0.35181661358E+02 -0.33458625089E+01 -0.28534224739E+01  0.35455410192E+02  0.51100000000E-03 0.  1.
         12    1    3    3    0    0  0.12718356351E+02  0.35770858557E+01  0.36772326285E-01  0.13211869046E+02  0.00000000000E+00 0. -1.
</event>
<event>
 7    1  0.1284645E-011  0.5930194E+02  0.7816164E-02  0.1266605E+00
        -11   -1    0    0    0    0  0.00000000000E+00  0.00000000000E+00  0.45593999997E+02  0.45594000000E+02  0.51100000000E-03 0.  1.
         11   -1    0    0    0    0 -0.00000000000E+00 -0.00000000000E+00 -0.45593999997E+02  0.45594000000E+02  0.51100000000E-03 0. -1.
    9900012    2    1    2    0    0 -0.23333450203E+02  0.20681211136E+02 -0.66751950176E+01  0.59301943157E+02  0.49999998413E+02 0.  0.
         12    1    1    2    0    0  0.23333450203E+02 -0.20681211136E+02  0.66751950176E+01  0.31886056843E+02  0.00000000000E+00 0. -1.
         11    1    3    3    0    0 -0.87342247235E+01  0.13582256358E+02  0.14514373529E+02  0.21712471267E+02  0.51100000000E-03 0.  1.
        -11    1    3    3    0    0 -0.21810712259E+02  0.80715887827E+01 -0.13035117327E+02  0.26660307551E+02  0.51100000000E-03 0. -1.
        -12    1    3    3    0    0  0.72114867791E+01 -0.97263400450E+00 -0.81544512197E+01  0.10929164340E+02  0.00000000000E+00 0.  1.
</event>
<event>
 7    1  0.1284645E-011  0.5930194E+02  0.7816164E-02  0.1266605E+00
        -11   -1    0    0    0    0  0.00000000000E+00  0.00000000000E+00  0.45593999997E+02  0.45594000000E+02  0.51100000000E-03 0.  1.
         11   -1    0    0    0    0 -0.00000000000E+00 -0.00000000000E+00 -0.45593999997E+02  0.45594000000E+02  0.51100000000E-03 0. -1.
    9900012    2    1    2    0    0  0.24124082975E+02 -0.17449820171E+01  0.20777500731E+02  0.59301939123E+02  0.49999991055E+02 0.  0.
         12    1    1    2    0    0 -0.24124082975E+02  0.17449820171E+01 -0.20777500731E+02  0.31886060877E+02  0.00000000000E+00 0. -1.
         11    1    3    3    0    0 -0.55910575385E+01  0.62091587693E+01 -0.80359228822E+01  0.11592654306E+02  0.51100000000E-03 0. -1.
        -11    1    3    3    0    0 -0.40949679824E+00  0.48503337084E+01  0.63881894139E+01  0.80313379308E+01  0.51100000000E-03 0.  1.
         12    1    3    3    0    0  0.30124637312E+02 -0.12804474495E+02  0.22425234199E+02  0.39677946887E+02  0.00000000000E+00 0. -1.
</event>
<event>
 7    1  0.1284645E-011  0.5930195E+02  0.7816164E-02  0.1266605E+00
        -11   -1    0    0    0    0  0.00000000000E+00  0.00000000000E+00  0.45593999997E+02  0.45594000000E+02  0.51100000000E-03 0. -1.
         11   -1    0    0    0    0 -0.00000000000E+00 -0.00000000000E+00 -0.45593999997E+02  0.45594000000E+02  0.51100000000E-03 0.  1.
    9900012    2    1    2    0    0 -0.56749718005E+01  0.21733888990E+02 -0.22630795741E+02  0.59301950520E+02  0.50000011841E+02 0.  0.
         12    1    1    2    0    0  0.56749718005E+01 -0.21733888990E+02  0.22630795741E+02  0.31886049480E+02  0.00000000000E+00 0. -1.
         11    1    3    3    0    0 -0.77751653502E+01 -0.28569072210E+01 -0.98261564219E+01  0.12851788412E+02  0.51100000000E-03 0. -1.
        -11    1    3    3    0    0 -0.36837775335E+01  0.11480343339E+01  0.11536385342E+02  0.12164554524E+02  0.51100000000E-03 0.  1.
        -12    1    3    3    0    0  0.57839710833E+01  0.23442761877E+02 -0.24341024661E+02  0.34285607585E+02  0.00000000000E+00 0.  1.
</event>
<event>
 7    1  0.1284645E-011  0.5930190E+02  0.7816164E-02  0.1266605E+00
        -11   -1    0    0    0    0  0.00000000000E+00  0.00000000000E+00  0.45593999997E+02  0.45594000000E+02  0.51100000000E-03 0. -1.
         11   -1    0    0    0    0 -0.00000000000E+00 -0.00000000000E+00 -0.45593999997E+02  0.45594000000E+02  0.51100000000E-03 0.  1.
    9900012    2    1    2    0    0  0.73702263872E+01 -0.15305856166E+01 -0.30984839691E+02  0.59301902403E+02  0.49999924086E+02 0.  0.
         12    1    1    2    0    0 -0.73702263872E+01  0.15305856166E+01  0.30984839691E+02  0.31886097597E+02  0.00000000000E+00 0. -1.
         11    1    3    3    0    0  0.37246914014E+01 -0.74286593755E+01 -0.95431028576E+01  0.12654213471E+02  0.51100000000E-03 0. -1.
        -11    1    3    3    0    0  0.17304360868E+01 -0.12054789993E+02 -0.25395985080E+02  0.28165021379E+02  0.51100000000E-03 0.  1.
         12    1    3    3    0    0  0.19150988990E+01  0.17952863752E+02  0.39542482466E+01  0.18482667553E+02  0.00000000000E+00 0. -1.
</event>
<event>
 7    1  0.1284645E-011  0.5930210E+02  0.7816164E-02  0.1266604E+00
        -11   -1    0    0    0    0  0.00000000000E+00  0.00000000000E+00  0.45593999997E+02  0.45594000000E+02  0.51100000000E-03 0. -1.
         11   -1    0    0    0    0 -0.00000000000E+00 -0.00000000000E+00 -0.45593999997E+02  0.45594000000E+02  0.51100000000E-03 0.  1.
    9900012    2    1    2    0    0  0.27696048882E+02  0.40584905140E+01 -0.15269840941E+02  0.59302101686E+02  0.50000287530E+02 0.  0.
         12    1    1    2    0    0 -0.27696048882E+02 -0.40584905140E+01  0.15269840941E+02  0.31885898314E+02  0.00000000000E+00 0. -1.
         11    1    3    3    0    0  0.80666200505E+01 -0.65372094303E+00 -0.12869765282E+02  0.15202913168E+02  0.51100000000E-03 0.  1.
        -11    1    3    3    0    0 -0.68800929892E+01 -0.56109399618E+01  0.97307772192E+01  0.13172181002E+02  0.51100000000E-03 0. -1.
         12    1    3    3    0    0  0.26509521821E+02  0.10323151419E+02 -0.12130852878E+02  0.30927007517E+02  0.00000000000E+00 0. -1.
</event>
<event>
 7    1  0.1284645E-011  0.5930196E+02  0.7816164E-02  0.1266605E+00
        -11   -1    0    0    0    0  0.00000000000E+00  0.00000000000E+00  0.45593999997E+02  0.45594000000E+02  0.51100000000E-03 0. -1.
         11   -1    0    0    0    0 -0.00000000000E+00 -0.00000000000E+00 -0.45593999997E+02  0.45594000000E+02  0.51100000000E-03 0.  1.
    9900012    2    1    2    0    0 -0.20167204559E+02  0.24810445324E+01 -0.24573309676E+02  0.59301964340E+02  0.50000037045E+02 0.  0.
         12    1    1    2    0    0  0.20167204559E+02 -0.24810445324E+01  0.24573309676E+02  0.31886035660E+02  0.00000000000E+00 0. -1.
         11    1    3    3    0    0 -0.25242059381E+02  0.50583913907E+01  0.21977542440E+01  0.25837550373E+02  0.51100000000E-03 0. -1.
        -11    1    3    3    0    0 -0.24650374686E+01 -0.21810964758E+01  0.19104801489E+01  0.38057228247E+01  0.51100000000E-03 0.  1.
        -12    1    3    3    0    0  0.75398922913E+01 -0.39625038258E+00 -0.28681544069E+02  0.29658691143E+02  0.00000000000E+00 0.  1.
</event>
<event>
 7    1  0.1284645E-011  0.5930200E+02  0.7816164E-02  0.1266605E+00
        -11   -1    0    0    0    0  0.00000000000E+00  0.00000000000E+00  0.45593999997E+02  0.45594000000E+02  0.51100000000E-03 0. -1.
         11   -1    0    0    0    0 -0.00000000000E+00 -0.00000000000E+00 -0.45593999997E+02  0.45594000000E+02  0.51100000000E-03 0.  1.
    9900012    2    1    2    0    0  0.17715156577E+02  0.18482550403E+02 -0.19007505342E+02  0.59302004621E+02  0.50000110508E+02 0.  0.
         12    1    1    2    0    0 -0.17715156577E+02 -0.18482550403E+02  0.19007505342E+02  0.31885995379E+02  0.00000000000E+00 0. -1.
         11    1    3    3    0    0 -0.11764164864E+02  0.12713356383E+02 -0.12686012943E+02  0.21469977413E+02  0.51100000000E-03 0. -1.
        -11    1    3    3    0    0 -0.27883585484E+01  0.26480841387E+01  0.20396678287E+01  0.43528769926E+01  0.51100000000E-03 0.  1.
        -12    1    3    3    0    0  0.32267679990E+02  0.31211098817E+01 -0.83611602274E+01  0.33479150216E+02  0.00000000000E+00 0.  1.
</event>
<event>
 7    1  0.1284645E-011  0.5930199E+02  0.7816164E-02  0.1266605E+00
        -11   -1    0    0    0    0  0.00000000000E+00  0.00000000000E+00  0.45593999997E+02  0.45594000000E+02  0.51100000000E-03 0.  1.
         11   -1    0    0    0    0 -0.00000000000E+00 -0.00000000000E+00 -0.45593999997E+02  0.45594000000E+02  0.51100000000E-03 0. -1.
    9900012    2    1    2    0    0  0.17863967141E+02 -0.26402141885E+02 -0.72341899799E+00  0.59301988127E+02  0.50000080426E+02 0.  0.
         12    1    1    2    0    0 -0.17863967141E+02  0.26402141885E+02  0.72341899799E+00  0.31886011873E+02  0.00000000000E+00 0. -1.
         11    1    3    3    0    0 -0.48143066651E+01 -0.13327614850E+02 -0.46614659413E+01  0.14917510893E+02  0.51100000000E-03 0. -1.
        -11    1    3    3    0    0  0.69881960051E+00 -0.13867622191E+02 -0.11070094329E+02  0.17757992082E+02  0.51100000000E-03 0.  1.
        -12    1    3    3    0    0  0.21979454206E+02  0.79309515624E+00  0.15008141272E+02  0.26626485152E+02  0.00000000000E+00 0.  1.
</event>
<event>
 7    1  0.1284645E-011  0.5930192E+02  0.7816164E-02  0.1266605E+00
        -11   -1    0    0    0    0  0.00000000000E+00  0.00000000000E+00  0.45593999997E+02  0.45594000000E+02  0.51100000000E-03 0.  1.
         11   -1    0    0    0    0 -0.00000000000E+00 -0.00000000000E+00 -0.45593999997E+02  0.45594000000E+02  0.51100000000E-03 0. -1.
    9900012    2    1    2    0    0  0.12138215504E+02 -0.25551704021E+02  0.14713806309E+02  0.59301922316E+02  0.49999960403E+02 0.  0.
         12    1    1    2    0    0 -0.12138215504E+02  0.25551704021E+02 -0.14713806309E+02  0.31886077684E+02  0.00000000000E+00 0. -1.
         11    1    3    3    0    0  0.67564399725E+00 -0.19869969501E+02  0.62267097305E+01  0.20833724994E+02  0.51100000000E-03 0. -1.
        -11    1    3    3    0    0  0.12135279694E+01 -0.17315891962E+02  0.13697011621E+02  0.22111555626E+02  0.51100000000E-03 0.  1.
         12    1    3    3    0    0  0.10249043537E+02  0.11634157443E+02 -0.52099150427E+01  0.16356641697E+02  0.00000000000E+00 0. -1.
</event>
<event>
 7    1  0.1284645E-011  0.5930193E+02  0.7816164E-02  0.1266605E+00
        -11   -1    0    0    0    0  0.00000000000E+00  0.00000000000E+00  0.45593999997E+02  0.45594000000E+02  0.51100000000E-03 0. -1.
         11   -1    0    0    0    0 -0.00000000000E+00 -0.00000000000E+00 -0.45593999997E+02  0.45594000000E+02  0.51100000000E-03 0.  1.
    9900012    2    1    2    0    0  0.10576742494E+02  0.29000677151E+02  0.79884236671E+01  0.59301926712E+02  0.49999968421E+02 0.  0.
         12    1    1    2    0    0 -0.10576742494E+02 -0.29000677151E+02 -0.79884236671E+01  0.31886073288E+02  0.00000000000E+00 0. -1.
         11    1    3    3    0    0  0.46598593383E+01  0.11122173057E+02  0.95596282403E+01  0.15388421456E+02  0.51100000000E-03 0.  1.
        -11    1    3    3    0    0  0.22114450207E+02  0.16558160857E+02 -0.59376021886E+00  0.27632845499E+02  0.51100000000E-03 0. -1.
        -12    1    3    3    0    0 -0.16197567052E+02  0.13203432380E+01 -0.97744435435E+00  0.16280659757E+02  0.00000000000E+00 0.  1.
</event>
<event>
 7    1  0.1284645E-011  0.5930206E+02  0.7816164E-02  0.1266604E+00
        -11   -1    0    0    0    0  0.00000000000E+00  0.00000000000E+00  0.45593999997E+02  0.45594000000E+02  0.51100000000E-03 0.  1.
         11   -1    0    0    0    0 -0.00000000000E+00 -0.00000000000E+00 -0.45593999997E+02  0.45594000000E+02  0.51100000000E-03 0. -1.
    9900012    2    1    2    0    0  0.26184320413E+02 -0.15229683570E+02 -0.99574823453E+01  0.59302057144E+02  0.50000206297E+02 0.  0.
         12    1    1    2    0    0 -0.26184320413E+02  0.15229683570E+02  0.99574823453E+01  0.31885942856E+02  0.00000000000E+00 0. -1.
         11    1    3    3    0    0  0.17429026539E+02  0.83187222749E+00 -0.57421323690E+01  0.18369405595E+02  0.51100000000E-03 0. -1.
        -11    1    3    3    0    0  0.20487201323E+02 -0.98150698014E+00  0.25400632944E+01  0.20667382412E+02  0.51100000000E-03 0.  1.
         12    1    3    3    0    0 -0.11731907449E+02 -0.15080048818E+02 -0.67554132707E+01  0.20265269137E+02  0.00000000000E+00 0. -1.
</event>
<event>
 7    1  0.1284645E-011  0.5930190E+02  0.7816164E-02  0.1266605E+00
        -11   -1    0    0    0    0  0.00000000000E+00  0.00000000000E+00  0.45593999997E+02  0.45594000000E+02  0.51100000000E-03 0.  1.
         11   -1    0    0    0    0 -0.00000000000E+00 -0.00000000000E+00 -0.45593999997E+02  0.45594000000E+02  0.51100000000E-03 0. -1.
    9900012    2    1    2    0    0 -0.56553335982E+01 -0.22748741889E+02 -0.21615631664E+02  0.59301896634E+02  0.49999913565E+02 0.  0.
         12    1    1    2    0    0  0.56553335982E+01  0.22748741889E+02  0.21615631664E+02  0.31886103366E+02  0.00000000000E+00 0. -1.
         11    1    3    3    0    0  0.23233123739E+01 -0.34657590906E+02 -0.13030955728E+02  0.37099220952E+02  0.51100000000E-03 0. -1.
        -11    1    3    3    0    0  0.41499923578E+00 -0.23035046284E+01  0.15745135040E+01  0.28208954207E+01  0.51100000000E-03 0.  1.
         12    1    3    3    0    0 -0.83936452079E+01  0.14212353645E+02 -0.10159189440E+02  0.19381780261E+02  0.00000000000E+00 0. -1.
</event>
<event>
 7    1  0.1284645E-011  0.5930197E+02  0.7816164E-02  0.1266605E+00
        -11   -1    0    0    0    0  0.00000000000E+00  0.00000000000E+00  0.45593999997E+02  0.45594000000E+02  0.51100000000E-03 0.  1.
         11   -1    0    0    0    0 -0.00000000000E+00 -0.00000000000E+00 -0.45593999997E+02  0.45594000000E+02  0.51100000000E-03 0. -1.
    9900012    2    1    2    0    0  0.11801144731E+02 -0.14701007280E+02  0.25716377645E+02  0.59301973105E+02  0.50000053030E+02 0.  0.
         12    1    1    2    0    0 -0.11801144731E+02  0.14701007280E+02 -0.25716377645E+02  0.31886026895E+02  0.00000000000E+00 0. -1.
         11    1    3    3    0    0 -0.36575628792E+01  0.14627284097E+00  0.34326186723E+01  0.50181703010E+01  0.51100000000E-03 0. -1.
        -11    1    3    3    0    0 -0.32839837238E+01 -0.76469544703E+01 -0.11970255820E+02  0.14579008417E+02  0.51100000000E-03 0.  1.
        -12    1    3    3    0    0  0.18742691334E+02 -0.72003256502E+01  0.34254014792E+02  0.39704794387E+02  0.00000000000E+00 0.  1.
</event>
<event>
 7    1  0.1284645E-011  0.5930195E+02  0.7816164E-02  0.1266605E+00
        -11   -1    0    0    0    0  0.00000000000E+00  0.00000000000E+00  0.45593999997E+02  0.45594000000E+02  0.51100000000E-03 0.  1.
         11   -1    0    0    0    0 -0.00000000000E+00 -0.00000000000E+00 -0.45593999997E+02  0.45594000000E+02  0.51100000000E-03 0. -1.
    9900012    2    1    2    0    0 -0.26549611738E+02 -0.15711196621E+02  0.80620315947E+01  0.59301953896E+02  0.50000017998E+02 0.  0.
         12    1    1    2    0    0  0.26549611738E+02  0.15711196621E+02 -0.80620315947E+01  0.31886046104E+02  0.00000000000E+00 0. -1.
         11    1    3    3    0    0  0.44937134257E+01  0.82538332010E+01 -0.76104911492E+01  0.12092923495E+02  0.51100000000E-03 0. -1.
        -11    1    3    3    0    0 -0.19165492014E+02 -0.45562257894E+01  0.21555549913E+00  0.19700805618E+02  0.51100000000E-03 0.  1.
        -12    1    3    3    0    0 -0.11877833150E+02 -0.19408804033E+02  0.15456967245E+02  0.27508224783E+02  0.00000000000E+00 0.  1.
</event>
<event>
 7    1  0.1284645E-011  0.5930194E+02  0.7816164E-02  0.1266605E+00
        -11   -1    0    0    0    0  0.00000000000E+00  0.00000000000E+00  0.45593999997E+02  0.45594000000E+02  0.51100000000E-03 0. -1.
         11   -1    0    0    0    0 -0.00000000000E+00 -0.00000000000E+00 -0.45593999997E+02  0.45594000000E+02  0.51100000000E-03 0.  1.
    9900012    2    1    2    0    0  0.28350911867E+02  0.14541330676E+02  0.12231871539E+01  0.59301942101E+02  0.49999996486E+02 0.  0.
         12    1    1    2    0    0 -0.28350911867E+02 -0.14541330676E+02 -0.12231871539E+01  0.31886057899E+02  0.00000000000E+00 0. -1.
         11    1    3    3    0    0  0.87614321137E+01  0.18297434228E+02 -0.50318431382E+01  0.20901632415E+02  0.51100000000E-03 0. -1.
        -11    1    3    3    0    0  0.19658241080E+02  0.33302343470E+01 -0.87746072226E+01  0.21783724093E+02  0.51100000000E-03 0.  1.
        -12    1    3    3    0    0 -0.68761326840E-01 -0.70863378990E+01  0.15029637515E+02  0.16616585593E+02  0.00000000000E+00 0.  1.
</event>
<event>
 7    1  0.1284645E-011  0.5930195E+02  0.7816164E-02  0.1266605E+00
        -11   -1    0    0    0    0  0.00000000000E+00  0.00000000000E+00  0.45593999997E+02  0.45594000000E+02  0.51100000000E-03 0. -1.
         11   -1    0    0    0    0 -0.00000000000E+00 -0.00000000000E+00 -0.45593999997E+02  0.45594000000E+02  0.51100000000E-03 0.  1.
    9900012    2    1    2    0    0 -0.15229184744E+02  0.21110147686E+02  0.18416135264E+02  0.59301945974E+02  0.50000003549E+02 0.  0.
         12    1    1    2    0    0  0.15229184744E+02 -0.21110147686E+02 -0.18416135264E+02  0.31886054026E+02  0.00000000000E+00 0. -1.
         11    1    3    3    0    0  0.34368899067E+01  0.90491825530E+01 -0.35407927058E+01  0.10307139776E+02  0.51100000000E-03 0. -1.
        -11    1    3    3    0    0 -0.15573194658E+02  0.19815642799E+02 -0.31994794972E+00  0.25204889572E+02  0.51100000000E-03 0.  1.
         12    1    3    3    0    0 -0.30928799927E+01 -0.77546776654E+01  0.22276875919E+02  0.23789916626E+02  0.00000000000E+00 0. -1.
</event>
<event>
 7    1  0.1284645E-011  0.5930195E+02  0.7816164E-02  0.1266605E+00
        -11   -1    0    0    0    0  0.00000000000E+00  0.00000000000E+00  0.45593999997E+02  0.45594000000E+02  0.51100000000E-03 0.  1.
         11   -1    0    0    0    0 -0.00000000000E+00 -0.00000000000E+00 -0.45593999997E+02  0.45594000000E+02  0.51100000000E-03 0. -1.
    9900012    2    1    2    0    0  0.15703411704E+02 -0.26151775661E+02 -0.92848011124E+01  0.59301952251E+02  0.50000014997E+02 0.  0.
         12    1    1    2    0    0 -0.15703411704E+02  0.26151775661E+02  0.92848011124E+01  0.31886047749E+02  0.00000000000E+00 0. -1.
         11    1    3    3    0    0  0.78447097665E+01 -0.12534296751E+02 -0.21713662202E+02  0.26270348167E+02  0.51100000000E-03 0. -1.
        -11    1    3    3    0    0  0.12136627456E+02 -0.18208039363E+02  0.14696695277E+02  0.26359500674E+02  0.51100000000E-03 0.  1.
         12    1    3    3    0    0 -0.42779255182E+01  0.45905604529E+01 -0.22678341870E+01  0.66721034097E+01  0.00000000000E+00 0. -1.
</event>
<event>
 7    1  0.1284645E-011  0.5930195E+02  0.7816164E-02  0.1266605E+00
        -11   -1    0    0    0    0  0.00000000000E+00  0.00000000000E+00  0.45593999997E+02  0.45594000000E+02  0.51100000000E-03 0.  1.
         11   -1    0    0    0    0 -0.00000000000E+00 -0.00000000000E+00 -0.45593999997E+02  0.45594000000E+02  0.51100000000E-03 0. -1.
    9900012    2    1    2    0    0  0.22265142659E+01 -0.28452865335E+02  0.14219617286E+02  0.59301946194E+02  0.50000003952E+02 0.  0.
         12    1    1    2    0    0 -0.22265142659E+01  0.28452865335E+02 -0.14219617286E+02  0.31886053806E+02  0.00000000000E+00 0. -1.
         11    1    3    3    0    0 -0.57729479352E+01  0.63914549117E+01 -0.33663748671E+01  0.92471673370E+01  0.51100000000E-03 0. -1.
        -11    1    3    3    0    0  0.49682728843E+01  0.14647204349E+01 -0.49898256331E+01  0.71921833622E+01  0.51100000000E-03 0.  1.
        -12    1    3    3    0    0  0.30311893169E+01 -0.36309040681E+02  0.22575817786E+02  0.42862595495E+02  0.00000000000E+00 0.  1.
</event>
<event>
 7    1  0.1284645E-011  0.5930194E+02  0.7816164E-02  0.1266605E+00
        -11   -1    0    0    0    0  0.00000000000E+00  0.00000000000E+00  0.45593999997E+02  0.45594000000E+02  0.51100000000E-03 0.  1.
         11   -1    0    0    0    0 -0.00000000000E+00 -0.00000000000E+00 -0.45593999997E+02  0.45594000000E+02  0.51100000000E-03 0. -1.
    9900012    2    1    2    0    0 -0.11234256842E+02  0.10256943334E+02  0.28023336093E+02  0.59301940678E+02  0.49999993891E+02 0.  0.
         12    1    1    2    0    0  0.11234256842E+02 -0.10256943334E+02 -0.28023336093E+02  0.31886059322E+02  0.00000000000E+00 0. -1.
         11    1    3    3    0    0 -0.14969818654E+02 -0.28045668023E+01  0.89140249808E+01  0.17647121779E+02  0.51100000000E-03 0. -1.
        -11    1    3    3    0    0 -0.50180011920E+01  0.10731017911E+01 -0.87178633737E+01  0.10115978721E+02  0.51100000000E-03 0.  1.
        -12    1    3    3    0    0  0.87535630039E+01  0.11988408345E+02  0.27827174486E+02  0.31538840178E+02  0.00000000000E+00 0.  1.
</event>
<event>
 7    1  0.1284645E-011  0.5930196E+02  0.7816164E-02  0.1266605E+00
        -11   -1    0    0    0    0  0.00000000000E+00  0.00000000000E+00  0.45593999997E+02  0.45594000000E+02  0.51100000000E-03 0.  1.
         11   -1    0    0    0    0 -0.00000000000E+00 -0.00000000000E+00 -0.45593999997E+02  0.45594000000E+02  0.51100000000E-03 0. -1.
    9900012    2    1    2    0    0 -0.20493861100E+02  0.50241795458E+01  0.23905623068E+02  0.59301960153E+02  0.50000029408E+02 0.  0.
         12    1    1    2    0    0  0.20493861100E+02 -0.50241795458E+01 -0.23905623068E+02  0.31886039847E+02  0.00000000000E+00 0. -1.
         11    1    3    3    0    0 -0.17160716599E+02  0.49866118322E+01 -0.77545984751E+01  0.19480510505E+02  0.51100000000E-03 0. -1.
        -11    1    3    3    0    0  0.33673812744E+01 -0.31898764588E+01 -0.22144962898E+01  0.51398990796E+01  0.51100000000E-03 0.  1.
        -12    1    3    3    0    0 -0.67005257753E+01  0.32274441723E+01  0.33874717833E+02  0.34681550568E+02  0.00000000000E+00 0.  1.
</event>
<event>
 7    1  0.1284645E-011  0.5930195E+02  0.7816164E-02  0.1266605E+00
        -11   -1    0    0    0    0  0.00000000000E+00  0.00000000000E+00  0.45593999997E+02  0.45594000000E+02  0.51100000000E-03 0.  1.
         11   -1    0    0    0    0 -0.00000000000E+00 -0.00000000000E+00 -0.45593999997E+02  0.45594000000E+02  0.51100000000E-03 0. -1.
    9900012    2    1    2    0    0 -0.40058050143E+01  0.16331758703E+02  0.27091465769E+02  0.59301947662E+02  0.50000006629E+02 0.  0.
         12    1    1    2    0    0  0.40058050143E+01 -0.16331758703E+02 -0.27091465769E+02  0.31886052338E+02  0.00000000000E+00 0. -1.
         11    1    3    3    0    0 -0.11273616889E+01  0.17433806554E+02  0.73703842698E+01  0.18961305859E+02  0.51100000000E-03 0. -1.
        -11    1    3    3    0    0 -0.15583070495E+02  0.98098530187E+01  0.11164132626E+02  0.21533767897E+02  0.51100000000E-03 0.  1.
         12    1    3    3    0    0  0.12704627169E+02 -0.10911900869E+02  0.85569488736E+01  0.18806873906E+02  0.00000000000E+00 0. -1.
</event>
<event>
 7    1  0.1284645E-011  0.5930194E+02  0.7816164E-02  0.1266605E+00
        -11   -1    0    0    0    0  0.00000000000E+00  0.00000000000E+00  0.45593999997E+02  0.45594000000E+02  0.51100000000E-03 0. -1.
         11   -1    0    0    0    0 -0.00000000000E+00 -0.00000000000E+00 -0.45593999997E+02  0.45594000000E+02  0.51100000000E-03 0.  1.
    9900012    2    1    2    0    0 -0.18993605590E+02 -0.94135198428E+00 -0.25594483573E+02  0.59301940566E+02  0.49999993686E+02 0.  0.
         12    1    1    2    0    0  0.18993605590E+02  0.94135198428E+00  0.25594483573E+02  0.31886059434E+02  0.00000000000E+00 0. -1.
         11    1    3    3    0    0 -0.16444490667E+02 -0.14878940630E+01  0.67240115137E+01  0.17828276225E+02  0.51100000000E-03 0. -1.
        -11    1    3    3    0    0  0.99560662575E+00  0.88944378499E+01 -0.11633072857E+01  0.90252723683E+01  0.51100000000E-03 0.  1.
        -12    1    3    3    0    0 -0.35447215482E+01 -0.83478957712E+01 -0.31155187801E+02  0.32448391972E+02  0.00000000000E+00 0.  1.
</event>
<event>
 7    1  0.1284645E-011  0.5930194E+02  0.7816164E-02  0.1266605E+00
        -11   -1    0    0    0    0  0.00000000000E+00  0.00000000000E+00  0.45593999997E+02  0.45594000000E+02  0.51100000000E-03 0. -1.
         11   -1    0    0    0    0 -0.00000000000E+00 -0.00000000000E+00 -0.45593999997E+02  0.45594000000E+02  0.51100000000E-03 0.  1.
    9900012    2    1    2    0    0  0.61155641251E+01 -0.29594831691E+02 -0.10171867658E+02  0.59301935975E+02  0.49999985313E+02 0.  0.
         12    1    1    2    0    0 -0.61155641251E+01  0.29594831691E+02  0.10171867658E+02  0.31886064025E+02  0.00000000000E+00 0. -1.
         11    1    3    3    0    0  0.14983297566E+02 -0.10263051313E+02 -0.85334239664E+01  0.20066109564E+02  0.51100000000E-03 0. -1.
        -11    1    3    3    0    0 -0.65557041860E+01 -0.32413450616E+01 -0.15969845495E+02  0.17564724324E+02  0.51100000000E-03 0.  1.
        -12    1    3    3    0    0 -0.23120292545E+01 -0.16090435317E+02  0.14331401804E+02  0.21671102086E+02  0.00000000000E+00 0.  1.
</event>
<event>
 7    1  0.1284645E-011  0.5930195E+02  0.7816164E-02  0.1266605E+00
        -11   -1    0    0    0    0  0.00000000000E+00  0.00000000000E+00  0.45593999997E+02  0.45594000000E+02  0.51100000000E-03 0.  1.
         11   -1    0    0    0    0 -0.00000000000E+00 -0.00000000000E+00 -0.45593999997E+02  0.45594000000E+02  0.51100000000E-03 0. -1.
    9900012    2    1    2    0    0 -0.21815710685E+01 -0.26692844162E+02 -0.17304714927E+02  0.59301947555E+02  0.50000006434E+02 0.  0.
         12    1    1    2    0    0  0.21815710685E+01  0.26692844162E+02  0.17304714927E+02  0.31886052445E+02  0.00000000000E+00 0. -1.
         11    1    3    3    0    0  0.77977677271E+01 -0.49750087084E+01 -0.13368696191E+02  0.16256627304E+02  0.51100000000E-03 0. -1.
        -11    1    3    3    0    0  0.51985815016E+01 -0.71360529230E+01  0.13216234076E+02  0.15893940492E+02  0.51100000000E-03 0.  1.
         12    1    3    3    0    0 -0.15177920297E+02 -0.14581782531E+02 -0.17152252812E+02  0.27151379760E+02  0.00000000000E+00 0. -1.
</event>
<event>
 7    1  0.1284645E-011  0.5930189E+02  0.7816164E-02  0.1266605E+00
        -11   -1    0    0    0    0  0.00000000000E+00  0.00000000000E+00  0.45593999997E+02  0.45594000000E+02  0.51100000000E-03 0.  1.
         11   -1    0    0    0    0 -0.00000000000E+00 -0.00000000000E+00 -0.45593999997E+02  0.45594000000E+02  0.51100000000E-03 0. -1.
    9900012    2    1    2    0    0 -0.12832507670E+02  0.32934837038E+01  0.29003508656E+02  0.59301893270E+02  0.49999907431E+02 0.  0.
         12    1    1    2    0    0  0.12832507670E+02 -0.32934837038E+01 -0.29003508656E+02  0.31886106730E+02  0.00000000000E+00 0. -1.
         11    1    3    3    0    0  0.11048073333E+02  0.79033381572E+01  0.14631235841E+02  0.19964862657E+02  0.51100000000E-03 0. -1.
        -11    1    3    3    0    0  0.60547917866E+01  0.68019916343E+00  0.12159837675E+01  0.62130339823E+01  0.51100000000E-03 0.  1.
        -12    1    3    3    0    0 -0.29935372790E+02 -0.52900536167E+01  0.13156289048E+02  0.33123996632E+02  0.00000000000E+00 0.  1.
</event>
<event>
 7    1  0.1284645E-011  0.5930191E+02  0.7816164E-02  0.1266605E+00
        -11   -1    0    0    0    0  0.00000000000E+00  0.00000000000E+00  0.45593999997E+02  0.45594000000E+02  0.51100000000E-03 0.  1.
         11   -1    0    0    0    0 -0.00000000000E+00 -0.00000000000E+00 -0.45593999997E+02  0.45594000000E+02  0.51100000000E-03 0. -1.
    9900012    2    1    2    0    0 -0.13810117549E+02  0.28590996330E+02  0.29254451602E+01  0.59301911384E+02  0.49999940466E+02 0.  0.
         12    1    1    2    0    0  0.13810117549E+02 -0.28590996330E+02 -0.29254451602E+01  0.31886088616E+02  0.00000000000E+00 0. -1.
         11    1    3    3    0    0 -0.44513350422E+01  0.15341582565E+02  0.49845470366E+01  0.16733925083E+02  0.51100000000E-03 0. -1.
        -11    1    3    3    0    0 -0.14323964165E+02  0.18712718628E+02  0.12181225558E+02  0.26527797575E+02  0.51100000000E-03 0.  1.
         12    1    3    3    0    0  0.49651816579E+01 -0.54633048634E+01 -0.14240327434E+02  0.16040188726E+02  0.00000000000E+00 0. -1.
</event>
<event>
 7    1  0.1284645E-011  0.5930193E+02  0.7816164E-02  0.1266605E+00
        -11   -1    0    0    0    0  0.00000000000E+00  0.00000000000E+00  0.45593999997E+02  0.45594000000E+02  0.51100000000E-03 0. -1.
         11   -1    0    0    0    0 -0.00000000000E+00 -0.00000000000E+00 -0.45593999997E+02  0.45594000000E+02  0.51100000000E-03 0.  1.
    9900012    2    1    2    0    0  0.25234093009E+01  0.24762743320E+02  0.19928884359E+02  0.59301929640E+02  0.49999973760E+02 0.  0.
         12    1    1    2    0    0 -0.25234093009E+01 -0.24762743320E+02 -0.19928884359E+02  0.31886070360E+02  0.00000000000E+00 0. -1.
         11    1    3    3    0    0 -0.95116343079E+01  0.83618874298E+01  0.18217159048E+02  0.22186870727E+02  0.51100000000E-03 0. -1.
        -11    1    3    3    0    0  0.55850131623E+01  0.10868904095E+02 -0.14408349669E+02  0.18892484979E+02  0.51100000000E-03 0.  1.
         12    1    3    3    0    0  0.64500304465E+01  0.55319517951E+01  0.16120074979E+02  0.18222573934E+02  0.00000000000E+00 0. -1.
</event>
<event>
 7    1  0.1284645E-011  0.5930195E+02  0.7816164E-02  0.1266605E+00
        -11   -1    0    0    0    0  0.00000000000E+00  0.00000000000E+00  0.45593999997E+02  0.45594000000E+02  0.51100000000E-03 0.  1.
         11   -1    0    0    0    0 -0.00000000000E+00 -0.00000000000E+00 -0.45593999997E+02  0.45594000000E+02  0.51100000000E-03 0. -1.
    9900012    2    1    2    0    0  0.13803580903E+02 -0.21624800312E+02  0.18935407375E+02  0.59301945262E+02  0.50000002252E+02 0.  0.
         12    1    1    2    0    0 -0.13803580903E+02  0.21624800312E+02 -0.18935407375E+02  0.31886054738E+02  0.00000000000E+00 0. -1.
         11    1    3    3    0    0  0.70223882353E+01 -0.66472063512E+01  0.13850733230E+02  0.16892072107E+02  0.51100000000E-03 0. -1.
        -11    1    3    3    0    0  0.20873192038E+02 -0.15808269628E+02  0.91222188476E+01  0.27727358537E+02  0.51100000000E-03 0.  1.
         12    1    3    3    0    0 -0.14091999370E+02  0.83067566724E+00 -0.40375447020E+01  0.14682514619E+02  0.00000000000E+00 0. -1.
</event>
<event>
 7    1  0.1284645E-011  0.5930198E+02  0.7816164E-02  0.1266605E+00
        -11   -1    0    0    0    0  0.00000000000E+00  0.00000000000E+00  0.45593999997E+02  0.45594000000E+02  0.51100000000E-03 0. -1.
         11   -1    0    0    0    0 -0.00000000000E+00 -0.00000000000E+00 -0.45593999997E+02  0.45594000000E+02  0.51100000000E-03 0.  1.
    9900012    2    1    2    0    0  0.46405113484E+01  0.75029245973E+01 -0.30641315004E+02  0.59301977855E+02  0.50000061693E+02 0.  0.
         12    1    1    2    0    0 -0.46405113484E+01 -0.75029245973E+01  0.30641315004E+02  0.31886022145E+02  0.00000000000E+00 0. -1.
         11    1    3    3    0    0  0.39249349196E+01 -0.61070986641E+01 -0.65853219195E+01  0.98014403667E+01  0.51100000000E-03 0. -1.
        -11    1    3    3    0    0 -0.54860442663E+01 -0.87735078200E+01  0.56519836703E+01  0.11790506386E+02  0.51100000000E-03 0.  1.
        -12    1    3    3    0    0  0.62016206951E+01  0.22383531081E+02 -0.29707976754E+02  0.37710031103E+02  0.00000000000E+00 0.  1.
</event>
<event>
 7    1  0.1284645E-011  0.5930194E+02  0.7816164E-02  0.1266605E+00
        -11   -1    0    0    0    0  0.00000000000E+00  0.00000000000E+00  0.45593999997E+02  0.45594000000E+02  0.51100000000E-03 0. -1.
         11   -1    0    0    0    0 -0.00000000000E+00 -0.00000000000E+00 -0.45593999997E+02  0.45594000000E+02  0.51100000000E-03 0.  1.
    9900012    2    1    2    0    0  0.87745519374E+01 -0.47278508283E+01 -0.30288211250E+02  0.59301936024E+02  0.49999985404E+02 0.  0.
         12    1    1    2    0    0 -0.87745519374E+01  0.47278508283E+01  0.30288211250E+02  0.31886063976E+02  0.00000000000E+00 0. -1.
         11    1    3    3    0    0  0.94722139616E+01 -0.56494550051E+00  0.50901873967E+01  0.10768101446E+02  0.51100000000E-03 0. -1.
        -11    1    3    3    0    0  0.11768576393E+02  0.78562909310E+01 -0.23846827694E+02  0.27728899885E+02  0.51100000000E-03 0.  1.
         12    1    3    3    0    0 -0.12466238417E+02 -0.12019196259E+02 -0.11531570953E+02  0.20804934694E+02  0.00000000000E+00 0. -1.
</event>
<event>
 7    1  0.1284645E-011  0.5930177E+02  0.7816164E-02  0.1266605E+00
        -11   -1    0    0    0    0  0.00000000000E+00  0.00000000000E+00  0.45593999997E+02  0.45594000000E+02  0.51100000000E-03 0.  1.
         11   -1    0    0    0    0 -0.00000000000E+00 -0.00000000000E+00 -0.45593999997E+02  0.45594000000E+02  0.51100000000E-03 0. -1.
    9900012    2    1    2    0    0 -0.15261659087E+02  0.94179444932E-01  0.27996509532E+02  0.59301770153E+02  0.49999682894E+02 0.  0.
         12    1    1    2    0    0  0.15261659087E+02 -0.94179444932E-01 -0.27996509532E+02  0.31886229847E+02  0.00000000000E+00 0. -1.
         11    1    3    3    0    0 -0.16616795469E+02  0.58761002244E+01 -0.52907606763E+01  0.18402135590E+02  0.51100000000E-03 0. -1.
        -11    1    3    3    0    0 -0.12821622873E+01 -0.39170525259E+01 -0.25961970720E+01  0.48710861335E+01  0.51100000000E-03 0.  1.
        -12    1    3    3    0    0  0.26372986694E+01 -0.18648682535E+01  0.35883467280E+02  0.36028548430E+02  0.00000000000E+00 0.  1.
</event>
<event>
 7    1  0.1284645E-011  0.5930198E+02  0.7816164E-02  0.1266605E+00
        -11   -1    0    0    0    0  0.00000000000E+00  0.00000000000E+00  0.45593999997E+02  0.45594000000E+02  0.51100000000E-03 0. -1.
         11   -1    0    0    0    0 -0.00000000000E+00 -0.00000000000E+00 -0.45593999997E+02  0.45594000000E+02  0.51100000000E-03 0.  1.
    9900012    2    1    2    0    0  0.19444490533E+02 -0.87242433890E+01 -0.23717451869E+02  0.59301981779E+02  0.50000068850E+02 0.  0.
         12    1    1    2    0    0 -0.19444490533E+02  0.87242433890E+01  0.23717451869E+02  0.31886018221E+02  0.00000000000E+00 0. -1.
         11    1    3    3    0    0 -0.72832038948E+01 -0.64078763669E+01  0.26805506931E+01  0.10064357445E+02  0.51100000000E-03 0. -1.
        -11    1    3    3    0    0  0.76554468648E+01  0.12767177053E+02 -0.24090251343E+01  0.15080121981E+02  0.51100000000E-03 0.  1.
         12    1    3    3    0    0  0.19072247563E+02 -0.15083544075E+02 -0.23988977428E+02  0.34157502353E+02  0.00000000000E+00 0. -1.
</event>
<event>
 7    1  0.1284645E-011  0.5930178E+02  0.7816164E-02  0.1266605E+00
        -11   -1    0    0    0    0  0.00000000000E+00  0.00000000000E+00  0.45593999997E+02  0.45594000000E+02  0.51100000000E-03 0.  1.
         11   -1    0    0    0    0 -0.00000000000E+00 -0.00000000000E+00 -0.45593999997E+02  0.45594000000E+02  0.51100000000E-03 0. -1.
    9900012    2    1    2    0    0  0.21975608299E+02  0.14062782664E+02  0.18331440067E+02  0.59301781797E+02  0.49999704130E+02 0.  0.
         12    1    1    2    0    0 -0.21975608299E+02 -0.14062782664E+02 -0.18331440067E+02  0.31886218203E+02  0.00000000000E+00 0. -1.
         11    1    3    3    0    0  0.60991772789E+01  0.58463454094E+01 -0.87063726137E+01  0.12131802936E+02  0.51100000000E-03 0. -1.
        -11    1    3    3    0    0  0.92941909677E+00  0.17171265773E+02  0.29606290997E+01  0.17449398644E+02  0.51100000000E-03 0.  1.
         12    1    3    3    0    0  0.14947011923E+02 -0.89548285191E+01  0.24077183581E+02  0.29720580217E+02  0.00000000000E+00 0. -1.
</event>
<event>
 7    1  0.1284645E-011  0.5930195E+02  0.7816164E-02  0.1266605E+00
        -11   -1    0    0    0    0  0.00000000000E+00  0.00000000000E+00  0.45593999997E+02  0.45594000000E+02  0.51100000000E-03 0.  1.
         11   -1    0    0    0    0 -0.00000000000E+00 -0.00000000000E+00 -0.45593999997E+02  0.45594000000E+02  0.51100000000E-03 0. -1.
    9900012    2    1    2    0    0 -0.28689686790E+02  0.29659899975E+01  0.13595043918E+02  0.59301945934E+02  0.50000003476E+02 0.  0.
         12    1    1    2    0    0  0.28689686790E+02 -0.29659899975E+01 -0.13595043918E+02  0.31886054066E+02  0.00000000000E+00 0. -1.
         11    1    3    3    0    0 -0.16249753618E+02  0.94191694413E+01  0.21946895052E+00  0.18783594238E+02  0.51100000000E-03 0. -1.
        -11    1    3    3    0    0  0.27980963508E+00  0.13783160715E+02  0.16164621170E+01  0.13880445338E+02  0.51100000000E-03 0.  1.
        -12    1    3    3    0    0 -0.12719742807E+02 -0.20236340159E+02  0.11759112850E+02  0.26637906358E+02  0.00000000000E+00 0.  1.
</event>
<event>
 7    1  0.1284645E-011  0.5930193E+02  0.7816164E-02  0.1266605E+00
        -11   -1    0    0    0    0  0.00000000000E+00  0.00000000000E+00  0.45593999997E+02  0.45594000000E+02  0.51100000000E-03 0.  1.
         11   -1    0    0    0    0 -0.00000000000E+00 -0.00000000000E+00 -0.45593999997E+02  0.45594000000E+02  0.51100000000E-03 0. -1.
    9900012    2    1    2    0    0 -0.21834555052E+02  0.47035273781E+01  0.22756335432E+02  0.59301925196E+02  0.49999965655E+02 0.  0.
         12    1    1    2    0    0  0.21834555052E+02 -0.47035273781E+01 -0.22756335432E+02  0.31886074804E+02  0.00000000000E+00 0. -1.
         11    1    3    3    0    0 -0.68881293116E+01 -0.59814417331E+01  0.72713326790E+01  0.11666029736E+02  0.51100000000E-03 0. -1.
        -11    1    3    3    0    0 -0.22974498393E+02  0.91491300038E+01  0.24950846499E+02  0.35129459112E+02  0.51100000000E-03 0.  1.
        -12    1    3    3    0    0  0.80280726523E+01  0.15358391074E+01 -0.94658437462E+01  0.12506436347E+02  0.00000000000E+00 0.  1.
</event>
<event>
 7    1  0.1284645E-011  0.5930189E+02  0.7816164E-02  0.1266605E+00
        -11   -1    0    0    0    0  0.00000000000E+00  0.00000000000E+00  0.45593999997E+02  0.45594000000E+02  0.51100000000E-03 0.  1.
         11   -1    0    0    0    0 -0.00000000000E+00 -0.00000000000E+00 -0.45593999997E+02  0.45594000000E+02  0.51100000000E-03 0. -1.
    9900012    2    1    2    0    0 -0.22904580317E+02 -0.21830935619E+02  0.39388489550E+01  0.59301888908E+02  0.49999899475E+02 0.  0.
         12    1    1    2    0    0  0.22904580317E+02  0.21830935619E+02 -0.39388489550E+01  0.31886111092E+02  0.00000000000E+00 0. -1.
         11    1    3    3    0    0 -0.45514402223E+01  0.25678465285E+01  0.98301187926E+01  0.11132864844E+02  0.51100000000E-03 0. -1.
        -11    1    3    3    0    0  0.25697312250E+01 -0.21782680019E+01  0.12222203823E+02  0.12677958693E+02  0.51100000000E-03 0.  1.
         12    1    3    3    0    0 -0.20922871320E+02 -0.22220514145E+02 -0.18113473661E+02  0.35491065371E+02  0.00000000000E+00 0. -1.
</event>
<event>
 7    1  0.1284645E-011  0.5930196E+02  0.7816164E-02  0.1266605E+00
        -11   -1    0    0    0    0  0.00000000000E+00  0.00000000000E+00  0.45593999997E+02  0.45594000000E+02  0.51100000000E-03 0. -1.
         11   -1    0    0    0    0 -0.00000000000E+00 -0.00000000000E+00 -0.45593999997E+02  0.45594000000E+02  0.51100000000E-03 0.  1.
    9900012    2    1    2    0    0 -0.96099104727E+01  0.20445465816E+01 -0.30334617950E+02  0.59301959226E+02  0.50000027719E+02 0.  0.
         12    1    1    2    0    0  0.96099104727E+01 -0.20445465816E+01  0.30334617950E+02  0.31886040774E+02  0.00000000000E+00 0. -1.
         11    1    3    3    0    0 -0.11739083211E+01 -0.11333482209E+02 -0.64229439779E+01  0.13079758764E+02  0.51100000000E-03 0. -1.
        -11    1    3    3    0    0  0.92793445848E+01  0.14403634633E+02 -0.22693683543E+02  0.28435439149E+02  0.51100000000E-03 0.  1.
         12    1    3    3    0    0 -0.17715346736E+02 -0.10256058428E+01 -0.12179904295E+01  0.17786761313E+02  0.00000000000E+00 0. -1.
</event>
<event>
 7    1  0.1284645E-011  0.5930193E+02  0.7816164E-02  0.1266605E+00
        -11   -1    0    0    0    0  0.00000000000E+00  0.00000000000E+00  0.45593999997E+02  0.45594000000E+02  0.51100000000E-03 0.  1.
         11   -1    0    0    0    0 -0.00000000000E+00 -0.00000000000E+00 -0.45593999997E+02  0.45594000000E+02  0.51100000000E-03 0. -1.
    9900012    2    1    2    0    0  0.93783267460E+01  0.23023657154E+01  0.30388614053E+02  0.59301925226E+02  0.49999965710E+02 0.  0.
         12    1    1    2    0    0 -0.93783267460E+01 -0.23023657154E+01 -0.30388614053E+02  0.31886074774E+02  0.00000000000E+00 0. -1.
         11    1    3    3    0    0  0.16449632349E+01 -0.13378504426E+02  0.19858750761E+02  0.24001255524E+02  0.51100000000E-03 0. -1.
        -11    1    3    3    0    0  0.11470006621E+01 -0.28476616394E+01  0.14852801587E+02  0.15166756495E+02  0.51100000000E-03 0.  1.
        -12    1    3    3    0    0  0.65863628489E+01  0.18528531781E+02 -0.43229382941E+01  0.20133913207E+02  0.00000000000E+00 0.  1.
</event>
<event>
 7    1  0.1284645E-011  0.5930196E+02  0.7816164E-02  0.1266605E+00
        -11   -1    0    0    0    0  0.00000000000E+00  0.00000000000E+00  0.45593999997E+02  0.45594000000E+02  0.51100000000E-03 0.  1.
         11   -1    0    0    0    0 -0.00000000000E+00 -0.00000000000E+00 -0.45593999997E+02  0.45594000000E+02  0.51100000000E-03 0. -1.
    9900012    2    1    2    0    0  0.98490478769E+01 -0.18885216285E+02  0.23728979450E+02  0.59301959105E+02  0.50000027497E+02 0.  0.
         12    1    1    2    0    0 -0.98490478769E+01  0.18885216285E+02 -0.23728979450E+02  0.31886040895E+02  0.00000000000E+00 0. -1.
         11    1    3    3    0    0 -0.13663067340E+01  0.69702396860E+01 -0.17289034107E+01  0.73102765088E+01  0.51100000000E-03 0. -1.
        -11    1    3    3    0    0 -0.12033400894E+02 -0.10079903798E+02  0.29051361411E+01  0.15963928524E+02  0.51100000000E-03 0.  1.
        -12    1    3    3    0    0  0.23248755505E+02 -0.15775552173E+02  0.22552746720E+02  0.36027754072E+02  0.00000000000E+00 0.  1.
</event>
<event>
 7    1  0.1284645E-011  0.5930192E+02  0.7816164E-02  0.1266605E+00
        -11   -1    0    0    0    0  0.00000000000E+00  0.00000000000E+00  0.45593999997E+02  0.45594000000E+02  0.51100000000E-03 0.  1.
         11   -1    0    0    0    0 -0.00000000000E+00 -0.00000000000E+00 -0.45593999997E+02  0.45594000000E+02  0.51100000000E-03 0. -1.
    9900012    2    1    2    0    0 -0.16611107756E+01 -0.27285951946E+02  0.16414619886E+02  0.59301918262E+02  0.49999953010E+02 0.  0.
         12    1    1    2    0    0  0.16611107756E+01  0.27285951946E+02 -0.16414619886E+02  0.31886081738E+02  0.00000000000E+00 0. -1.
         11    1    3    3    0    0  0.12324915706E+02 -0.11985999945E+01  0.32319732968E+01  0.12797884230E+02  0.51100000000E-03 0. -1.
        -11    1    3    3    0    0  0.88072854855E+01 -0.49359960656E+01  0.11586091305E+02  0.15367818543E+02  0.51100000000E-03 0.  1.
        -12    1    3    3    0    0 -0.22793311967E+02 -0.21151355886E+02  0.15965552847E+01  0.31136215489E+02  0.00000000000E+00 0.  1.
</event>
<event>
 7    1  0.1284645E-011  0.5930194E+02  0.7816164E-02  0.1266605E+00
        -11   -1    0    0    0    0  0.00000000000E+00  0.00000000000E+00  0.45593999997E+02  0.45594000000E+02  0.51100000000E-03 0. -1.
         11   -1    0    0    0    0 -0.00000000000E+00 -0.00000000000E+00 -0.45593999997E+02  0.45594000000E+02  0.51100000000E-03 0.  1.
    9900012    2    1    2    0    0  0.42177126590E+00  0.31350894269E+02  0.58021259772E+01  0.59301935202E+02  0.49999983904E+02 0.  0.
         12    1    1    2    0    0 -0.42177126590E+00 -0.31350894269E+02 -0.58021259772E+01  0.31886064798E+02  0.00000000000E+00 0. -1.
         11    1    3    3    0    0  0.26447591146E+01 -0.11014917995E+01  0.31240176543E+01  0.42388113338E+01  0.51100000000E-03 0. -1.
        -11    1    3    3    0    0  0.18267714918E+02  0.96470214602E+01  0.10849451840E+02  0.23334203155E+02  0.51100000000E-03 0.  1.
         12    1    3    3    0    0 -0.20490702766E+02  0.22805364608E+02 -0.81713435172E+01  0.31728920713E+02  0.00000000000E+00 0. -1.
</event>
<event>
 7    1  0.1284645E-011  0.5930172E+02  0.7816164E-02  0.1266606E+00
        -11   -1    0    0    0    0  0.00000000000E+00  0.00000000000E+00  0.45593999997E+02  0.45594000000E+02  0.51100000000E-03 0. -1.
         11   -1    0    0    0    0 -0.00000000000E+00 -0.00000000000E+00 -0.45593999997E+02  0.45594000000E+02  0.51100000000E-03 0.  1.
    9900012    2    1    2    0    0 -0.26895084088E+02  0.10751062199E+02  0.13334312402E+02  0.59301721231E+02  0.49999593670E+02 0.  0.
         12    1    1    2    0    0  0.26895084088E+02 -0.10751062199E+02 -0.13334312402E+02  0.31886278769E+02  0.00000000000E+00 0. -1.
         11    1    3    3    0    0  0.35216297508E+01  0.91414402464E+01  0.15072165970E+02  0.17976039418E+02  0.51100000000E-03 0.  1.
        -11    1    3    3    0    0 -0.23099059457E+02 -0.75606033143E+01  0.85064176790E+01  0.25750503146E+02  0.51100000000E-03 0. -1.
         12    1    3    3    0    0 -0.73176543817E+01  0.91702252672E+01 -0.10244271247E+02  0.15575178666E+02  0.00000000000E+00 0. -1.
</event>
